                         Program Version 5.0.0 -  RELEASE  -
|  1> !wB97X-D3 RIJCOSX def2-SVPD def2/J TightSCF CPCM(Water)
|  2> *xyz 1 1
|  3> C          5.55821       -1.99291       -6.21505
|  4> C          4.18188       -2.58967       -6.29891
|  5> N          3.14587       -1.76843       -6.48675
|  6> N          4.01910       -3.86431       -6.22743
|  7> H          4.76849       -4.59115       -5.99077
|  8> H          3.12241       -4.33339       -6.31462
|  9> H          3.28164       -0.77779       -6.56655
| 10> H          2.21255       -2.13419       -6.56225
| 11> H          5.49055       -0.92791       -6.29315
| 12> H          6.16046       -2.37160       -7.01429
| 13> H          6.00378       -2.25423       -5.27799
| 14> *
| 15>
| 16> %MaxCore 64000
| 17>
| 18> %pal nprocs 8
| 19> end
| 20>
| 21> %scf
| 22>   MaxIter 150
| 23> end
| 24>
| 25>
| 26>                          ****END OF INPUT****

CARTESIAN COORDINATES (ANGSTROEM)
---------------------------------
  C      5.558210   -1.992910   -6.215050
  C      4.181880   -2.589670   -6.298910
  N      3.145870   -1.768430   -6.486750
  N      4.019100   -3.864310   -6.227430
  H      4.768490   -4.591150   -5.990770
  H      3.122410   -4.333390   -6.314620
  H      3.281640   -0.777790   -6.566550
  H      2.212550   -2.134190   -6.562250
  H      5.490550   -0.927910   -6.293150
  H      6.160460   -2.371600   -7.014290
  H      6.003780   -2.254230   -5.277990

 Total Charge           Charge          ....    1
 Multiplicity           Mult            ....    1
 Number of Electrons    NEL             ....   32
 Basis Dimension        Dim             ....  136

ORBITAL ENERGIES
----------------

  NO   OCC          E(Eh)            E(eV)
   0   2.0000     -14.503524      -394.6609
   1   2.0000     -14.494555      -394.4169
   2   2.0000     -10.440304      -284.0951
   3   2.0000     -10.310394      -280.5601
   4   2.0000      -1.130872       -30.7726
   5   2.0000      -1.029068       -28.0024
   6   2.0000      -0.882389       -24.0110
   7   2.0000      -0.765157       -20.8210
   8   2.0000      -0.696178       -18.9440
   9   2.0000      -0.679599       -18.4928
  10   2.0000      -0.609478       -16.5847
  11   2.0000      -0.582629       -15.8541
  12   2.0000      -0.528850       -14.3908
  13   2.0000      -0.520408       -14.1610
  14   2.0000      -0.494260       -13.4495
  15   2.0000      -0.403641       -10.9836
  16   0.0000       0.052976         1.4416
  17   0.0000       0.089009         2.4220
  18   0.0000       0.128732         3.5030
  19   0.0000       0.134701         3.6654
  20   0.0000       0.153820         4.1856

MULLIKEN ATOMIC CHARGES
-----------------------
   0 C :    0.432455
   1 C :    0.379146
   2 N :   -0.081827
   3 N :   -0.008294
   4 H :    0.134418
   5 H :   -0.081357
   6 H :    0.073071
   7 H :   -0.056241
   8 H :    0.083079
   9 H :    0.055168
  10 H :    0.070384
Sum of atomic charges:    1.0000000

LOEWDIN ATOMIC CHARGES
----------------------
   0 C :    0.221927
   1 C :   -0.063308
   2 N :    0.280595
   3 N :    0.253524
   4 H :    0.118942
   5 H :    0.058793
   6 H :    0.043737
   7 H :    0.047779
   8 H :    0.003832
   9 H :    0.017481
  10 H :    0.016698

  Mayer bond orders larger than 0.100000
B(  0-C ,  1-C ) :   1.2847 B(  0-C ,  8-H ) :   0.8106 B(  0-C ,  9-H ) :   0.8069
B(  0-C , 10-H ) :   0.7880 B(  1-C ,  2-N ) :   0.9447 B(  1-C ,  3-N ) :   1.1466
B(  1-C ,  5-H ) :  -0.1819 B(  1-C ,  7-H ) :  -0.2116 B(  1-C ,  8-H ) :   0.2118
B(  1-C ,  9-H ) :   0.1549 B(  1-C , 10-H ) :   0.1647 B(  2-N ,  3-N ) :   0.1454
B(  2-N ,  6-H ) :   1.0881 B(  2-N ,  7-H ) :   1.3186 B(  3-N ,  4-H ) :   1.1058
B(  3-N ,  5-H ) :   1.2514 B(  4-H ,  5-H ) :  -0.1496 B(  6-H ,  7-H ) :  -0.1775
B(  8-H , 10-H ) :   0.1109

Dispersion correction           -0.001690608
FINAL SINGLE POINT ENERGY      -189.638277705499

DIPOLE MOMENT
-------------
                                X             Y             Z
Electronic contribution:     -2.08474      -1.01378      -0.11619
Nuclear contribution   :      1.48163       0.51565       0.12876
                        -----------------------------------------
Total Dipole Moment    :     -0.60311      -0.49813       0.01256
                        -----------------------------------------
Magnitude (a.u.)       :      0.78232
Magnitude (Debye)      :      1.98851

Rotational constants in cm-1:     0.329497     0.300036     0.161709
Rotational constants in MHz :  9878.065920  8994.849253  4847.907140

                             ****ORCA TERMINATED NORMALLY****
TOTAL RUN TIME: 0 days 0 hours 0 minutes 11 seconds 668 msec
