                         Program Version 5.0.0 -  RELEASE  -
|  1> !wB97X-D3 RIJCOSX def2-SVPD def2/J TightSCF CPCM(Water)
|  2> *xyz 0 1
|  3> C          3.84189       -6.95161       -3.63283
|  4> S          4.31812       -6.91593       -5.36869
|  5> F          5.40615       -5.89948       -5.51297
|  6> O          3.11191       -6.44508       -6.04379
|  7> O          4.76340       -8.23942       -5.69863
|  8> H          3.06224       -7.67071       -3.49159
|  9> H          3.49217       -5.98401       -3.33897
| 10> H          4.68822       -7.22131       -3.03626
| 11> *
| 12>
| 13> %MaxCore 64000
| 14>
| 15> %pal nprocs 8
| 16> end
| 17>
| 18> %scf
| 19>   MaxIter 150
| 20> end
| 21>
| 22>
| 23>                          ****END OF INPUT****

CARTESIAN COORDINATES (ANGSTROEM)
---------------------------------
  C      3.841890   -6.951610   -3.632830
  S      4.318120   -6.915930   -5.368690
  F      5.406150   -5.899480   -5.512970
  O      3.111910   -6.445080   -6.043790
  O      4.763400   -8.239420   -5.698630
  H      3.062240   -7.670710   -3.491590
  H      3.492170   -5.984010   -3.338970
  H      4.688220   -7.221310   -3.036260

 Total Charge           Charge          ....    0
 Multiplicity           Mult            ....    1
 Number of Electrons    NEL             ....   50
 Basis Dimension        Dim             ....  140

ORBITAL ENERGIES
----------------

  NO   OCC          E(Eh)            E(eV)
   0   2.0000     -89.242534     -2428.4128
   1   2.0000     -24.899043      -677.5374
   2   2.0000     -19.274110      -524.4752
   3   2.0000     -19.264630      -524.2172
   4   2.0000     -10.332079      -281.1502
   5   2.0000      -8.316422      -226.3013
   6   2.0000      -6.279869      -170.8839
   7   2.0000      -6.274181      -170.7291
   8   2.0000      -6.272436      -170.6817
   9   2.0000      -1.452676       -39.5293
  10   2.0000      -1.242415       -33.8078
  11   2.0000      -1.145719       -31.1766
  12   2.0000      -0.900739       -24.5103
  13   2.0000      -0.806414       -21.9436
  14   2.0000      -0.688266       -18.7287
  15   2.0000      -0.669149       -18.2085
  16   2.0000      -0.663452       -18.0534
  17   2.0000      -0.580821       -15.8049
  18   2.0000      -0.576076       -15.6758
  19   2.0000      -0.551423       -15.0050
  20   2.0000      -0.540858       -14.7175
  21   2.0000      -0.499064       -13.5802
  22   2.0000      -0.450818       -12.2674
  23   2.0000      -0.437373       -11.9015
  24   2.0000      -0.428681       -11.6650
  25   0.0000       0.067657         1.8410
  26   0.0000       0.099184         2.6989
  27   0.0000       0.099861         2.7174
  28   0.0000       0.102023         2.7762
  29   0.0000       0.113310         3.0833

MULLIKEN ATOMIC CHARGES
-----------------------
   0 C :    0.278207
   1 S :    1.290274
   2 F :   -0.393253
   3 O :   -0.703699
   4 O :   -0.667888
   5 H :    0.071759
   6 H :    0.068062
   7 H :    0.056539
Sum of atomic charges:   -0.0000000

LOEWDIN ATOMIC CHARGES
----------------------
   0 C :    0.143428
   1 S :    1.121260
   2 F :   -0.267869
   3 O :   -0.516913
   4 O :   -0.494506
   5 H :    0.011441
   6 H :    0.002204
   7 H :    0.000955

  Mayer bond orders larger than 0.100000
B(  0-C ,  1-S ) :   1.0149 B(  0-C ,  5-H ) :   0.9177 B(  0-C ,  6-H ) :   0.9287
B(  0-C ,  7-H ) :   0.9345 B(  1-S ,  2-F ) :   0.6566 B(  1-S ,  3-O ) :   1.4988
B(  1-S ,  4-O ) :   1.5253

Dispersion correction           -0.001526478
FINAL SINGLE POINT ENERGY      -687.927833613584

DIPOLE MOMENT
-------------
                                X             Y             Z
Electronic contribution:      2.99109       1.74257      -3.85221
Nuclear contribution   :     -2.64549      -1.17311       5.81218
                        -----------------------------------------
Total Dipole Moment    :      0.34560       0.56946       1.95998
                        -----------------------------------------
Magnitude (a.u.)       :      2.07008
Magnitude (Debye)      :      5.26173

Rotational constants in cm-1:     0.165958     0.149400     0.146699
Rotational constants in MHz :  4975.281722  4478.884828  4397.931002

                             ****ORCA TERMINATED NORMALLY****
TOTAL RUN TIME: 0 days 0 hours 0 minutes 10 seconds 744 msec
