                         Program Version 5.0.0 -  RELEASE  -
|  1> !wB97X-D3 RIJCOSX def2-SVPD def2/J TightSCF CPCM(Water)
|  2> *xyz 0 1
|  3> C          5.55821       -1.99291       -6.21505
|  4> C          4.18188       -2.58967       -6.29891
|  5> C          3.14587       -1.76843       -6.48675
|  6> N          4.01910       -3.86431       -6.22743
|  7> H          4.76849       -4.59115       -5.99077
|  8> H          3.12241       -4.33339       -6.31462
|  9> H          3.28164       -0.77779       -6.56655
| 10> H          2.21255       -2.13419       -6.56225
| 11> H          5.49055       -0.92791       -6.29315
| 12> H          6.16046       -2.37160       -7.01429
| 13> H          6.00378       -2.25423       -5.27799
| 14> *
| 15>
| 16> %MaxCore 64000
| 17>
| 18> %pal nprocs 8
| 19> end
| 20>
| 21> %scf
| 22>   MaxIter 150
| 23> end
| 24>
| 25>
| 26>                          ****END OF INPUT****

CARTESIAN COORDINATES (ANGSTROEM)
---------------------------------
  C      5.558210   -1.992910   -6.215050
  C      4.181880   -2.589670   -6.298910
  C      3.145870   -1.768430   -6.486750
  N      4.019100   -3.864310   -6.227430
  H      4.768490   -4.591150   -5.990770
  H      3.122410   -4.333390   -6.314620
  H      3.281640   -0.777790   -6.566550
  H      2.212550   -2.134190   -6.562250
  H      5.490550   -0.927910   -6.293150
  H      6.160460   -2.371600   -7.014290
  H      6.003780   -2.254230   -5.277990

 Total Charge           Charge          ....    0
 Multiplicity           Mult            ....    1
 Number of Electrons    NEL             ....   32
 Basis Dimension        Dim             ....  136

ORBITAL ENERGIES
----------------

  NO   OCC          E(Eh)            E(eV)
   0   2.0000     -14.438637      -392.8953
   1   2.0000     -10.320563      -280.8368
   2   2.0000     -10.275488      -279.6102
   3   2.0000     -10.221299      -278.1357
   4   2.0000      -1.039501       -28.2863
   5   2.0000      -0.863075       -23.4855
   6   2.0000      -0.793759       -21.5993
   7   2.0000      -0.685992       -18.6668
   8   2.0000      -0.608219       -16.5505
   9   2.0000      -0.577259       -15.7080
  10   2.0000      -0.532264       -14.4836
  11   2.0000      -0.495432       -13.4814
  12   2.0000      -0.485364       -13.2074
  13   2.0000      -0.445382       -12.1195
  14   2.0000      -0.436013       -11.8645
  15   2.0000      -0.279396        -7.6027
  16   0.0000       0.096879         2.6362
  17   0.0000       0.123352         3.3566
  18   0.0000       0.131592         3.5808
  19   0.0000       0.136011         3.7011
  20   0.0000       0.167645         4.5619

MULLIKEN ATOMIC CHARGES
-----------------------
   0 C :    0.696782
   1 C :   -0.572383
   2 C :    0.507339
   3 N :    0.122711
   4 H :   -0.008362
   5 H :   -0.149549
   6 H :   -0.209160
   7 H :   -0.432005
   8 H :    0.055922
   9 H :   -0.010539
  10 H :   -0.000756
Sum of atomic charges:   -0.0000000

LOEWDIN ATOMIC CHARGES
----------------------
   0 C :    0.163051
   1 C :   -0.310409
   2 C :    0.143001
   3 N :    0.140807
   4 H :    0.071386
   5 H :    0.021810
   6 H :   -0.103865
   7 H :   -0.098747
   8 H :   -0.013428
   9 H :   -0.006437
  10 H :   -0.007168

  Mayer bond orders larger than 0.100000
B(  0-C ,  1-C ) :   1.3377 B(  0-C ,  8-H ) :   0.8119 B(  0-C ,  9-H ) :   0.7173
B(  0-C , 10-H ) :   0.7035 B(  1-C ,  2-C ) :   1.7345 B(  1-C ,  3-N ) :   1.2325
B(  1-C ,  7-H ) :   0.1543 B(  1-C ,  8-H ) :   0.1915 B(  1-C ,  9-H ) :   0.2575
B(  1-C , 10-H ) :   0.2594 B(  2-C ,  3-N ) :   0.2074 B(  2-C ,  6-H ) :   0.9867
B(  2-C ,  7-H ) :   0.7905 B(  3-N ,  4-H ) :   1.1802 B(  3-N ,  5-H ) :   1.2090
B(  4-H ,  5-H ) :  -0.1324 B(  8-H ,  9-H ) :   0.1051 B(  8-H , 10-H ) :   0.1075

Dispersion correction           -0.001701739
FINAL SINGLE POINT ENERGY      -173.086819324014

DIPOLE MOMENT
-------------
                                X             Y             Z
Electronic contribution:     -0.70400      -1.79246       0.09674
Nuclear contribution   :      1.24351       0.69391       0.08872
                        -----------------------------------------
Total Dipole Moment    :      0.53951      -1.09855       0.18545
                        -----------------------------------------
Magnitude (a.u.)       :      1.23786
Magnitude (Debye)      :      3.14638

Rotational constants in cm-1:     0.350694     0.303314     0.167659
Rotational constants in MHz : 10513.535482  9093.138449  5026.287342

                             ****ORCA TERMINATED NORMALLY****
TOTAL RUN TIME: 0 days 0 hours 0 minutes 11 seconds 75 msec
