                         Program Version 5.0.0 -  RELEASE  -
|  1> !wB97X-D3 RIJCOSX def2-SVPD def2/J TightSCF CPCM(Water)
|  2> *xyz 0 1
|  3> C          3.84189       -6.95161       -3.63283
|  4> S          4.31812       -6.91593       -5.36869
|  5> O          5.40615       -5.89948       -5.51297
|  6> F          3.11191       -6.44508       -6.04379
|  7> O          4.76340       -8.23942       -5.69863
|  8> H          3.06224       -7.67071       -3.49159
|  9> H          3.49217       -5.98401       -3.33897
| 10> H          4.68822       -7.22131       -3.03626
| 11> *
| 12>
| 13> %MaxCore 64000
| 14>
| 15> %pal nprocs 8
| 16> end
| 17>
| 18> %scf
| 19>   MaxIter 150
| 20> end
| 21>
| 22>
| 23>                          ****END OF INPUT****

CARTESIAN COORDINATES (ANGSTROEM)
---------------------------------
  C      3.841890   -6.951610   -3.632830
  S      4.318120   -6.915930   -5.368690
  O      5.406150   -5.899480   -5.512970
  F      3.111910   -6.445080   -6.043790
  O      4.763400   -8.239420   -5.698630
  H      3.062240   -7.670710   -3.491590
  H      3.492170   -5.984010   -3.338970
  H      4.688220   -7.221310   -3.036260

 Total Charge           Charge          ....    0
 Multiplicity           Mult            ....    1
 Number of Electrons    NEL             ....   50
 Basis Dimension        Dim             ....  140

ORBITAL ENERGIES
----------------

  NO   OCC          E(Eh)            E(eV)
   0   2.0000     -89.244938     -2428.4782
   1   2.0000     -24.911176      -677.8676
   2   2.0000     -19.274142      -524.4761
   3   2.0000     -19.259597      -524.0803
   4   2.0000     -10.332611      -281.1646
   5   2.0000      -8.318802      -226.3661
   6   2.0000      -6.282438      -170.9538
   7   2.0000      -6.276544      -170.7935
   8   2.0000      -6.274572      -170.7398
   9   2.0000      -1.478057       -40.2200
  10   2.0000      -1.237073       -33.6625
  11   2.0000      -1.128674       -30.7128
  12   2.0000      -0.905613       -24.6430
  13   2.0000      -0.816120       -22.2078
  14   2.0000      -0.697910       -18.9911
  15   2.0000      -0.685823       -18.6622
  16   2.0000      -0.666946       -18.1485
  17   2.0000      -0.582218       -15.8430
  18   2.0000      -0.574052       -15.6207
  19   2.0000      -0.549357       -14.9488
  20   2.0000      -0.538388       -14.6503
  21   2.0000      -0.497703       -13.5432
  22   2.0000      -0.447543       -12.1783
  23   2.0000      -0.434262       -11.8169
  24   2.0000      -0.418552       -11.3894
  25   0.0000       0.068372         1.8605
  26   0.0000       0.099450         2.7062
  27   0.0000       0.099836         2.7167
  28   0.0000       0.102511         2.7895
  29   0.0000       0.125363         3.4113

MULLIKEN ATOMIC CHARGES
-----------------------
   0 C :    0.272025
   1 S :    1.288442
   2 O :   -0.730531
   3 F :   -0.373213
   4 O :   -0.659638
   5 H :    0.078424
   6 H :    0.069710
   7 H :    0.054781
Sum of atomic charges:   -0.0000000

LOEWDIN ATOMIC CHARGES
----------------------
   0 C :    0.143962
   1 S :    1.123093
   2 O :   -0.533340
   3 F :   -0.254932
   4 O :   -0.495129
   5 H :    0.003813
   6 H :    0.002665
   7 H :    0.009868

  Mayer bond orders larger than 0.100000
B(  0-C ,  1-S ) :   1.0154 B(  0-C ,  5-H ) :   0.9225 B(  0-C ,  6-H ) :   0.9279
B(  0-C ,  7-H ) :   0.9304 B(  1-S ,  2-O ) :   1.4572 B(  1-S ,  3-F ) :   0.7055
B(  1-S ,  4-O ) :   1.5296 B(  1-S ,  7-H ) :   0.1034

Dispersion correction           -0.001533927
FINAL SINGLE POINT ENERGY      -687.918793895326

DIPOLE MOMENT
-------------
                                X             Y             Z
Electronic contribution:     -1.35102       0.69592      -4.86144
Nuclear contribution   :     -0.35339      -0.62802       6.34251
                        -----------------------------------------
Total Dipole Moment    :     -1.70442       0.06790       1.48106
                        -----------------------------------------
Magnitude (a.u.)       :      2.25902
Magnitude (Debye)      :      5.74198

Rotational constants in cm-1:     0.162638     0.154373     0.145390
Rotational constants in MHz :  4875.774584  4627.990015  4358.691210

                             ****ORCA TERMINATED NORMALLY****
TOTAL RUN TIME: 0 days 0 hours 0 minutes 10 seconds 937 msec
