                         Program Version 5.0.0 -  RELEASE  -
|  1> !wB97X-D3 RIJCOSX def2-SVPD def2/J TightSCF CPCM(Water)
|  2> *xyz 0 1
|  3> C          5.55821       -1.99291       -6.21505
|  4> C          4.18188       -2.58967       -6.29891
|  5> N          3.14587       -1.76843       -6.48675
|  6> C          4.01910       -3.86431       -6.22743
|  7> H          4.76849       -4.59115       -5.99077
|  8> H          3.12241       -4.33339       -6.31462
|  9> H          3.28164       -0.77779       -6.56655
| 10> H          2.21255       -2.13419       -6.56225
| 11> H          5.49055       -0.92791       -6.29315
| 12> H          6.16046       -2.37160       -7.01429
| 13> H          6.00378       -2.25423       -5.27799
| 14> *
| 15>
| 16> %MaxCore 64000
| 17>
| 18> %pal nprocs 8
| 19> end
| 20>
| 21> %scf
| 22>   MaxIter 150
| 23> end
| 24>
| 25>
| 26>                          ****END OF INPUT****

CARTESIAN COORDINATES (ANGSTROEM)
---------------------------------
  C      5.558210   -1.992910   -6.215050
  C      4.181880   -2.589670   -6.298910
  N      3.145870   -1.768430   -6.486750
  C      4.019100   -3.864310   -6.227430
  H      4.768490   -4.591150   -5.990770
  H      3.122410   -4.333390   -6.314620
  H      3.281640   -0.777790   -6.566550
  H      2.212550   -2.134190   -6.562250
  H      5.490550   -0.927910   -6.293150
  H      6.160460   -2.371600   -7.014290
  H      6.003780   -2.254230   -5.277990

 Total Charge           Charge          ....    0
 Multiplicity           Mult            ....    1
 Number of Electrons    NEL             ....   32
 Basis Dimension        Dim             ....  136

ORBITAL ENERGIES
----------------

  NO   OCC          E(Eh)            E(eV)
   0   2.0000     -14.430066      -392.6621
   1   2.0000     -10.316692      -280.7315
   2   2.0000     -10.275334      -279.6061
   3   2.0000     -10.227044      -278.2920
   4   2.0000      -1.030811       -28.0498
   5   2.0000      -0.866366       -23.5750
   6   2.0000      -0.798748       -21.7350
   7   2.0000      -0.670125       -18.2350
   8   2.0000      -0.622146       -16.9295
   9   2.0000      -0.580868       -15.8062
  10   2.0000      -0.529852       -14.4180
  11   2.0000      -0.493409       -13.4263
  12   2.0000      -0.486266       -13.2320
  13   2.0000      -0.441745       -12.0205
  14   2.0000      -0.432044       -11.7565
  15   2.0000      -0.285659        -7.7732
  16   0.0000       0.097800         2.6613
  17   0.0000       0.121670         3.3108
  18   0.0000       0.131340         3.5740
  19   0.0000       0.139317         3.7910
  20   0.0000       0.168546         4.5864

MULLIKEN ATOMIC CHARGES
-----------------------
   0 C :    0.665628
   1 C :   -0.218399
   2 N :    0.090198
   3 C :    0.033368
   4 H :   -0.057035
   5 H :   -0.326715
   6 H :   -0.084610
   7 H :   -0.106370
   8 H :   -0.071678
   9 H :    0.018190
  10 H :    0.057422
Sum of atomic charges:    0.0000000

LOEWDIN ATOMIC CHARGES
----------------------
   0 C :    0.164865
   1 C :   -0.299478
   2 N :    0.172634
   3 C :    0.111175
   4 H :   -0.044191
   5 H :   -0.090439
   6 H :    0.000684
   7 H :    0.011852
   8 H :   -0.018460
   9 H :   -0.004310
  10 H :   -0.004331

  Mayer bond orders larger than 0.100000
B(  0-C ,  1-C ) :   1.1352 B(  0-C ,  8-H ) :   0.7656 B(  0-C ,  9-H ) :   0.7958
B(  0-C , 10-H ) :   0.7454 B(  1-C ,  2-N ) :   1.0352 B(  1-C ,  3-C ) :   1.6555
B(  1-C ,  5-H ) :   0.1109 B(  1-C ,  7-H ) :  -0.1205 B(  1-C ,  8-H ) :   0.2524
B(  1-C ,  9-H ) :   0.1586 B(  1-C , 10-H ) :   0.1799 B(  2-N ,  3-C ) :   0.2507
B(  2-N ,  6-H ) :   1.1249 B(  2-N ,  7-H ) :   1.2640 B(  3-C ,  4-H ) :   0.9378
B(  3-C ,  5-H ) :   0.8800 B(  4-H ,  5-H ) :   0.1022 B(  6-H ,  7-H ) :  -0.1632

Dispersion correction           -0.001688502
FINAL SINGLE POINT ENERGY      -173.094628136040

DIPOLE MOMENT
-------------
                                X             Y             Z
Electronic contribution:     -1.68620       0.68707      -0.23130
Nuclear contribution   :      1.43935       0.22387       0.14687
                        -----------------------------------------
Total Dipole Moment    :     -0.24685       0.91094      -0.08443
                        -----------------------------------------
Magnitude (a.u.)       :      0.94756
Magnitude (Debye)      :      2.40851

Rotational constants in cm-1:     0.350137     0.303099     0.167465
Rotational constants in MHz : 10496.847516  9086.685989  5020.487860

                             ****ORCA TERMINATED NORMALLY****
TOTAL RUN TIME: 0 days 0 hours 0 minutes 11 seconds 191 msec
