                         Program Version 5.0.0 -  RELEASE  -
|  1> !wB97X-D3 RIJCOSX def2-SVPD def2/J TightSCF CPCM(Water)
|  2> *xyz 0 1
|  3> C          3.84189       -6.95161       -3.63283
|  4> S          4.31812       -6.91593       -5.36869
|  5> O          5.40615       -5.89948       -5.51297
|  6> O          3.11191       -6.44508       -6.04379
|  7> F          4.76340       -8.23942       -5.69863
|  8> H          3.06224       -7.67071       -3.49159
|  9> H          3.49217       -5.98401       -3.33897
| 10> H          4.68822       -7.22131       -3.03626
| 11> *
| 12>
| 13> %MaxCore 64000
| 14>
| 15> %pal nprocs 8
| 16> end
| 17>
| 18> %scf
| 19>   MaxIter 150
| 20> end
| 21>
| 22>
| 23>                          ****END OF INPUT****

CARTESIAN COORDINATES (ANGSTROEM)
---------------------------------
  C      3.841890   -6.951610   -3.632830
  S      4.318120   -6.915930   -5.368690
  O      5.406150   -5.899480   -5.512970
  O      3.111910   -6.445080   -6.043790
  F      4.763400   -8.239420   -5.698630
  H      3.062240   -7.670710   -3.491590
  H      3.492170   -5.984010   -3.338970
  H      4.688220   -7.221310   -3.036260

 Total Charge           Charge          ....    0
 Multiplicity           Mult            ....    1
 Number of Electrons    NEL             ....   50
 Basis Dimension        Dim             ....  140

ORBITAL ENERGIES
----------------

  NO   OCC          E(Eh)            E(eV)
   0   2.0000     -89.246753     -2428.5276
   1   2.0000     -24.924437      -678.2284
   2   2.0000     -19.265334      -524.2364
   3   2.0000     -19.260225      -524.0974
   4   2.0000     -10.333383      -281.1856
   5   2.0000      -8.320630      -226.4159
   6   2.0000      -6.284358      -171.0061
   7   2.0000      -6.278242      -170.8397
   8   2.0000      -6.276314      -170.7872
   9   2.0000      -1.499961       -40.8160
  10   2.0000      -1.226538       -33.3758
  11   2.0000      -1.121112       -30.5070
  12   2.0000      -0.906349       -24.6630
  13   2.0000      -0.826646       -22.4942
  14   2.0000      -0.709128       -19.2964
  15   2.0000      -0.700274       -19.0554
  16   2.0000      -0.668084       -18.1795
  17   2.0000      -0.579101       -15.7581
  18   2.0000      -0.572583       -15.5808
  19   2.0000      -0.551774       -15.0145
  20   2.0000      -0.535912       -14.5829
  21   2.0000      -0.492405       -13.3990
  22   2.0000      -0.438182       -11.9235
  23   2.0000      -0.433707       -11.8018
  24   2.0000      -0.412376       -11.2213
  25   0.0000       0.067502         1.8368
  26   0.0000       0.098942         2.6923
  27   0.0000       0.099563         2.7092
  28   0.0000       0.102335         2.7847
  29   0.0000       0.124039         3.3753

MULLIKEN ATOMIC CHARGES
-----------------------
   0 C :    0.275800
   1 S :    1.290712
   2 O :   -0.724176
   3 O :   -0.688531
   4 F :   -0.357309
   5 H :    0.078630
   6 H :    0.065855
   7 H :    0.059019
Sum of atomic charges:   -0.0000000

LOEWDIN ATOMIC CHARGES
----------------------
   0 C :    0.143847
   1 S :    1.127142
   2 O :   -0.532911
   3 O :   -0.517199
   4 F :   -0.237003
   5 H :    0.003892
   6 H :    0.010810
   7 H :    0.001421

  Mayer bond orders larger than 0.100000
B(  0-C ,  1-S ) :   1.0158 B(  0-C ,  5-H ) :   0.9206 B(  0-C ,  6-H ) :   0.9258
B(  0-C ,  7-H ) :   0.9330 B(  1-S ,  2-O ) :   1.4573 B(  1-S ,  3-O ) :   1.5043
B(  1-S ,  4-F ) :   0.7308 B(  1-S ,  6-H ) :   0.1058

Dispersion correction           -0.001530844
FINAL SINGLE POINT ENERGY      -687.907345039173

DIPOLE MOMENT
-------------
                                X             Y             Z
Electronic contribution:      1.75098      -2.65498      -4.20008
Nuclear contribution   :     -2.00334       1.16464       5.99767
                        -----------------------------------------
Total Dipole Moment    :     -0.25236      -1.49034       1.79759
                        -----------------------------------------
Magnitude (a.u.)       :      2.34864
Magnitude (Debye)      :      5.96977

Rotational constants in cm-1:     0.163678     0.154408     0.144413
Rotational constants in MHz :  4906.945035  4629.020676  4329.393152

                             ****ORCA TERMINATED NORMALLY****
TOTAL RUN TIME: 0 days 0 hours 0 minutes 10 seconds 907 msec
