                         Program Version 5.0.0 -  RELEASE  -
|  1> !wB97X-D3 RIJCOSX def2-SVPD def2/J TightSCF CPCM(Water) xyzfile
|  2>
|  3> *xyzfile 0 1 D4.xyz
|  4>
|  5> %MaxCore 64000
|  6>
|  7> %pal nprocs 18
|  8> end
|  9>
| 10> %scf
| 11>   MaxIter 150
| 12> end
| 13>
| 14>
| 15>                          ****END OF INPUT****

CARTESIAN COORDINATES (ANGSTROEM)
---------------------------------
  C      5.558206   -1.992914   -6.215054
  C      4.930199   -7.375319   -2.649623
  C      3.841892   -6.951611   -3.632829
  H      3.458144   -5.954425   -3.407121
  H      2.988484   -7.643606   -3.567078
  S      4.318115   -6.915930   -5.368692
  C      4.181880   -2.589671   -6.298911
  N      3.145873   -1.768431   -6.486753
  C      4.019102   -3.864307   -6.227427
  H      4.768490   -4.591153   -5.990773
  H      3.122405   -4.333392   -6.314620
  H      3.281635   -0.777786   -6.566549
  H      2.212549   -2.134193   -6.562246
  O      5.406154   -5.899480   -5.512972
  F      3.111910   -6.445079   -6.043792
  C      6.419260   -2.542944   -5.077630
  C      5.872267   -5.002756   -2.427819
  C      6.173994   -6.485522   -2.606315
  H      6.734852   -6.613767   -3.534015
  H      6.821463   -6.831018   -1.793617
  H      4.469612   -7.406168   -1.655876
  H      5.230134   -8.398678   -2.885906
  C      5.896512   -2.169314   -3.694552
  H      7.428880   -2.143665   -5.208078
  H      6.505894   -3.627541   -5.175502
  C      6.807804   -2.623428   -2.551019
  H      4.894708   -2.589732   -3.557501
  H      5.778823   -1.081255   -3.635790
  C      7.111544   -4.122463   -2.520363
  H      7.751615   -2.071393   -2.614406
  H      6.345837   -2.326401   -1.604086
  H      5.362882   -4.828697   -1.471335
  H      5.174429   -4.702577   -3.211298
  H      7.778329   -4.329347   -1.677651
  H      7.673189   -4.402845   -3.417586
  O      4.763396   -8.239424   -5.698629
  H      6.036826   -2.198189   -7.176852
  H      5.467610   -0.907371   -6.127968

 Total Charge           Charge          ....    0
 Multiplicity           Mult            ....    1
 Number of Electrons    NEL             ....  136
 Basis Dimension        Dim             ....  512

ORBITAL ENERGIES
----------------

  NO   OCC          E(Eh)            E(eV)
   0   2.0000     -89.243480     -2428.4386
   1   2.0000     -24.911284      -677.8705
   2   2.0000     -19.273545      -524.4598
   3   2.0000     -19.255189      -523.9603
   4   2.0000     -14.423590      -392.4858
   5   2.0000     -10.340783      -281.3870
   6   2.0000     -10.304162      -280.3905
   7   2.0000     -10.301866      -280.3280
   8   2.0000     -10.281050      -279.7616
   9   2.0000     -10.279109      -279.7088
  10   2.0000     -10.275088      -279.5994
  11   2.0000     -10.274964      -279.5960
  12   2.0000     -10.274410      -279.5809
  13   2.0000     -10.274158      -279.5741
  14   2.0000     -10.272967      -279.5416
  15   2.0000     -10.197412      -277.4857
  16   2.0000      -8.316196      -226.2952
  17   2.0000      -6.279736      -170.8803
  18   2.0000      -6.274200      -170.7297
  19   2.0000      -6.271908      -170.6673
  20   2.0000      -1.478066       -40.2202
  21   2.0000      -1.237092       -33.6630
  22   2.0000      -1.133481       -30.8436
  23   2.0000      -1.023529       -27.8516
  24   2.0000      -0.941507       -25.6197
  25   2.0000      -0.918787       -25.0015
  26   2.0000      -0.890161       -24.2225
  27   2.0000      -0.865479       -23.5509
  28   2.0000      -0.831688       -22.6314
  29   2.0000      -0.814719       -22.1696
  30   2.0000      -0.787198       -21.4208
  31   2.0000      -0.757363       -20.6089
  32   2.0000      -0.723840       -19.6967
  33   2.0000      -0.702914       -19.1273
  34   2.0000      -0.691879       -18.8270
  35   2.0000      -0.679236       -18.4830
  36   2.0000      -0.665115       -18.0987
  37   2.0000      -0.653007       -17.7692
  38   2.0000      -0.642895       -17.4941
  39   2.0000      -0.615676       -16.7534
  40   2.0000      -0.596743       -16.2382
  41   2.0000      -0.592222       -16.1152
  42   2.0000      -0.580332       -15.7916
  43   2.0000      -0.570907       -15.5352
  44   2.0000      -0.558659       -15.2019
  45   2.0000      -0.549837       -14.9618
  46   2.0000      -0.544241       -14.8095
  47   2.0000      -0.527264       -14.3476
  48   2.0000      -0.512426       -13.9438
  49   2.0000      -0.507020       -13.7967
  50   2.0000      -0.502677       -13.6785
  51   2.0000      -0.486890       -13.2490
  52   2.0000      -0.486139       -13.2285
  53   2.0000      -0.470600       -12.8057
  54   2.0000      -0.460890       -12.5415
  55   2.0000      -0.450700       -12.2642
  56   2.0000      -0.446659       -12.1542
  57   2.0000      -0.439190       -11.9510
  58   2.0000      -0.438502       -11.9323
  59   2.0000      -0.429235       -11.6801
  60   2.0000      -0.418051       -11.3757
  61   2.0000      -0.414820       -11.2878
  62   2.0000      -0.410977       -11.1833
  63   2.0000      -0.397748       -10.8233
  64   2.0000      -0.393749       -10.7145
  65   2.0000      -0.391816       -10.6619
  66   2.0000      -0.370266       -10.0755
  67   2.0000      -0.274213        -7.4617
  68   0.0000       0.072148         1.9632
  69   0.0000       0.088328         2.4035
  70   0.0000       0.095076         2.5871
  71   0.0000       0.100838         2.7439
  72   0.0000       0.105476         2.8702

MULLIKEN ATOMIC CHARGES
-----------------------
   0 C :    0.751003
   1 C :    0.400944
   2 C :   -0.199276
   3 H :    0.337004
   4 H :   -0.074126
   5 S :    1.627575
   6 C :    0.053535
   7 N :    0.081484
   8 C :    1.181336
   9 H :   -0.268954
  10 H :   -1.045892
  11 H :   -0.092565
  12 H :   -0.139444
  13 O :   -0.892773
  14 F :   -0.476487
  15 C :    0.256381
  16 C :   -0.057465
  17 C :    0.183256
  18 H :    0.071917
  19 H :   -0.279405
  20 H :    0.122835
  21 H :    0.035237
  22 C :   -0.142257
  23 H :   -0.095180
  24 H :   -0.565186
  25 C :    0.595233
  26 H :    0.180244
  27 H :   -0.299175
  28 C :    0.067247
  29 H :    0.049915
  30 H :   -0.024600
  31 H :    0.032389
  32 H :   -0.323105
  33 H :   -0.278533
  34 H :    0.089154
  35 O :   -0.819884
  36 H :   -0.102835
  37 H :    0.060452
Sum of atomic charges:   -0.0000000

LOEWDIN ATOMIC CHARGES
----------------------
   0 C :    0.013592
   1 C :   -0.012066
   2 C :   -0.028939
   3 H :    0.028107
   4 H :    0.045315
   5 S :    1.178828
   6 C :   -0.249351
   7 N :    0.173851
   8 C :    0.154799
   9 H :   -0.173342
  10 H :   -0.092494
  11 H :   -0.004399
  12 H :    0.009120
  13 O :   -0.486476
  14 F :   -0.245849
  15 C :   -0.020341
  16 C :   -0.032467
  17 C :   -0.029402
  18 H :    0.010637
  19 H :    0.032984
  20 H :    0.047209
  21 H :    0.032546
  22 C :   -0.034411
  23 H :    0.030888
  24 H :   -0.006903
  25 C :   -0.034415
  26 H :    0.010470
  27 H :    0.024422
  28 C :   -0.034586
  29 H :    0.022626
  30 H :    0.022643
  31 H :    0.041595
  32 H :   -0.015429
  33 H :    0.025176
  34 H :    0.018441
  35 O :   -0.474771
  36 H :    0.031985
  37 H :    0.020408

  Mayer bond orders larger than 0.100000
B(  0-C ,  6-C ) :   0.9895 B(  0-C ,  8-C ) :   0.1572 B(  0-C ,  9-H ) :  -0.1327
B(  0-C , 15-C ) :   1.2233 B(  0-C , 36-H ) :   0.5862 B(  0-C , 37-H ) :   0.7122
B(  1-C ,  2-C ) :   1.2832 B(  1-C ,  4-H ) :   0.1547 B(  1-C , 17-C ) :   1.2214
B(  1-C , 20-H ) :   0.7346 B(  1-C , 21-H ) :   0.6948 B(  2-C ,  3-H ) :   0.7550
B(  2-C ,  4-H ) :   0.9299 B(  2-C ,  5-S ) :   1.0209 B(  2-C , 20-H ) :   0.1691
B(  2-C , 21-H ) :   0.1106 B(  2-C , 35-O ) :   0.1157 B(  5-S , 13-O ) :   1.2573
B(  5-S , 14-F ) :   0.6206 B(  5-S , 35-O ) :   1.4537 B(  6-C ,  7-N ) :   0.8754
B(  6-C ,  8-C ) :   2.0103 B(  6-C ,  9-H ) :  -0.1200 B(  6-C , 12-H ) :  -0.1436
B(  6-C , 36-H ) :   0.2654 B(  6-C , 37-H ) :   0.1089 B(  7-N ,  8-C ) :   0.4538
B(  7-N , 10-H ) :  -0.1119 B(  7-N , 11-H ) :   1.1240 B(  7-N , 12-H ) :   1.3029
B(  8-C ,  9-H ) :   0.3227 B(  8-C , 10-H ) :  -0.1484 B(  8-C , 14-F ) :  -0.1610
B(  8-C , 24-H ) :   0.1349 B(  9-H , 10-H ) :  -0.1772 B(  9-H , 14-F ) :   0.1229
B(  9-H , 24-H ) :   0.1436 B( 10-H , 14-F ) :   0.2315 B( 10-H , 24-H ) :  -0.1129
B( 11-H , 12-H ) :  -0.1554 B( 13-O , 24-H ) :   0.1694 B( 13-O , 35-O ) :   0.1373
B( 15-C , 22-C ) :   1.2004 B( 15-C , 23-H ) :   0.7652 B( 15-C , 24-H ) :   0.7011
B( 15-C , 26-H ) :   0.1204 B( 15-C , 27-H ) :   0.1878 B( 15-C , 36-H ) :   0.2950
B( 15-C , 37-H ) :   0.1515 B( 16-C , 17-C ) :   1.1866 B( 16-C , 18-H ) :   0.1214
B( 16-C , 19-H ) :   0.1627 B( 16-C , 28-C ) :   1.2165 B( 16-C , 31-H ) :   0.7907
B( 16-C , 32-H ) :   1.0347 B( 16-C , 33-H ) :   0.2008 B( 16-C , 34-H ) :   0.1369
B( 17-C , 18-H ) :   0.8497 B( 17-C , 19-H ) :   0.9155 B( 17-C , 20-H ) :   0.1011
B( 17-C , 21-H ) :   0.2401 B( 17-C , 28-C ) :   0.1178 B( 22-C , 23-H ) :   0.1592
B( 22-C , 24-H ) :   0.1815 B( 22-C , 25-C ) :   1.0925 B( 22-C , 26-H ) :   0.8167
B( 22-C , 27-H ) :   1.1026 B( 22-C , 29-H ) :   0.1551 B( 22-C , 30-H ) :   0.2253
B( 25-C , 28-C ) :   1.1300 B( 25-C , 29-H ) :   0.6801 B( 25-C , 30-H ) :   0.7160
B( 26-H , 32-H ) :   0.1473 B( 28-C , 29-H ) :   0.2078 B( 28-C , 30-H ) :   0.1227
B( 28-C , 31-H ) :   0.1073 B( 28-C , 33-H ) :   0.9935 B( 28-C , 34-H ) :   0.8255
B( 31-H , 32-H ) :   0.1239 B( 36-H , 37-H ) :  -0.1137

Dispersion correction           -0.020877469
FINAL SINGLE POINT ENERGY     -1134.744496006951

DIPOLE MOMENT
-------------
                                X             Y             Z
Electronic contribution:    -12.23859     -17.93259     -14.11021
Nuclear contribution   :     10.61624      18.49702      15.75668
                        -----------------------------------------
Total Dipole Moment    :     -1.62235       0.56443       1.64647
                        -----------------------------------------
Magnitude (a.u.)       :      2.37938
Magnitude (Debye)      :      6.04791

Rotational constants in cm-1:     0.017796     0.012372     0.008231
Rotational constants in MHz :   533.524905   370.895973   246.762347

                             ****ORCA TERMINATED NORMALLY****
TOTAL RUN TIME: 0 days 0 hours 1 minutes 57 seconds 984 msec
