                         Program Version 5.0.0 -  RELEASE  -
|  1> !wB97X-D3 RIJCOSX def2-SVPD def2/J TightSCF CPCM(Water) xyzfile
|  2>
|  3> *xyzfile 0 1 D5.xyz
|  4>
|  5> %MaxCore 64000
|  6>
|  7> %pal nprocs 18
|  8> end
|  9>
| 10> %scf
| 11>   MaxIter 150
| 12> end
| 13>
| 14>
| 15>                          ****END OF INPUT****

CARTESIAN COORDINATES (ANGSTROEM)
---------------------------------
  C      5.558206   -1.992914   -6.215054
  C      4.930199   -7.375319   -2.649623
  C      3.841892   -6.951611   -3.632829
  H      3.458144   -5.954425   -3.407121
  H      2.988484   -7.643606   -3.567078
  S      4.318115   -6.915930   -5.368692
  C      4.181880   -2.589671   -6.298911
  C      3.145873   -1.768431   -6.486753
  N      4.019102   -3.864307   -6.227427
  H      4.768490   -4.591153   -5.990773
  H      3.122405   -4.333392   -6.314620
  H      3.281635   -0.777786   -6.566549
  H      2.212549   -2.134193   -6.562246
  O      5.406154   -5.899480   -5.512972
  O      3.111910   -6.445079   -6.043792
  C      6.419260   -2.542944   -5.077630
  C      5.872267   -5.002756   -2.427819
  C      6.173994   -6.485522   -2.606315
  H      6.734852   -6.613767   -3.534015
  H      6.821463   -6.831018   -1.793617
  H      4.469612   -7.406168   -1.655876
  H      5.230134   -8.398678   -2.885906
  C      5.896512   -2.169314   -3.694552
  H      7.428880   -2.143665   -5.208078
  H      6.505894   -3.627541   -5.175502
  C      6.807804   -2.623428   -2.551019
  H      4.894708   -2.589732   -3.557501
  H      5.778823   -1.081255   -3.635790
  C      7.111544   -4.122463   -2.520363
  H      7.751615   -2.071393   -2.614406
  H      6.345837   -2.326401   -1.604086
  H      5.362882   -4.828697   -1.471335
  H      5.174429   -4.702577   -3.211298
  H      7.778329   -4.329347   -1.677651
  H      7.673189   -4.402845   -3.417586
  F      4.763396   -8.239424   -5.698629
  H      6.036826   -2.198189   -7.176852
  H      5.467610   -0.907371   -6.127968

 Total Charge           Charge          ....    0
 Multiplicity           Mult            ....    1
 Number of Electrons    NEL             ....  136
 Basis Dimension        Dim             ....  512

ORBITAL ENERGIES
----------------

  NO   OCC          E(Eh)            E(eV)
   0   2.0000     -89.255250     -2428.7588
   1   2.0000     -24.930545      -678.3946
   2   2.0000     -19.274069      -524.4741
   3   2.0000     -19.272648      -524.4354
   4   2.0000     -14.408705      -392.0808
   5   2.0000     -10.345938      -281.5273
   6   2.0000     -10.307938      -280.4933
   7   2.0000     -10.303543      -280.3736
   8   2.0000     -10.282306      -279.7958
   9   2.0000     -10.279617      -279.7226
  10   2.0000     -10.277008      -279.6516
  11   2.0000     -10.275746      -279.6173
  12   2.0000     -10.275710      -279.6163
  13   2.0000     -10.275186      -279.6020
  14   2.0000     -10.274753      -279.5903
  15   2.0000     -10.213014      -277.9102
  16   2.0000      -8.328048      -226.6177
  17   2.0000      -6.291765      -171.2076
  18   2.0000      -6.286080      -171.0529
  19   2.0000      -6.283454      -170.9815
  20   2.0000      -1.504741       -40.9461
  21   2.0000      -1.240256       -33.7491
  22   2.0000      -1.137123       -30.9427
  23   2.0000      -1.025424       -27.9032
  24   2.0000      -0.946336       -25.7511
  25   2.0000      -0.918901       -25.0046
  26   2.0000      -0.892764       -24.2933
  27   2.0000      -0.861792       -23.4506
  28   2.0000      -0.843869       -22.9628
  29   2.0000      -0.817664       -22.2498
  30   2.0000      -0.795104       -21.6359
  31   2.0000      -0.756551       -20.5868
  32   2.0000      -0.721925       -19.6446
  33   2.0000      -0.710581       -19.3359
  34   2.0000      -0.709275       -19.3003
  35   2.0000      -0.689649       -18.7663
  36   2.0000      -0.677438       -18.4340
  37   2.0000      -0.658233       -17.9114
  38   2.0000      -0.652013       -17.7422
  39   2.0000      -0.619480       -16.8569
  40   2.0000      -0.598306       -16.2807
  41   2.0000      -0.584911       -15.9162
  42   2.0000      -0.571313       -15.5462
  43   2.0000      -0.565120       -15.3777
  44   2.0000      -0.563623       -15.3370
  45   2.0000      -0.556920       -15.1546
  46   2.0000      -0.545647       -14.8478
  47   2.0000      -0.526042       -14.3143
  48   2.0000      -0.520071       -14.1519
  49   2.0000      -0.511800       -13.9268
  50   2.0000      -0.503085       -13.6896
  51   2.0000      -0.491310       -13.3692
  52   2.0000      -0.478711       -13.0264
  53   2.0000      -0.470978       -12.8160
  54   2.0000      -0.463217       -12.6048
  55   2.0000      -0.460000       -12.5172
  56   2.0000      -0.449687       -12.2366
  57   2.0000      -0.443718       -12.0742
  58   2.0000      -0.437053       -11.8928
  59   2.0000      -0.428458       -11.6589
  60   2.0000      -0.423033       -11.5113
  61   2.0000      -0.418618       -11.3912
  62   2.0000      -0.413403       -11.2493
  63   2.0000      -0.404477       -11.0064
  64   2.0000      -0.397290       -10.8108
  65   2.0000      -0.393813       -10.7162
  66   2.0000      -0.392993       -10.6939
  67   2.0000      -0.268768        -7.3136
  68   0.0000       0.068207         1.8560
  69   0.0000       0.088143         2.3985
  70   0.0000       0.091744         2.4965
  71   0.0000       0.098558         2.6819
  72   0.0000       0.106572         2.9000

MULLIKEN ATOMIC CHARGES
-----------------------
   0 C :    0.698171
   1 C :    0.396228
   2 C :   -0.192866
   3 H :    0.331814
   4 H :   -0.081221
   5 S :    1.698355
   6 C :   -0.501878
   7 C :    0.430348
   8 N :    0.942210
   9 H :   -0.357931
  10 H :   -0.255462
  11 H :   -0.282999
  12 H :   -0.330910
  13 O :   -1.004454
  14 O :   -0.762015
  15 C :    0.302687
  16 C :   -0.047673
  17 C :    0.187883
  18 H :    0.079443
  19 H :   -0.280608
  20 H :    0.120570
  21 H :    0.045875
  22 C :   -0.117766
  23 H :   -0.104850
  24 H :   -0.574010
  25 C :    0.569398
  26 H :    0.144282
  27 H :   -0.289029
  28 C :    0.054746
  29 H :    0.055523
  30 H :   -0.035373
  31 H :    0.037082
  32 H :   -0.320708
  33 H :   -0.285236
  34 H :    0.110607
  35 F :   -0.544074
  36 H :   -0.105361
  37 H :    0.269200
Sum of atomic charges:   -0.0000000

LOEWDIN ATOMIC CHARGES
----------------------
   0 C :    0.012979
   1 C :   -0.020520
   2 C :   -0.018768
   3 H :    0.038808
   4 H :    0.047649
   5 S :    1.210129
   6 C :   -0.268422
   7 C :    0.140836
   8 N :    0.188085
   9 H :   -0.107147
  10 H :   -0.017531
  11 H :   -0.110589
  12 H :   -0.102082
  13 O :   -0.468180
  14 O :   -0.475130
  15 C :   -0.023581
  16 C :   -0.032317
  17 C :   -0.031055
  18 H :    0.009488
  19 H :    0.033315
  20 H :    0.045379
  21 H :    0.034397
  22 C :   -0.034722
  23 H :    0.031388
  24 H :   -0.009744
  25 C :   -0.033801
  26 H :    0.011643
  27 H :    0.025684
  28 C :   -0.034288
  29 H :    0.023299
  30 H :    0.023088
  31 H :    0.042335
  32 H :   -0.015057
  33 H :    0.025666
  34 H :    0.018645
  35 F :   -0.217648
  36 H :    0.032167
  37 H :    0.025604

  Mayer bond orders larger than 0.100000
B(  0-C ,  6-C ) :   1.0228 B(  0-C ,  8-N ) :   0.1569 B(  0-C , 15-C ) :   1.1737
B(  0-C , 24-H ) :   0.1454 B(  0-C , 36-H ) :   0.5456 B(  0-C , 37-H ) :   0.6651
B(  1-C ,  2-C ) :   1.2657 B(  1-C ,  4-H ) :   0.1478 B(  1-C , 17-C ) :   1.2384
B(  1-C , 20-H ) :   0.7383 B(  1-C , 21-H ) :   0.6928 B(  2-C ,  3-H ) :   0.7811
B(  2-C ,  4-H ) :   0.9159 B(  2-C ,  5-S ) :   1.0254 B(  2-C , 20-H ) :   0.1522
B(  2-C , 21-H ) :   0.1070 B(  2-C , 35-F ) :   0.1238 B(  4-H ,  5-S ) :   0.1147
B(  5-S , 13-O ) :   1.1675 B(  5-S , 14-O ) :   1.4345 B(  5-S , 35-F ) :   0.5317
B(  6-C ,  7-C ) :   1.7999 B(  6-C ,  8-N ) :   1.3658 B(  6-C , 10-H ) :  -0.1706
B(  6-C , 11-H ) :   0.1493 B(  6-C , 12-H ) :   0.2913 B(  6-C , 24-H ) :  -0.1089
B(  6-C , 36-H ) :   0.2845 B(  6-C , 37-H ) :   0.1153 B(  7-C ,  8-N ) :   0.1338
B(  7-C , 10-H ) :  -0.1066 B(  7-C , 11-H ) :   0.8528 B(  7-C , 12-H ) :   0.6514
B(  8-N ,  9-H ) :   0.6531 B(  8-N , 10-H ) :   0.9476 B(  8-N , 13-O ) :  -0.1651
B(  9-H , 10-H ) :  -0.1932 B(  9-H , 13-O ) :   0.2094 B( 10-H , 14-O ) :   0.1641
B( 13-O , 14-O ) :   0.1328 B( 13-O , 24-H ) :   0.1819 B( 13-O , 35-F ) :   0.1327
B( 15-C , 22-C ) :   1.1866 B( 15-C , 23-H ) :   0.7818 B( 15-C , 24-H ) :   0.6387
B( 15-C , 26-H ) :   0.1139 B( 15-C , 27-H ) :   0.2012 B( 15-C , 36-H ) :   0.2324
B( 15-C , 37-H ) :   0.1505 B( 16-C , 17-C ) :   1.1933 B( 16-C , 18-H ) :   0.1170
B( 16-C , 19-H ) :   0.1626 B( 16-C , 28-C ) :   1.2222 B( 16-C , 31-H ) :   0.7953
B( 16-C , 32-H ) :   1.0128 B( 16-C , 33-H ) :   0.1960 B( 16-C , 34-H ) :   0.1272
B( 17-C , 18-H ) :   0.8487 B( 17-C , 19-H ) :   0.9125 B( 17-C , 20-H ) :   0.1072
B( 17-C , 21-H ) :   0.2314 B( 17-C , 28-C ) :   0.1136 B( 22-C , 23-H ) :   0.1470
B( 22-C , 24-H ) :   0.1992 B( 22-C , 25-C ) :   1.0935 B( 22-C , 26-H ) :   0.8284
B( 22-C , 27-H ) :   1.0574 B( 22-C , 29-H ) :   0.1373 B( 22-C , 30-H ) :   0.2135
B( 25-C , 28-C ) :   1.1359 B( 25-C , 29-H ) :   0.7050 B( 25-C , 30-H ) :   0.7329
B( 26-H , 32-H ) :   0.1445 B( 28-C , 29-H ) :   0.2032 B( 28-C , 30-H ) :   0.1285
B( 28-C , 31-H ) :   0.1016 B( 28-C , 33-H ) :   1.0025 B( 28-C , 34-H ) :   0.8192
B( 31-H , 32-H ) :   0.1216

Dispersion correction           -0.020833071
FINAL SINGLE POINT ENERGY     -1134.750457586853

DIPOLE MOMENT
-------------
                                X             Y             Z
Electronic contribution:     -7.95011     -24.08627     -13.01189
Nuclear contribution   :      8.54118      20.92489      15.31138
                        -----------------------------------------
Total Dipole Moment    :      0.59106      -3.16137       2.29949
                        -----------------------------------------
Magnitude (a.u.)       :      3.95364
Magnitude (Debye)      :     10.04936

Rotational constants in cm-1:     0.018156     0.012306     0.008278
Rotational constants in MHz :   544.309022   368.914527   248.178402

                             ****ORCA TERMINATED NORMALLY****
TOTAL RUN TIME: 0 days 0 hours 1 minutes 49 seconds 494 msec
