                         Program Version 5.0.0 -  RELEASE  -
|  1> !wB97X-D3 RIJCOSX def2-SVPD def2/J TightSCF CPCM(Water) xyzfile
|  2>
|  3> *xyzfile 0 1 D6.xyz
|  4>
|  5> %MaxCore 64000
|  6>
|  7> %pal nprocs 18
|  8> end
|  9>
| 10> %scf
| 11>   MaxIter 150
| 12> end
| 13>
| 14>
| 15>                          ****END OF INPUT****

CARTESIAN COORDINATES (ANGSTROEM)
---------------------------------
  C      5.558206   -1.992914   -6.215054
  C      4.930199   -7.375319   -2.649623
  C      3.841892   -6.951611   -3.632829
  H      3.458144   -5.954425   -3.407121
  H      2.988484   -7.643606   -3.567078
  S      4.318115   -6.915930   -5.368692
  C      4.181880   -2.589671   -6.298911
  N      3.145873   -1.768431   -6.486753
  C      4.019102   -3.864307   -6.227427
  H      4.768490   -4.591153   -5.990773
  H      3.122405   -4.333392   -6.314620
  H      3.281635   -0.777786   -6.566549
  H      2.212549   -2.134193   -6.562246
  O      5.406154   -5.899480   -5.512972
  O      3.111910   -6.445079   -6.043792
  C      6.419260   -2.542944   -5.077630
  C      5.872267   -5.002756   -2.427819
  C      6.173994   -6.485522   -2.606315
  H      6.734852   -6.613767   -3.534015
  H      6.821463   -6.831018   -1.793617
  H      4.469612   -7.406168   -1.655876
  H      5.230134   -8.398678   -2.885906
  C      5.896512   -2.169314   -3.694552
  H      7.428880   -2.143665   -5.208078
  H      6.505894   -3.627541   -5.175502
  C      6.807804   -2.623428   -2.551019
  H      4.894708   -2.589732   -3.557501
  H      5.778823   -1.081255   -3.635790
  C      7.111544   -4.122463   -2.520363
  H      7.751615   -2.071393   -2.614406
  H      6.345837   -2.326401   -1.604086
  H      5.362882   -4.828697   -1.471335
  H      5.174429   -4.702577   -3.211298
  H      7.778329   -4.329347   -1.677651
  H      7.673189   -4.402845   -3.417586
  F      4.763396   -8.239424   -5.698629
  H      6.036826   -2.198189   -7.176852
  H      5.467610   -0.907371   -6.127968

 Total Charge           Charge          ....    0
 Multiplicity           Mult            ....    1
 Number of Electrons    NEL             ....  136
 Basis Dimension        Dim             ....  512

ORBITAL ENERGIES
----------------

  NO   OCC          E(Eh)            E(eV)
   0   2.0000     -89.243806     -2428.4474
   1   2.0000     -24.922169      -678.1667
   2   2.0000     -19.263100      -524.1756
   3   2.0000     -19.256254      -523.9893
   4   2.0000     -14.421421      -392.4268
   5   2.0000     -10.340927      -281.3909
   6   2.0000     -10.301286      -280.3122
   7   2.0000     -10.297402      -280.2066
   8   2.0000     -10.280596      -279.7492
   9   2.0000     -10.277667      -279.6695
  10   2.0000     -10.274793      -279.5913
  11   2.0000     -10.274417      -279.5811
  12   2.0000     -10.274325      -279.5786
  13   2.0000     -10.274074      -279.5718
  14   2.0000     -10.272584      -279.5312
  15   2.0000     -10.192090      -277.3409
  16   2.0000      -8.316426      -226.3015
  17   2.0000      -6.280256      -170.8944
  18   2.0000      -6.274160      -170.7286
  19   2.0000      -6.272086      -170.6721
  20   2.0000      -1.496551       -40.7232
  21   2.0000      -1.227529       -33.4028
  22   2.0000      -1.123695       -30.5773
  23   2.0000      -1.021102       -27.7856
  24   2.0000      -0.942163       -25.6376
  25   2.0000      -0.918547       -24.9949
  26   2.0000      -0.889071       -24.1928
  27   2.0000      -0.864553       -23.5257
  28   2.0000      -0.832159       -22.6442
  29   2.0000      -0.815500       -22.1909
  30   2.0000      -0.789273       -21.4772
  31   2.0000      -0.756648       -20.5894
  32   2.0000      -0.722891       -19.6709
  33   2.0000      -0.708344       -19.2750
  34   2.0000      -0.700487       -19.0612
  35   2.0000      -0.683395       -18.5961
  36   2.0000      -0.664908       -18.0931
  37   2.0000      -0.650842       -17.7103
  38   2.0000      -0.641155       -17.4467
  39   2.0000      -0.613435       -16.6924
  40   2.0000      -0.594883       -16.1876
  41   2.0000      -0.589622       -16.0444
  42   2.0000      -0.575059       -15.6481
  43   2.0000      -0.568569       -15.4716
  44   2.0000      -0.564706       -15.3664
  45   2.0000      -0.552341       -15.0300
  46   2.0000      -0.544298       -14.8111
  47   2.0000      -0.525995       -14.3130
  48   2.0000      -0.519066       -14.1245
  49   2.0000      -0.506538       -13.7836
  50   2.0000      -0.503770       -13.7083
  51   2.0000      -0.485554       -13.2126
  52   2.0000      -0.469692       -12.7810
  53   2.0000      -0.464084       -12.6284
  54   2.0000      -0.451869       -12.2960
  55   2.0000      -0.450223       -12.2512
  56   2.0000      -0.445979       -12.1357
  57   2.0000      -0.436684       -11.8828
  58   2.0000      -0.431812       -11.7502
  59   2.0000      -0.423162       -11.5148
  60   2.0000      -0.419281       -11.4092
  61   2.0000      -0.411967       -11.2102
  62   2.0000      -0.408700       -11.1213
  63   2.0000      -0.397594       -10.8191
  64   2.0000      -0.393150       -10.6982
  65   2.0000      -0.391498       -10.6532
  66   2.0000      -0.371256       -10.1024
  67   2.0000      -0.270571        -7.3626
  68   0.0000       0.072342         1.9685
  69   0.0000       0.087428         2.3790
  70   0.0000       0.094226         2.5640
  71   0.0000       0.099878         2.7178
  72   0.0000       0.107927         2.9368

MULLIKEN ATOMIC CHARGES
-----------------------
   0 C :    0.757596
   1 C :    0.410237
   2 C :   -0.192381
   3 H :    0.334759
   4 H :   -0.092388
   5 S :    1.696703
   6 C :    0.047428
   7 N :    0.086144
   8 C :    1.300011
   9 H :   -0.285960
  10 H :   -1.150817
  11 H :   -0.094307
  12 H :   -0.142891
  13 O :   -0.921095
  14 O :   -0.759432
  15 C :    0.252522
  16 C :   -0.054254
  17 C :    0.202136
  18 H :    0.077930
  19 H :   -0.278005
  20 H :    0.111501
  21 H :    0.042026
  22 C :   -0.141821
  23 H :   -0.091942
  24 H :   -0.556683
  25 C :    0.593732
  26 H :    0.178504
  27 H :   -0.296839
  28 C :    0.063297
  29 H :    0.048227
  30 H :   -0.024603
  31 H :    0.037118
  32 H :   -0.340344
  33 H :   -0.275391
  34 H :    0.091391
  35 F :   -0.582134
  36 H :   -0.108075
  37 H :    0.058101
Sum of atomic charges:    0.0000000

LOEWDIN ATOMIC CHARGES
----------------------
   0 C :    0.011952
   1 C :   -0.022209
   2 C :   -0.022487
   3 H :    0.036300
   4 H :    0.044866
   5 S :    1.196575
   6 C :   -0.252888
   7 N :    0.171059
   8 C :    0.159061
   9 H :   -0.167938
  10 H :   -0.105938
  11 H :   -0.006094
  12 H :    0.007752
  13 O :   -0.487776
  14 O :   -0.485475
  15 C :   -0.021064
  16 C :   -0.032238
  17 C :   -0.032008
  18 H :    0.008358
  19 H :    0.032303
  20 H :    0.043829
  21 H :    0.033276
  22 C :   -0.034611
  23 H :    0.030460
  24 H :   -0.007439
  25 C :   -0.034633
  26 H :    0.010190
  27 H :    0.024251
  28 C :   -0.034724
  29 H :    0.022505
  30 H :    0.022541
  31 H :    0.041618
  32 H :   -0.015249
  33 H :    0.025105
  34 H :    0.018333
  35 F :   -0.227853
  36 H :    0.030833
  37 H :    0.019457

  Mayer bond orders larger than 0.100000
B(  0-C ,  6-C ) :   0.9805 B(  0-C ,  8-C ) :   0.1625 B(  0-C ,  9-H ) :  -0.1242
B(  0-C , 15-C ) :   1.2223 B(  0-C , 36-H ) :   0.5838 B(  0-C , 37-H ) :   0.7124
B(  1-C ,  2-C ) :   1.2527 B(  1-C ,  4-H ) :   0.1422 B(  1-C , 17-C ) :   1.2283
B(  1-C , 20-H ) :   0.7399 B(  1-C , 21-H ) :   0.6891 B(  2-C ,  3-H ) :   0.7811
B(  2-C ,  4-H ) :   0.9162 B(  2-C ,  5-S ) :   1.0264 B(  2-C , 20-H ) :   0.1536
B(  2-C , 21-H ) :   0.1092 B(  2-C , 35-F ) :   0.1414 B(  4-H ,  5-S ) :   0.1126
B(  5-S , 13-O ) :   1.2380 B(  5-S , 14-O ) :   1.4368 B(  5-S , 35-F ) :   0.5025
B(  6-C ,  7-N ) :   0.8756 B(  6-C ,  8-C ) :   1.9920 B(  6-C ,  9-H ) :  -0.1555
B(  6-C , 12-H ) :  -0.1431 B(  6-C , 36-H ) :   0.2651 B(  6-C , 37-H ) :   0.1028
B(  7-N ,  8-C ) :   0.4543 B(  7-N , 10-H ) :  -0.1139 B(  7-N , 11-H ) :   1.1205
B(  7-N , 12-H ) :   1.3043 B(  8-C ,  9-H ) :   0.2627 B(  8-C , 10-H ) :  -0.2742
B(  8-C , 14-O ) :  -0.2161 B(  8-C , 24-H ) :   0.1325 B(  9-H , 10-H ) :  -0.1371
B(  9-H , 24-H ) :   0.1440 B( 10-H , 14-O ) :   0.3285 B( 10-H , 24-H ) :  -0.1196
B( 11-H , 12-H ) :  -0.1539 B( 13-O , 14-O ) :   0.1286 B( 13-O , 24-H ) :   0.1588
B( 13-O , 35-F ) :   0.1130 B( 15-C , 22-C ) :   1.2009 B( 15-C , 23-H ) :   0.7654
B( 15-C , 24-H ) :   0.7056 B( 15-C , 26-H ) :   0.1194 B( 15-C , 27-H ) :   0.1893
B( 15-C , 36-H ) :   0.2960 B( 15-C , 37-H ) :   0.1524 B( 16-C , 17-C ) :   1.1894
B( 16-C , 18-H ) :   0.1198 B( 16-C , 19-H ) :   0.1580 B( 16-C , 28-C ) :   1.2194
B( 16-C , 31-H ) :   0.7836 B( 16-C , 32-H ) :   1.0350 B( 16-C , 33-H ) :   0.2015
B( 16-C , 34-H ) :   0.1369 B( 17-C , 18-H ) :   0.8499 B( 17-C , 19-H ) :   0.9054
B( 17-C , 20-H ) :   0.1044 B( 17-C , 21-H ) :   0.2349 B( 17-C , 28-C ) :   0.1162
B( 22-C , 23-H ) :   0.1592 B( 22-C , 24-H ) :   0.1796 B( 22-C , 25-C ) :   1.0932
B( 22-C , 26-H ) :   0.8198 B( 22-C , 27-H ) :   1.0986 B( 22-C , 29-H ) :   0.1558
B( 22-C , 30-H ) :   0.2255 B( 25-C , 28-C ) :   1.1297 B( 25-C , 29-H ) :   0.6794
B( 25-C , 30-H ) :   0.7164 B( 26-H , 32-H ) :   0.1481 B( 28-C , 29-H ) :   0.2077
B( 28-C , 30-H ) :   0.1224 B( 28-C , 31-H ) :   0.1059 B( 28-C , 33-H ) :   0.9937
B( 28-C , 34-H ) :   0.8251 B( 31-H , 32-H ) :   0.1286 B( 36-H , 37-H ) :  -0.1147

Dispersion correction           -0.020790691
FINAL SINGLE POINT ENERGY     -1134.733262753861

DIPOLE MOMENT
-------------
                                X             Y             Z
Electronic contribution:     -8.91297     -21.66394     -13.42711
Nuclear contribution   :      8.67311      20.60825      15.35056
                        -----------------------------------------
Total Dipole Moment    :     -0.23986      -1.05570       1.92345
                        -----------------------------------------
Magnitude (a.u.)       :      2.20719
Magnitude (Debye)      :      5.61023

Rotational constants in cm-1:     0.017976     0.012151     0.008188
Rotational constants in MHz :   538.898457   364.286417   245.482451

                             ****ORCA TERMINATED NORMALLY****
TOTAL RUN TIME: 0 days 0 hours 1 minutes 57 seconds 261 msec
