                         Program Version 5.0.0 -  RELEASE  -
|  1> !wB97X-D3 RIJCOSX def2-TZVPD def2/J TightSCF
|  2> *xyz -1 1
|  3> C          0.96805        1.63064       -3.71575
|  4> C         -0.50835        1.72268       -4.12430
|  5> S         -1.32861        0.14674       -4.43578
|  6> H         -0.59151        2.29496       -5.04722
|  7> H         -1.11411        2.23561       -3.37436
|  8> O         -2.57135        0.47573       -5.06834
|  9> O         -1.51496       -0.40051       -3.06342
| 10> O         -0.37793       -0.62756       -5.20114
| 11> H          1.51840        1.12197       -4.47946
| 12> H          1.05062        1.08971       -2.79625
| 13> H          1.36450        2.61606       -3.58668
| 14> *
| 15> %MaxCore 64000
| 16>
| 17> %pal nprocs 4
| 18> end
| 19>
| 20> %scf
| 21>   MaxIter 150
| 22> end
| 23>
| 24>
| 25>                          ****END OF INPUT****

CARTESIAN COORDINATES (ANGSTROEM)
---------------------------------
  C      0.968050    1.630640   -3.715750
  C     -0.508350    1.722680   -4.124300
  S     -1.328610    0.146740   -4.435780
  H     -0.591510    2.294960   -5.047220
  H     -1.114110    2.235610   -3.374360
  O     -2.571350    0.475730   -5.068340
  O     -1.514960   -0.400510   -3.063420
  O     -0.377930   -0.627560   -5.201140
  H      1.518400    1.121970   -4.479460
  H      1.050620    1.089710   -2.796250
  H      1.364500    2.616060   -3.586680

 Total Charge           Charge          ....   -1
 Multiplicity           Mult            ....    1
 Number of Electrons    NEL             ....   58
 Basis Dimension        Dim             ....  285

ORBITAL ENERGIES
----------------

  NO   OCC          E(Eh)            E(eV)
   0   2.0000     -88.934006     -2420.0173
   1   2.0000     -19.014870      -517.4209
   2   2.0000     -19.011417      -517.3270
   3   2.0000     -18.995753      -516.9007
   4   2.0000     -10.133848      -275.7560
   5   2.0000     -10.127596      -275.5859
   6   2.0000      -7.997043      -217.6106
   7   2.0000      -5.951406      -161.9460
   8   2.0000      -5.950021      -161.9083
   9   2.0000      -5.949685      -161.8991
  10   2.0000      -1.042648       -28.3719
  11   2.0000      -0.914082       -24.8734
  12   2.0000      -0.883596       -24.0439
  13   2.0000      -0.744540       -20.2600
  14   2.0000      -0.616300       -16.7704
  15   2.0000      -0.486387       -13.2353
  16   2.0000      -0.417779       -11.3683
  17   2.0000      -0.416172       -11.3246
  18   2.0000      -0.375496       -10.2178
  19   2.0000      -0.363141        -9.8816
  20   2.0000      -0.353904        -9.6302
  21   2.0000      -0.322814        -8.7842
  22   2.0000      -0.307625        -8.3709
  23   2.0000      -0.251366        -6.8400
  24   2.0000      -0.250610        -6.8195
  25   2.0000      -0.215692        -5.8693
  26   2.0000      -0.203005        -5.5240
  27   2.0000      -0.190579        -5.1859
  28   2.0000      -0.159566        -4.3420
  29   0.0000       0.176312         4.7977
  30   0.0000       0.185675         5.0525
  31   0.0000       0.187165         5.0930
  32   0.0000       0.193362         5.2617
  33   0.0000       0.221606         6.0302

MULLIKEN ATOMIC CHARGES
-----------------------
   0 C :   -1.177511
   1 C :   -0.365703
   2 S :    1.183965
   3 H :    0.289639
   4 H :    0.277714
   5 O :   -0.682558
   6 O :   -0.744616
   7 O :   -0.703942
   8 H :    0.298652
   9 H :    0.305003
  10 H :    0.319358
Sum of atomic charges:   -1.0000000

LOEWDIN ATOMIC CHARGES
----------------------
   0 C :   -0.145652
   1 C :   -0.327406
   2 S :    0.345870
   3 H :    0.078004
   4 H :    0.083097
   5 O :   -0.383685
   6 O :   -0.428247
   7 O :   -0.387832
   8 H :    0.055996
   9 H :    0.061527
  10 H :    0.048329

  Mayer bond orders larger than 0.100000
B(  0-C ,  1-C ) :   0.7229 B(  0-C ,  8-H ) :   0.9800 B(  0-C ,  9-H ) :   0.9695
B(  0-C , 10-H ) :   0.9191 B(  1-C ,  2-S ) :   0.8416 B(  1-C ,  3-H ) :   0.9428
B(  1-C ,  4-H ) :   0.9540 B(  1-C ,  5-O ) :   0.1349 B(  1-C ,  6-O ) :   0.1209
B(  2-S ,  5-O ) :   1.5357 B(  2-S ,  6-O ) :   1.4819 B(  2-S ,  7-O ) :   1.5295

Dispersion correction           -0.002915926
FINAL SINGLE POINT ENERGY      -703.223313279574

DIPOLE MOMENT
-------------
                                X             Y             Z
Electronic contribution:     -5.57786      -5.27907      -1.93579
Nuclear contribution   :      6.64523       6.80157       2.07300
                        -----------------------------------------
Total Dipole Moment    :      1.06736       1.52250       0.13721
                        -----------------------------------------
Magnitude (a.u.)       :      1.86443
Magnitude (Debye)      :      4.73901

Rotational constants in cm-1:     0.163070     0.082807     0.081541
Rotational constants in MHz :  4888.719902  2482.497026  2444.541148

                             ****ORCA TERMINATED NORMALLY****
TOTAL RUN TIME: 0 days 0 hours 1 minutes 10 seconds 562 msec
