                         Program Version 5.0.0 -  RELEASE  -
|  1> !wB97X-D3 RIJCOSX def2-TZVPD def2/J TightSCF
|  2> *xyz 1 1
|  3> C          1.36401        0.46874       -2.81376
|  4> N          0.42884        0.32140       -1.65531
|  5> C          0.96805        1.63064       -3.71575
|  6> H          0.74858       -0.40054       -1.00134
|  7> H         -0.46105        0.02333       -2.07773
|  8> H          0.31026        1.20137       -1.13495
|  9> H          1.29485       -0.46874       -3.36468
| 10> H          2.37622        0.59740       -2.43149
| 11> H          1.65923        1.70213       -4.52942
| 12> H          0.98421        2.54058       -3.15304
| 13> H         -0.01744        1.46536       -4.09838
| 14> *
| 15> %MaxCore 64000
| 16>
| 17> %pal nprocs 4
| 18> end
| 19>
| 20> %scf
| 21>   MaxIter 150
| 22> end
| 23>
| 24>
| 25>                          ****END OF INPUT****

CARTESIAN COORDINATES (ANGSTROEM)
---------------------------------
  C      1.364010    0.468740   -2.813760
  N      0.428840    0.321400   -1.655310
  C      0.968050    1.630640   -3.715750
  H      0.748580   -0.400540   -1.001340
  H     -0.461050    0.023330   -2.077730
  H      0.310260    1.201370   -1.134950
  H      1.294850   -0.468740   -3.364680
  H      2.376220    0.597400   -2.431490
  H      1.659230    1.702130   -4.529420
  H      0.984210    2.540580   -3.153040
  H     -0.017440    1.465360   -4.098380

 Total Charge           Charge          ....    1
 Multiplicity           Mult            ....    1
 Number of Electrons    NEL             ....   26
 Basis Dimension        Dim             ....  183

ORBITAL ENERGIES
----------------

  NO   OCC          E(Eh)            E(eV)
   0   2.0000     -14.757706      -401.5776
   1   2.0000     -10.529779      -286.5299
   2   2.0000     -10.448787      -284.3259
   3   2.0000      -1.332053       -36.2470
   4   2.0000      -1.081041       -29.4166
   5   2.0000      -0.953537       -25.9471
   6   2.0000      -0.906522       -24.6677
   7   2.0000      -0.890257       -24.2251
   8   2.0000      -0.792968       -21.5778
   9   2.0000      -0.744257       -20.2523
  10   2.0000      -0.680565       -18.5191
  11   2.0000      -0.663242       -18.0477
  12   2.0000      -0.648311       -17.6414
  13   0.0000      -0.121758        -3.3132
  14   0.0000      -0.064666        -1.7597
  15   0.0000      -0.064511        -1.7554
  16   0.0000      -0.057971        -1.5775
  17   0.0000      -0.027439        -0.7466

MULLIKEN ATOMIC CHARGES
-----------------------
   0 C :   -0.370809
   1 N :   -0.327210
   2 C :   -1.158360
   3 H :    0.363575
   4 H :    0.385617
   5 H :    0.357379
   6 H :    0.325330
   7 H :    0.335605
   8 H :    0.328467
   9 H :    0.376897
  10 H :    0.383509
Sum of atomic charges:    1.0000000

LOEWDIN ATOMIC CHARGES
----------------------
   0 C :   -0.198198
   1 N :    0.182083
   2 C :   -0.058856
   3 H :    0.180456
   4 H :    0.181541
   5 H :    0.183092
   6 H :    0.134940
   7 H :    0.134948
   8 H :    0.093828
   9 H :    0.083142
  10 H :    0.083026

  Mayer bond orders larger than 0.100000
B(  0-C ,  1-N ) :   0.9396 B(  0-C ,  2-C ) :   0.6876 B(  0-C ,  6-H ) :   0.9193
B(  0-C ,  7-H ) :   0.9082 B(  1-N ,  3-H ) :   0.8577 B(  1-N ,  4-H ) :   0.8341
B(  1-N ,  5-H ) :   0.8596 B(  2-C ,  8-H ) :   0.9803 B(  2-C ,  9-H ) :   0.9012
B(  2-C , 10-H ) :   0.8962

Dispersion correction           -0.001498295
FINAL SINGLE POINT ENERGY      -135.550981596594

DIPOLE MOMENT
-------------
                                X             Y             Z
Electronic contribution:     -0.34677      -0.94630       1.57129
Nuclear contribution   :     -0.20470       0.31427      -0.31587
                        -----------------------------------------
Total Dipole Moment    :     -0.55146      -0.63203       1.25542
                        -----------------------------------------
Magnitude (a.u.)       :      1.50985
Magnitude (Debye)      :      3.83775

Rotational constants in cm-1:     1.011480     0.279280     0.248378
Rotational constants in MHz : 30323.408050  8372.602834  7446.185305

                             ****ORCA TERMINATED NORMALLY****
TOTAL RUN TIME: 0 days 0 hours 0 minutes 26 seconds 751 msec
