                         Program Version 5.0.0 -  RELEASE  -
|  1> !wB97X-D3 RIJCOSX def2-TZVPD def2/J TightSCF
|  2> *xyz 0 1
|  3> C          0.96805        1.63064       -3.71575
|  4> C         -0.50835        1.72268       -4.12430
|  5> S         -1.32861        0.14674       -4.43578
|  6> H         -0.59151        2.29496       -5.04722
|  7> H         -1.11411        2.23561       -3.37436
|  8> F         -2.57135        0.47573       -5.06834
|  9> O         -1.51496       -0.40051       -3.06342
| 10> O         -0.37793       -0.62756       -5.20114
| 11> H          1.51840        1.12197       -4.47946
| 12> H          1.05062        1.08971       -2.79625
| 13> H          1.36450        2.61606       -3.58668
| 14> *
| 15> %MaxCore 64000
| 16>
| 17> %pal nprocs 4
| 18> end
| 19>
| 20> %scf
| 21>   MaxIter 150
| 22> end
| 23>
| 24>
| 25>                          ****END OF INPUT****

CARTESIAN COORDINATES (ANGSTROEM)
---------------------------------
  C      0.968050    1.630640   -3.715750
  C     -0.508350    1.722680   -4.124300
  S     -1.328610    0.146740   -4.435780
  H     -0.591510    2.294960   -5.047220
  H     -1.114110    2.235610   -3.374360
  F     -2.571350    0.475730   -5.068340
  O     -1.514960   -0.400510   -3.063420
  O     -0.377930   -0.627560   -5.201140
  H      1.518400    1.121970   -4.479460
  H      1.050620    1.089710   -2.796250
  H      1.364500    2.616060   -3.586680

 Total Charge           Charge          ....    0
 Multiplicity           Mult            ....    1
 Number of Electrons    NEL             ....   58
 Basis Dimension        Dim             ....  285

ORBITAL ENERGIES
----------------

  NO   OCC          E(Eh)            E(eV)
   0   2.0000     -89.197381     -2427.1841
   1   2.0000     -24.914918      -677.9694
   2   2.0000     -19.246184      -523.7153
   3   2.0000     -19.230367      -523.2849
   4   2.0000     -10.335758      -281.2503
   5   2.0000     -10.290852      -280.0283
   6   2.0000      -8.260914      -224.7909
   7   2.0000      -6.218160      -169.2047
   8   2.0000      -6.212016      -169.0376
   9   2.0000      -6.211508      -169.0237
  10   2.0000      -1.511396       -41.1272
  11   2.0000      -1.220119       -33.2011
  12   2.0000      -1.117719       -30.4147
  13   2.0000      -0.934651       -25.4331
  14   2.0000      -0.851678       -23.1753
  15   2.0000      -0.787262       -21.4225
  16   2.0000      -0.700553       -19.0630
  17   2.0000      -0.698653       -19.0113
  18   2.0000      -0.661393       -17.9974
  19   2.0000      -0.593919       -16.1614
  20   2.0000      -0.584176       -15.8962
  21   2.0000      -0.541937       -14.7469
  22   2.0000      -0.527565       -14.3558
  23   2.0000      -0.504143       -13.7184
  24   2.0000      -0.483700       -13.1621
  25   2.0000      -0.481828       -13.1112
  26   2.0000      -0.430438       -11.7128
  27   2.0000      -0.413240       -11.2448
  28   2.0000      -0.401052       -10.9132
  29   0.0000       0.048258         1.3132
  30   0.0000       0.063328         1.7232
  31   0.0000       0.068478         1.8634
  32   0.0000       0.072990         1.9862
  33   0.0000       0.098453         2.6790

MULLIKEN ATOMIC CHARGES
-----------------------
   0 C :   -1.219781
   1 C :   -0.395743
   2 S :    1.187669
   3 H :    0.359549
   4 H :    0.346518
   5 F :   -0.106694
   6 O :   -0.609909
   7 O :   -0.580450
   8 H :    0.342011
   9 H :    0.344311
  10 H :    0.332519
Sum of atomic charges:   -0.0000000

LOEWDIN ATOMIC CHARGES
----------------------
   0 C :   -0.101655
   1 C :   -0.284164
   2 S :    0.597212
   3 H :    0.094721
   4 H :    0.100823
   5 F :   -0.042354
   6 O :   -0.311711
   7 O :   -0.276211
   8 H :    0.071671
   9 H :    0.077355
  10 H :    0.074314

  Mayer bond orders larger than 0.100000
B(  0-C ,  1-C ) :   0.7913 B(  0-C ,  8-H ) :   0.9400 B(  0-C ,  9-H ) :   0.9334
B(  0-C , 10-H ) :   0.9216 B(  1-C ,  2-S ) :   0.8377 B(  1-C ,  3-H ) :   0.8634
B(  1-C ,  4-H ) :   0.8907 B(  2-S ,  5-F ) :   1.0120 B(  2-S ,  6-O ) :   1.6368
B(  2-S ,  7-O ) :   1.6890

Dispersion correction           -0.002913711
FINAL SINGLE POINT ENERGY      -727.735367126412

DIPOLE MOMENT
-------------
                                X             Y             Z
Electronic contribution:     -8.33337      -5.13520      -3.24393
Nuclear contribution   :      8.31000       6.74109       2.87442
                        -----------------------------------------
Total Dipole Moment    :     -0.02336       1.60589      -0.36950
                        -----------------------------------------
Magnitude (a.u.)       :      1.64802
Magnitude (Debye)      :      4.18893

Rotational constants in cm-1:     0.158705     0.080192     0.078179
Rotational constants in MHz :  4757.865601  2404.095079  2343.752507

                             ****ORCA TERMINATED NORMALLY****
TOTAL RUN TIME: 0 days 0 hours 1 minutes 11 seconds 646 msec
