                         Program Version 5.0.0 -  RELEASE  -
|  1> !wB97X-D3 RIJCOSX def2-TZVPD def2/J TightSCF
|  2> *xyz 0 1
|  3> C          1.36401        0.46874       -2.81376
|  4> C          0.42884        0.32140       -1.65531
|  5> C          0.96805        1.63064       -3.71575
|  6> H          0.74858       -0.40054       -1.00134
|  7> H         -0.46105        0.02333       -2.07773
|  8> H          0.31026        1.20137       -1.13495
|  9> H          1.29485       -0.46874       -3.36468
| 10> H          2.37622        0.59740       -2.43149
| 11> H          1.65923        1.70213       -4.52942
| 12> H          0.98421        2.54058       -3.15304
| 13> H         -0.01744        1.46536       -4.09838
| 14> *
| 15> %MaxCore 64000
| 16>
| 17> %pal nprocs 4
| 18> end
| 19>
| 20> %scf
| 21>   MaxIter 150
| 22> end
| 23>
| 24>
| 25>                          ****END OF INPUT****

CARTESIAN COORDINATES (ANGSTROEM)
---------------------------------
  C      1.364010    0.468740   -2.813760
  C      0.428840    0.321400   -1.655310
  C      0.968050    1.630640   -3.715750
  H      0.748580   -0.400540   -1.001340
  H     -0.461050    0.023330   -2.077730
  H      0.310260    1.201370   -1.134950
  H      1.294850   -0.468740   -3.364680
  H      2.376220    0.597400   -2.431490
  H      1.659230    1.702130   -4.529420
  H      0.984210    2.540580   -3.153040
  H     -0.017440    1.465360   -4.098380

 Total Charge           Charge          ....    0
 Multiplicity           Mult            ....    1
 Number of Electrons    NEL             ....   26
 Basis Dimension        Dim             ....  183

ORBITAL ENERGIES
----------------

  NO   OCC          E(Eh)            E(eV)
   0   2.0000     -10.260283      -279.1965
   1   2.0000     -10.250415      -278.9280
   2   2.0000     -10.232153      -278.4310
   3   2.0000      -0.908178       -24.7128
   4   2.0000      -0.803483       -21.8639
   5   2.0000      -0.693610       -18.8741
   6   2.0000      -0.573110       -15.5951
   7   2.0000      -0.545449       -14.8424
   8   2.0000      -0.499829       -13.6010
   9   2.0000      -0.487473       -13.2648
  10   2.0000      -0.429774       -11.6947
  11   2.0000      -0.425641       -11.5823
  12   2.0000      -0.421800       -11.4778
  13   0.0000       0.077664         2.1133
  14   0.0000       0.096488         2.6256
  15   0.0000       0.098973         2.6932
  16   0.0000       0.127891         3.4801
  17   0.0000       0.148795         4.0489

MULLIKEN ATOMIC CHARGES
-----------------------
   0 C :    0.011553
   1 C :   -1.346932
   2 C :   -1.166266
   3 H :    0.340201
   4 H :    0.348982
   5 H :    0.373463
   6 H :    0.230744
   7 H :    0.273907
   8 H :    0.288115
   9 H :    0.321636
  10 H :    0.324597
Sum of atomic charges:    0.0000000

LOEWDIN ATOMIC CHARGES
----------------------
   0 C :   -0.318353
   1 C :   -0.125944
   2 C :   -0.119210
   3 H :    0.050856
   4 H :    0.056367
   5 H :    0.056156
   6 H :    0.102712
   7 H :    0.101728
   8 H :    0.061681
   9 H :    0.066737
  10 H :    0.067271

  Mayer bond orders larger than 0.100000
B(  0-C ,  1-C ) :   0.5594 B(  0-C ,  2-C ) :   0.6081 B(  0-C ,  6-H ) :   0.9850
B(  0-C ,  7-H ) :   0.9494 B(  1-C ,  2-C ) :   0.2013 B(  1-C ,  3-H ) :   0.9643
B(  1-C ,  4-H ) :   0.9631 B(  1-C ,  5-H ) :   0.9019 B(  2-C ,  8-H ) :   0.9902
B(  2-C ,  9-H ) :   0.9623 B(  2-C , 10-H ) :   0.9534

Dispersion correction           -0.001445409
FINAL SINGLE POINT ENERGY      -119.139835653062

DIPOLE MOMENT
-------------
                                X             Y             Z
Electronic contribution:      0.36581      -0.18383      -0.01663
Nuclear contribution   :     -0.35842       0.15752       0.02695
                        -----------------------------------------
Total Dipole Moment    :      0.00739      -0.02631       0.01032
                        -----------------------------------------
Magnitude (a.u.)       :      0.02921
Magnitude (Debye)      :      0.07425

Rotational constants in cm-1:     1.019891     0.293671     0.260247
Rotational constants in MHz : 30575.551403  8804.039097  7802.009261

                             ****ORCA TERMINATED NORMALLY****
TOTAL RUN TIME: 0 days 0 hours 0 minutes 24 seconds 791 msec
