                         Program Version 5.0.0 -  RELEASE  -
|  1> !wB97X-D3 RIJCOSX def2-TZVPD def2/J TightSCF
|  2> *xyz 0 1
|  3> C          0.96805        1.63064       -3.71575
|  4> C         -0.50835        1.72268       -4.12430
|  5> S         -1.32861        0.14674       -4.43578
|  6> H         -0.59151        2.29496       -5.04722
|  7> H         -1.11411        2.23561       -3.37436
|  8> O         -2.57135        0.47573       -5.06834
|  9> F         -1.51496       -0.40051       -3.06342
| 10> O         -0.37793       -0.62756       -5.20114
| 11> H          1.51840        1.12197       -4.47946
| 12> H          1.05062        1.08971       -2.79625
| 13> H          1.36450        2.61606       -3.58668
| 14> *
| 15> %MaxCore 64000
| 16>
| 17> %pal nprocs 4
| 18> end
| 19>
| 20> %scf
| 21>   MaxIter 150
| 22> end
| 23>
| 24>
| 25>                          ****END OF INPUT****

CARTESIAN COORDINATES (ANGSTROEM)
---------------------------------
  C      0.968050    1.630640   -3.715750
  C     -0.508350    1.722680   -4.124300
  S     -1.328610    0.146740   -4.435780
  H     -0.591510    2.294960   -5.047220
  H     -1.114110    2.235610   -3.374360
  O     -2.571350    0.475730   -5.068340
  F     -1.514960   -0.400510   -3.063420
  O     -0.377930   -0.627560   -5.201140
  H      1.518400    1.121970   -4.479460
  H      1.050620    1.089710   -2.796250
  H      1.364500    2.616060   -3.586680

 Total Charge           Charge          ....    0
 Multiplicity           Mult            ....    1
 Number of Electrons    NEL             ....   58
 Basis Dimension        Dim             ....  285

ORBITAL ENERGIES
----------------

  NO   OCC          E(Eh)            E(eV)
   0   2.0000     -89.194240     -2427.0987
   1   2.0000     -24.885259      -677.1623
   2   2.0000     -19.249206      -523.7975
   3   2.0000     -19.245688      -523.7018
   4   2.0000     -10.334817      -281.2247
   5   2.0000     -10.292372      -280.0697
   6   2.0000      -8.257796      -224.7061
   7   2.0000      -6.215281      -169.1264
   8   2.0000      -6.209025      -168.9562
   9   2.0000      -6.208220      -168.9343
  10   2.0000      -1.464071       -39.8394
  11   2.0000      -1.235423       -33.6176
  12   2.0000      -1.143741       -31.1228
  13   2.0000      -0.936378       -25.4801
  14   2.0000      -0.832173       -22.6446
  15   2.0000      -0.779522       -21.2119
  16   2.0000      -0.682281       -18.5658
  17   2.0000      -0.666624       -18.1398
  18   2.0000      -0.653067       -17.7708
  19   2.0000      -0.595216       -16.1967
  20   2.0000      -0.578408       -15.7393
  21   2.0000      -0.558626       -15.2010
  22   2.0000      -0.533060       -14.5053
  23   2.0000      -0.504905       -13.7392
  24   2.0000      -0.499501       -13.5921
  25   2.0000      -0.479071       -13.0362
  26   2.0000      -0.440760       -11.9937
  27   2.0000      -0.426953       -11.6180
  28   2.0000      -0.420807       -11.4507
  29   0.0000       0.053216         1.4481
  30   0.0000       0.063902         1.7389
  31   0.0000       0.069993         1.9046
  32   0.0000       0.070910         1.9295
  33   0.0000       0.101031         2.7492

MULLIKEN ATOMIC CHARGES
-----------------------
   0 C :   -1.206607
   1 C :   -0.389176
   2 S :    1.196997
   3 H :    0.344707
   4 H :    0.358170
   5 O :   -0.568239
   6 F :   -0.172260
   7 O :   -0.583439
   8 H :    0.339594
   9 H :    0.346638
  10 H :    0.333614
Sum of atomic charges:    0.0000000

LOEWDIN ATOMIC CHARGES
----------------------
   0 C :   -0.111919
   1 C :   -0.275120
   2 S :    0.596474
   3 H :    0.106468
   4 H :    0.100371
   5 O :   -0.269633
   6 F :   -0.086984
   7 O :   -0.274505
   8 H :    0.070553
   9 H :    0.071670
  10 H :    0.072626

  Mayer bond orders larger than 0.100000
B(  0-C ,  1-C ) :   0.7419 B(  0-C ,  8-H ) :   0.9659 B(  0-C ,  9-H ) :   0.9133
B(  0-C , 10-H ) :   0.9327 B(  1-C ,  2-S ) :   0.8329 B(  1-C ,  3-H ) :   0.8961
B(  1-C ,  4-H ) :   0.8811 B(  1-C ,  5-O ) :   0.1146 B(  2-S ,  5-O ) :   1.6887
B(  2-S ,  6-F ) :   0.9507 B(  2-S ,  7-O ) :   1.6860

Dispersion correction           -0.002883582
FINAL SINGLE POINT ENERGY      -727.759633074651

DIPOLE MOMENT
-------------
                                X             Y             Z
Electronic contribution:     -6.54405      -6.63014       0.18832
Nuclear contribution   :      7.20921       7.65416       0.78523
                        -----------------------------------------
Total Dipole Moment    :      0.66516       1.02402       0.97355
                        -----------------------------------------
Magnitude (a.u.)       :      1.56168
Magnitude (Debye)      :      3.96949

Rotational constants in cm-1:     0.153780     0.081282     0.079816
Rotational constants in MHz :  4610.199589  2436.778679  2392.820729

                             ****ORCA TERMINATED NORMALLY****
TOTAL RUN TIME: 0 days 0 hours 1 minutes 8 seconds 426 msec
