                         Program Version 5.0.0 -  RELEASE  -
|  1> !wB97X-D3 RIJCOSX def2-TZVPD def2/J TightSCF
|  2> *xyz 0 1
|  3> C          0.96805        1.63064       -3.71575
|  4> C         -0.50835        1.72268       -4.12430
|  5> S         -1.32861        0.14674       -4.43578
|  6> H         -0.59151        2.29496       -5.04722
|  7> H         -1.11411        2.23561       -3.37436
|  8> O         -2.57135        0.47573       -5.06834
|  9> O         -1.51496       -0.40051       -3.06342
| 10> F         -0.37793       -0.62756       -5.20114
| 11> H          1.51840        1.12197       -4.47946
| 12> H          1.05062        1.08971       -2.79625
| 13> H          1.36450        2.61606       -3.58668
| 14> *
| 15> %MaxCore 64000
| 16>
| 17> %pal nprocs 4
| 18> end
| 19>
| 20> %scf
| 21>   MaxIter 150
| 22> end
| 23>
| 24>
| 25>                          ****END OF INPUT****

CARTESIAN COORDINATES (ANGSTROEM)
---------------------------------
  C      0.968050    1.630640   -3.715750
  C     -0.508350    1.722680   -4.124300
  S     -1.328610    0.146740   -4.435780
  H     -0.591510    2.294960   -5.047220
  H     -1.114110    2.235610   -3.374360
  O     -2.571350    0.475730   -5.068340
  O     -1.514960   -0.400510   -3.063420
  F     -0.377930   -0.627560   -5.201140
  H      1.518400    1.121970   -4.479460
  H      1.050620    1.089710   -2.796250
  H      1.364500    2.616060   -3.586680

 Total Charge           Charge          ....    0
 Multiplicity           Mult            ....    1
 Number of Electrons    NEL             ....   58
 Basis Dimension        Dim             ....  285

ORBITAL ENERGIES
----------------

  NO   OCC          E(Eh)            E(eV)
   0   2.0000     -89.196533     -2427.1611
   1   2.0000     -24.908599      -677.7974
   2   2.0000     -19.249796      -523.8136
   3   2.0000     -19.230349      -523.2844
   4   2.0000     -10.335605      -281.2461
   5   2.0000     -10.296015      -280.1688
   6   2.0000      -8.260092      -224.7685
   7   2.0000      -6.217535      -169.1877
   8   2.0000      -6.211109      -169.0129
   9   2.0000      -6.210623      -168.9996
  10   2.0000      -1.500773       -40.8381
  11   2.0000      -1.226047       -33.3624
  12   2.0000      -1.120499       -30.4903
  13   2.0000      -0.938662       -25.5423
  14   2.0000      -0.844416       -22.9777
  15   2.0000      -0.790048       -21.4983
  16   2.0000      -0.704267       -19.1641
  17   2.0000      -0.692357       -18.8400
  18   2.0000      -0.652370       -17.7519
  19   2.0000      -0.595470       -16.2036
  20   2.0000      -0.578068       -15.7300
  21   2.0000      -0.552235       -15.0271
  22   2.0000      -0.536844       -14.6083
  23   2.0000      -0.508771       -13.8444
  24   2.0000      -0.493150       -13.4193
  25   2.0000      -0.479960       -13.0604
  26   2.0000      -0.432649       -11.7730
  27   2.0000      -0.413998       -11.2655
  28   2.0000      -0.403979       -10.9928
  29   0.0000       0.050526         1.3749
  30   0.0000       0.062136         1.6908
  31   0.0000       0.069640         1.8950
  32   0.0000       0.072070         1.9611
  33   0.0000       0.099442         2.7059

MULLIKEN ATOMIC CHARGES
-----------------------
   0 C :   -1.235568
   1 C :   -0.351448
   2 S :    1.184440
   3 H :    0.350096
   4 H :    0.330976
   5 O :   -0.560102
   6 O :   -0.613089
   7 F :   -0.135608
   8 H :    0.351854
   9 H :    0.347478
  10 H :    0.330972
Sum of atomic charges:   -0.0000000

LOEWDIN ATOMIC CHARGES
----------------------
   0 C :   -0.112588
   1 C :   -0.275231
   2 S :    0.594939
   3 H :    0.097589
   4 H :    0.111079
   5 O :   -0.268645
   6 O :   -0.310760
   7 F :   -0.050892
   8 H :    0.066890
   9 H :    0.074393
  10 H :    0.073226

  Mayer bond orders larger than 0.100000
B(  0-C ,  1-C ) :   0.7153 B(  0-C ,  8-H ) :   0.9138 B(  0-C ,  9-H ) :   0.9524
B(  0-C , 10-H ) :   0.9367 B(  1-C ,  2-S ) :   0.8298 B(  1-C ,  3-H ) :   0.9013
B(  1-C ,  4-H ) :   0.9046 B(  1-C ,  5-O ) :   0.1101 B(  2-S ,  5-O ) :   1.6965
B(  2-S ,  6-O ) :   1.6417 B(  2-S ,  7-F ) :   1.0078

Dispersion correction           -0.002897389
FINAL SINGLE POINT ENERGY      -727.740198397682

DIPOLE MOMENT
-------------
                                X             Y             Z
Electronic contribution:     -4.60761      -6.98978      -3.45639
Nuclear contribution   :      6.02439       7.89075       3.01280
                        -----------------------------------------
Total Dipole Moment    :      1.41678       0.90097      -0.44359
                        -----------------------------------------
Magnitude (a.u.)       :      1.73661
Magnitude (Debye)      :      4.41410

Rotational constants in cm-1:     0.153652     0.082400     0.079295
Rotational constants in MHz :  4606.361242  2470.285703  2377.214112

                             ****ORCA TERMINATED NORMALLY****
TOTAL RUN TIME: 0 days 0 hours 1 minutes 9 seconds 310 msec
