                         Program Version 5.0.0 -  RELEASE  -
|  1> !LC-BLYP RIJCOSX def2-TZVP def2/J TightSCF
|  2> *xyz -1 1
|  3> C          0.84888        2.66797       -4.30235
|  4> C          2.09343        1.86104       -4.65684
|  5> H          2.44481        2.04157       -5.67499
|  6> H          2.90175        2.13786       -3.98034
|  7> S          1.87964        0.07859       -4.46297
|  8> O          3.20757       -0.46611       -4.42026
|  9> O          1.07506       -0.05616       -3.26876
| 10> O          1.13166       -0.31996       -5.67903
| 11> H          0.05064        2.40112       -4.96303
| 12> H          1.06043        3.71210       -4.40203
| 13> H          0.56237        2.45684       -3.29327
| 14> *
| 15>
| 16> %MaxCore 64000
| 17>
| 18> %pal nprocs 4
| 19> end
| 20>
| 21> %scf
| 22>   MaxIter 150
| 23> end
| 24>
| 25>
| 26>                          ****END OF INPUT****

CARTESIAN COORDINATES (ANGSTROEM)
---------------------------------
  C      0.848880    2.667970   -4.302350
  C      2.093430    1.861040   -4.656840
  H      2.444810    2.041570   -5.674990
  H      2.901750    2.137860   -3.980340
  S      1.879640    0.078590   -4.462970
  O      3.207570   -0.466110   -4.420260
  O      1.075060   -0.056160   -3.268760
  O      1.131660   -0.319960   -5.679030
  H      0.050640    2.401120   -4.963030
  H      1.060430    3.712100   -4.402030
  H      0.562370    2.456840   -3.293270

 Total Charge           Charge          ....   -1
 Multiplicity           Mult            ....    1
 Number of Electrons    NEL             ....   58
 Basis Dimension        Dim             ....  222

ORBITAL ENERGIES
----------------

  NO   OCC          E(Eh)            E(eV)
   0   2.0000     -88.251551     -2401.4468
   1   2.0000     -18.714003      -509.2339
   2   2.0000     -18.710751      -509.1454
   3   2.0000     -18.697207      -508.7769
   4   2.0000      -9.923498      -270.0321
   5   2.0000      -9.917353      -269.8649
   6   2.0000      -7.793505      -212.0721
   7   2.0000      -5.821777      -158.4186
   8   2.0000      -5.820473      -158.3831
   9   2.0000      -5.820160      -158.3746
  10   2.0000      -1.017542       -27.6887
  11   2.0000      -0.884479       -24.0679
  12   2.0000      -0.858902       -23.3719
  13   2.0000      -0.737079       -20.0569
  14   2.0000      -0.607989       -16.5442
  15   2.0000      -0.480569       -13.0770
  16   2.0000      -0.419954       -11.4275
  17   2.0000      -0.417289       -11.3550
  18   2.0000      -0.374140       -10.1809
  19   2.0000      -0.359824        -9.7913
  20   2.0000      -0.351049        -9.5525
  21   2.0000      -0.325159        -8.8480
  22   2.0000      -0.307443        -8.3659
  23   2.0000      -0.250666        -6.8210
  24   2.0000      -0.250369        -6.8129
  25   2.0000      -0.213603        -5.8124
  26   2.0000      -0.203160        -5.5283
  27   2.0000      -0.192825        -5.2470
  28   2.0000      -0.158040        -4.3005
  29   0.0000       0.238944         6.5020
  30   0.0000       0.281878         7.6703
  31   0.0000       0.298821         8.1313
  32   0.0000       0.304443         8.2843
  33   0.0000       0.334147         9.0926

MULLIKEN ATOMIC CHARGES
-----------------------
   0 C :   -0.375264
   1 C :   -0.276020
   2 H :    0.099026
   3 H :    0.091560
   4 S :    0.680883
   5 O :   -0.490957
   6 O :   -0.509263
   7 O :   -0.551690
   8 H :    0.121464
   9 H :    0.077904
  10 H :    0.132357
Sum of atomic charges:   -1.0000000

LOEWDIN ATOMIC CHARGES
----------------------
   0 C :   -0.360136
   1 C :   -0.440412
   2 H :    0.119888
   3 H :    0.118900
   4 S :    0.378894
   5 O :   -0.362044
   6 O :   -0.369722
   7 O :   -0.423972
   8 H :    0.117760
   9 H :    0.102107
  10 H :    0.118736

  Mayer bond orders larger than 0.100000
B(  0-C ,  1-C ) :   0.9219 B(  0-C ,  8-H ) :   0.9753 B(  0-C ,  9-H ) :   0.9693
B(  0-C , 10-H ) :   0.9730 B(  1-C ,  2-H ) :   0.9672 B(  1-C ,  3-H ) :   0.9594
B(  1-C ,  4-S ) :   0.8919 B(  4-S ,  5-O ) :   1.8923 B(  4-S ,  6-O ) :   1.8082
B(  4-S ,  7-O ) :   1.8017

FINAL SINGLE POINT ENERGY      -702.477611423329

DIPOLE MOMENT
-------------
                                X             Y             Z
Electronic contribution:      1.62613      -7.72724       0.05501
Nuclear contribution   :     -1.55288       9.51857       0.00420
                        -----------------------------------------
Total Dipole Moment    :      0.07325       1.79133       0.05921
                        -----------------------------------------
Magnitude (a.u.)       :      1.79381
Magnitude (Debye)      :      4.55950

Rotational constants in cm-1:     0.163401     0.083833     0.082462
Rotational constants in MHz :  4898.624208  2513.264548  2472.149188

                             ****ORCA TERMINATED NORMALLY****
TOTAL RUN TIME: 0 days 0 hours 0 minutes 31 seconds 273 msec
