                         Program Version 5.0.0 -  RELEASE  -
|  1> !LC-BLYP RIJCOSX def2-TZVP def2/J TightSCF
|  2> *xyz 1 1
|  3> C         -0.46129        2.23469       -4.98962
|  4> C          0.84888        2.66797       -4.30235
|  5> C         -0.42384        2.39877       -6.47432
|  6> N         -0.95947        3.49265       -7.00740
|  7> N          0.14558        1.48689       -7.20399
|  8> H          0.56537        0.69681       -6.72386
|  9> H          0.22068        1.58177       -8.20752
| 10> H         -1.40624        4.18151       -6.40326
| 11> H         -0.93421        3.68160       -7.99947
| 12> H         -1.28888        2.82674       -4.59500
| 13> H         -0.65170        1.18634       -4.75655
| 14> H          1.66208        2.08894       -4.68750
| 15> H          0.76716        2.51042       -3.24717
| 16> H          1.02677        3.70527       -4.49537
| 17> *
| 18>
| 19> %MaxCore 64000
| 20>
| 21> %pal nprocs 4
| 22> end
| 23>
| 24> %scf
| 25>   MaxIter 150
| 26> end
| 27>
| 28>
| 29>                          ****END OF INPUT****

CARTESIAN COORDINATES (ANGSTROEM)
---------------------------------
  C     -0.461290    2.234690   -4.989620
  C      0.848880    2.667970   -4.302350
  C     -0.423840    2.398770   -6.474320
  N     -0.959470    3.492650   -7.007400
  N      0.145580    1.486890   -7.203990
  H      0.565370    0.696810   -6.723860
  H      0.220680    1.581770   -8.207520
  H     -1.406240    4.181510   -6.403260
  H     -0.934210    3.681600   -7.999470
  H     -1.288880    2.826740   -4.595000
  H     -0.651700    1.186340   -4.756550
  H      1.662080    2.088940   -4.687500
  H      0.767160    2.510420   -3.247170
  H      1.026770    3.705270   -4.495370

 Total Charge           Charge          ....    1
 Multiplicity           Mult            ....    1
 Number of Electrons    NEL             ....   40
 Basis Dimension        Dim             ....  209

ORBITAL ENERGIES
----------------

  NO   OCC          E(Eh)            E(eV)
   0   2.0000     -14.417381      -392.3169
   1   2.0000     -14.413241      -392.2042
   2   2.0000     -10.393736      -282.8279
   3   2.0000     -10.266960      -279.3782
   4   2.0000     -10.222240      -278.1613
   5   2.0000      -1.306528       -35.5524
   6   2.0000      -1.210460       -32.9383
   7   2.0000      -1.078697       -29.3528
   8   2.0000      -0.967933       -26.3388
   9   2.0000      -0.923422       -25.1276
  10   2.0000      -0.882718       -24.0200
  11   2.0000      -0.856220       -23.2989
  12   2.0000      -0.801620       -21.8132
  13   2.0000      -0.759152       -20.6576
  14   2.0000      -0.727944       -19.8084
  15   2.0000      -0.719220       -19.5710
  16   2.0000      -0.644474       -17.5370
  17   2.0000      -0.634592       -17.2681
  18   2.0000      -0.627184       -17.0665
  19   2.0000      -0.591627       -16.0990
  20   0.0000      -0.125513        -3.4154
  21   0.0000      -0.095821        -2.6074
  22   0.0000      -0.050129        -1.3641
  23   0.0000      -0.048568        -1.3216
  24   0.0000      -0.015756        -0.4287

MULLIKEN ATOMIC CHARGES
-----------------------
   0 C :   -0.361782
   1 C :   -0.371471
   2 C :    0.299989
   3 N :   -0.325702
   4 N :   -0.279168
   5 H :    0.301539
   6 H :    0.283902
   7 H :    0.300481
   8 H :    0.281690
   9 H :    0.172928
  10 H :    0.194847
  11 H :    0.151971
  12 H :    0.190366
  13 H :    0.160410
Sum of atomic charges:    1.0000000

LOEWDIN ATOMIC CHARGES
----------------------
   0 C :   -0.231338
   1 C :   -0.272879
   2 C :   -0.298396
   3 N :    0.103263
   4 N :    0.128259
   5 H :    0.216642
   6 H :    0.203996
   7 H :    0.212455
   8 H :    0.197687
   9 H :    0.165535
  10 H :    0.169193
  11 H :    0.129409
  12 H :    0.143340
  13 H :    0.132835

  Mayer bond orders larger than 0.100000
B(  0-C ,  1-C ) :   0.9123 B(  0-C ,  2-C ) :   0.9440 B(  0-C ,  9-H ) :   0.9703
B(  0-C , 10-H ) :   0.9576 B(  1-C , 11-H ) :   0.9638 B(  1-C , 12-H ) :   0.9684
B(  1-C , 13-H ) :   0.9582 B(  2-C ,  3-N ) :   1.4336 B(  2-C ,  4-N ) :   1.4692
B(  3-N ,  7-H ) :   0.8898 B(  3-N ,  8-H ) :   0.8975 B(  4-N ,  5-H ) :   0.8884
B(  4-N ,  6-H ) :   0.8951

FINAL SINGLE POINT ENERGY      -228.508354150488

DIPOLE MOMENT
-------------
                                X             Y             Z
Electronic contribution:     -1.56420      -0.26943      -3.89536
Nuclear contribution   :      1.33202       0.27544       2.83701
                        -----------------------------------------
Total Dipole Moment    :     -0.23218       0.00601      -1.05835
                        -----------------------------------------
Magnitude (a.u.)       :      1.08354
Magnitude (Debye)      :      2.75413

Rotational constants in cm-1:     0.258570     0.126296     0.098869
Rotational constants in MHz :  7751.748523  3786.267300  2964.011691

                             ****ORCA TERMINATED NORMALLY****
TOTAL RUN TIME: 0 days 0 hours 0 minutes 29 seconds 61 msec
