                         Program Version 5.0.0 -  RELEASE  -
|  1> !LC-BLYP RIJCOSX def2-TZVP def2/J TightSCF
|  2> *xyz 0 1
|  3> C          0.84888        2.66797       -4.30235
|  4> C          2.09343        1.86104       -4.65684
|  5> H          2.44481        2.04157       -5.67499
|  6> H          2.90175        2.13786       -3.98034
|  7> S          1.87964        0.07859       -4.46297
|  8> F          3.20757       -0.46611       -4.42026
|  9> O          1.07506       -0.05616       -3.26876
| 10> O          1.13166       -0.31996       -5.67903
| 11> H          0.05064        2.40112       -4.96303
| 12> H          1.06043        3.71210       -4.40203
| 13> H          0.56237        2.45684       -3.29327
| 14> *
| 15>
| 16> %MaxCore 64000
| 17>
| 18> %pal nprocs 4
| 19> end
| 20>
| 21> %scf
| 22>   MaxIter 150
| 23> end
| 24>
| 25>
| 26>                          ****END OF INPUT****

CARTESIAN COORDINATES (ANGSTROEM)
---------------------------------
  C      0.848880    2.667970   -4.302350
  C      2.093430    1.861040   -4.656840
  H      2.444810    2.041570   -5.674990
  H      2.901750    2.137860   -3.980340
  S      1.879640    0.078590   -4.462970
  F      3.207570   -0.466110   -4.420260
  O      1.075060   -0.056160   -3.268760
  O      1.131660   -0.319960   -5.679030
  H      0.050640    2.401120   -4.963030
  H      1.060430    3.712100   -4.402030
  H      0.562370    2.456840   -3.293270

 Total Charge           Charge          ....    0
 Multiplicity           Mult            ....    1
 Number of Electrons    NEL             ....   58
 Basis Dimension        Dim             ....  222

ORBITAL ENERGIES
----------------

  NO   OCC          E(Eh)            E(eV)
   0   2.0000     -88.518176     -2408.7020
   1   2.0000     -24.579773      -668.8496
   2   2.0000     -18.950458      -515.6682
   3   2.0000     -18.937727      -515.3217
   4   2.0000     -10.128344      -275.6063
   5   2.0000     -10.082615      -274.3619
   6   2.0000      -8.060765      -219.3446
   7   2.0000      -6.092384      -165.7822
   8   2.0000      -6.085631      -165.5984
   9   2.0000      -6.085350      -165.5908
  10   2.0000      -1.471719       -40.0475
  11   2.0000      -1.199688       -32.6452
  12   2.0000      -1.097545       -29.8657
  13   2.0000      -0.929479       -25.2924
  14   2.0000      -0.843631       -22.9564
  15   2.0000      -0.782126       -21.2827
  16   2.0000      -0.696253       -18.9460
  17   2.0000      -0.696114       -18.9422
  18   2.0000      -0.659266       -17.9395
  19   2.0000      -0.599293       -16.3076
  20   2.0000      -0.587654       -15.9909
  21   2.0000      -0.542909       -14.7733
  22   2.0000      -0.531458       -14.4617
  23   2.0000      -0.507499       -13.8097
  24   2.0000      -0.488853       -13.3024
  25   2.0000      -0.483877       -13.1670
  26   2.0000      -0.434475       -11.8227
  27   2.0000      -0.419425       -11.4131
  28   2.0000      -0.405519       -11.0347
  29   0.0000       0.087695         2.3863
  30   0.0000       0.109259         2.9731
  31   0.0000       0.131484         3.5779
  32   0.0000       0.137246         3.7347
  33   0.0000       0.150444         4.0938

MULLIKEN ATOMIC CHARGES
-----------------------
   0 C :   -0.398824
   1 C :   -0.291528
   2 H :    0.168665
   3 H :    0.150010
   4 S :    0.747181
   5 F :   -0.063374
   6 O :   -0.370448
   7 O :   -0.408802
   8 H :    0.161645
   9 H :    0.143135
  10 H :    0.162341
Sum of atomic charges:   -0.0000000

LOEWDIN ATOMIC CHARGES
----------------------
   0 C :   -0.319997
   1 C :   -0.407515
   2 H :    0.142281
   3 H :    0.137451
   4 S :    0.496801
   5 F :    0.118889
   6 O :   -0.255078
   7 O :   -0.303704
   8 H :    0.131704
   9 H :    0.128460
  10 H :    0.130708

  Mayer bond orders larger than 0.100000
B(  0-C ,  1-C ) :   0.9336 B(  0-C ,  8-H ) :   0.9667 B(  0-C ,  9-H ) :   0.9617
B(  0-C , 10-H ) :   0.9645 B(  1-C ,  2-H ) :   0.9404 B(  1-C ,  3-H ) :   0.9375
B(  1-C ,  4-S ) :   0.9236 B(  4-S ,  5-F ) :   1.1908 B(  4-S ,  6-O ) :   1.9476
B(  4-S ,  7-O ) :   1.9291

FINAL SINGLE POINT ENERGY      -726.979732710057

DIPOLE MOMENT
-------------
                                X             Y             Z
Electronic contribution:      4.19432      -9.33867       0.10196
Nuclear contribution   :     -3.08754      10.54185      -0.04092
                        -----------------------------------------
Total Dipole Moment    :      1.10678       1.20318       0.06104
                        -----------------------------------------
Magnitude (a.u.)       :      1.63595
Magnitude (Debye)      :      4.15825

Rotational constants in cm-1:     0.158925     0.081210     0.079022
Rotational constants in MHz :  4764.450166  2434.603461  2369.014434

                             ****ORCA TERMINATED NORMALLY****
TOTAL RUN TIME: 0 days 0 hours 0 minutes 32 seconds 621 msec
