                         Program Version 5.0.0 -  RELEASE  -
|  1> !LC-BLYP RIJCOSX def2-TZVP def2/J TightSCF
|  2> *xyz 0 1
|  3> C         -0.46129        2.23469       -4.98962
|  4> C          0.84888        2.66797       -4.30235
|  5> C         -0.42384        2.39877       -6.47432
|  6> C         -0.95947        3.49265       -7.00740
|  7> N          0.14558        1.48689       -7.20399
|  8> H          0.56537        0.69681       -6.72386
|  9> H          0.22068        1.58177       -8.20752
| 10> H         -1.40624        4.18151       -6.40326
| 11> H         -0.93421        3.68160       -7.99947
| 12> H         -1.28888        2.82674       -4.59500
| 13> H         -0.65170        1.18634       -4.75655
| 14> H          1.66208        2.08894       -4.68750
| 15> H          0.76716        2.51042       -3.24717
| 16> H          1.02677        3.70527       -4.49537
| 17> *
| 18>
| 19> %MaxCore 64000
| 20>
| 21> %pal nprocs 4
| 22> end
| 23>
| 24> %scf
| 25>   MaxIter 150
| 26> end
| 27>
| 28>
| 29>                          ****END OF INPUT****

CARTESIAN COORDINATES (ANGSTROEM)
---------------------------------
  C     -0.461290    2.234690   -4.989620
  C      0.848880    2.667970   -4.302350
  C     -0.423840    2.398770   -6.474320
  C     -0.959470    3.492650   -7.007400
  N      0.145580    1.486890   -7.203990
  H      0.565370    0.696810   -6.723860
  H      0.220680    1.581770   -8.207520
  H     -1.406240    4.181510   -6.403260
  H     -0.934210    3.681600   -7.999470
  H     -1.288880    2.826740   -4.595000
  H     -0.651700    1.186340   -4.756550
  H      1.662080    2.088940   -4.687500
  H      0.767160    2.510420   -3.247170
  H      1.026770    3.705270   -4.495370

 Total Charge           Charge          ....    0
 Multiplicity           Mult            ....    1
 Number of Electrons    NEL             ....   40
 Basis Dimension        Dim             ....  209

ORBITAL ENERGIES
----------------

  NO   OCC          E(Eh)            E(eV)
   0   2.0000     -14.170221      -385.5913
   1   2.0000     -10.089111      -274.5387
   2   2.0000     -10.067350      -273.9465
   3   2.0000     -10.052591      -273.5449
   4   2.0000      -9.997339      -272.0414
   5   2.0000      -1.037055       -28.2197
   6   2.0000      -0.887402       -24.1474
   7   2.0000      -0.820388       -22.3239
   8   2.0000      -0.744112       -20.2483
   9   2.0000      -0.674945       -18.3662
  10   2.0000      -0.633948       -17.2506
  11   2.0000      -0.586121       -15.9492
  12   2.0000      -0.542122       -14.7519
  13   2.0000      -0.524330       -14.2677
  14   2.0000      -0.493803       -13.4371
  15   2.0000      -0.482722       -13.1355
  16   2.0000      -0.450600       -12.2614
  17   2.0000      -0.433926       -11.8077
  18   2.0000      -0.431285       -11.7359
  19   2.0000      -0.281616        -7.6632
  20   0.0000       0.087440         2.3794
  21   0.0000       0.119950         3.2640
  22   0.0000       0.134620         3.6632
  23   0.0000       0.142165         3.8685
  24   0.0000       0.152347         4.1456

MULLIKEN ATOMIC CHARGES
-----------------------
   0 C :   -0.306729
   1 C :   -0.356468
   2 C :    0.222084
   3 C :   -0.465867
   4 N :   -0.393240
   5 H :    0.226133
   6 H :    0.229992
   7 H :    0.100224
   8 H :    0.103856
   9 H :    0.134827
  10 H :    0.118573
  11 H :    0.116263
  12 H :    0.130621
  13 H :    0.139731
Sum of atomic charges:   -0.0000000

LOEWDIN ATOMIC CHARGES
----------------------
   0 C :   -0.247734
   1 C :   -0.305326
   2 C :   -0.378258
   3 C :   -0.289956
   4 N :    0.012535
   5 H :    0.175234
   6 H :    0.176666
   7 H :    0.108669
   8 H :    0.097627
   9 H :    0.152068
  10 H :    0.138683
  11 H :    0.116973
  12 H :    0.118976
  13 H :    0.123843

  Mayer bond orders larger than 0.100000
B(  0-C ,  1-C ) :   0.9157 B(  0-C ,  2-C ) :   0.9233 B(  0-C ,  9-H ) :   0.9950
B(  0-C , 10-H ) :   0.9859 B(  1-C , 11-H ) :   0.9732 B(  1-C , 12-H ) :   0.9815
B(  1-C , 13-H ) :   0.9750 B(  2-C ,  3-C ) :   1.7107 B(  2-C ,  4-N ) :   1.1779
B(  3-C ,  7-H ) :   1.0028 B(  3-C ,  8-H ) :   0.9968 B(  4-N ,  5-H ) :   0.9308
B(  4-N ,  6-H ) :   0.9272

FINAL SINGLE POINT ENERGY      -212.041147124504

DIPOLE MOMENT
-------------
                                X             Y             Z
Electronic contribution:     -0.70915      -1.19634      -2.58522
Nuclear contribution   :      1.14741       0.51394       2.60761
                        -----------------------------------------
Total Dipole Moment    :      0.43826      -0.68240       0.02239
                        -----------------------------------------
Magnitude (a.u.)       :      0.81132
Magnitude (Debye)      :      2.06222

Rotational constants in cm-1:     0.269157     0.129188     0.102123
Rotational constants in MHz :  8069.118715  3872.945231  3061.580645

                             ****ORCA TERMINATED NORMALLY****
TOTAL RUN TIME: 0 days 0 hours 0 minutes 31 seconds 602 msec
