                         Program Version 5.0.0 -  RELEASE  -
|  1> !LC-BLYP RIJCOSX def2-TZVP def2/J TightSCF
|  2> *xyz 0 1
|  3> C          0.84888        2.66797       -4.30235
|  4> C          2.09343        1.86104       -4.65684
|  5> H          2.44481        2.04157       -5.67499
|  6> H          2.90175        2.13786       -3.98034
|  7> S          1.87964        0.07859       -4.46297
|  8> O          3.20757       -0.46611       -4.42026
|  9> F          1.07506       -0.05616       -3.26876
| 10> O          1.13166       -0.31996       -5.67903
| 11> H          0.05064        2.40112       -4.96303
| 12> H          1.06043        3.71210       -4.40203
| 13> H          0.56237        2.45684       -3.29327
| 14> *
| 15>
| 16> %MaxCore 64000
| 17>
| 18> %pal nprocs 4
| 19> end
| 20>
| 21> %scf
| 22>   MaxIter 150
| 23> end
| 24>
| 25>
| 26>                          ****END OF INPUT****

CARTESIAN COORDINATES (ANGSTROEM)
---------------------------------
  C      0.848880    2.667970   -4.302350
  C      2.093430    1.861040   -4.656840
  H      2.444810    2.041570   -5.674990
  H      2.901750    2.137860   -3.980340
  S      1.879640    0.078590   -4.462970
  O      3.207570   -0.466110   -4.420260
  F      1.075060   -0.056160   -3.268760
  O      1.131660   -0.319960   -5.679030
  H      0.050640    2.401120   -4.963030
  H      1.060430    3.712100   -4.402030
  H      0.562370    2.456840   -3.293270

 Total Charge           Charge          ....    0
 Multiplicity           Mult            ....    1
 Number of Electrons    NEL             ....   58
 Basis Dimension        Dim             ....  222

ORBITAL ENERGIES
----------------

  NO   OCC          E(Eh)            E(eV)
   0   2.0000     -88.517473     -2408.6829
   1   2.0000     -24.574060      -668.6942
   2   2.0000     -18.954139      -515.7683
   3   2.0000     -18.937767      -515.3228
   4   2.0000     -10.128236      -275.6033
   5   2.0000     -10.089874      -274.5594
   6   2.0000      -8.060054      -219.3252
   7   2.0000      -6.091902      -165.7691
   8   2.0000      -6.084827      -165.5766
   9   2.0000      -6.084571      -165.5696
  10   2.0000      -1.463104       -39.8131
  11   2.0000      -1.203480       -32.7484
  12   2.0000      -1.100596       -29.9487
  13   2.0000      -0.934980       -25.4421
  14   2.0000      -0.836659       -22.7667
  15   2.0000      -0.785576       -21.3766
  16   2.0000      -0.705202       -19.1895
  17   2.0000      -0.689264       -18.7558
  18   2.0000      -0.649111       -17.6632
  19   2.0000      -0.601304       -16.3623
  20   2.0000      -0.579596       -15.7716
  21   2.0000      -0.554481       -15.0882
  22   2.0000      -0.540119       -14.6974
  23   2.0000      -0.514124       -13.9900
  24   2.0000      -0.497700       -13.5431
  25   2.0000      -0.485026       -13.1982
  26   2.0000      -0.435160       -11.8413
  27   2.0000      -0.420163       -11.4332
  28   2.0000      -0.408699       -11.1213
  29   0.0000       0.077933         2.1207
  30   0.0000       0.118539         3.2256
  31   0.0000       0.132424         3.6034
  32   0.0000       0.134557         3.6615
  33   0.0000       0.148494         4.0407

MULLIKEN ATOMIC CHARGES
-----------------------
   0 C :   -0.408975
   1 C :   -0.294425
   2 H :    0.182779
   3 H :    0.163992
   4 S :    0.744183
   5 O :   -0.351658
   6 F :   -0.076899
   7 O :   -0.411150
   8 H :    0.164489
   9 H :    0.147525
  10 H :    0.140141
Sum of atomic charges:   -0.0000000

LOEWDIN ATOMIC CHARGES
----------------------
   0 C :   -0.334015
   1 C :   -0.399887
   2 H :    0.152112
   3 H :    0.142023
   4 S :    0.498893
   5 O :   -0.245659
   6 F :    0.109382
   7 O :   -0.304628
   8 H :    0.129946
   9 H :    0.129721
  10 H :    0.122112

  Mayer bond orders larger than 0.100000
B(  0-C ,  1-C ) :   0.9173 B(  0-C ,  8-H ) :   0.9647 B(  0-C ,  9-H ) :   0.9651
B(  0-C , 10-H ) :   0.9687 B(  1-C ,  2-H ) :   0.9432 B(  1-C ,  3-H ) :   0.9424
B(  1-C ,  4-S ) :   0.9174 B(  4-S ,  5-O ) :   2.0068 B(  4-S ,  6-F ) :   1.1613
B(  4-S ,  7-O ) :   1.9258

FINAL SINGLE POINT ENERGY      -726.984241174536

DIPOLE MOMENT
-------------
                                X             Y             Z
Electronic contribution:      0.56939      -8.60846       2.04203
Nuclear contribution   :     -0.86540      10.11467      -1.24082
                        -----------------------------------------
Total Dipole Moment    :     -0.29601       1.50621       0.80122
                        -----------------------------------------
Magnitude (a.u.)       :      1.73154
Magnitude (Debye)      :      4.40123

Rotational constants in cm-1:     0.154065     0.083345     0.080357
Rotational constants in MHz :  4618.752213  2498.631937  2409.037217

                             ****ORCA TERMINATED NORMALLY****
TOTAL RUN TIME: 0 days 0 hours 0 minutes 30 seconds 504 msec
