                         Program Version 5.0.0 -  RELEASE  -
|  1> !LC-BLYP RIJCOSX def2-TZVP def2/J TightSCF
|  2> *xyz 0 1
|  3> C         -0.46129        2.23469       -4.98962
|  4> C          0.84888        2.66797       -4.30235
|  5> C         -0.42384        2.39877       -6.47432
|  6> N         -0.95947        3.49265       -7.00740
|  7> C          0.14558        1.48689       -7.20399
|  8> H          0.56537        0.69681       -6.72386
|  9> H          0.22068        1.58177       -8.20752
| 10> H         -1.40624        4.18151       -6.40326
| 11> H         -0.93421        3.68160       -7.99947
| 12> H         -1.28888        2.82674       -4.59500
| 13> H         -0.65170        1.18634       -4.75655
| 14> H          1.66208        2.08894       -4.68750
| 15> H          0.76716        2.51042       -3.24717
| 16> H          1.02677        3.70527       -4.49537
| 17> *
| 18>
| 19> %MaxCore 64000
| 20>
| 21> %pal nprocs 4
| 22> end
| 23>
| 24> %scf
| 25>   MaxIter 150
| 26> end
| 27>
| 28>
| 29>                          ****END OF INPUT****

CARTESIAN COORDINATES (ANGSTROEM)
---------------------------------
  C     -0.461290    2.234690   -4.989620
  C      0.848880    2.667970   -4.302350
  C     -0.423840    2.398770   -6.474320
  N     -0.959470    3.492650   -7.007400
  C      0.145580    1.486890   -7.203990
  H      0.565370    0.696810   -6.723860
  H      0.220680    1.581770   -8.207520
  H     -1.406240    4.181510   -6.403260
  H     -0.934210    3.681600   -7.999470
  H     -1.288880    2.826740   -4.595000
  H     -0.651700    1.186340   -4.756550
  H      1.662080    2.088940   -4.687500
  H      0.767160    2.510420   -3.247170
  H      1.026770    3.705270   -4.495370

 Total Charge           Charge          ....    0
 Multiplicity           Mult            ....    1
 Number of Electrons    NEL             ....   40
 Basis Dimension        Dim             ....  209

ORBITAL ENERGIES
----------------

  NO   OCC          E(Eh)            E(eV)
   0   2.0000     -14.166592      -385.4926
   1   2.0000     -10.086681      -274.4726
   2   2.0000     -10.066995      -273.9369
   3   2.0000     -10.051079      -273.5038
   4   2.0000      -9.996261      -272.0121
   5   2.0000      -1.024931       -27.8898
   6   2.0000      -0.888638       -24.1811
   7   2.0000      -0.823817       -22.4172
   8   2.0000      -0.745107       -20.2754
   9   2.0000      -0.669253       -18.2113
  10   2.0000      -0.624058       -16.9815
  11   2.0000      -0.588285       -16.0080
  12   2.0000      -0.544121       -14.8063
  13   2.0000      -0.518480       -14.1085
  14   2.0000      -0.493960       -13.4413
  15   2.0000      -0.484017       -13.1708
  16   2.0000      -0.447731       -12.1834
  17   2.0000      -0.434895       -11.8341
  18   2.0000      -0.429709       -11.6930
  19   2.0000      -0.286012        -7.7828
  20   0.0000       0.089666         2.4399
  21   0.0000       0.119060         3.2398
  22   0.0000       0.136623         3.7177
  23   0.0000       0.139905         3.8070
  24   0.0000       0.155120         4.2210

MULLIKEN ATOMIC CHARGES
-----------------------
   0 C :   -0.302731
   1 C :   -0.358639
   2 C :    0.259481
   3 N :   -0.438063
   4 C :   -0.458834
   5 H :    0.105492
   6 H :    0.105133
   7 H :    0.224184
   8 H :    0.226813
   9 H :    0.104545
  10 H :    0.143466
  11 H :    0.136712
  12 H :    0.128265
  13 H :    0.124175
Sum of atomic charges:   -0.0000000

LOEWDIN ATOMIC CHARGES
----------------------
   0 C :   -0.246313
   1 C :   -0.303413
   2 C :   -0.369552
   3 N :   -0.011071
   4 C :   -0.276226
   5 H :    0.113700
   6 H :    0.102671
   7 H :    0.170326
   8 H :    0.170075
   9 H :    0.137297
  10 H :    0.151652
  11 H :    0.122949
  12 H :    0.118051
  13 H :    0.119854

  Mayer bond orders larger than 0.100000
B(  0-C ,  1-C ) :   0.9221 B(  0-C ,  2-C ) :   0.9061 B(  0-C ,  9-H ) :   0.9922
B(  0-C , 10-H ) :   0.9942 B(  1-C , 11-H ) :   0.9749 B(  1-C , 12-H ) :   0.9819
B(  1-C , 13-H ) :   0.9741 B(  2-C ,  3-N ) :   1.1388 B(  2-C ,  4-C ) :   1.7331
B(  3-N ,  7-H ) :   0.9321 B(  3-N ,  8-H ) :   0.9294 B(  4-C ,  5-H ) :   1.0020
B(  4-C ,  6-H ) :   0.9979

FINAL SINGLE POINT ENERGY      -212.041582379456

DIPOLE MOMENT
-------------
                                X             Y             Z
Electronic contribution:     -1.71566       0.60339      -2.40729
Nuclear contribution   :      1.40335       0.04939       2.56207
                        -----------------------------------------
Total Dipole Moment    :     -0.31231       0.65278       0.15478
                        -----------------------------------------
Magnitude (a.u.)       :      0.74001
Magnitude (Debye)      :      1.88095

Rotational constants in cm-1:     0.271383     0.128194     0.101873
Rotational constants in MHz :  8135.853259  3843.152748  3054.074278

                             ****ORCA TERMINATED NORMALLY****
TOTAL RUN TIME: 0 days 0 hours 0 minutes 27 seconds 969 msec
