                         Program Version 5.0.0 -  RELEASE  -
|  1> !LC-BLYP RIJCOSX def2-TZVP def2/J TightSCF
|  2> *xyz 0 1
|  3> C          0.84888        2.66797       -4.30235
|  4> C          2.09343        1.86104       -4.65684
|  5> H          2.44481        2.04157       -5.67499
|  6> H          2.90175        2.13786       -3.98034
|  7> S          1.87964        0.07859       -4.46297
|  8> O          3.20757       -0.46611       -4.42026
|  9> O          1.07506       -0.05616       -3.26876
| 10> F          1.13166       -0.31996       -5.67903
| 11> H          0.05064        2.40112       -4.96303
| 12> H          1.06043        3.71210       -4.40203
| 13> H          0.56237        2.45684       -3.29327
| 14> *
| 15>
| 16> %MaxCore 64000
| 17>
| 18> %pal nprocs 4
| 19> end
| 20>
| 21> %scf
| 22>   MaxIter 150
| 23> end
| 24>
| 25>
| 26>                          ****END OF INPUT****

CARTESIAN COORDINATES (ANGSTROEM)
---------------------------------
  C      0.848880    2.667970   -4.302350
  C      2.093430    1.861040   -4.656840
  H      2.444810    2.041570   -5.674990
  H      2.901750    2.137860   -3.980340
  S      1.879640    0.078590   -4.462970
  O      3.207570   -0.466110   -4.420260
  O      1.075060   -0.056160   -3.268760
  F      1.131660   -0.319960   -5.679030
  H      0.050640    2.401120   -4.963030
  H      1.060430    3.712100   -4.402030
  H      0.562370    2.456840   -3.293270

 Total Charge           Charge          ....    0
 Multiplicity           Mult            ....    1
 Number of Electrons    NEL             ....   58
 Basis Dimension        Dim             ....  222

ORBITAL ENERGIES
----------------

  NO   OCC          E(Eh)            E(eV)
   0   2.0000     -88.515769     -2408.6365
   1   2.0000     -24.555641      -668.1930
   2   2.0000     -18.953939      -515.7629
   3   2.0000     -18.950518      -515.6698
   4   2.0000     -10.127520      -275.5838
   5   2.0000     -10.084092      -274.4021
   6   2.0000      -8.058388      -219.2799
   7   2.0000      -6.090235      -165.7237
   8   2.0000      -6.083391      -165.5375
   9   2.0000      -6.082783      -165.5209
  10   2.0000      -1.433588       -39.0099
  11   2.0000      -1.211741       -32.9732
  12   2.0000      -1.119305       -30.4578
  13   2.0000      -0.931037       -25.3348
  14   2.0000      -0.826927       -22.5018
  15   2.0000      -0.776781       -21.1373
  16   2.0000      -0.685723       -18.6595
  17   2.0000      -0.668060       -18.1788
  18   2.0000      -0.651292       -17.7226
  19   2.0000      -0.600585       -16.3427
  20   2.0000      -0.582798       -15.8587
  21   2.0000      -0.558481       -15.1970
  22   2.0000      -0.534527       -14.5452
  23   2.0000      -0.507963       -13.8224
  24   2.0000      -0.503070       -13.6892
  25   2.0000      -0.481567       -13.1041
  26   2.0000      -0.442159       -12.0317
  27   2.0000      -0.431129       -11.7316
  28   2.0000      -0.422359       -11.4930
  29   0.0000       0.082290         2.2392
  30   0.0000       0.118727         3.2307
  31   0.0000       0.128113         3.4861
  32   0.0000       0.137907         3.7526
  33   0.0000       0.152422         4.1476

MULLIKEN ATOMIC CHARGES
-----------------------
   0 C :   -0.394416
   1 C :   -0.306665
   2 H :    0.163179
   3 H :    0.176626
   4 S :    0.748666
   5 O :   -0.359672
   6 O :   -0.378371
   7 F :   -0.102800
   8 H :    0.140849
   9 H :    0.143247
  10 H :    0.169356
Sum of atomic charges:    0.0000000

LOEWDIN ATOMIC CHARGES
----------------------
   0 C :   -0.330966
   1 C :   -0.403541
   2 H :    0.139370
   3 H :    0.151965
   4 S :    0.504950
   5 O :   -0.249125
   6 O :   -0.257711
   7 F :    0.061690
   8 H :    0.124509
   9 H :    0.127788
  10 H :    0.131069

  Mayer bond orders larger than 0.100000
B(  0-C ,  1-C ) :   0.9201 B(  0-C ,  8-H ) :   0.9696 B(  0-C ,  9-H ) :   0.9633
B(  0-C , 10-H ) :   0.9632 B(  1-C ,  2-H ) :   0.9471 B(  1-C ,  3-H ) :   0.9419
B(  1-C ,  4-S ) :   0.9169 B(  4-S ,  5-O ) :   2.0039 B(  4-S ,  6-O ) :   1.9445
B(  4-S ,  7-F ) :   1.1367

FINAL SINGLE POINT ENERGY      -726.999798685860

DIPOLE MOMENT
-------------
                                X             Y             Z
Electronic contribution:      0.65307      -9.08936      -2.06200
Nuclear contribution   :     -0.92438      10.38956       1.27076
                        -----------------------------------------
Total Dipole Moment    :     -0.27131       1.30020      -0.79124
                        -----------------------------------------
Magnitude (a.u.)       :      1.54603
Magnitude (Debye)      :      3.92969

Rotational constants in cm-1:     0.154243     0.082247     0.080562
Rotational constants in MHz :  4624.087322  2465.703680  2415.175852

                             ****ORCA TERMINATED NORMALLY****
TOTAL RUN TIME: 0 days 0 hours 0 minutes 31 seconds 854 msec
