                         Program Version 5.0.0 -  RELEASE  -
|  1> !LC-BLYP RIJCOSX def2-TZVP def2/J TightSCF xyzfile
|  2>
|  3> *xyzfile 0 1 D1.xyz
|  4>
|  5> %MaxCore 64000
|  6>
|  7> %pal nprocs 18
|  8> end
|  9>
| 10> %scf
| 11>   MaxIter 150
| 12> end
| 13>
| 14>
| 15>                          ****END OF INPUT****

CARTESIAN COORDINATES (ANGSTROEM)
---------------------------------
  C     -0.461293    2.234686   -4.989619
  C      0.848883    2.667967   -4.302351
  C      2.093434    1.861037   -4.656845
  H      2.444814    2.041567   -5.674990
  H      2.901748    2.137864   -3.980338
  S      1.879644    0.078594   -4.462965
  C     -0.423841    2.398772   -6.474317
  C     -0.959467    3.492647   -7.007401
  N      0.145585    1.486891   -7.203987
  H      0.565371    0.696807   -6.723858
  H      0.220682    1.581768   -8.207520
  H     -1.406243    4.181507   -6.403261
  H     -0.934215    3.681601   -7.999468
  F      3.207574   -0.466111   -4.420259
  O      1.075064   -0.056160   -3.268758
  O      1.131661   -0.319960   -5.679031
  H      0.668432    2.559427   -3.232850
  H      1.034074    3.729426   -4.497081
  H     -1.288884    2.826737   -4.594997
  H     -0.651696    1.186343   -4.756552

 Total Charge           Charge          ....    0
 Multiplicity           Mult            ....    1
 Number of Electrons    NEL             ....   88
 Basis Dimension        Dim             ....  376

ORBITAL ENERGIES
----------------

  NO   OCC          E(Eh)            E(eV)
   0   2.0000     -88.538605     -2409.2579
   1   2.0000     -24.595945      -669.2897
   2   2.0000     -18.968334      -516.1546
   3   2.0000     -18.964644      -516.0542
   4   2.0000     -14.141257      -384.8032
   5   2.0000     -10.135076      -275.7895
   6   2.0000     -10.096297      -274.7342
   7   2.0000     -10.082214      -274.3510
   8   2.0000     -10.068974      -273.9907
   9   2.0000      -9.990241      -271.8483
  10   2.0000      -8.081321      -219.9039
  11   2.0000      -6.112800      -166.3377
  12   2.0000      -6.106350      -166.1622
  13   2.0000      -6.105867      -166.1491
  14   2.0000      -1.487923       -40.4884
  15   2.0000      -1.222577       -33.2680
  16   2.0000      -1.125743       -30.6330
  17   2.0000      -1.021445       -27.7949
  18   2.0000      -0.945133       -25.7184
  19   2.0000      -0.877987       -23.8912
  20   2.0000      -0.844393       -22.9771
  21   2.0000      -0.800849       -21.7922
  22   2.0000      -0.755482       -20.5577
  23   2.0000      -0.715376       -19.4664
  24   2.0000      -0.704683       -19.1754
  25   2.0000      -0.684611       -18.6292
  26   2.0000      -0.662284       -18.0217
  27   2.0000      -0.631844       -17.1933
  28   2.0000      -0.610248       -16.6057
  29   2.0000      -0.595617       -16.2076
  30   2.0000      -0.578237       -15.7346
  31   2.0000      -0.558077       -15.1860
  32   2.0000      -0.550360       -14.9761
  33   2.0000      -0.518549       -14.1104
  34   2.0000      -0.499694       -13.5974
  35   2.0000      -0.495997       -13.4968
  36   2.0000      -0.480741       -13.0816
  37   2.0000      -0.462802       -12.5935
  38   2.0000      -0.452243       -12.3062
  39   2.0000      -0.444862       -12.1053
  40   2.0000      -0.430700       -11.7199
  41   2.0000      -0.426175       -11.5968
  42   2.0000      -0.418216       -11.3802
  43   2.0000      -0.271235        -7.3807
  44   0.0000       0.079336         2.1588
  45   0.0000       0.095411         2.5963
  46   0.0000       0.115062         3.1310
  47   0.0000       0.122243         3.3264
  48   0.0000       0.127088         3.4582

MULLIKEN ATOMIC CHARGES
-----------------------
   0 C :   -0.421728
   1 C :   -0.220196
   2 C :   -0.375867
   3 H :    0.198051
   4 H :    0.173976
   5 S :    0.783529
   6 C :    0.227725
   7 C :   -0.469775
   8 N :   -0.398574
   9 H :    0.251543
  10 H :    0.213798
  11 H :    0.093033
  12 H :    0.102126
  13 F :   -0.058530
  14 O :   -0.348794
  15 O :   -0.417611
  16 H :    0.159743
  17 H :    0.156657
  18 H :    0.150783
  19 H :    0.200111
Sum of atomic charges:   -0.0000000

LOEWDIN ATOMIC CHARGES
----------------------
   0 C :   -0.224418
   1 C :   -0.275322
   2 C :   -0.378483
   3 H :    0.148510
   4 H :    0.143990
   5 S :    0.522486
   6 C :   -0.380189
   7 C :   -0.302076
   8 N :    0.011635
   9 H :    0.135786
  10 H :    0.169880
  11 H :    0.105649
  12 H :    0.096911
  13 F :    0.126106
  14 O :   -0.237908
  15 O :   -0.275516
  16 H :    0.150748
  17 H :    0.154814
  18 H :    0.157709
  19 H :    0.149686

  Mayer bond orders larger than 0.100000
B(  0-C ,  1-C ) :   0.8865 B(  0-C ,  6-C ) :   0.8637 B(  0-C , 18-H ) :   0.9900
B(  0-C , 19-H ) :   1.0011 B(  1-C ,  2-C ) :   0.9229 B(  1-C , 16-H ) :   0.9735
B(  1-C , 17-H ) :   0.9531 B(  2-C ,  3-H ) :   0.9250 B(  2-C ,  4-H ) :   0.9434
B(  2-C ,  5-S ) :   0.9432 B(  5-S , 13-F ) :   1.2087 B(  5-S , 14-O ) :   1.9615
B(  5-S , 15-O ) :   1.7724 B(  6-C ,  7-C ) :   1.6938 B(  6-C ,  8-N ) :   1.2127
B(  7-C , 11-H ) :   1.0007 B(  7-C , 12-H ) :   0.9986 B(  8-N ,  9-H ) :   0.8570
B(  8-N , 10-H ) :   0.9331 B(  9-H , 15-O ) :   0.1201

FINAL SINGLE POINT ENERGY      -898.639895610592

DIPOLE MOMENT
-------------
                                X             Y             Z
Electronic contribution:     10.20522     -13.94794       5.47520
Nuclear contribution   :     -8.53047      14.15581      -5.17613
                        -----------------------------------------
Total Dipole Moment    :      1.67475       0.20787       0.29907
                        -----------------------------------------
Magnitude (a.u.)       :      1.71390
Magnitude (Debye)      :      4.35639

Rotational constants in cm-1:     0.081196     0.024861     0.022477
Rotational constants in MHz :  2434.181666   745.320670   673.846846

                             ****ORCA TERMINATED NORMALLY****
TOTAL RUN TIME: 0 days 0 hours 0 minutes 32 seconds 765 msec
