                         Program Version 5.0.0 -  RELEASE  -
|  1> !LC-BLYP RIJCOSX def2-TZVP def2/J TightSCF xyzfile
|  2>
|  3> *xyzfile 0 1 D6.xyz
|  4>
|  5> %MaxCore 64000
|  6>
|  7> %pal nprocs 18
|  8> end
|  9>
| 10> %scf
| 11>   MaxIter 150
| 12> end
| 13>
| 14>
| 15>                          ****END OF INPUT****

CARTESIAN COORDINATES (ANGSTROEM)
---------------------------------
  C     -0.461293    2.234686   -4.989619
  C      0.848883    2.667967   -4.302351
  C      2.093434    1.861037   -4.656845
  H      2.444814    2.041567   -5.674990
  H      2.901748    2.137864   -3.980338
  S      1.879644    0.078594   -4.462965
  C     -0.423841    2.398772   -6.474317
  N     -0.959467    3.492647   -7.007401
  C      0.145585    1.486891   -7.203987
  H      0.565371    0.696807   -6.723858
  H      0.220682    1.581768   -8.207520
  H     -1.406243    4.181507   -6.403261
  H     -0.934215    3.681601   -7.999468
  O      3.207574   -0.466111   -4.420259
  O      1.075064   -0.056160   -3.268758
  F      1.131661   -0.319960   -5.679031
  H      0.668432    2.559427   -3.232850
  H      1.034074    3.729426   -4.497081
  H     -1.288884    2.826737   -4.594997
  H     -0.651696    1.186343   -4.756552

 Total Charge           Charge          ....    0
 Multiplicity           Mult            ....    1
 Number of Electrons    NEL             ....   88
 Basis Dimension        Dim             ....  376

ORBITAL ENERGIES
----------------

  NO   OCC          E(Eh)            E(eV)
   0   2.0000     -88.514842     -2408.6113
   1   2.0000     -24.555516      -668.1896
   2   2.0000     -18.952672      -515.7284
   3   2.0000     -18.949984      -515.6553
   4   2.0000     -14.177242      -385.7824
   5   2.0000     -10.121074      -275.4084
   6   2.0000     -10.098892      -274.8048
   7   2.0000     -10.095528      -274.7133
   8   2.0000     -10.083511      -274.3863
   9   2.0000     -10.000682      -272.1324
  10   2.0000      -8.057647      -219.2597
  11   2.0000      -6.089582      -165.7059
  12   2.0000      -6.082579      -165.5154
  13   2.0000      -6.081944      -165.4981
  14   2.0000      -1.439005       -39.1573
  15   2.0000      -1.211747       -32.9733
  16   2.0000      -1.118674       -30.4407
  17   2.0000      -1.036845       -28.2140
  18   2.0000      -0.942827       -25.6556
  19   2.0000      -0.879306       -23.9271
  20   2.0000      -0.832279       -22.6475
  21   2.0000      -0.818217       -22.2648
  22   2.0000      -0.747879       -20.3508
  23   2.0000      -0.708099       -19.2683
  24   2.0000      -0.673967       -18.3396
  25   2.0000      -0.662171       -18.0186
  26   2.0000      -0.653654       -17.7868
  27   2.0000      -0.636815       -17.3286
  28   2.0000      -0.606134       -16.4937
  29   2.0000      -0.593272       -16.1438
  30   2.0000      -0.574809       -15.6413
  31   2.0000      -0.559821       -15.2335
  32   2.0000      -0.550856       -14.9895
  33   2.0000      -0.516016       -14.0415
  34   2.0000      -0.505740       -13.7619
  35   2.0000      -0.497341       -13.5333
  36   2.0000      -0.481193       -13.0939
  37   2.0000      -0.473140       -12.8748
  38   2.0000      -0.448419       -12.2021
  39   2.0000      -0.439319       -11.9545
  40   2.0000      -0.436952       -11.8901
  41   2.0000      -0.425265       -11.5721
  42   2.0000      -0.421200       -11.4614
  43   2.0000      -0.297986        -8.1086
  44   0.0000       0.078309         2.1309
  45   0.0000       0.099369         2.7040
  46   0.0000       0.108727         2.9586
  47   0.0000       0.117368         3.1937
  48   0.0000       0.129218         3.5162

MULLIKEN ATOMIC CHARGES
-----------------------
   0 C :   -0.447862
   1 C :   -0.195955
   2 C :   -0.398142
   3 H :    0.205214
   4 H :    0.189124
   5 S :    0.761146
   6 C :    0.313629
   7 N :   -0.437504
   8 C :   -0.481944
   9 H :    0.097855
  10 H :    0.109960
  11 H :    0.224382
  12 H :    0.230278
  13 O :   -0.363476
  14 O :   -0.371174
  15 F :   -0.082128
  16 H :    0.166311
  17 H :    0.143016
  18 H :    0.135176
  19 H :    0.202095
Sum of atomic charges:   -0.0000000

LOEWDIN ATOMIC CHARGES
----------------------
   0 C :   -0.227455
   1 C :   -0.282290
   2 C :   -0.372985
   3 H :    0.147735
   4 H :    0.154376
   5 S :    0.517741
   6 C :   -0.372073
   7 N :   -0.008517
   8 C :   -0.282518
   9 H :    0.091082
  10 H :    0.103082
  11 H :    0.170494
  12 H :    0.171361
  13 O :   -0.246214
  14 O :   -0.254022
  15 F :    0.089370
  16 H :    0.151976
  17 H :    0.148410
  18 H :    0.146504
  19 H :    0.153945

  Mayer bond orders larger than 0.100000
B(  0-C ,  1-C ) :   0.8784 B(  0-C ,  6-C ) :   0.8403 B(  0-C , 18-H ) :   0.9962
B(  0-C , 19-H ) :   1.0119 B(  1-C ,  2-C ) :   0.9050 B(  1-C , 16-H ) :   0.9764
B(  1-C , 17-H ) :   0.9522 B(  2-C ,  3-H ) :   0.9364 B(  2-C ,  4-H ) :   0.9497
B(  2-C ,  5-S ) :   0.9293 B(  5-S , 13-O ) :   2.0269 B(  5-S , 14-O ) :   1.9303
B(  5-S , 15-F ) :   1.0917 B(  6-C ,  7-N ) :   1.1317 B(  6-C ,  8-C ) :   1.6863
B(  7-N , 11-H ) :   0.9305 B(  7-N , 12-H ) :   0.9302 B(  8-C ,  9-H ) :   1.0264
B(  8-C , 10-H ) :   0.9940

FINAL SINGLE POINT ENERGY      -898.640502316360

DIPOLE MOMENT
-------------
                                X             Y             Z
Electronic contribution:      5.54074     -11.94889       3.17176
Nuclear contribution   :     -6.15577      13.80449      -3.81895
                        -----------------------------------------
Total Dipole Moment    :     -0.61502       1.85560      -0.64719
                        -----------------------------------------
Magnitude (a.u.)       :      2.05921
Magnitude (Debye)      :      5.23410

Rotational constants in cm-1:     0.081431     0.024887     0.022470
Rotational constants in MHz :  2441.231544   746.086417   673.646914

                             ****ORCA TERMINATED NORMALLY****
TOTAL RUN TIME: 0 days 0 hours 0 minutes 35 seconds 445 msec
