                         Program Version 5.0.0 -  RELEASE  -
|  1> !BLYP D3BJ RIJCOSX def2-SVPD def2/J TightSCF
|  2> *xyz -1 1
|  3> C         -0.91495        0.61511        2.50554
|  4> C         -0.05915        1.50352        3.41058
|  5> H          0.36536        2.34431        2.86116
|  6> H         -0.69226        1.92021        4.19898
|  7> C          1.08303        0.74964        4.08571
|  8> O          2.22817        1.26348        4.01983
|  9> O          0.81003       -0.34541        4.63627
| 10> C         -0.13074       -0.19398        1.47076
| 11> H         -1.64796        1.24596        1.99108
| 12> H         -1.47818       -0.08105        3.13042
| 13> H         -0.80952       -0.78099        0.88803
| 14> H          0.55985       -0.83974        1.97175
| 15> H          0.40595        0.47288        0.82877
| 16> *
| 17>
| 18> %MaxCore 64000
| 19>
| 20> %pal nprocs 4
| 21> end
| 22>
| 23> %scf
| 24>   MaxIter 150
| 25> end
| 26>
| 27>
| 28>                          ****END OF INPUT****

CARTESIAN COORDINATES (ANGSTROEM)
---------------------------------
  C     -0.914950    0.615110    2.505540
  C     -0.059150    1.503520    3.410580
  H      0.365360    2.344310    2.861160
  H     -0.692260    1.920210    4.198980
  C      1.083030    0.749640    4.085710
  O      2.228170    1.263480    4.019830
  O      0.810030   -0.345410    4.636270
  C     -0.130740   -0.193980    1.470760
  H     -1.647960    1.245960    1.991080
  H     -1.478180   -0.081050    3.130420
  H     -0.809520   -0.780990    0.888030
  H      0.559850   -0.839740    1.971750
  H      0.405950    0.472880    0.828770

 Total Charge           Charge          ....   -1
 Multiplicity           Mult            ....    1
 Number of Electrons    NEL             ....   48
 Basis Dimension        Dim             ....  182

ORBITAL ENERGIES
----------------

  NO   OCC          E(Eh)            E(eV)
   0   2.0000     -18.535303      -504.3712
   1   2.0000     -18.534377      -504.3460
   2   2.0000      -9.805119      -266.8109
   3   2.0000      -9.772584      -265.9255
   4   2.0000      -9.767288      -265.7814
   5   2.0000      -9.748829      -265.2791
   6   2.0000      -0.721326       -19.6283
   7   2.0000      -0.633418       -17.2362
   8   2.0000      -0.551144       -14.9974
   9   2.0000      -0.464099       -12.6288
  10   2.0000      -0.375065       -10.2060
  11   2.0000      -0.269743        -7.3401
  12   2.0000      -0.252196        -6.8626
  13   2.0000      -0.233348        -6.3497
  14   2.0000      -0.205783        -5.5997
  15   2.0000      -0.178891        -4.8679
  16   2.0000      -0.166975        -4.5436
  17   2.0000      -0.158790        -4.3209
  18   2.0000      -0.147045        -4.0013
  19   2.0000      -0.128340        -3.4923
  20   2.0000      -0.118415        -3.2222
  21   2.0000      -0.013740        -0.3739
  22   2.0000      -0.000083        -0.0023
  23   2.0000       0.016787         0.4568
  24   0.0000       0.129400         3.5211
  25   0.0000       0.153518         4.1774
  26   0.0000       0.171136         4.6569
  27   0.0000       0.181705         4.9444
  28   0.0000       0.196986         5.3603

MULLIKEN ATOMIC CHARGES
-----------------------
   0 C :   -0.166922
   1 C :    0.452981
   2 H :   -0.154982
   3 H :   -0.176586
   4 C :    0.183744
   5 O :   -0.572150
   6 O :   -0.638878
   7 C :    1.032781
   8 H :   -0.338649
   9 H :   -0.104431
  10 H :   -0.215243
  11 H :   -0.165789
  12 H :   -0.135875
Sum of atomic charges:   -1.0000000

LOEWDIN ATOMIC CHARGES
----------------------
   0 C :   -0.084409
   1 C :    0.004748
   2 H :   -0.006477
   3 H :    0.003650
   4 C :   -0.333988
   5 O :   -0.306837
   6 O :   -0.297097
   7 C :    0.127083
   8 H :   -0.009688
   9 H :    0.004254
  10 H :   -0.043390
  11 H :   -0.027236
  12 H :   -0.030613

  Mayer bond orders larger than 0.100000
B(  0-C ,  1-C ) :   1.2036 B(  0-C ,  2-H ) :   0.1802 B(  0-C ,  3-H ) :   0.1697
B(  0-C ,  7-C ) :   1.3286 B(  0-C ,  8-H ) :   0.8778 B(  0-C ,  9-H ) :   0.8067
B(  0-C , 10-H ) :   0.2925 B(  0-C , 11-H ) :   0.2696 B(  0-C , 12-H ) :   0.2581
B(  1-C ,  2-H ) :   0.7901 B(  1-C ,  3-H ) :   0.7369 B(  1-C ,  4-C ) :   1.0304
B(  1-C ,  8-H ) :   0.1358 B(  1-C ,  9-H ) :   0.1577 B(  2-H ,  4-C ) :   0.2865
B(  3-H ,  4-C ) :   0.1340 B(  4-C ,  5-O ) :   1.5029 B(  4-C ,  6-O ) :   1.5756
B(  7-C ,  8-H ) :   0.1175 B(  7-C ,  9-H ) :   0.1186 B(  7-C , 10-H ) :   0.6357
B(  7-C , 11-H ) :   0.7420 B(  7-C , 12-H ) :   0.7008

Dispersion correction           -0.020276458
FINAL SINGLE POINT ENERGY      -306.858265405707

DIPOLE MOMENT
-------------
                                X             Y             Z
Electronic contribution:      4.66277       0.17876       5.56322
Nuclear contribution   :     -6.45806       0.15825      -7.12052
                        -----------------------------------------
Total Dipole Moment    :     -1.79529       0.33701      -1.55730
                        -----------------------------------------
Magnitude (a.u.)       :      2.40038
Magnitude (Debye)      :      6.10129

Rotational constants in cm-1:     0.199323     0.080770     0.077827
Rotational constants in MHz :  5975.562678  2421.415024  2333.195390

                             ****ORCA TERMINATED NORMALLY****
TOTAL RUN TIME: 0 days 0 hours 0 minutes 6 seconds 488 msec
