                         Program Version 5.0.0 -  RELEASE  -
|  1> !BLYP D3BJ RIJCOSX def2-SVPD def2/J TightSCF
|  2> *xyz 1 1
|  3> C          4.60295       -2.44010        2.63478
|  4> C          3.86085       -1.59157        3.62289
|  5> N          2.75650       -2.04616        4.16633
|  6> N          4.25433       -0.36291        3.86046
|  7> H          3.56526        0.31099        4.16898
|  8> H          5.05429       -0.01606        3.33784
|  9> H          2.43970       -2.97389        3.89740
| 10> H          2.06687       -1.41253        4.54981
| 11> C          3.74469       -2.58056        1.36188
| 12> C          3.20372       -1.25600        0.82621
| 13> H          2.89894       -3.23929        1.58307
| 14> H          4.33496       -3.09552        0.60019
| 15> H          5.56156       -1.97135        2.40708
| 16> H          4.81050       -3.42255        3.06310
| 17> H          2.62184       -1.43789       -0.05313
| 18> H          4.02069       -0.60826        0.58562
| 19> H          2.58975       -0.79418        1.57097
| 20> *
| 21>
| 22> %MaxCore 64000
| 23>
| 24> %pal nprocs 4
| 25> end
| 26>
| 27> %scf
| 28>   MaxIter 150
| 29> end
| 30>
| 31>
| 32>                          ****END OF INPUT****

CARTESIAN COORDINATES (ANGSTROEM)
---------------------------------
  C      4.602950   -2.440100    2.634780
  C      3.860850   -1.591570    3.622890
  N      2.756500   -2.046160    4.166330
  N      4.254330   -0.362910    3.860460
  H      3.565260    0.310990    4.168980
  H      5.054290   -0.016060    3.337840
  H      2.439700   -2.973890    3.897400
  H      2.066870   -1.412530    4.549810
  C      3.744690   -2.580560    1.361880
  C      3.203720   -1.256000    0.826210
  H      2.898940   -3.239290    1.583070
  H      4.334960   -3.095520    0.600190
  H      5.561560   -1.971350    2.407080
  H      4.810500   -3.422550    3.063100
  H      2.621840   -1.437890   -0.053130
  H      4.020690   -0.608260    0.585620
  H      2.589750   -0.794180    1.570970

 Total Charge           Charge          ....    1
 Multiplicity           Mult            ....    1
 Number of Electrons    NEL             ....   48
 Basis Dimension        Dim             ....  208

ORBITAL ENERGIES
----------------

  NO   OCC          E(Eh)            E(eV)
   0   2.0000     -14.267335      -388.2339
   1   2.0000     -14.267049      -388.2261
   2   2.0000     -10.233621      -278.4710
   3   2.0000     -10.118365      -275.3347
   4   2.0000     -10.090006      -274.5630
   5   2.0000     -10.059077      -273.7214
   6   2.0000      -1.107951       -30.1489
   7   2.0000      -1.017300       -27.6821
   8   2.0000      -0.892568       -24.2880
   9   2.0000      -0.812257       -22.1026
  10   2.0000      -0.768075       -20.9004
  11   2.0000      -0.720358       -19.6019
  12   2.0000      -0.714018       -19.4294
  13   2.0000      -0.672787       -18.3075
  14   2.0000      -0.644967       -17.5504
  15   2.0000      -0.611807       -16.6481
  16   2.0000      -0.577040       -15.7021
  17   2.0000      -0.544937       -14.8285
  18   2.0000      -0.526626       -14.3302
  19   2.0000      -0.519724       -14.1424
  20   2.0000      -0.468093       -12.7374
  21   2.0000      -0.465526       -12.6676
  22   2.0000      -0.454988       -12.3808
  23   2.0000      -0.450756       -12.2657
  24   0.0000      -0.245880        -6.6907
  25   0.0000      -0.182289        -4.9603
  26   0.0000      -0.143186        -3.8963
  27   0.0000      -0.139240        -3.7889
  28   0.0000      -0.111353        -3.0301

MULLIKEN ATOMIC CHARGES
-----------------------
   0 C :    0.623804
   1 C :    0.156572
   2 N :    0.315117
   3 N :    0.287279
   4 H :   -0.136925
   5 H :    0.033282
   6 H :    0.024022
   7 H :   -0.184330
   8 C :   -0.083070
   9 C :    1.210937
  10 H :   -0.105819
  11 H :   -0.319770
  12 H :   -0.109297
  13 H :   -0.149259
  14 H :   -0.268198
  15 H :   -0.132749
  16 H :   -0.161597
Sum of atomic charges:    1.0000000

LOEWDIN ATOMIC CHARGES
----------------------
   0 C :    0.062089
   1 C :   -0.088352
   2 N :    0.308756
   3 N :    0.308642
   4 H :    0.045831
   5 H :    0.048973
   6 H :    0.049223
   7 H :    0.046952
   8 C :   -0.029374
   9 C :    0.156106
  10 H :    0.020006
  11 H :    0.038200
  12 H :    0.034482
  13 H :    0.044421
  14 H :   -0.001680
  15 H :   -0.009886
  16 H :   -0.034388

  Mayer bond orders larger than 0.100000
B(  0-C ,  1-C ) :   1.1762 B(  0-C ,  8-C ) :   1.1510 B(  0-C , 10-H ) :   0.1389
B(  0-C , 11-H ) :   0.1452 B(  0-C , 12-H ) :   0.6846 B(  0-C , 13-H ) :   0.6937
B(  1-C ,  2-N ) :   1.2429 B(  1-C ,  3-N ) :   1.1914 B(  1-C ,  4-H ) :  -0.1249
B(  1-C ,  7-H ) :  -0.1122 B(  1-C , 12-H ) :   0.2548 B(  1-C , 13-H ) :   0.2293
B(  2-N ,  3-N ) :   0.1940 B(  2-N ,  6-H ) :   1.0326 B(  2-N ,  7-H ) :   1.2162
B(  3-N ,  4-H ) :   1.1933 B(  3-N ,  5-H ) :   1.0040 B(  4-H ,  5-H ) :  -0.1524
B(  6-H ,  7-H ) :  -0.1721 B(  8-C ,  9-C ) :   1.3393 B(  8-C , 10-H ) :   0.8075
B(  8-C , 11-H ) :   0.8754 B(  8-C , 12-H ) :   0.1608 B(  8-C , 13-H ) :   0.1079
B(  8-C , 14-H ) :   0.2917 B(  8-C , 15-H ) :   0.2515 B(  8-C , 16-H ) :   0.2974
B(  9-C , 10-H ) :   0.1124 B(  9-C , 11-H ) :   0.1003 B(  9-C , 14-H ) :   0.6160
B(  9-C , 15-H ) :   0.6631 B(  9-C , 16-H ) :   0.6941 B( 15-H , 16-H ) :   0.1066

Dispersion correction           -0.028720622
FINAL SINGLE POINT ENERGY      -268.051320975683

DIPOLE MOMENT
-------------
                                X             Y             Z
Electronic contribution:      0.49494       0.57030       5.20343
Nuclear contribution   :     -0.82989      -0.08664      -4.26094
                        -----------------------------------------
Total Dipole Moment    :     -0.33495       0.48366       0.94249
                        -----------------------------------------
Magnitude (a.u.)       :      1.11104
Magnitude (Debye)      :      2.82403

Rotational constants in cm-1:     0.166042     0.084809     0.078793
Rotational constants in MHz :  4977.819890  2542.513379  2362.161076

                             ****ORCA TERMINATED NORMALLY****
TOTAL RUN TIME: 0 days 0 hours 0 minutes 8 seconds 266 msec
