                         Program Version 5.0.0 -  RELEASE  -
|  1> !BLYP D3BJ RIJCOSX def2-SVPD def2/J TightSCF
|  2> *xyz 0 1
|  3> C         -0.91495        0.61511        2.50554
|  4> C         -0.05915        1.50352        3.41058
|  5> H          0.36536        2.34431        2.86116
|  6> H         -0.69226        1.92021        4.19898
|  7> C          1.08303        0.74964        4.08571
|  8> F          2.22817        1.26348        4.01983
|  9> O          0.81003       -0.34541        4.63627
| 10> C         -0.13074       -0.19398        1.47076
| 11> H         -1.64796        1.24596        1.99108
| 12> H         -1.47818       -0.08105        3.13042
| 13> H         -0.80952       -0.78099        0.88803
| 14> H          0.55985       -0.83974        1.97175
| 15> H          0.40595        0.47288        0.82877
| 16> *
| 17>
| 18> %MaxCore 64000
| 19>
| 20> %pal nprocs 4
| 21> end
| 22>
| 23> %scf
| 24>   MaxIter 150
| 25> end
| 26>
| 27>
| 28>                          ****END OF INPUT****

CARTESIAN COORDINATES (ANGSTROEM)
---------------------------------
  C     -0.914950    0.615110    2.505540
  C     -0.059150    1.503520    3.410580
  H      0.365360    2.344310    2.861160
  H     -0.692260    1.920210    4.198980
  C      1.083030    0.749640    4.085710
  F      2.228170    1.263480    4.019830
  O      0.810030   -0.345410    4.636270
  C     -0.130740   -0.193980    1.470760
  H     -1.647960    1.245960    1.991080
  H     -1.478180   -0.081050    3.130420
  H     -0.809520   -0.780990    0.888030
  H      0.559850   -0.839740    1.971750
  H      0.405950    0.472880    0.828770

 Total Charge           Charge          ....    0
 Multiplicity           Mult            ....    1
 Number of Electrons    NEL             ....   48
 Basis Dimension        Dim             ....  182

ORBITAL ENERGIES
----------------

  NO   OCC          E(Eh)            E(eV)
   0   2.0000     -24.374877      -663.2741
   1   2.0000     -18.799148      -511.5508
   2   2.0000     -10.096247      -274.7328
   3   2.0000      -9.952444      -270.8198
   4   2.0000      -9.935887      -270.3692
   5   2.0000      -9.915287      -269.8087
   6   2.0000      -1.196181       -32.5497
   7   2.0000      -0.932572       -25.3766
   8   2.0000      -0.727569       -19.7982
   9   2.0000      -0.650878       -17.7113
  10   2.0000      -0.591543       -16.0967
  11   2.0000      -0.542671       -14.7668
  12   2.0000      -0.487288       -13.2598
  13   2.0000      -0.468323       -12.7437
  14   2.0000      -0.447358       -12.1732
  15   2.0000      -0.413610       -11.2549
  16   2.0000      -0.402418       -10.9503
  17   2.0000      -0.370256       -10.0752
  18   2.0000      -0.350977        -9.5506
  19   2.0000      -0.327299        -8.9063
  20   2.0000      -0.312302        -8.4982
  21   2.0000      -0.305371        -8.3096
  22   2.0000      -0.302311        -8.2263
  23   2.0000      -0.245016        -6.6672
  24   0.0000      -0.069232        -1.8839
  25   0.0000      -0.004168        -0.1134
  26   0.0000       0.023535         0.6404
  27   0.0000       0.029024         0.7898
  28   0.0000       0.038906         1.0587

MULLIKEN ATOMIC CHARGES
-----------------------
   0 C :   -0.095950
   1 C :    0.383010
   2 H :   -0.128035
   3 H :   -0.116284
   4 C :    0.559832
   5 F :   -0.298861
   6 O :   -0.436223
   7 C :    1.058128
   8 H :   -0.307668
   9 H :   -0.103890
  10 H :   -0.195081
  11 H :   -0.189035
  12 H :   -0.129943
Sum of atomic charges:   -0.0000000

LOEWDIN ATOMIC CHARGES
----------------------
   0 C :   -0.054066
   1 C :    0.046489
   2 H :    0.018182
   3 H :    0.036461
   4 C :   -0.045577
   5 F :   -0.013234
   6 O :   -0.111039
   7 C :    0.146410
   8 H :    0.019450
   9 H :    0.022276
  10 H :   -0.019278
  11 H :   -0.025962
  12 H :   -0.020111

  Mayer bond orders larger than 0.100000
B(  0-C ,  1-C ) :   1.2353 B(  0-C ,  2-H ) :   0.1733 B(  0-C ,  3-H ) :   0.1658
B(  0-C ,  7-C ) :   1.3599 B(  0-C ,  8-H ) :   0.8489 B(  0-C ,  9-H ) :   0.8017
B(  0-C , 10-H ) :   0.2753 B(  0-C , 11-H ) :   0.2547 B(  0-C , 12-H ) :   0.2484
B(  1-C ,  2-H ) :   0.8118 B(  1-C ,  3-H ) :   0.7364 B(  1-C ,  4-C ) :   1.0744
B(  1-C ,  8-H ) :   0.1358 B(  1-C ,  9-H ) :   0.1438 B(  2-H ,  4-C ) :   0.1468
B(  3-H ,  4-C ) :   0.1091 B(  4-C ,  5-F ) :   0.7988 B(  4-C ,  6-O ) :   1.8690
B(  5-F ,  6-O ) :   0.1303 B(  7-C ,  8-H ) :   0.1089 B(  7-C ,  9-H ) :   0.1126
B(  7-C , 10-H ) :   0.6432 B(  7-C , 11-H ) :   0.7380 B(  7-C , 12-H ) :   0.7010

Dispersion correction           -0.019503981
FINAL SINGLE POINT ENERGY      -331.393657537352

DIPOLE MOMENT
-------------
                                X             Y             Z
Electronic contribution:      7.98391       1.43378       7.23830
Nuclear contribution   :     -8.39104      -0.60591      -7.87060
                        -----------------------------------------
Total Dipole Moment    :     -0.40713       0.82788      -0.63229
                        -----------------------------------------
Magnitude (a.u.)       :      1.11845
Magnitude (Debye)      :      2.84287

Rotational constants in cm-1:     0.194210     0.077092     0.074391
Rotational constants in MHz :  5822.269139  2311.145895  2230.180895

                             ****ORCA TERMINATED NORMALLY****
TOTAL RUN TIME: 0 days 0 hours 0 minutes 6 seconds 375 msec
