                         Program Version 5.0.0 -  RELEASE  -
|  1> !BLYP D3BJ RIJCOSX def2-SVPD def2/J TightSCF
|  2> *xyz 0 1
|  3> C          4.60295       -2.44010        2.63478
|  4> C          3.86085       -1.59157        3.62289
|  5> C          2.75650       -2.04616        4.16633
|  6> N          4.25433       -0.36291        3.86046
|  7> H          3.56526        0.31099        4.16898
|  8> H          5.05429       -0.01606        3.33784
|  9> H          2.43970       -2.97389        3.89740
| 10> H          2.06687       -1.41253        4.54981
| 11> C          3.74469       -2.58056        1.36188
| 12> C          3.20372       -1.25600        0.82621
| 13> H          2.89894       -3.23929        1.58307
| 14> H          4.33496       -3.09552        0.60019
| 15> H          5.56156       -1.97135        2.40708
| 16> H          4.81050       -3.42255        3.06310
| 17> H          2.62184       -1.43789       -0.05313
| 18> H          4.02069       -0.60826        0.58562
| 19> H          2.58975       -0.79418        1.57097
| 20> *
| 21>
| 22> %MaxCore 64000
| 23>
| 24> %pal nprocs 4
| 25> end
| 26>
| 27> %scf
| 28>   MaxIter 150
| 29> end
| 30>
| 31>
| 32>                          ****END OF INPUT****

CARTESIAN COORDINATES (ANGSTROEM)
---------------------------------
  C      4.602950   -2.440100    2.634780
  C      3.860850   -1.591570    3.622890
  C      2.756500   -2.046160    4.166330
  N      4.254330   -0.362910    3.860460
  H      3.565260    0.310990    4.168980
  H      5.054290   -0.016060    3.337840
  H      2.439700   -2.973890    3.897400
  H      2.066870   -1.412530    4.549810
  C      3.744690   -2.580560    1.361880
  C      3.203720   -1.256000    0.826210
  H      2.898940   -3.239290    1.583070
  H      4.334960   -3.095520    0.600190
  H      5.561560   -1.971350    2.407080
  H      4.810500   -3.422550    3.063100
  H      2.621840   -1.437890   -0.053130
  H      4.020690   -0.608260    0.585620
  H      2.589750   -0.794180    1.570970

 Total Charge           Charge          ....    0
 Multiplicity           Mult            ....    1
 Number of Electrons    NEL             ....   48
 Basis Dimension        Dim             ....  208

ORBITAL ENERGIES
----------------

  NO   OCC          E(Eh)            E(eV)
   0   2.0000     -14.028173      -381.7260
   1   2.0000      -9.936928      -270.3976
   2   2.0000      -9.922358      -270.0011
   3   2.0000      -9.918810      -269.9045
   4   2.0000      -9.903861      -269.4978
   5   2.0000      -9.854306      -268.1493
   6   2.0000      -0.840191       -22.8627
   7   2.0000      -0.710091       -19.3226
   8   2.0000      -0.649011       -17.6605
   9   2.0000      -0.607493       -16.5307
  10   2.0000      -0.537689       -14.6313
  11   2.0000      -0.495704       -13.4888
  12   2.0000      -0.467228       -12.7139
  13   2.0000      -0.430982       -11.7276
  14   2.0000      -0.403197       -10.9716
  15   2.0000      -0.384444       -10.4612
  16   2.0000      -0.354237        -9.6393
  17   2.0000      -0.340669        -9.2701
  18   2.0000      -0.320370        -8.7177
  19   2.0000      -0.315156        -8.5758
  20   2.0000      -0.293783        -7.9942
  21   2.0000      -0.286365        -7.7924
  22   2.0000      -0.278616        -7.5815
  23   2.0000      -0.156766        -4.2658
  24   0.0000      -0.004340        -0.1181
  25   0.0000       0.004186         0.1139
  26   0.0000       0.026659         0.7254
  27   0.0000       0.034745         0.9454
  28   0.0000       0.040263         1.0956

MULLIKEN ATOMIC CHARGES
-----------------------
   0 C :    0.807538
   1 C :   -0.429841
   2 C :    0.588690
   3 N :    0.389128
   4 H :   -0.140275
   5 H :   -0.055687
   6 H :   -0.252034
   7 H :   -0.578748
   8 C :   -0.143557
   9 C :    1.202651
  10 H :   -0.128487
  11 H :   -0.312186
  12 H :   -0.199765
  13 H :   -0.134379
  14 H :   -0.352034
  15 H :   -0.129828
  16 H :   -0.131186
Sum of atomic charges:    0.0000000

LOEWDIN ATOMIC CHARGES
----------------------
   0 C :    0.021597
   1 C :   -0.281076
   2 C :    0.181802
   3 N :    0.197690
   4 H :    0.005177
   5 H :   -0.005377
   6 H :   -0.083153
   7 H :   -0.087906
   8 C :   -0.053295
   9 C :    0.137076
  10 H :    0.012137
  11 H :    0.010467
  12 H :    0.006721
  13 H :    0.021643
  14 H :   -0.025160
  15 H :   -0.025042
  16 H :   -0.033302

  Mayer bond orders larger than 0.100000
B(  0-C ,  1-C ) :   1.2088 B(  0-C ,  2-C ) :   0.1268 B(  0-C ,  8-C ) :   1.1272
B(  0-C , 10-H ) :   0.1609 B(  0-C , 11-H ) :   0.2153 B(  0-C , 12-H ) :   0.4600
B(  0-C , 13-H ) :   0.6611 B(  1-C ,  2-C ) :   1.7709 B(  1-C ,  3-N ) :   1.0947
B(  1-C ,  5-H ) :   0.1343 B(  1-C ,  7-H ) :   0.2403 B(  1-C ,  8-C ) :   0.1353
B(  1-C , 12-H ) :   0.3868 B(  1-C , 13-H ) :   0.2613 B(  2-C ,  3-N ) :   0.3603
B(  2-C ,  6-H ) :   0.6775 B(  2-C ,  7-H ) :   0.6157 B(  3-N ,  4-H ) :   1.0478
B(  3-N ,  5-H ) :   0.9275 B(  3-N ,  6-H ) :   0.1035 B(  4-H ,  5-H ) :  -0.1405
B(  8-C ,  9-C ) :   1.2878 B(  8-C , 10-H ) :   0.8265 B(  8-C , 11-H ) :   0.8115
B(  8-C , 12-H ) :   0.2166 B(  8-C , 13-H ) :   0.1251 B(  8-C , 14-H ) :   0.3056
B(  8-C , 15-H ) :   0.2658 B(  8-C , 16-H ) :   0.3280 B(  9-C , 10-H ) :   0.1305
B(  9-C , 11-H ) :   0.1160 B(  9-C , 14-H ) :   0.6059 B(  9-C , 15-H ) :   0.6653
B(  9-C , 16-H ) :   0.7031

Dispersion correction           -0.029781213
FINAL SINGLE POINT ENERGY      -251.580988020055

DIPOLE MOMENT
-------------
                                X             Y             Z
Electronic contribution:      1.35945       0.70298       3.44140
Nuclear contribution   :     -1.05621      -0.17147      -3.92631
                        -----------------------------------------
Total Dipole Moment    :      0.30324       0.53151      -0.48490
                        -----------------------------------------
Magnitude (a.u.)       :      0.78076
Magnitude (Debye)      :      1.98454

Rotational constants in cm-1:     0.171127     0.086782     0.080643
Rotational constants in MHz :  5130.249275  2601.647634  2417.629092

                             ****ORCA TERMINATED NORMALLY****
TOTAL RUN TIME: 0 days 0 hours 0 minutes 8 seconds 771 msec
