                         Program Version 5.0.0 -  RELEASE  -
|  1> !BLYP D3BJ RIJCOSX def2-SVPD def2/J TightSCF
|  2> *xyz 0 1
|  3> C         -0.91495        0.61511        2.50554
|  4> C         -0.05915        1.50352        3.41058
|  5> H          0.36536        2.34431        2.86116
|  6> H         -0.69226        1.92021        4.19898
|  7> C          1.08303        0.74964        4.08571
|  8> O          2.22817        1.26348        4.01983
|  9> F          0.81003       -0.34541        4.63627
| 10> C         -0.13074       -0.19398        1.47076
| 11> H         -1.64796        1.24596        1.99108
| 12> H         -1.47818       -0.08105        3.13042
| 13> H         -0.80952       -0.78099        0.88803
| 14> H          0.55985       -0.83974        1.97175
| 15> H          0.40595        0.47288        0.82877
| 16> *
| 17>
| 18> %MaxCore 64000
| 19>
| 20> %pal nprocs 4
| 21> end
| 22>
| 23> %scf
| 24>   MaxIter 150
| 25> end
| 26>
| 27>
| 28>                          ****END OF INPUT****

CARTESIAN COORDINATES (ANGSTROEM)
---------------------------------
  C     -0.914950    0.615110    2.505540
  C     -0.059150    1.503520    3.410580
  H      0.365360    2.344310    2.861160
  H     -0.692260    1.920210    4.198980
  C      1.083030    0.749640    4.085710
  O      2.228170    1.263480    4.019830
  F      0.810030   -0.345410    4.636270
  C     -0.130740   -0.193980    1.470760
  H     -1.647960    1.245960    1.991080
  H     -1.478180   -0.081050    3.130420
  H     -0.809520   -0.780990    0.888030
  H      0.559850   -0.839740    1.971750
  H      0.405950    0.472880    0.828770

 Total Charge           Charge          ....    0
 Multiplicity           Mult            ....    1
 Number of Electrons    NEL             ....   48
 Basis Dimension        Dim             ....  182

ORBITAL ENERGIES
----------------

  NO   OCC          E(Eh)            E(eV)
   0   2.0000     -24.376140      -663.3085
   1   2.0000     -18.797722      -511.5120
   2   2.0000     -10.095421      -274.7104
   3   2.0000      -9.951623      -270.7974
   4   2.0000      -9.940511      -270.4951
   5   2.0000      -9.920690      -269.9557
   6   2.0000      -1.197831       -32.5946
   7   2.0000      -0.930041       -25.3077
   8   2.0000      -0.732250       -19.9255
   9   2.0000      -0.651305       -17.7229
  10   2.0000      -0.591626       -16.0990
  11   2.0000      -0.547749       -14.9050
  12   2.0000      -0.489827       -13.3289
  13   2.0000      -0.478109       -13.0100
  14   2.0000      -0.432159       -11.7596
  15   2.0000      -0.419914       -11.4264
  16   2.0000      -0.405614       -11.0373
  17   2.0000      -0.371400       -10.1063
  18   2.0000      -0.350661        -9.5420
  19   2.0000      -0.332309        -9.0426
  20   2.0000      -0.320148        -8.7117
  21   2.0000      -0.309564        -8.4237
  22   2.0000      -0.304720        -8.2919
  23   2.0000      -0.239314        -6.5121
  24   0.0000      -0.066239        -1.8025
  25   0.0000      -0.008104        -0.2205
  26   0.0000       0.024740         0.6732
  27   0.0000       0.028802         0.7837
  28   0.0000       0.035866         0.9760

MULLIKEN ATOMIC CHARGES
-----------------------
   0 C :   -0.106286
   1 C :    0.409933
   2 H :   -0.146512
   3 H :   -0.130167
   4 C :    0.570459
   5 O :   -0.376258
   6 F :   -0.346936
   7 C :    1.066277
   8 H :   -0.315215
   9 H :   -0.124851
  10 H :   -0.194307
  11 H :   -0.186809
  12 H :   -0.119329
Sum of atomic charges:    0.0000000

LOEWDIN ATOMIC CHARGES
----------------------
   0 C :   -0.062423
   1 C :    0.051692
   2 H :    0.030369
   3 H :    0.033206
   4 C :   -0.051916
   5 O :   -0.113164
   6 F :   -0.010443
   7 C :    0.146594
   8 H :    0.019339
   9 H :    0.016813
  10 H :   -0.019402
  11 H :   -0.025847
  12 H :   -0.014818

  Mayer bond orders larger than 0.100000
B(  0-C ,  1-C ) :   1.2158 B(  0-C ,  2-H ) :   0.1635 B(  0-C ,  3-H ) :   0.1594
B(  0-C ,  7-C ) :   1.3593 B(  0-C ,  8-H ) :   0.8551 B(  0-C ,  9-H ) :   0.8002
B(  0-C , 10-H ) :   0.2805 B(  0-C , 11-H ) :   0.2574 B(  0-C , 12-H ) :   0.2552
B(  1-C ,  2-H ) :   0.8246 B(  1-C ,  3-H ) :   0.7450 B(  1-C ,  4-C ) :   1.0329
B(  1-C ,  8-H ) :   0.1377 B(  1-C ,  9-H ) :   0.1370 B(  2-H ,  4-C ) :   0.1947
B(  4-C ,  5-O ) :   1.8504 B(  4-C ,  6-F ) :   0.7649 B(  5-O ,  6-F ) :   0.1475
B(  7-C ,  8-H ) :   0.1051 B(  7-C ,  9-H ) :   0.1104 B(  7-C , 10-H ) :   0.6379
B(  7-C , 11-H ) :   0.7366 B(  7-C , 12-H ) :   0.7031

Dispersion correction           -0.019353714
FINAL SINGLE POINT ENERGY      -331.392540818919

DIPOLE MOMENT
-------------
                                X             Y             Z
Electronic contribution:      5.57325      -1.26010       8.23466
Nuclear contribution   :     -6.78915       1.21145      -8.56691
                        -----------------------------------------
Total Dipole Moment    :     -1.21589      -0.04865      -0.33225
                        -----------------------------------------
Magnitude (a.u.)       :      1.26141
Magnitude (Debye)      :      3.20625

Rotational constants in cm-1:     0.188995     0.079574     0.075294
Rotational constants in MHz :  5665.932233  2385.568994  2257.246443

                             ****ORCA TERMINATED NORMALLY****
TOTAL RUN TIME: 0 days 0 hours 0 minutes 6 seconds 276 msec
