                         Program Version 5.0.0 -  RELEASE  -
|  1> !BLYP D3BJ RIJCOSX def2-SVPD def2/J TightSCF
|  2> *xyz 0 1
|  3> C          4.60295       -2.44010        2.63478
|  4> C          3.86085       -1.59157        3.62289
|  5> N          2.75650       -2.04616        4.16633
|  6> C          4.25433       -0.36291        3.86046
|  7> H          3.56526        0.31099        4.16898
|  8> H          5.05429       -0.01606        3.33784
|  9> H          2.43970       -2.97389        3.89740
| 10> H          2.06687       -1.41253        4.54981
| 11> C          3.74469       -2.58056        1.36188
| 12> C          3.20372       -1.25600        0.82621
| 13> H          2.89894       -3.23929        1.58307
| 14> H          4.33496       -3.09552        0.60019
| 15> H          5.56156       -1.97135        2.40708
| 16> H          4.81050       -3.42255        3.06310
| 17> H          2.62184       -1.43789       -0.05313
| 18> H          4.02069       -0.60826        0.58562
| 19> H          2.58975       -0.79418        1.57097
| 20> *
| 21>
| 22> %MaxCore 64000
| 23>
| 24> %pal nprocs 4
| 25> end
| 26>
| 27> %scf
| 28>   MaxIter 150
| 29> end
| 30>
| 31>
| 32>                          ****END OF INPUT****

CARTESIAN COORDINATES (ANGSTROEM)
---------------------------------
  C      4.602950   -2.440100    2.634780
  C      3.860850   -1.591570    3.622890
  N      2.756500   -2.046160    4.166330
  C      4.254330   -0.362910    3.860460
  H      3.565260    0.310990    4.168980
  H      5.054290   -0.016060    3.337840
  H      2.439700   -2.973890    3.897400
  H      2.066870   -1.412530    4.549810
  C      3.744690   -2.580560    1.361880
  C      3.203720   -1.256000    0.826210
  H      2.898940   -3.239290    1.583070
  H      4.334960   -3.095520    0.600190
  H      5.561560   -1.971350    2.407080
  H      4.810500   -3.422550    3.063100
  H      2.621840   -1.437890   -0.053130
  H      4.020690   -0.608260    0.585620
  H      2.589750   -0.794180    1.570970

 Total Charge           Charge          ....    0
 Multiplicity           Mult            ....    1
 Number of Electrons    NEL             ....   48
 Basis Dimension        Dim             ....  208

ORBITAL ENERGIES
----------------

  NO   OCC          E(Eh)            E(eV)
   0   2.0000     -14.028699      -381.7403
   1   2.0000      -9.937095      -270.4021
   2   2.0000      -9.922177      -269.9962
   3   2.0000      -9.921288      -269.9720
   4   2.0000      -9.902681      -269.4656
   5   2.0000      -9.855202      -268.1737
   6   2.0000      -0.839909       -22.8551
   7   2.0000      -0.709079       -19.2950
   8   2.0000      -0.651795       -17.7363
   9   2.0000      -0.608644       -16.5621
  10   2.0000      -0.530872       -14.4458
  11   2.0000      -0.505533       -13.7563
  12   2.0000      -0.470328       -12.7983
  13   2.0000      -0.417167       -11.3517
  14   2.0000      -0.404499       -11.0070
  15   2.0000      -0.395049       -10.7498
  16   2.0000      -0.342774        -9.3274
  17   2.0000      -0.342455        -9.3187
  18   2.0000      -0.329208        -8.9582
  19   2.0000      -0.316246        -8.6055
  20   2.0000      -0.290411        -7.9025
  21   2.0000      -0.287028        -7.8104
  22   2.0000      -0.276416        -7.5217
  23   2.0000      -0.158891        -4.3237
  24   0.0000      -0.007120        -0.1938
  25   0.0000       0.005767         0.1569
  26   0.0000       0.027855         0.7580
  27   0.0000       0.033849         0.9211
  28   0.0000       0.042305         1.1512

MULLIKEN ATOMIC CHARGES
-----------------------
   0 C :    0.613586
   1 C :   -0.435121
   2 N :    0.457466
   3 C :    0.636844
   4 H :   -0.544816
   5 H :   -0.186112
   6 H :   -0.100361
   7 H :   -0.221012
   8 C :   -0.075074
   9 C :    1.208489
  10 H :   -0.098939
  11 H :   -0.391324
  12 H :   -0.040326
  13 H :   -0.214447
  14 H :   -0.255941
  15 H :   -0.155630
  16 H :   -0.197281
Sum of atomic charges:   -0.0000000

LOEWDIN ATOMIC CHARGES
----------------------
   0 C :    0.020513
   1 C :   -0.284864
   2 N :    0.200881
   3 C :    0.181186
   4 H :   -0.087132
   5 H :   -0.085298
   6 H :   -0.003743
   7 H :    0.005328
   8 C :   -0.056281
   9 C :    0.138877
  10 H :    0.003607
  11 H :    0.011696
  12 H :    0.019034
  13 H :    0.012967
  14 H :   -0.025732
  15 H :   -0.017966
  16 H :   -0.033071

  Mayer bond orders larger than 0.100000
B(  0-C ,  1-C ) :   1.2876 B(  0-C ,  3-C ) :   0.1414 B(  0-C ,  8-C ) :   1.1370
B(  0-C , 10-H ) :   0.1701 B(  0-C , 11-H ) :   0.2415 B(  0-C , 12-H ) :   0.7025
B(  0-C , 13-H ) :   0.6387 B(  1-C ,  2-N ) :   1.1873 B(  1-C ,  3-C ) :   1.8736
B(  1-C ,  4-H ) :   0.3215 B(  1-C ,  5-H ) :   0.1769 B(  1-C ,  8-C ) :   0.1162
B(  1-C , 12-H ) :   0.2548 B(  1-C , 13-H ) :   0.2868 B(  2-N ,  3-C ) :   0.3357
B(  2-N ,  6-H ) :   1.0218 B(  2-N ,  7-H ) :   1.0841 B(  3-C ,  4-H ) :   0.5557
B(  3-C ,  5-H ) :   0.7693 B(  3-C , 12-H ) :  -0.1223 B(  6-H ,  7-H ) :  -0.1488
B(  8-C ,  9-C ) :   1.2991 B(  8-C , 10-H ) :   0.7912 B(  8-C , 11-H ) :   0.8419
B(  8-C , 12-H ) :   0.1951 B(  8-C , 13-H ) :   0.1199 B(  8-C , 14-H ) :   0.3004
B(  8-C , 15-H ) :   0.2552 B(  8-C , 16-H ) :   0.3330 B(  9-C , 10-H ) :   0.1243
B(  9-C , 14-H ) :   0.6144 B(  9-C , 15-H ) :   0.6748 B(  9-C , 16-H ) :   0.6961
B( 15-H , 16-H ) :   0.1331

Dispersion correction           -0.029763885
FINAL SINGLE POINT ENERGY      -251.581002292867

DIPOLE MOMENT
-------------
                                X             Y             Z
Electronic contribution:      0.08417      -0.72184       3.71170
Nuclear contribution   :     -0.70193       0.22667      -3.99866
                        -----------------------------------------
Total Dipole Moment    :     -0.61776      -0.49517      -0.28696
                        -----------------------------------------
Magnitude (a.u.)       :      0.84212
Magnitude (Debye)      :      2.14050

Rotational constants in cm-1:     0.170665     0.086587     0.081284
Rotational constants in MHz :  5116.404877  2595.819690  2436.831753

                             ****ORCA TERMINATED NORMALLY****
TOTAL RUN TIME: 0 days 0 hours 0 minutes 9 seconds 571 msec
