                         Program Version 5.0.0 -  RELEASE  -
|  1> !BLYP D3BJ RIJCOSX def2-SVPD def2/J TightSCF xyzfile
|  2>
|  3> *xyzfile 0 1 D1.xyz
|  4>
|  5> %MaxCore 64000
|  6>
|  7> %pal nprocs 4
|  8> end
|  9>
| 10> %scf
| 11>   MaxIter 150
| 12> end
| 13>
| 14>
| 15>                          ****END OF INPUT****

CARTESIAN COORDINATES (ANGSTROEM)
---------------------------------
  C      4.602954   -2.440100    2.634780
  C     -0.914947    0.615112    2.505538
  C     -0.059146    1.503524    3.410578
  H      0.365364    2.344315    2.861161
  H     -0.692261    1.920207    4.198985
  C      1.083027    0.749640    4.085705
  C      3.860851   -1.591565    3.622893
  C      2.756502   -2.046159    4.166333
  N      4.254325   -0.362905    3.860455
  H      3.565256    0.310994    4.168983
  H      5.054292   -0.016059    3.337838
  H      2.439696   -2.973894    3.897395
  H      2.066869   -1.412532    4.549813
  F      2.228167    1.263475    4.019826
  O      0.810034   -0.345411    4.636269
  C      3.744685   -2.580557    1.361882
  C      0.772139    0.636882    0.562129
  C     -0.130740   -0.193985    1.470763
  H     -0.840563   -0.760165    0.856377
  H      0.466691   -0.938942    2.006959
  H     -1.647961    1.245963    1.991076
  H     -1.478180   -0.081046    3.130424
  C      3.203721   -1.256004    0.826211
  H      2.898939   -3.239289    1.583074
  H      4.334962   -3.095523    0.600188
  C      2.107815   -1.442385   -0.216865
  H      2.786775   -0.672760    1.650711
  H      4.021008   -0.652993    0.414046
  C      1.390662   -0.145912   -0.602422
  H      1.372179   -2.152184    0.176151
  H      2.523302   -1.906787   -1.117115
  H      1.561361    1.100094    1.161831
  H      0.195516    1.468325    0.142758
  H      0.602893   -0.398214   -1.319716
  H      2.087247    0.508272   -1.137335
  H      5.561557   -1.971347    2.407084
  H      4.810498   -3.422552    3.063099

 Total Charge           Charge          ....    0
 Multiplicity           Mult            ....    1
 Number of Electrons    NEL             ....  118
 Basis Dimension        Dim             ....  482

ORBITAL ENERGIES
----------------

  NO   OCC          E(Eh)            E(eV)
   0   2.0000     -24.399684      -663.9492
   1   2.0000     -18.810752      -511.8666
   2   2.0000     -14.003965      -381.0673
   3   2.0000     -10.109122      -275.0832
   4   2.0000      -9.958337      -270.9801
   5   2.0000      -9.937333      -270.4086
   6   2.0000      -9.922366      -270.0013
   7   2.0000      -9.922282      -269.9990
   8   2.0000      -9.917284      -269.8630
   9   2.0000      -9.916271      -269.8354
  10   2.0000      -9.911123      -269.6954
  11   2.0000      -9.909107      -269.6405
  12   2.0000      -9.908800      -269.6322
  13   2.0000      -9.907433      -269.5949
  14   2.0000      -9.822410      -267.2814
  15   2.0000      -1.223565       -33.2949
  16   2.0000      -0.950308       -25.8592
  17   2.0000      -0.822268       -22.3750
  18   2.0000      -0.743761       -20.2388
  19   2.0000      -0.719713       -19.5844
  20   2.0000      -0.696808       -18.9611
  21   2.0000      -0.662626       -18.0310
  22   2.0000      -0.642242       -17.4763
  23   2.0000      -0.614260       -16.7149
  24   2.0000      -0.602986       -16.4081
  25   2.0000      -0.574336       -15.6285
  26   2.0000      -0.543973       -14.8023
  27   2.0000      -0.523312       -14.2400
  28   2.0000      -0.511934       -13.9304
  29   2.0000      -0.501163       -13.6373
  30   2.0000      -0.488120       -13.2824
  31   2.0000      -0.477635       -12.9971
  32   2.0000      -0.465121       -12.6566
  33   2.0000      -0.443003       -12.0547
  34   2.0000      -0.428030       -11.6473
  35   2.0000      -0.425396       -11.5756
  36   2.0000      -0.416234       -11.3263
  37   2.0000      -0.398976       -10.8567
  38   2.0000      -0.390983       -10.6392
  39   2.0000      -0.377406       -10.2697
  40   2.0000      -0.374187       -10.1821
  41   2.0000      -0.359681        -9.7874
  42   2.0000      -0.355034        -9.6610
  43   2.0000      -0.343837        -9.3563
  44   2.0000      -0.340814        -9.2740
  45   2.0000      -0.326898        -8.8953
  46   2.0000      -0.323645        -8.8068
  47   2.0000      -0.314194        -8.5497
  48   2.0000      -0.309214        -8.4141
  49   2.0000      -0.300857        -8.1867
  50   2.0000      -0.297992        -8.1088
  51   2.0000      -0.289478        -7.8771
  52   2.0000      -0.280749        -7.6396
  53   2.0000      -0.278376        -7.5750
  54   2.0000      -0.271550        -7.3893
  55   2.0000      -0.267974        -7.2920
  56   2.0000      -0.260648        -7.0926
  57   2.0000      -0.230828        -6.2811
  58   2.0000      -0.136406        -3.7118
  59   0.0000      -0.083560        -2.2738
  60   0.0000      -0.009359        -0.2547
  61   0.0000       0.008185         0.2227
  62   0.0000       0.009734         0.2649
  63   0.0000       0.014743         0.4012

MULLIKEN ATOMIC CHARGES
-----------------------
   0 C :    1.215560
   1 C :    0.851971
   2 C :    0.474017
   3 H :    0.063925
   4 H :   -0.348747
   5 C :    0.409840
   6 C :   -0.644608
   7 C :    1.299678
   8 N :    0.757907
   9 H :   -0.496506
  10 H :    0.025285
  11 H :   -0.350379
  12 H :   -1.125332
  13 F :   -0.402352
  14 O :   -0.423726
  15 C :    0.338642
  16 C :    0.086520
  17 C :    0.141518
  18 H :   -0.316596
  19 H :   -0.212622
  20 H :   -0.230709
  21 H :   -0.067369
  22 C :    0.437069
  23 H :   -0.041508
  24 H :   -0.441920
  25 C :    0.282124
  26 H :   -0.557486
  27 H :   -0.102523
  28 C :    1.128123
  29 H :    0.078899
  30 H :   -0.541179
  31 H :    0.032661
  32 H :   -0.721912
  33 H :   -0.065122
  34 H :   -0.166881
  35 H :   -0.211472
  36 H :   -0.154791
Sum of atomic charges:    0.0000000

LOEWDIN ATOMIC CHARGES
----------------------
   0 C :    0.026685
   1 C :   -0.004631
   2 C :    0.061673
   3 H :    0.016934
   4 H :    0.038482
   5 C :    0.019025
   6 C :   -0.260705
   7 C :    0.209641
   8 N :    0.214555
   9 H :   -0.075357
  10 H :   -0.003291
  11 H :   -0.074863
  12 H :   -0.175505
  13 F :   -0.010355
  14 O :   -0.086936
  15 C :   -0.011094
  16 C :   -0.028951
  17 C :   -0.018110
  18 H :    0.028267
  19 H :    0.009814
  20 H :    0.023626
  21 H :    0.025338
  22 C :   -0.024974
  23 H :    0.013884
  24 H :    0.014876
  25 C :   -0.028078
  26 H :   -0.020941
  27 H :    0.027848
  28 C :   -0.019346
  29 H :    0.012918
  30 H :    0.019437
  31 H :    0.001842
  32 H :    0.018266
  33 H :    0.016487
  34 H :    0.017068
  35 H :    0.005525
  36 H :    0.020944

  Mayer bond orders larger than 0.100000
B(  0-C ,  6-C ) :   1.1718 B(  0-C ,  8-N ) :   0.1468 B(  0-C , 15-C ) :   1.0445
B(  0-C , 23-H ) :   0.1139 B(  0-C , 24-H ) :   0.1009 B(  0-C , 35-H ) :   0.2577
B(  0-C , 36-H ) :   0.4559 B(  1-C ,  2-C ) :   1.1287 B(  1-C ,  3-H ) :   0.1324
B(  1-C ,  4-H ) :   0.2147 B(  1-C ,  5-C ) :   0.1219 B(  1-C , 17-C ) :   1.1802
B(  1-C , 19-H ) :   0.1371 B(  1-C , 20-H ) :   0.5889 B(  1-C , 21-H ) :   0.4672
B(  1-C , 28-C ) :   0.1225 B(  2-C ,  3-H ) :   0.7716 B(  2-C ,  4-H ) :   0.4996
B(  2-C ,  5-C ) :   1.1954 B(  2-C , 17-C ) :   0.2294 B(  2-C , 20-H ) :   0.2154
B(  2-C , 21-H ) :   0.1409 B(  3-H ,  4-H ) :  -0.1313 B(  3-H ,  5-C ) :   0.1985
B(  4-H ,  5-C ) :   0.3119 B(  5-C , 13-F ) :   0.7402 B(  5-C , 14-O ) :   1.8761
B(  6-C ,  7-C ) :   1.8613 B(  6-C ,  8-N ) :   0.9808 B(  6-C , 10-H ) :   0.1901
B(  6-C , 12-H ) :   0.3991 B(  6-C , 15-C ) :   0.2147 B(  6-C , 35-H ) :   0.4978
B(  6-C , 36-H ) :   0.3088 B(  7-C ,  8-N ) :   0.4809 B(  7-C , 11-H ) :   0.4402
B(  7-C , 12-H ) :  -0.5185 B(  8-N ,  9-H ) :   0.9206 B(  8-N , 10-H ) :   0.8833
B(  8-N , 11-H ) :   0.3280 B(  8-N , 12-H ) :  -0.3089 B(  9-H , 10-H ) :  -0.2540
B(  9-H , 13-F ) :   0.1242 B( 11-H , 12-H ) :  -0.1370 B( 12-H , 14-O ) :   0.2359
B( 13-F , 14-O ) :   0.1494 B( 15-C , 22-C ) :   1.1061 B( 15-C , 23-H ) :   0.7750
B( 15-C , 24-H ) :   0.7573 B( 15-C , 25-C ) :   0.1496 B( 15-C , 26-H ) :   0.2520
B( 15-C , 27-H ) :   0.1225 B( 15-C , 35-H ) :   0.2574 B( 15-C , 36-H ) :   0.2291
B( 16-C , 17-C ) :   1.2553 B( 16-C , 18-H ) :   0.2222 B( 16-C , 19-H ) :   0.1788
B( 16-C , 25-C ) :   0.2602 B( 16-C , 28-C ) :   0.9931 B( 16-C , 31-H ) :   0.7562
B( 16-C , 32-H ) :   0.9064 B( 16-C , 33-H ) :   0.1976 B( 16-C , 34-H ) :   0.3946
B( 17-C , 18-H ) :   0.7011 B( 17-C , 19-H ) :   0.7985 B( 17-C , 20-H ) :   0.2530
B( 17-C , 21-H ) :   0.3542 B( 17-C , 31-H ) :   0.1382 B( 17-C , 32-H ) :   0.1404
B( 20-H , 21-H ) :  -0.1941 B( 22-C , 23-H ) :   0.1857 B( 22-C , 24-H ) :   0.2978
B( 22-C , 25-C ) :   1.1562 B( 22-C , 26-H ) :   0.7901 B( 22-C , 27-H ) :   0.5857
B( 22-C , 29-H ) :   0.1756 B( 22-C , 30-H ) :   0.2864 B( 22-C , 31-H ) :  -0.1038
B( 23-H , 24-H ) :  -0.1345 B( 23-H , 30-H ) :  -0.1255 B( 25-C , 26-H ) :   0.1532
B( 25-C , 27-H ) :   0.1383 B( 25-C , 28-C ) :   1.0854 B( 25-C , 29-H ) :   0.7480
B( 25-C , 30-H ) :   0.7487 B( 25-C , 33-H ) :   0.3089 B( 25-C , 34-H ) :   0.1988
B( 26-H , 27-H ) :   0.1534 B( 26-H , 31-H ) :   0.2253 B( 26-H , 32-H ) :  -0.1766
B( 28-C , 29-H ) :   0.1304 B( 28-C , 33-H ) :   0.4914 B( 28-C , 34-H ) :   0.4177
B( 33-H , 34-H ) :  -0.1779

Dispersion correction           -0.085441092
FINAL SINGLE POINT ENERGY      -699.565267521595

DIPOLE MOMENT
-------------
                                X             Y             Z
Electronic contribution:      1.20289       7.35815      15.00604
Nuclear contribution   :     -1.66567      -5.90236     -15.95042
                        -----------------------------------------
Total Dipole Moment    :     -0.46278       1.45579      -0.94438
                        -----------------------------------------
Magnitude (a.u.)       :      1.79593
Magnitude (Debye)      :      4.56488

Rotational constants in cm-1:     0.021600     0.017292     0.011381
Rotational constants in MHz :   647.565282   518.410024   341.193038

                             ****ORCA TERMINATED NORMALLY****
TOTAL RUN TIME: 0 days 0 hours 1 minutes 1 seconds 467 msec
