                         Program Version 5.0.0 -  RELEASE  -
|  1> !BLYP D3BJ RIJCOSX def2-SVP def2/J TightSCF
|  2> *xyz -1 1
|  3> C         -1.91658       -2.48508       -3.64367
|  4> C         -1.36353       -1.98134       -2.29361
|  5> O         -0.35039       -2.74969       -1.79601
|  6> H         -2.22622       -1.90839       -1.60204
|  7> H         -1.05135       -0.91567       -2.44333
|  8> H         -1.11522       -2.57167       -4.34739
|  9> H         -2.64227       -1.79099       -4.01314
| 10> H         -2.37564       -3.44180       -3.50640
| 11> *
| 12>
| 13> %MaxCore 64000
| 14> %pal nprocs 4
| 15> end
| 16>
| 17> %scf
| 18>   MaxIter 150
| 19> end
| 20>
| 21>
| 22>                          ****END OF INPUT****

CARTESIAN COORDINATES (ANGSTROEM)
---------------------------------
  C     -1.916580   -2.485080   -3.643670
  C     -1.363530   -1.981340   -2.293610
  O     -0.350390   -2.749690   -1.796010
  H     -2.226220   -1.908390   -1.602040
  H     -1.051350   -0.915670   -2.443330
  H     -1.115220   -2.571670   -4.347390
  H     -2.642270   -1.790990   -4.013140
  H     -2.375640   -3.441800   -3.506400

 Total Charge           Charge          ....   -1
 Multiplicity           Mult            ....    1
 Number of Electrons    NEL             ....   26
 Basis Dimension        Dim             ....   67

ORBITAL ENERGIES
----------------

  NO   OCC          E(Eh)            E(eV)
   0   2.0000     -18.406815      -500.8749
   1   2.0000      -9.710334      -264.2316
   2   2.0000      -9.697496      -263.8823
   3   2.0000      -0.540589       -14.7102
   4   2.0000      -0.420751       -11.4492
   5   2.0000      -0.277545        -7.5524
   6   2.0000      -0.175976        -4.7885
   7   2.0000      -0.155818        -4.2400
   8   2.0000      -0.101811        -2.7704
   9   2.0000      -0.085754        -2.3335
  10   2.0000      -0.021614        -0.5882
  11   2.0000       0.118911         3.2357
  12   2.0000       0.124371         3.3843
  13   0.0000       0.232778         6.3342
  14   0.0000       0.273394         7.4394
  15   0.0000       0.285638         7.7726
  16   0.0000       0.295969         8.0537
  17   0.0000       0.335526         9.1301

MULLIKEN ATOMIC CHARGES
-----------------------
   0 C :    0.179290
   1 C :    0.270823
   2 O :   -0.623782
   3 H :   -0.212166
   4 H :   -0.216025
   5 H :   -0.113174
   6 H :   -0.174529
   7 H :   -0.110437
Sum of atomic charges:   -1.0000000

LOEWDIN ATOMIC CHARGES
----------------------
   0 C :   -0.098698
   1 C :    0.009289
   2 O :   -0.606195
   3 H :   -0.095240
   4 H :   -0.099114
   5 H :   -0.029230
   6 H :   -0.052867
   7 H :   -0.027945

  Mayer bond orders larger than 0.100000
B(  0-C ,  1-C ) :   1.0047 B(  0-C ,  2-O ) :  -0.1172 B(  0-C ,  5-H ) :   0.9303
B(  0-C ,  6-H ) :   0.8711 B(  0-C ,  7-H ) :   0.9352 B(  1-C ,  2-O ) :   1.5771
B(  1-C ,  3-H ) :   0.8261 B(  1-C ,  4-H ) :   0.8236 B(  2-O ,  6-H ) :   0.1135

Dispersion correction           -0.007732012
FINAL SINGLE POINT ENERGY      -154.215945681602

DIPOLE MOMENT
-------------
                                X             Y             Z
Electronic contribution:      2.50722      -1.19934       2.13574
Nuclear contribution   :     -3.14382       1.30299      -2.83231
                        -----------------------------------------
Total Dipole Moment    :     -0.63660       0.10365      -0.69657
                        -----------------------------------------
Magnitude (a.u.)       :      0.94932
Magnitude (Debye)      :      2.41299

Rotational constants in cm-1:     1.288206     0.322942     0.285188
Rotational constants in MHz : 38619.437223  9681.562038  8549.712012

                             ****ORCA TERMINATED NORMALLY****
TOTAL RUN TIME: 0 days 0 hours 0 minutes 6 seconds 161 msec
