                         Program Version 5.0.0 -  RELEASE  -
|  1> !BLYP D3BJ RIJCOSX def2-SVP def2/J TightSCF
|  2> *xyz 1 1
|  3> C          1.64703       -2.34528       -5.02041
|  4> C          2.20996       -2.81239       -3.66571
|  5> C          2.48901       -1.66851       -2.73754
|  6> N          3.59631       -0.94761       -2.95225
|  7> N          1.66394       -1.41369       -1.77781
|  8> H          0.81164       -1.96318       -1.70275
|  9> H          1.84550       -0.63508       -1.15875
| 10> H          4.20535       -1.17600       -3.73383
| 11> H          3.81723       -0.12585       -2.40604
| 12> H          3.14311       -3.36280       -3.81152
| 13> H          1.48768       -3.45893       -3.16521
| 14> H          1.46566       -3.19589       -5.64368
| 15> H          2.35406       -1.69850       -5.49654
| 16> H          0.73014       -1.81680       -4.86253
| 17> *
| 18>
| 19> %MaxCore 64000
| 20> %pal nprocs 4
| 21> end
| 22>
| 23> %scf
| 24>   MaxIter 150
| 25> end
| 26>
| 27>
| 28>                          ****END OF INPUT****

CARTESIAN COORDINATES (ANGSTROEM)
---------------------------------
  C      1.647030   -2.345280   -5.020410
  C      2.209960   -2.812390   -3.665710
  C      2.489010   -1.668510   -2.737540
  N      3.596310   -0.947610   -2.952250
  N      1.663940   -1.413690   -1.777810
  H      0.811640   -1.963180   -1.702750
  H      1.845500   -0.635080   -1.158750
  H      4.205350   -1.176000   -3.733830
  H      3.817230   -0.125850   -2.406040
  H      3.143110   -3.362800   -3.811520
  H      1.487680   -3.458930   -3.165210
  H      1.465660   -3.195890   -5.643680
  H      2.354060   -1.698500   -5.496540
  H      0.730140   -1.816800   -4.862530

 Total Charge           Charge          ....    1
 Multiplicity           Mult            ....    1
 Number of Electrons    NEL             ....   40
 Basis Dimension        Dim             ....  115

ORBITAL ENERGIES
----------------

  NO   OCC          E(Eh)            E(eV)
   0   2.0000     -14.272341      -388.3701
   1   2.0000     -14.263496      -388.1295
   2   2.0000     -10.232864      -278.4504
   3   2.0000     -10.118311      -275.3332
   4   2.0000     -10.078435      -274.2481
   5   2.0000      -1.103584       -30.0300
   6   2.0000      -1.014612       -27.6090
   7   2.0000      -0.881404       -23.9842
   8   2.0000      -0.785741       -21.3811
   9   2.0000      -0.748662       -20.3721
  10   2.0000      -0.715842       -19.4790
  11   2.0000      -0.687594       -18.7104
  12   2.0000      -0.650847       -17.7104
  13   2.0000      -0.592762       -16.1299
  14   2.0000      -0.568010       -15.4563
  15   2.0000      -0.559881       -15.2351
  16   2.0000      -0.495820       -13.4920
  17   2.0000      -0.486651       -13.2424
  18   2.0000      -0.481514       -13.1027
  19   2.0000      -0.446313       -12.1448
  20   0.0000      -0.230504        -6.2723
  21   0.0000      -0.171998        -4.6803
  22   0.0000      -0.127703        -3.4750
  23   0.0000      -0.126345        -3.4380
  24   0.0000      -0.098281        -2.6744

MULLIKEN ATOMIC CHARGES
-----------------------
   0 C :    0.096125
   1 C :    0.067829
   2 C :   -0.191678
   3 N :    0.083953
   4 N :    0.153341
   5 H :    0.168067
   6 H :    0.152451
   7 H :    0.162259
   8 H :    0.149584
   9 H :    0.051707
  10 H :    0.022262
  11 H :    0.053864
  12 H :    0.012287
  13 H :    0.017949
Sum of atomic charges:    1.0000000

LOEWDIN ATOMIC CHARGES
----------------------
   0 C :   -0.008931
   1 C :   -0.018230
   2 C :    0.122960
   3 N :    0.103121
   4 N :    0.137693
   5 H :    0.122606
   6 H :    0.109972
   7 H :    0.116975
   8 H :    0.105019
   9 H :    0.056056
  10 H :    0.045159
  11 H :    0.048860
  12 H :    0.026875
  13 H :    0.031864

  Mayer bond orders larger than 0.100000
B(  0-C ,  1-C ) :   1.1018 B(  0-C , 11-H ) :   0.9559 B(  0-C , 12-H ) :   0.9664
B(  0-C , 13-H ) :   0.9628 B(  1-C ,  2-C ) :   1.0443 B(  1-C ,  9-H ) :   0.9080
B(  1-C , 10-H ) :   0.9073 B(  2-C ,  3-N ) :   1.4980 B(  2-C ,  4-N ) :   1.5623
B(  3-N ,  7-H ) :   0.9220 B(  3-N ,  8-H ) :   0.9307 B(  4-N ,  5-H ) :   0.9102
B(  4-N ,  6-H ) :   0.9236

Dispersion correction           -0.020565860
FINAL SINGLE POINT ENERGY      -228.768332297760

DIPOLE MOMENT
-------------
                                X             Y             Z
Electronic contribution:      1.21585       1.70875       3.66671
Nuclear contribution   :     -0.98617      -1.03178      -2.77619
                        -----------------------------------------
Total Dipole Moment    :      0.22969       0.67698       0.89052
                        -----------------------------------------
Magnitude (a.u.)       :      1.14197
Magnitude (Debye)      :      2.90264

Rotational constants in cm-1:     0.257311     0.127495     0.099037
Rotational constants in MHz :  7713.982239  3822.189706  2969.039713

                             ****ORCA TERMINATED NORMALLY****
TOTAL RUN TIME: 0 days 0 hours 0 minutes 7 seconds 804 msec
