                         Program Version 5.0.0 -  RELEASE  -
|  1> !BLYP D3BJ RIJCOSX def2-TZVP def2/J TightSCF xyzfile
|  2>
|  3> *xyzfile 0 1 B.xyz
|  4>
|  5> %MaxCore 64000
|  6>
|  7> %pal nprocs 18
|  8> end
|  9>
| 10> %scf
| 11>   MaxIter 150
| 12> end
| 13>
| 14>
| 15>                          ****END OF INPUT****

CARTESIAN COORDINATES (ANGSTROEM)
---------------------------------
  C      1.647032   -2.345276   -5.020411
  C      0.217628   -1.814022   -4.924389
  C      2.209964   -2.812388   -3.665708
  C     -0.811356   -2.908780   -4.607625
  C     -1.916579   -2.485081   -3.643665
  H     -2.554525   -1.712428   -4.091993
  C     -1.363531   -1.981337   -2.293608
  H     -2.553448   -3.355667   -3.458815
  O     -0.350395   -2.749689   -1.796006
  H      2.308385   -1.588704   -5.457128
  H      1.674286   -3.203478   -5.697392
  C      2.489007   -1.668510   -2.737538
  N      3.596314   -0.947608   -2.952247
  N      1.663936   -1.413685   -1.777806
  H      0.811642   -1.963178   -1.702755
  H      1.845503   -0.635078   -1.158749
  H      4.205351   -1.176003   -3.733825
  H      3.817230   -0.125845   -2.406041
  H     -1.244829   -3.280884   -5.541040
  H     -0.306331   -3.757746   -4.142734
  H     -0.036244   -1.318555   -5.865303
  H      0.175004   -1.035382   -4.158095
  H      3.143106   -3.362803   -3.811524
  H      1.487683   -3.458935   -3.165211
  H     -2.226220   -1.908386   -1.602039
  H     -1.051353   -0.915671   -2.443331

 Total Charge           Charge          ....    0
 Multiplicity           Mult            ....    1
 Number of Electrons    NEL             ....   80
 Basis Dimension        Dim             ....  406

ORBITAL ENERGIES
----------------

  NO   OCC          E(Eh)            E(eV)
   0   2.0000     -18.630511      -506.9620
   1   2.0000     -14.078946      -383.1076
   2   2.0000     -14.034279      -381.8921
   3   2.0000     -10.032965      -273.0108
   4   2.0000      -9.927272      -270.1348
   5   2.0000      -9.915207      -269.8065
   6   2.0000      -9.886141      -269.0156
   7   2.0000      -9.877232      -268.7732
   8   2.0000      -9.867049      -268.4960
   9   2.0000      -9.850228      -268.0383
  10   2.0000      -0.929326       -25.2882
  11   2.0000      -0.843400       -22.9501
  12   2.0000      -0.788093       -21.4451
  13   2.0000      -0.733983       -19.9727
  14   2.0000      -0.675589       -18.3837
  15   2.0000      -0.630109       -17.1461
  16   2.0000      -0.584275       -15.8989
  17   2.0000      -0.562217       -15.2987
  18   2.0000      -0.539073       -14.6689
  19   2.0000      -0.525134       -14.2896
  20   2.0000      -0.500600       -13.6220
  21   2.0000      -0.464662       -12.6441
  22   2.0000      -0.440485       -11.9862
  23   2.0000      -0.429354       -11.6833
  24   2.0000      -0.410062       -11.1584
  25   2.0000      -0.387704       -10.5500
  26   2.0000      -0.375978       -10.2309
  27   2.0000      -0.351910        -9.5760
  28   2.0000      -0.340753        -9.2724
  29   2.0000      -0.338134        -9.2011
  30   2.0000      -0.309113        -8.4114
  31   2.0000      -0.300276        -8.1709
  32   2.0000      -0.291240        -7.9250
  33   2.0000      -0.272387        -7.4120
  34   2.0000      -0.267075        -7.2675
  35   2.0000      -0.254030        -6.9125
  36   2.0000      -0.246113        -6.6971
  37   2.0000      -0.239084        -6.5058
  38   2.0000      -0.124251        -3.3810
  39   2.0000      -0.115287        -3.1371
  40   0.0000      -0.058584        -1.5942
  41   0.0000      -0.036992        -1.0066
  42   0.0000       0.001713         0.0466
  43   0.0000       0.026257         0.7145
  44   0.0000       0.039765         1.0821

MULLIKEN ATOMIC CHARGES
-----------------------
   0 C :   -0.142051
   1 C :   -0.153405
   2 C :   -0.211900
   3 C :   -0.119263
   4 C :   -0.051856
   5 H :    0.024375
   6 C :   -0.007392
   7 H :    0.048276
   8 O :   -0.646549
   9 H :    0.063164
  10 H :    0.087903
  11 C :    0.242600
  12 N :   -0.343012
  13 N :   -0.244036
  14 H :    0.285189
  15 H :    0.186153
  16 H :    0.235647
  17 H :    0.218789
  18 H :    0.057533
  19 H :    0.064822
  20 H :    0.067476
  21 H :    0.080240
  22 H :    0.099619
  23 H :    0.155359
  24 H :    0.020697
  25 H :   -0.018376
Sum of atomic charges:    0.0000000

LOEWDIN ATOMIC CHARGES
----------------------
   0 C :   -0.251499
   1 C :   -0.254195
   2 C :   -0.207407
   3 C :   -0.268580
   4 C :   -0.279880
   5 H :    0.118217
   6 C :   -0.484557
   7 H :    0.125558
   8 O :   -0.249021
   9 H :    0.123804
  10 H :    0.139445
  11 C :   -0.324994
  12 N :    0.050455
  13 N :    0.156180
  14 H :    0.098632
  15 H :    0.165790
  16 H :    0.181144
  17 H :    0.168907
  18 H :    0.123855
  19 H :    0.135311
  20 H :    0.128814
  21 H :    0.133849
  22 H :    0.142581
  23 H :    0.161842
  24 H :    0.094597
  25 H :    0.071152

  Mayer bond orders larger than 0.100000
B(  0-C ,  1-C ) :   0.9679 B(  0-C ,  2-C ) :   0.9454 B(  0-C ,  9-H ) :   0.9598
B(  0-C , 10-H ) :   0.9516 B(  1-C ,  3-C ) :   0.9597 B(  1-C , 20-H ) :   0.9548
B(  1-C , 21-H ) :   0.9762 B(  2-C , 11-C ) :   0.9621 B(  2-C , 22-H ) :   0.9490
B(  2-C , 23-H ) :   0.9439 B(  3-C ,  4-C ) :   0.9807 B(  3-C , 18-H ) :   0.9546
B(  3-C , 19-H ) :   0.9539 B(  4-C ,  5-H ) :   0.9405 B(  4-C ,  6-C ) :   0.9253
B(  4-C ,  7-H ) :   0.9444 B(  4-C ,  8-O ) :  -0.1322 B(  6-C ,  8-O ) :   1.2776
B(  6-C , 24-H ) :   0.9408 B(  6-C , 25-H ) :   0.9447 B(  8-O , 14-H ) :   0.3963
B( 11-C , 12-N ) :   1.2882 B( 11-C , 13-N ) :   1.6628 B( 12-N , 16-H ) :   0.9062
B( 12-N , 17-H ) :   0.9105 B( 13-N , 14-H ) :   0.6306 B( 13-N , 15-H ) :   0.9102

Dispersion correction           -0.053602923
FINAL SINGLE POINT ENERGY      -461.081455294221

DIPOLE MOMENT
-------------
                                X             Y             Z
Electronic contribution:      5.54767       0.81248       4.41363
Nuclear contribution   :     -2.25948       0.71378      -5.15247
                        -----------------------------------------
Total Dipole Moment    :      3.28818       1.52626      -0.73884
                        -----------------------------------------
Magnitude (a.u.)       :      3.69966
Magnitude (Debye)      :      9.40380

Rotational constants in cm-1:     0.063973     0.031829     0.024059
Rotational constants in MHz :  1917.874550   954.201145   721.285252

                             ****ORCA TERMINATED NORMALLY****
TOTAL RUN TIME: 0 days 0 hours 0 minutes 17 seconds 964 msec
