                         Program Version 5.0.0 -  RELEASE  -
|  1> !BLYP D3BJ RIJCOSX def2-SVP def2/J TightSCF
|  2> *xyz 0 1
|  3> C         -1.91658       -2.48508       -3.64367
|  4> C         -1.36353       -1.98134       -2.29361
|  5> F         -0.35039       -2.74969       -1.79601
|  6> H         -2.22622       -1.90839       -1.60204
|  7> H         -1.05135       -0.91567       -2.44333
|  8> H         -1.11522       -2.57167       -4.34739
|  9> H         -2.64227       -1.79099       -4.01314
| 10> H         -2.37564       -3.44180       -3.50640
| 11> *
| 12>
| 13> %MaxCore 64000
| 14> %pal nprocs 4
| 15> end
| 16>
| 17> %scf
| 18>   MaxIter 150
| 19> end
| 20>
| 21>
| 22>                          ****END OF INPUT****

CARTESIAN COORDINATES (ANGSTROEM)
---------------------------------
  C     -1.916580   -2.485080   -3.643670
  C     -1.363530   -1.981340   -2.293610
  F     -0.350390   -2.749690   -1.796010
  H     -2.226220   -1.908390   -1.602040
  H     -1.051350   -0.915670   -2.443330
  H     -1.115220   -2.571670   -4.347390
  H     -2.642270   -1.790990   -4.013140
  H     -2.375640   -3.441800   -3.506400

 Total Charge           Charge          ....    0
 Multiplicity           Mult            ....    1
 Number of Electrons    NEL             ....   26
 Basis Dimension        Dim             ....   67

ORBITAL ENERGIES
----------------

  NO   OCC          E(Eh)            E(eV)
   0   2.0000     -24.268523      -660.3801
   1   2.0000      -9.993526      -271.9377
   2   2.0000      -9.916699      -269.8471
   3   2.0000      -1.059743       -28.8371
   4   2.0000      -0.672624       -18.3030
   5   2.0000      -0.549559       -14.9543
   6   2.0000      -0.438497       -11.9321
   7   2.0000      -0.425437       -11.5767
   8   2.0000      -0.387911       -10.5556
   9   2.0000      -0.346474        -9.4280
  10   2.0000      -0.341831        -9.3017
  11   2.0000      -0.271751        -7.3947
  12   2.0000      -0.267450        -7.2777
  13   0.0000       0.042092         1.1454
  14   0.0000       0.085300         2.3211
  15   0.0000       0.090819         2.4713
  16   0.0000       0.104072         2.8319
  17   0.0000       0.120398         3.2762

MULLIKEN ATOMIC CHARGES
-----------------------
   0 C :    0.036717
   1 C :    0.236886
   2 F :   -0.222989
   3 H :   -0.020147
   4 H :   -0.019379
   5 H :    0.000152
   6 H :   -0.010978
   7 H :   -0.000261
Sum of atomic charges:   -0.0000000

LOEWDIN ATOMIC CHARGES
----------------------
   0 C :   -0.060397
   1 C :    0.102852
   2 F :   -0.111677
   3 H :    0.002267
   4 H :    0.003068
   5 H :    0.019925
   6 H :    0.024917
   7 H :    0.019044

  Mayer bond orders larger than 0.100000
B(  0-C ,  1-C ) :   1.1160 B(  0-C ,  5-H ) :   0.9644 B(  0-C ,  6-H ) :   0.9512
B(  0-C ,  7-H ) :   0.9662 B(  1-C ,  2-F ) :   1.0567 B(  1-C ,  3-H ) :   0.9456
B(  1-C ,  4-H ) :   0.9464

Dispersion correction           -0.007125088
FINAL SINGLE POINT ENERGY      -178.858688313860

DIPOLE MOMENT
-------------
                                X             Y             Z
Electronic contribution:      3.70589      -1.41856       3.48201
Nuclear contribution   :     -4.15401       1.70894      -3.75000
                        -----------------------------------------
Total Dipole Moment    :     -0.44812       0.29038      -0.26799
                        -----------------------------------------
Magnitude (a.u.)       :      0.59745
Magnitude (Debye)      :      1.51860

Rotational constants in cm-1:     1.266842     0.300492     0.266603
Rotational constants in MHz : 37978.968232  9008.526876  7992.551454

                             ****ORCA TERMINATED NORMALLY****
TOTAL RUN TIME: 0 days 0 hours 0 minutes 5 seconds 909 msec
