                         Program Version 5.0.0 -  RELEASE  -
|  1> !BLYP D3BJ RIJCOSX def2-SVP def2/J TightSCF
|  2> *xyz 0 1
|  3> C          1.64703       -2.34528       -5.02041
|  4> C          2.20996       -2.81239       -3.66571
|  5> C          2.48901       -1.66851       -2.73754
|  6> C          3.59631       -0.94761       -2.95225
|  7> N          1.66394       -1.41369       -1.77781
|  8> H          0.81164       -1.96318       -1.70275
|  9> H          1.84550       -0.63508       -1.15875
| 10> H          4.20535       -1.17600       -3.73383
| 11> H          3.81723       -0.12585       -2.40604
| 12> H          3.14311       -3.36280       -3.81152
| 13> H          1.48768       -3.45893       -3.16521
| 14> H          1.46566       -3.19589       -5.64368
| 15> H          2.35406       -1.69850       -5.49654
| 16> H          0.73014       -1.81680       -4.86253
| 17> *
| 18>
| 19> %MaxCore 64000
| 20> %pal nprocs 4
| 21> end
| 22>
| 23> %scf
| 24>   MaxIter 150
| 25> end
| 26>
| 27>
| 28>                          ****END OF INPUT****

CARTESIAN COORDINATES (ANGSTROEM)
---------------------------------
  C      1.647030   -2.345280   -5.020410
  C      2.209960   -2.812390   -3.665710
  C      2.489010   -1.668510   -2.737540
  C      3.596310   -0.947610   -2.952250
  N      1.663940   -1.413690   -1.777810
  H      0.811640   -1.963180   -1.702750
  H      1.845500   -0.635080   -1.158750
  H      4.205350   -1.176000   -3.733830
  H      3.817230   -0.125850   -2.406040
  H      3.143110   -3.362800   -3.811520
  H      1.487680   -3.458930   -3.165210
  H      1.465660   -3.195890   -5.643680
  H      2.354060   -1.698500   -5.496540
  H      0.730140   -1.816800   -4.862530

 Total Charge           Charge          ....    0
 Multiplicity           Mult            ....    1
 Number of Electrons    NEL             ....   40
 Basis Dimension        Dim             ....  115

ORBITAL ENERGIES
----------------

  NO   OCC          E(Eh)            E(eV)
   0   2.0000     -14.021267      -381.5381
   1   2.0000      -9.928663      -270.1727
   2   2.0000      -9.916785      -269.8494
   3   2.0000      -9.905236      -269.5352
   4   2.0000      -9.845795      -267.9177
   5   2.0000      -0.833709       -22.6864
   6   2.0000      -0.686546       -18.6819
   7   2.0000      -0.618176       -16.8214
   8   2.0000      -0.558830       -15.2066
   9   2.0000      -0.497842       -13.5470
  10   2.0000      -0.468022       -12.7355
  11   2.0000      -0.415580       -11.3085
  12   2.0000      -0.383705       -10.4411
  13   2.0000      -0.353574        -9.6212
  14   2.0000      -0.336522        -9.1572
  15   2.0000      -0.324448        -8.8287
  16   2.0000      -0.300518        -8.1775
  17   2.0000      -0.282920        -7.6987
  18   2.0000      -0.278880        -7.5887
  19   2.0000      -0.136537        -3.7154
  20   0.0000       0.022509         0.6125
  21   0.0000       0.039676         1.0796
  22   0.0000       0.069345         1.8870
  23   0.0000       0.075706         2.0601
  24   0.0000       0.098130         2.6703

MULLIKEN ATOMIC CHARGES
-----------------------
   0 C :    0.113530
   1 C :    0.113717
   2 C :   -0.202894
   3 C :    0.015155
   4 N :    0.072143
   5 H :    0.085038
   6 H :    0.089463
   7 H :   -0.073847
   8 H :   -0.093759
   9 H :   -0.008610
  10 H :   -0.055451
  11 H :   -0.019768
  12 H :   -0.010737
  13 H :   -0.023978
Sum of atomic charges:    0.0000000

LOEWDIN ATOMIC CHARGES
----------------------
   0 C :   -0.029835
   1 C :   -0.016037
   2 C :   -0.011521
   3 C :   -0.177941
   4 N :    0.033944
   5 H :    0.068038
   6 H :    0.074182
   7 H :   -0.007777
   8 H :   -0.016980
   9 H :    0.030142
  10 H :    0.007229
  11 H :    0.013801
  12 H :    0.018684
  13 H :    0.014070

  Mayer bond orders larger than 0.100000
B(  0-C ,  1-C ) :   1.1254 B(  0-C , 11-H ) :   0.9552 B(  0-C , 12-H ) :   0.9657
B(  0-C , 13-H ) :   0.9597 B(  1-C ,  2-C ) :   1.0311 B(  1-C ,  9-H ) :   0.9185
B(  1-C , 10-H ) :   0.9065 B(  2-C ,  3-C ) :   1.8381 B(  2-C ,  4-N ) :   1.3349
B(  3-C ,  7-H ) :   0.9209 B(  3-C ,  8-H ) :   0.9286 B(  4-N ,  5-H ) :   0.9368
B(  4-N ,  6-H ) :   0.9375

Dispersion correction           -0.021488757
FINAL SINGLE POINT ENERGY      -212.294444634644

DIPOLE MOMENT
-------------
                                X             Y             Z
Electronic contribution:     -0.09760       0.67148       3.10550
Nuclear contribution   :     -0.69146      -0.83112      -2.71336
                        -----------------------------------------
Total Dipole Moment    :     -0.78906      -0.15964       0.39214
                        -----------------------------------------
Magnitude (a.u.)       :      0.89548
Magnitude (Debye)      :      2.27612

Rotational constants in cm-1:     0.270661     0.129240     0.102040
Rotational constants in MHz :  8114.202941  3874.518141  3059.074383

                             ****ORCA TERMINATED NORMALLY****
TOTAL RUN TIME: 0 days 0 hours 0 minutes 7 seconds 866 msec
