                         Program Version 5.0.0 -  RELEASE  -
|  1> !BLYP D3BJ RIJCOSX def2-SVP def2/J TightSCF
|  2> *xyz 0 1
|  3> C          1.64703       -2.34528       -5.02041
|  4> C          2.20996       -2.81239       -3.66571
|  5> C          2.48901       -1.66851       -2.73754
|  6> N          3.59631       -0.94761       -2.95225
|  7> C          1.66394       -1.41369       -1.77781
|  8> H          0.81164       -1.96318       -1.70275
|  9> H          1.84550       -0.63508       -1.15875
| 10> H          4.20535       -1.17600       -3.73383
| 11> H          3.81723       -0.12585       -2.40604
| 12> H          3.14311       -3.36280       -3.81152
| 13> H          1.48768       -3.45893       -3.16521
| 14> H          1.46566       -3.19589       -5.64368
| 15> H          2.35406       -1.69850       -5.49654
| 16> H          0.73014       -1.81680       -4.86253
| 17> *
| 18>
| 19> %MaxCore 64000
| 20> %pal nprocs 4
| 21> end
| 22>
| 23> %scf
| 24>   MaxIter 150
| 25> end
| 26>
| 27>
| 28>                          ****END OF INPUT****

CARTESIAN COORDINATES (ANGSTROEM)
---------------------------------
  C      1.647030   -2.345280   -5.020410
  C      2.209960   -2.812390   -3.665710
  C      2.489010   -1.668510   -2.737540
  N      3.596310   -0.947610   -2.952250
  C      1.663940   -1.413690   -1.777810
  H      0.811640   -1.963180   -1.702750
  H      1.845500   -0.635080   -1.158750
  H      4.205350   -1.176000   -3.733830
  H      3.817230   -0.125850   -2.406040
  H      3.143110   -3.362800   -3.811520
  H      1.487680   -3.458930   -3.165210
  H      1.465660   -3.195890   -5.643680
  H      2.354060   -1.698500   -5.496540
  H      0.730140   -1.816800   -4.862530

 Total Charge           Charge          ....    0
 Multiplicity           Mult            ....    1
 Number of Electrons    NEL             ....   40
 Basis Dimension        Dim             ....  115

ORBITAL ENERGIES
----------------

  NO   OCC          E(Eh)            E(eV)
   0   2.0000     -14.014526      -381.3546
   1   2.0000      -9.926476      -270.1131
   2   2.0000      -9.915256      -269.8078
   3   2.0000      -9.906921      -269.5810
   4   2.0000      -9.849590      -268.0210
   5   2.0000      -0.816128       -22.2080
   6   2.0000      -0.686851       -18.6902
   7   2.0000      -0.631716       -17.1899
   8   2.0000      -0.554464       -15.0877
   9   2.0000      -0.494574       -13.4581
  10   2.0000      -0.456934       -12.4338
  11   2.0000      -0.415989       -11.3196
  12   2.0000      -0.377897       -10.2831
  13   2.0000      -0.364114        -9.9081
  14   2.0000      -0.339262        -9.2318
  15   2.0000      -0.328542        -8.9401
  16   2.0000      -0.300699        -8.1824
  17   2.0000      -0.282387        -7.6842
  18   2.0000      -0.270041        -7.3482
  19   2.0000      -0.146955        -3.9988
  20   0.0000       0.024425         0.6646
  21   0.0000       0.042923         1.1680
  22   0.0000       0.072738         1.9793
  23   0.0000       0.080065         2.1787
  24   0.0000       0.094217         2.5638

MULLIKEN ATOMIC CHARGES
-----------------------
   0 C :    0.112463
   1 C :    0.115103
   2 C :   -0.145612
   3 N :    0.005152
   4 C :    0.039689
   5 H :   -0.075164
   6 H :   -0.093602
   7 H :    0.081545
   8 H :    0.085863
   9 H :   -0.035437
  10 H :   -0.028253
  11 H :   -0.016163
  12 H :   -0.029905
  13 H :   -0.015679
Sum of atomic charges:   -0.0000000

LOEWDIN ATOMIC CHARGES
----------------------
   0 C :   -0.033705
   1 C :   -0.016326
   2 C :   -0.000833
   3 N :    0.001763
   4 C :   -0.152314
   5 H :   -0.002812
   6 H :   -0.012283
   7 H :    0.064117
   8 H :    0.068410
   9 H :    0.013318
  10 H :    0.026168
  11 H :    0.015810
  12 H :    0.009842
  13 H :    0.018844

  Mayer bond orders larger than 0.100000
B(  0-C ,  1-C ) :   1.1197 B(  0-C , 11-H ) :   0.9574 B(  0-C , 12-H ) :   0.9618
B(  0-C , 13-H ) :   0.9615 B(  1-C ,  2-C ) :   1.0505 B(  1-C ,  9-H ) :   0.9074
B(  1-C , 10-H ) :   0.9118 B(  2-C ,  3-N ) :   1.2768 B(  2-C ,  4-C ) :   1.8893
B(  3-N ,  7-H ) :   0.9467 B(  3-N ,  8-H ) :   0.9457 B(  4-C ,  5-H ) :   0.9056
B(  4-C ,  6-H ) :   0.9199

Dispersion correction           -0.021458471
FINAL SINGLE POINT ENERGY      -212.297827350231

DIPOLE MOMENT
-------------
                                X             Y             Z
Electronic contribution:      1.73882       1.12529       1.98631
Nuclear contribution   :     -1.13902      -0.93906      -2.44135
                        -----------------------------------------
Total Dipole Moment    :      0.59980       0.18623      -0.45504
                        -----------------------------------------
Magnitude (a.u.)       :      0.77556
Magnitude (Debye)      :      1.97133

Rotational constants in cm-1:     0.267243     0.130607     0.102304
Rotational constants in MHz :  8011.748167  3915.504600  3066.999841

                             ****ORCA TERMINATED NORMALLY****
TOTAL RUN TIME: 0 days 0 hours 0 minutes 7 seconds 429 msec
