                         Program Version 5.0.0 -  RELEASE  -
|  1> !BLYP D3BJ RIJCOSX def2-TZVP def2/J TightSCF xyzfile
|  2>
|  3> *xyzfile 0 1 D1.xyz
|  4>
|  5> %MaxCore 64000
|  6>
|  7> %pal nprocs 18
|  8> end
|  9>
| 10> %scf
| 11>   MaxIter 150
| 12> end
| 13>
| 14>
| 15>                          ****END OF INPUT****

CARTESIAN COORDINATES (ANGSTROEM)
---------------------------------
  C      1.647032   -2.345276   -5.020411
  C      0.217628   -1.814022   -4.924389
  C      2.209964   -2.812388   -3.665708
  C     -0.811356   -2.908780   -4.607625
  C     -1.916579   -2.485081   -3.643665
  H     -2.554525   -1.712428   -4.091993
  C     -1.363531   -1.981337   -2.293608
  H     -2.553448   -3.355667   -3.458815
  F     -0.350395   -2.749689   -1.796006
  H      2.308385   -1.588704   -5.457128
  H      1.674286   -3.203478   -5.697392
  C      2.489007   -1.668510   -2.737538
  C      3.596314   -0.947608   -2.952247
  N      1.663936   -1.413685   -1.777806
  H      0.811642   -1.963178   -1.702755
  H      1.845503   -0.635078   -1.158749
  H      4.205351   -1.176003   -3.733825
  H      3.817230   -0.125845   -2.406041
  H     -1.244829   -3.280884   -5.541040
  H     -0.306331   -3.757746   -4.142734
  H     -0.036244   -1.318555   -5.865303
  H      0.175004   -1.035382   -4.158095
  H      3.143106   -3.362803   -3.811524
  H      1.487683   -3.458935   -3.165211
  H     -2.226220   -1.908386   -1.602039
  H     -1.051353   -0.915671   -2.443331

 Total Charge           Charge          ....    0
 Multiplicity           Mult            ....    1
 Number of Electrons    NEL             ....   80
 Basis Dimension        Dim             ....  406

ORBITAL ENERGIES
----------------

  NO   OCC          E(Eh)            E(eV)
   0   2.0000     -24.318963      -661.7526
   1   2.0000     -13.974184      -380.2569
   2   2.0000     -10.000227      -272.1200
   3   2.0000      -9.920892      -269.9612
   4   2.0000      -9.904892      -269.5258
   5   2.0000      -9.901973      -269.4464
   6   2.0000      -9.896472      -269.2967
   7   2.0000      -9.892938      -269.2005
   8   2.0000      -9.889185      -269.0984
   9   2.0000      -9.816699      -267.1260
  10   2.0000      -1.148709       -31.2580
  11   2.0000      -0.828727       -22.5508
  12   2.0000      -0.739060       -20.1108
  13   2.0000      -0.700057       -19.0495
  14   2.0000      -0.658876       -17.9289
  15   2.0000      -0.617655       -16.8073
  16   2.0000      -0.594647       -16.1812
  17   2.0000      -0.545924       -14.8554
  18   2.0000      -0.525749       -14.3063
  19   2.0000      -0.511242       -13.9116
  20   2.0000      -0.474505       -12.9119
  21   2.0000      -0.471445       -12.8287
  22   2.0000      -0.451932       -12.2977
  23   2.0000      -0.430861       -11.7243
  24   2.0000      -0.410714       -11.1761
  25   2.0000      -0.402792       -10.9605
  26   2.0000      -0.384308       -10.4575
  27   2.0000      -0.368915       -10.0387
  28   2.0000      -0.365552        -9.9472
  29   2.0000      -0.338458        -9.2099
  30   2.0000      -0.322475        -8.7750
  31   2.0000      -0.316010        -8.5991
  32   2.0000      -0.311491        -8.4761
  33   2.0000      -0.306717        -8.3462
  34   2.0000      -0.293273        -7.9804
  35   2.0000      -0.286339        -7.7917
  36   2.0000      -0.277457        -7.5500
  37   2.0000      -0.265024        -7.2117
  38   2.0000      -0.264584        -7.1997
  39   2.0000      -0.131056        -3.5662
  40   0.0000       0.006904         0.1879
  41   0.0000       0.018360         0.4996
  42   0.0000       0.028355         0.7716
  43   0.0000       0.036171         0.9843
  44   0.0000       0.040226         1.0946

MULLIKEN ATOMIC CHARGES
-----------------------
   0 C :   -0.093318
   1 C :   -0.172366
   2 C :   -0.193684
   3 C :   -0.158674
   4 C :   -0.153839
   5 H :    0.087127
   6 C :   -0.025460
   7 H :    0.089957
   8 F :   -0.199160
   9 H :    0.082735
  10 H :    0.060439
  11 C :    0.207907
  12 C :   -0.422536
  13 N :   -0.403069
  14 H :    0.262786
  15 H :    0.184227
  16 H :    0.067224
  17 H :    0.058874
  18 H :    0.084956
  19 H :    0.092289
  20 H :    0.075025
  21 H :    0.089074
  22 H :    0.091676
  23 H :    0.076227
  24 H :    0.102337
  25 H :    0.109245
Sum of atomic charges:   -0.0000000

LOEWDIN ATOMIC CHARGES
----------------------
   0 C :   -0.248319
   1 C :   -0.254557
   2 C :   -0.210917
   3 C :   -0.263624
   4 C :   -0.269366
   5 H :    0.140814
   6 C :   -0.356593
   7 H :    0.134264
   8 F :    0.183500
   9 H :    0.135818
  10 H :    0.129987
  11 C :   -0.378988
  12 C :   -0.299795
  13 N :    0.030649
  14 H :    0.116428
  15 H :    0.163205
  16 H :    0.098831
  17 H :    0.088523
  18 H :    0.133814
  19 H :    0.137170
  20 H :    0.130668
  21 H :    0.135347
  22 H :    0.145783
  23 H :    0.131139
  24 H :    0.123331
  25 H :    0.122890

  Mayer bond orders larger than 0.100000
B(  0-C ,  1-C ) :   0.9805 B(  0-C ,  2-C ) :   0.9522 B(  0-C ,  9-H ) :   0.9515
B(  0-C , 10-H ) :   0.9490 B(  1-C ,  3-C ) :   0.9404 B(  1-C , 20-H ) :   0.9567
B(  1-C , 21-H ) :   0.9768 B(  2-C , 11-C ) :   0.9338 B(  2-C , 22-H ) :   0.9694
B(  2-C , 23-H ) :   0.9826 B(  3-C ,  4-C ) :   0.9623 B(  3-C , 18-H ) :   0.9611
B(  3-C , 19-H ) :   0.9703 B(  4-C ,  5-H ) :   0.9430 B(  4-C ,  6-C ) :   0.9757
B(  4-C ,  7-H ) :   0.9621 B(  6-C ,  8-F ) :   0.9231 B(  6-C , 24-H ) :   0.9622
B(  6-C , 25-H ) :   0.9736 B(  8-F , 14-H ) :   0.1227 B( 11-C , 12-C ) :   1.6742
B( 11-C , 13-N ) :   1.2625 B( 12-C , 16-H ) :   0.9928 B( 12-C , 17-H ) :   0.9854
B( 13-N , 14-H ) :   0.8421 B( 13-N , 15-H ) :   0.9257

Dispersion correction           -0.053127837
FINAL SINGLE POINT ENERGY      -469.032097232663

DIPOLE MOMENT
-------------
                                X             Y             Z
Electronic contribution:     -1.27212      -1.75342       6.97767
Nuclear contribution   :     -0.37390       1.73388      -6.94752
                        -----------------------------------------
Total Dipole Moment    :     -1.64603      -0.01953       0.03015
                        -----------------------------------------
Magnitude (a.u.)       :      1.64642
Magnitude (Debye)      :      4.18486

Rotational constants in cm-1:     0.062220     0.032742     0.024374
Rotational constants in MHz :  1865.297979   981.573941   730.711364

                             ****ORCA TERMINATED NORMALLY****
TOTAL RUN TIME: 0 days 0 hours 0 minutes 18 seconds 420 msec
