                         Program Version 5.0.0 -  RELEASE  -
|  1> !B3LYP D3BJ RIJCOSX def2-TZVP def2/J TightSCF
|  2> *xyz -1 1
|  3> C         -0.90349       -0.87394       -1.98739
|  4> C         -0.96015       -0.52236       -0.48987
|  5> H         -1.69039       -1.20813       -0.02168
|  6> H         -1.41449        0.48633       -0.40668
|  7> O          0.26170       -0.58031        0.13861
|  8> H         -1.88568       -0.80774       -2.40670
|  9> H         -0.53143       -1.87013       -2.10605
| 10> H         -0.25399       -0.18836       -2.49039
| 11> *
| 12>
| 13> %MaxCore 64000
| 14>
| 15> %pal nprocs 4
| 16> end
| 17>
| 18> %scf
| 19>   MaxIter 150
| 20> end
| 21>
| 22>
| 23>                          ****END OF INPUT****

CARTESIAN COORDINATES (ANGSTROEM)
---------------------------------
  C     -0.903490   -0.873940   -1.987390
  C     -0.960150   -0.522360   -0.489870
  H     -1.690390   -1.208130   -0.021680
  H     -1.414490    0.486330   -0.406680
  O      0.261700   -0.580310    0.138610
  H     -1.885680   -0.807740   -2.406700
  H     -0.531430   -1.870130   -2.106050
  H     -0.253990   -0.188360   -2.490390

 Total Charge           Charge          ....   -1
 Multiplicity           Mult            ....    1
 Number of Electrons    NEL             ....   26
 Basis Dimension        Dim             ....  123

ORBITAL ENERGIES
----------------

  NO   OCC          E(Eh)            E(eV)
   0   2.0000     -18.770459      -510.7702
   1   2.0000      -9.971591      -271.3408
   2   2.0000      -9.952039      -270.8088
   3   2.0000      -0.661912       -18.0115
   4   2.0000      -0.518247       -14.1022
   5   2.0000      -0.363770        -9.8987
   6   2.0000      -0.242777        -6.6063
   7   2.0000      -0.220997        -6.0136
   8   2.0000      -0.164228        -4.4689
   9   2.0000      -0.149735        -4.0745
  10   2.0000      -0.097753        -2.6600
  11   2.0000       0.044994         1.2243
  12   2.0000       0.047857         1.3022
  13   0.0000       0.215990         5.8774
  14   0.0000       0.252450         6.8695
  15   0.0000       0.277596         7.5538
  16   0.0000       0.279299         7.6001
  17   0.0000       0.313048         8.5185

MULLIKEN ATOMIC CHARGES
-----------------------
   0 C :   -0.099185
   1 C :    0.064106
   2 H :   -0.076945
   3 H :   -0.079097
   4 O :   -0.776598
   5 H :   -0.050369
   6 H :    0.009028
   7 H :    0.009061
Sum of atomic charges:   -1.0000000

LOEWDIN ATOMIC CHARGES
----------------------
   0 C :   -0.358349
   1 C :   -0.541695
   2 H :    0.050141
   3 H :    0.049701
   4 O :   -0.433379
   5 H :    0.068345
   6 H :    0.082620
   7 H :    0.082616

  Mayer bond orders larger than 0.100000
B(  0-C ,  1-C ) :   0.8623 B(  0-C ,  4-O ) :  -0.2925 B(  0-C ,  5-H ) :   0.9154
B(  0-C ,  6-H ) :   0.9630 B(  0-C ,  7-H ) :   0.9630 B(  1-C ,  2-H ) :   0.9194
B(  1-C ,  3-H ) :   0.9179 B(  1-C ,  4-O ) :   1.6263 B(  4-O ,  5-H ) :   0.1113

Dispersion correction           -0.006227815
FINAL SINGLE POINT ENERGY      -154.396604641870

DIPOLE MOMENT
-------------
                                X             Y             Z
Electronic contribution:      2.07828       0.16835       2.25713
Nuclear contribution   :     -2.90669      -0.27617      -3.31210
                        -----------------------------------------
Total Dipole Moment    :     -0.82842      -0.10781      -1.05498
                        -----------------------------------------
Magnitude (a.u.)       :      1.34569
Magnitude (Debye)      :      3.42047

Rotational constants in cm-1:     1.291883     0.321656     0.284469
Rotational constants in MHz : 38729.676116  9643.011620  8528.167295

                             ****ORCA TERMINATED NORMALLY****
TOTAL RUN TIME: 0 days 0 hours 0 minutes 12 seconds 458 msec
