                         Program Version 5.0.0 -  RELEASE  -
|  1> !B3LYP D3BJ RIJCOSX def2-TZVP def2/J TightSCF
|  2> *xyz 1 1
|  3> C          4.36645       -0.13321       -1.41606
|  4> C          4.50829       -0.93187       -2.72425
|  5> C          3.05650       -0.32080       -0.70738
|  6> N          2.38983        0.71129       -0.24391
|  7> N          2.51600       -1.50772       -0.55023
|  8> H          2.96768       -2.32291       -0.95631
|  9> H          1.54987       -1.49063       -0.24988
| 10> H          2.74307        1.64947       -0.41280
| 11> H          1.44036        0.50278        0.03703
| 12> H          4.48784        0.93300       -1.61157
| 13> H          5.16967       -0.41443       -0.72982
| 14> H          5.46700       -0.73824       -3.15818
| 15> H          3.74074       -0.63528       -3.40821
| 16> H          4.41574       -1.97727       -2.51573
| 17> *
| 18>
| 19> %MaxCore 64000
| 20>
| 21> %pal nprocs 4
| 22> end
| 23>
| 24> %scf
| 25>   MaxIter 150
| 26> end
| 27>
| 28>
| 29>                          ****END OF INPUT****

CARTESIAN COORDINATES (ANGSTROEM)
---------------------------------
  C      4.366450   -0.133210   -1.416060
  C      4.508290   -0.931870   -2.724250
  C      3.056500   -0.320800   -0.707380
  N      2.389830    0.711290   -0.243910
  N      2.516000   -1.507720   -0.550230
  H      2.967680   -2.322910   -0.956310
  H      1.549870   -1.490630   -0.249880
  H      2.743070    1.649470   -0.412800
  H      1.440360    0.502780    0.037030
  H      4.487840    0.933000   -1.611570
  H      5.169670   -0.414430   -0.729820
  H      5.467000   -0.738240   -3.158180
  H      3.740740   -0.635280   -3.408210
  H      4.415740   -1.977270   -2.515730

 Total Charge           Charge          ....    1
 Multiplicity           Mult            ....    1
 Number of Electrons    NEL             ....   40
 Basis Dimension        Dim             ....  209

ORBITAL ENERGIES
----------------

  NO   OCC          E(Eh)            E(eV)
   0   2.0000     -14.561130      -396.2285
   1   2.0000     -14.559740      -396.1907
   2   2.0000     -10.489358      -285.4299
   3   2.0000     -10.370421      -282.1935
   4   2.0000     -10.326828      -281.0073
   5   2.0000      -1.212140       -32.9840
   6   2.0000      -1.107607       -30.1395
   7   2.0000      -0.970154       -26.3992
   8   2.0000      -0.860854       -23.4250
   9   2.0000      -0.819041       -22.2872
  10   2.0000      -0.769634       -20.9428
  11   2.0000      -0.756561       -20.5871
  12   2.0000      -0.705285       -19.1918
  13   2.0000      -0.659618       -17.9491
  14   2.0000      -0.628684       -17.1074
  15   2.0000      -0.601919       -16.3791
  16   2.0000      -0.555544       -15.1171
  17   2.0000      -0.542569       -14.7641
  18   2.0000      -0.528909       -14.3924
  19   2.0000      -0.494062       -13.4441
  20   0.0000      -0.213031        -5.7969
  21   0.0000      -0.165808        -4.5119
  22   0.0000      -0.119666        -3.2563
  23   0.0000      -0.117028        -3.1845
  24   0.0000      -0.081006        -2.2043

MULLIKEN ATOMIC CHARGES
-----------------------
   0 C :   -0.198718
   1 C :   -0.328451
   2 C :    0.303302
   3 N :   -0.302349
   4 N :   -0.300761
   5 H :    0.290579
   6 H :    0.261455
   7 H :    0.293985
   8 H :    0.258988
   9 H :    0.128709
  10 H :    0.174835
  11 H :    0.167320
  12 H :    0.144080
  13 H :    0.107028
Sum of atomic charges:    1.0000000

LOEWDIN ATOMIC CHARGES
----------------------
   0 C :   -0.212576
   1 C :   -0.256698
   2 C :   -0.291073
   3 N :    0.114484
   4 N :    0.114459
   5 H :    0.207752
   6 H :    0.199306
   7 H :    0.210070
   8 H :    0.198506
   9 H :    0.157480
  10 H :    0.172553
  11 H :    0.138727
  12 H :    0.128961
  13 H :    0.118049

  Mayer bond orders larger than 0.100000
B(  0-C ,  1-C ) :   0.9622 B(  0-C ,  2-C ) :   0.9744 B(  0-C ,  9-H ) :   0.9607
B(  0-C , 10-H ) :   0.9301 B(  1-C , 11-H ) :   0.9640 B(  1-C , 12-H ) :   0.9649
B(  1-C , 13-H ) :   0.9656 B(  2-C ,  3-N ) :   1.4569 B(  2-C ,  4-N ) :   1.4336
B(  3-N ,  7-H ) :   0.8842 B(  3-N ,  8-H ) :   0.8960 B(  4-N ,  5-H ) :   0.8896
B(  4-N ,  6-H ) :   0.8949

Dispersion correction           -0.016682648
FINAL SINGLE POINT ENERGY      -228.986591453701

DIPOLE MOMENT
-------------
                                X             Y             Z
Electronic contribution:     -2.67151       0.62985       3.11467
Nuclear contribution   :      1.78847      -0.48174      -2.67127
                        -----------------------------------------
Total Dipole Moment    :     -0.88304       0.14811       0.44339
                        -----------------------------------------
Magnitude (a.u.)       :      0.99915
Magnitude (Debye)      :      2.53963

Rotational constants in cm-1:     0.286883     0.123210     0.094446
Rotational constants in MHz :  8600.540572  3693.747366  2831.415242

                             ****ORCA TERMINATED NORMALLY****
TOTAL RUN TIME: 0 days 0 hours 0 minutes 23 seconds 405 msec
