                         Program Version 5.0.0 -  RELEASE  -
|  1> !B3LYP D3BJ RIJCOSX def2-TZVP def2/J TightSCF
|  2> *xyz 0 1
|  3> C         -0.90349       -0.87394       -1.98739
|  4> C         -0.96015       -0.52236       -0.48987
|  5> H         -1.69039       -1.20813       -0.02168
|  6> H         -1.41449        0.48633       -0.40668
|  7> F          0.26170       -0.58031        0.13861
|  8> H         -1.88568       -0.80774       -2.40670
|  9> H         -0.53143       -1.87013       -2.10605
| 10> H         -0.25399       -0.18836       -2.49039
| 11> *
| 12>
| 13> %MaxCore 64000
| 14>
| 15> %pal nprocs 4
| 16> end
| 17>
| 18> %scf
| 19>   MaxIter 150
| 20> end
| 21>
| 22>
| 23>                          ****END OF INPUT****

CARTESIAN COORDINATES (ANGSTROEM)
---------------------------------
  C     -0.903490   -0.873940   -1.987390
  C     -0.960150   -0.522360   -0.489870
  H     -1.690390   -1.208130   -0.021680
  H     -1.414490    0.486330   -0.406680
  F      0.261700   -0.580310    0.138610
  H     -1.885680   -0.807740   -2.406700
  H     -0.531430   -1.870130   -2.106050
  H     -0.253990   -0.188360   -2.490390

 Total Charge           Charge          ....    0
 Multiplicity           Mult            ....    1
 Number of Electrons    NEL             ....   26
 Basis Dimension        Dim             ....  123

ORBITAL ENERGIES
----------------

  NO   OCC          E(Eh)            E(eV)
   0   2.0000     -24.664945      -671.1673
   1   2.0000     -10.246565      -278.8232
   2   2.0000     -10.163540      -276.5640
   3   2.0000      -1.194683       -32.5090
   4   2.0000      -0.764032       -20.7904
   5   2.0000      -0.631479       -17.1834
   6   2.0000      -0.505703       -13.7609
   7   2.0000      -0.494049       -13.4437
   8   2.0000      -0.456049       -12.4097
   9   2.0000      -0.405545       -11.0354
  10   2.0000      -0.402461       -10.9515
  11   2.0000      -0.336281        -9.1507
  12   2.0000      -0.331878        -9.0309
  13   0.0000       0.040708         1.1077
  14   0.0000       0.079294         2.1577
  15   0.0000       0.095504         2.5988
  16   0.0000       0.097917         2.6645
  17   0.0000       0.111284         3.0282

MULLIKEN ATOMIC CHARGES
-----------------------
   0 C :   -0.299187
   1 C :    0.062530
   2 H :    0.082729
   3 H :    0.082250
   4 F :   -0.248232
   5 H :    0.100913
   6 H :    0.109450
   7 H :    0.109547
Sum of atomic charges:   -0.0000000

LOEWDIN ATOMIC CHARGES
----------------------
   0 C :   -0.304255
   1 C :   -0.357779
   2 H :    0.113916
   3 H :    0.114468
   4 F :    0.084854
   5 H :    0.119595
   6 H :    0.114598
   7 H :    0.114603

  Mayer bond orders larger than 0.100000
B(  0-C ,  1-C ) :   0.9730 B(  0-C ,  5-H ) :   0.9578 B(  0-C ,  6-H ) :   0.9713
B(  0-C ,  7-H ) :   0.9714 B(  1-C ,  2-H ) :   0.9701 B(  1-C ,  3-H ) :   0.9699
B(  1-C ,  4-F ) :   0.9860

Dispersion correction           -0.005735807
FINAL SINGLE POINT ENERGY      -179.048402760261

DIPOLE MOMENT
-------------
                                X             Y             Z
Electronic contribution:      3.23988       0.37568       3.99289
Nuclear contribution   :     -3.84149      -0.36812      -4.38946
                        -----------------------------------------
Total Dipole Moment    :     -0.60161       0.00756      -0.39658
                        -----------------------------------------
Magnitude (a.u.)       :      0.72060
Magnitude (Debye)      :      1.83163

Rotational constants in cm-1:     1.270659     0.299196     0.265842
Rotational constants in MHz : 38093.410361  8969.665806  7969.741481

                             ****ORCA TERMINATED NORMALLY****
TOTAL RUN TIME: 0 days 0 hours 0 minutes 10 seconds 837 msec
