                         Program Version 5.0.0 -  RELEASE  -
|  1> !B3LYP D3BJ RIJCOSX def2-TZVP def2/J TightSCF
|  2> *xyz 0 1
|  3> C          4.36645       -0.13321       -1.41606
|  4> C          4.50829       -0.93187       -2.72425
|  5> C          3.05650       -0.32080       -0.70738
|  6> C          2.38983        0.71129       -0.24391
|  7> N          2.51600       -1.50772       -0.55023
|  8> H          2.96768       -2.32291       -0.95631
|  9> H          1.54987       -1.49063       -0.24988
| 10> H          2.74307        1.64947       -0.41280
| 11> H          1.44036        0.50278        0.03703
| 12> H          4.48784        0.93300       -1.61157
| 13> H          5.16967       -0.41443       -0.72982
| 14> H          5.46700       -0.73824       -3.15818
| 15> H          3.74074       -0.63528       -3.40821
| 16> H          4.41574       -1.97727       -2.51573
| 17> *
| 18>
| 19> %MaxCore 64000
| 20>
| 21> %pal nprocs 4
| 22> end
| 23>
| 24> %scf
| 25>   MaxIter 150
| 26> end
| 27>
| 28>
| 29>                          ****END OF INPUT****

CARTESIAN COORDINATES (ANGSTROEM)
---------------------------------
  C      4.366450   -0.133210   -1.416060
  C      4.508290   -0.931870   -2.724250
  C      3.056500   -0.320800   -0.707380
  C      2.389830    0.711290   -0.243910
  N      2.516000   -1.507720   -0.550230
  H      2.967680   -2.322910   -0.956310
  H      1.549870   -1.490630   -0.249880
  H      2.743070    1.649470   -0.412800
  H      1.440360    0.502780    0.037030
  H      4.487840    0.933000   -1.611570
  H      5.169670   -0.414430   -0.729820
  H      5.467000   -0.738240   -3.158180
  H      3.740740   -0.635280   -3.408210
  H      4.415740   -1.977270   -2.515730

 Total Charge           Charge          ....    0
 Multiplicity           Mult            ....    1
 Number of Electrons    NEL             ....   40
 Basis Dimension        Dim             ....  209

ORBITAL ENERGIES
----------------

  NO   OCC          E(Eh)            E(eV)
   0   2.0000     -14.311483      -389.4352
   1   2.0000     -10.183530      -277.1079
   2   2.0000     -10.168912      -276.7102
   3   2.0000     -10.158943      -276.4389
   4   2.0000     -10.096541      -274.7408
   5   2.0000      -0.931716       -25.3533
   6   2.0000      -0.776674       -21.1344
   7   2.0000      -0.721005       -19.6195
   8   2.0000      -0.635267       -17.2865
   9   2.0000      -0.561280       -15.2732
  10   2.0000      -0.533382       -14.5141
  11   2.0000      -0.468925       -12.7601
  12   2.0000      -0.440088       -11.9754
  13   2.0000      -0.429290       -11.6816
  14   2.0000      -0.393530       -10.7085
  15   2.0000      -0.379765       -10.3339
  16   2.0000      -0.358364        -9.7516
  17   2.0000      -0.343370        -9.3436
  18   2.0000      -0.325170        -8.8483
  19   2.0000      -0.187311        -5.0970
  20   0.0000       0.023855         0.6491
  21   0.0000       0.042647         1.1605
  22   0.0000       0.069255         1.8845
  23   0.0000       0.072371         1.9693
  24   0.0000       0.091900         2.5007

MULLIKEN ATOMIC CHARGES
-----------------------
   0 C :   -0.164854
   1 C :   -0.317154
   2 C :    0.213531
   3 C :   -0.382174
   4 N :   -0.418098
   5 H :    0.215215
   6 H :    0.217790
   7 H :    0.081223
   8 H :    0.056272
   9 H :    0.094919
  10 H :    0.097381
  11 H :    0.112459
  12 H :    0.113193
  13 H :    0.080299
Sum of atomic charges:   -0.0000000

LOEWDIN ATOMIC CHARGES
----------------------
   0 C :   -0.231364
   1 C :   -0.291625
   2 C :   -0.368451
   3 C :   -0.278058
   4 N :    0.001641
   5 H :    0.166770
   6 H :    0.176680
   7 H :    0.103243
   8 H :    0.097948
   9 H :    0.144804
  10 H :    0.139150
  11 H :    0.115528
  12 H :    0.117331
  13 H :    0.106405

  Mayer bond orders larger than 0.100000
B(  0-C ,  1-C ) :   0.9530 B(  0-C ,  2-C ) :   0.9752 B(  0-C ,  9-H ) :   0.9707
B(  0-C , 10-H ) :   0.9695 B(  1-C , 11-H ) :   0.9778 B(  1-C , 12-H ) :   0.9734
B(  1-C , 13-H ) :   0.9760 B(  2-C ,  3-C ) :   1.7438 B(  2-C ,  4-N ) :   1.1587
B(  3-C ,  7-H ) :   1.0019 B(  3-C ,  8-H ) :   0.9846 B(  4-N ,  5-H ) :   0.9291
B(  4-N ,  6-H ) :   0.9184

Dispersion correction           -0.017381912
FINAL SINGLE POINT ENERGY      -212.515022659873

DIPOLE MOMENT
-------------
                                X             Y             Z
Electronic contribution:     -1.49689      -0.46193       2.07294
Nuclear contribution   :      1.56827      -0.21459      -2.46657
                        -----------------------------------------
Total Dipole Moment    :      0.07138      -0.67652      -0.39363
                        -----------------------------------------
Magnitude (a.u.)       :      0.78595
Magnitude (Debye)      :      1.99772

Rotational constants in cm-1:     0.294070     0.127722     0.097792
Rotational constants in MHz :  8815.983970  3829.010547  2931.715816

                             ****ORCA TERMINATED NORMALLY****
TOTAL RUN TIME: 0 days 0 hours 0 minutes 24 seconds 499 msec
