                         Program Version 5.0.0 -  RELEASE  -
|  1> !B3LYP D3BJ RIJCOSX def2-TZVP def2/J TightSCF
|  2> *xyz 0 1
|  3> C          4.36645       -0.13321       -1.41606
|  4> C          4.50829       -0.93187       -2.72425
|  5> C          3.05650       -0.32080       -0.70738
|  6> N          2.38983        0.71129       -0.24391
|  7> C          2.51600       -1.50772       -0.55023
|  8> H          2.96768       -2.32291       -0.95631
|  9> H          1.54987       -1.49063       -0.24988
| 10> H          2.74307        1.64947       -0.41280
| 11> H          1.44036        0.50278        0.03703
| 12> H          4.48784        0.93300       -1.61157
| 13> H          5.16967       -0.41443       -0.72982
| 14> H          5.46700       -0.73824       -3.15818
| 15> H          3.74074       -0.63528       -3.40821
| 16> H          4.41574       -1.97727       -2.51573
| 17> *
| 18>
| 19> %MaxCore 64000
| 20>
| 21> %pal nprocs 4
| 22> end
| 23>
| 24> %scf
| 25>   MaxIter 150
| 26> end
| 27>
| 28>
| 29>                          ****END OF INPUT****

CARTESIAN COORDINATES (ANGSTROEM)
---------------------------------
  C      4.366450   -0.133210   -1.416060
  C      4.508290   -0.931870   -2.724250
  C      3.056500   -0.320800   -0.707380
  N      2.389830    0.711290   -0.243910
  C      2.516000   -1.507720   -0.550230
  H      2.967680   -2.322910   -0.956310
  H      1.549870   -1.490630   -0.249880
  H      2.743070    1.649470   -0.412800
  H      1.440360    0.502780    0.037030
  H      4.487840    0.933000   -1.611570
  H      5.169670   -0.414430   -0.729820
  H      5.467000   -0.738240   -3.158180
  H      3.740740   -0.635280   -3.408210
  H      4.415740   -1.977270   -2.515730

 Total Charge           Charge          ....    0
 Multiplicity           Mult            ....    1
 Number of Electrons    NEL             ....   40
 Basis Dimension        Dim             ....  209

ORBITAL ENERGIES
----------------

  NO   OCC          E(Eh)            E(eV)
   0   2.0000     -14.312012      -389.4496
   1   2.0000     -10.183587      -277.1095
   2   2.0000     -10.170292      -276.7477
   3   2.0000     -10.152533      -276.2645
   4   2.0000     -10.094580      -274.6875
   5   2.0000      -0.931896       -25.3582
   6   2.0000      -0.777978       -21.1698
   7   2.0000      -0.710191       -19.3253
   8   2.0000      -0.644319       -17.5328
   9   2.0000      -0.552287       -15.0285
  10   2.0000      -0.530584       -14.4379
  11   2.0000      -0.476746       -12.9729
  12   2.0000      -0.449213       -12.2237
  13   2.0000      -0.407439       -11.0870
  14   2.0000      -0.390407       -10.6235
  15   2.0000      -0.379334       -10.3222
  16   2.0000      -0.357910        -9.7392
  17   2.0000      -0.342496        -9.3198
  18   2.0000      -0.326199        -8.8763
  19   2.0000      -0.185517        -5.0482
  20   0.0000       0.028124         0.7653
  21   0.0000       0.039747         1.0816
  22   0.0000       0.067217         1.8291
  23   0.0000       0.071937         1.9575
  24   0.0000       0.094626         2.5749

MULLIKEN ATOMIC CHARGES
-----------------------
   0 C :   -0.164287
   1 C :   -0.309086
   2 C :    0.220826
   3 N :   -0.416402
   4 C :   -0.387849
   5 H :    0.078346
   6 H :    0.057612
   7 H :    0.215247
   8 H :    0.215360
   9 H :    0.067688
  10 H :    0.107500
  11 H :    0.103268
  12 H :    0.105766
  13 H :    0.106010
Sum of atomic charges:    0.0000000

LOEWDIN ATOMIC CHARGES
----------------------
   0 C :   -0.231549
   1 C :   -0.282953
   2 C :   -0.367706
   3 N :    0.000442
   4 C :   -0.280660
   5 H :    0.102406
   6 H :    0.098389
   7 H :    0.166807
   8 H :    0.175924
   9 H :    0.130138
  10 H :    0.144998
  11 H :    0.111716
  12 H :    0.116350
  13 H :    0.115698

  Mayer bond orders larger than 0.100000
B(  0-C ,  1-C ) :   0.9747 B(  0-C ,  2-C ) :   0.9444 B(  0-C ,  9-H ) :   0.9690
B(  0-C , 10-H ) :   0.9748 B(  1-C , 11-H ) :   0.9738 B(  1-C , 12-H ) :   0.9754
B(  1-C , 13-H ) :   0.9775 B(  2-C ,  3-N ) :   1.1722 B(  2-C ,  4-C ) :   1.7229
B(  3-N ,  7-H ) :   0.9228 B(  3-N ,  8-H ) :   0.9178 B(  4-C ,  5-H ) :   1.0123
B(  4-C ,  6-H ) :   0.9812

Dispersion correction           -0.017452118
FINAL SINGLE POINT ENERGY      -212.513735600351

DIPOLE MOMENT
-------------
                                X             Y             Z
Electronic contribution:     -1.61164       1.49556       2.35599
Nuclear contribution   :      1.59749      -0.72853      -2.53752
                        -----------------------------------------
Total Dipole Moment    :     -0.01415       0.76703      -0.18153
                        -----------------------------------------
Magnitude (a.u.)       :      0.78834
Magnitude (Debye)      :      2.00380

Rotational constants in cm-1:     0.304597     0.124127     0.096828
Rotational constants in MHz :  9131.600925  3721.227051  2902.830760

                             ****ORCA TERMINATED NORMALLY****
TOTAL RUN TIME: 0 days 0 hours 0 minutes 24 seconds 829 msec
