                         Program Version 5.0.0 -  RELEASE  -
|  1> !B3LYP D3BJ RIJCOSX def2-TZVP def2/J TightSCF xyzfile
|  2>
|  3> *xyzfile 0 1 D1.xyz
|  4>
|  5> %MaxCore 64000
|  6>
|  7> %pal nprocs 18
|  8> end
|  9>
| 10> %scf
| 11>   MaxIter 150
| 12> end
| 13>
| 14>
| 15>                          ****END OF INPUT****

CARTESIAN COORDINATES (ANGSTROEM)
---------------------------------
  C      4.366454   -0.133215   -1.416062
  C      4.508292   -0.931872   -2.724249
  H      4.753716   -1.972051   -2.488408
  C      3.294164   -0.918214   -3.656570
  H      5.385637   -0.536236   -3.242640
  H      2.483463   -1.477378   -3.185764
  H      3.553092   -1.478495   -4.560331
  C      2.772335    0.460100   -4.051448
  H      2.608762    1.065107   -3.155194
  C      1.465354    0.410537   -4.853644
  H      3.532940    0.988848   -4.635671
  C      0.326171   -0.375613   -4.192580
  H      1.666704   -0.022269   -5.839323
  H      1.138198    1.439246   -5.035449
  C     -0.017405    0.080588   -2.778406
  H      0.585573   -1.439385   -4.168057
  H     -0.560005   -0.311425   -4.831461
  H      0.902090    0.201296   -2.206729
  C     -0.903495   -0.873945   -1.987388
  H     -0.479549    1.074657   -2.811915
  H     -0.502554   -1.892096   -2.081204
  H     -1.917039   -0.895427   -2.406277
  C     -0.960148   -0.522365   -0.489867
  H     -1.690392   -1.208130   -0.021677
  H     -1.414490    0.486329   -0.406677
  F      0.261703   -0.580307    0.138611
  C      3.056503   -0.320797   -0.707384
  C      2.389825    0.711285   -0.243909
  N      2.515999   -1.507721   -0.550229
  H      2.967683   -2.322915   -0.956305
  H      1.549872   -1.490634   -0.249876
  H      2.743071    1.649471   -0.412802
  H      1.440364    0.502778    0.037031
  H      4.487835    0.932997   -1.611569
  H      5.169672   -0.414432   -0.729817

 Total Charge           Charge          ....    0
 Multiplicity           Mult            ....    1
 Number of Electrons    NEL             ....  104
 Basis Dimension        Dim             ....  535

ORBITAL ENERGIES
----------------

  NO   OCC          E(Eh)            E(eV)
   0   2.0000     -24.697995      -672.0666
   1   2.0000     -14.287817      -388.7913
   2   2.0000     -10.259077      -279.1637
   3   2.0000     -10.179696      -277.0036
   4   2.0000     -10.166734      -276.6509
   5   2.0000     -10.160015      -276.4681
   6   2.0000     -10.159762      -276.4612
   7   2.0000     -10.157459      -276.3985
   8   2.0000     -10.157308      -276.3944
   9   2.0000     -10.155312      -276.3401
  10   2.0000     -10.153086      -276.2795
  11   2.0000     -10.151056      -276.2243
  12   2.0000     -10.071996      -274.0729
  13   2.0000      -1.237110       -33.6635
  14   2.0000      -0.914933       -24.8966
  15   2.0000      -0.816770       -22.2254
  16   2.0000      -0.794969       -21.6322
  17   2.0000      -0.768722       -20.9180
  18   2.0000      -0.731741       -19.9117
  19   2.0000      -0.704406       -19.1679
  20   2.0000      -0.683809       -18.6074
  21   2.0000      -0.637100       -17.3364
  22   2.0000      -0.614789       -16.7293
  23   2.0000      -0.584795       -15.9131
  24   2.0000      -0.556242       -15.1361
  25   2.0000      -0.541230       -14.7276
  26   2.0000      -0.533821       -14.5260
  27   2.0000      -0.526648       -14.3308
  28   2.0000      -0.513619       -13.9763
  29   2.0000      -0.484729       -13.1901
  30   2.0000      -0.469959       -12.7882
  31   2.0000      -0.458576       -12.4785
  32   2.0000      -0.442146       -12.0314
  33   2.0000      -0.437295       -11.8994
  34   2.0000      -0.426818       -11.6143
  35   2.0000      -0.420772       -11.4498
  36   2.0000      -0.397013       -10.8033
  37   2.0000      -0.389143       -10.5891
  38   2.0000      -0.380155       -10.3445
  39   2.0000      -0.371968       -10.1218
  40   2.0000      -0.364937        -9.9304
  41   2.0000      -0.356455        -9.6996
  42   2.0000      -0.348293        -9.4775
  43   2.0000      -0.342288        -9.3141
  44   2.0000      -0.338799        -9.2192
  45   2.0000      -0.331509        -9.0208
  46   2.0000      -0.313690        -8.5360
  47   2.0000      -0.310926        -8.4607
  48   2.0000      -0.305791        -8.3210
  49   2.0000      -0.302576        -8.2335
  50   2.0000      -0.298369        -8.1190
  51   2.0000      -0.170776        -4.6471
  52   0.0000       0.026811         0.7296
  53   0.0000       0.036556         0.9948
  54   0.0000       0.044800         1.2191
  55   0.0000       0.051187         1.3929
  56   0.0000       0.056813         1.5460

MULLIKEN ATOMIC CHARGES
-----------------------
   0 C :   -0.152471
   1 C :   -0.233704
   2 H :    0.096332
   3 C :   -0.132078
   4 H :    0.089273
   5 H :    0.071876
   6 H :    0.077911
   7 C :   -0.210104
   8 H :    0.116519
   9 C :   -0.128037
  10 H :    0.081039
  11 C :   -0.175253
  12 H :    0.083085
  13 H :    0.082599
  14 C :   -0.216894
  15 H :    0.092109
  16 H :    0.084225
  17 H :    0.142403
  18 C :   -0.183856
  19 H :    0.074218
  20 H :    0.091221
  21 H :    0.096004
  22 C :    0.049469
  23 H :    0.108684
  24 H :    0.100222
  25 F :   -0.239036
  26 C :    0.131833
  27 C :   -0.441700
  28 N :   -0.415756
  29 H :    0.209302
  30 H :    0.237651
  31 H :    0.073031
  32 H :    0.138879
  33 H :    0.100546
  34 H :    0.100457
Sum of atomic charges:   -0.0000000

LOEWDIN ATOMIC CHARGES
----------------------
   0 C :   -0.214442
   1 C :   -0.262079
   2 H :    0.129081
   3 C :   -0.265583
   4 H :    0.134765
   5 H :    0.130228
   6 H :    0.132116
   7 C :   -0.263159
   8 H :    0.138779
   9 C :   -0.259955
  10 H :    0.130960
  11 C :   -0.266364
  12 H :    0.132188
  13 H :    0.132840
  14 C :   -0.266970
  15 H :    0.131087
  16 H :    0.130632
  17 H :    0.149032
  18 C :   -0.271742
  19 H :    0.132895
  20 H :    0.134474
  21 H :    0.139889
  22 C :   -0.328480
  23 H :    0.123734
  24 H :    0.127050
  25 F :    0.140949
  26 C :   -0.378790
  27 C :   -0.290500
  28 N :    0.001834
  29 H :    0.162333
  30 H :    0.156228
  31 H :    0.097934
  32 H :    0.092402
  33 H :    0.145527
  34 H :    0.141108

  Mayer bond orders larger than 0.100000
B(  0-C ,  1-C ) :   0.9449 B(  0-C , 26-C ) :   0.9696 B(  0-C , 33-H ) :   0.9738
B(  0-C , 34-H ) :   0.9709 B(  1-C ,  2-H ) :   0.9856 B(  1-C ,  3-C ) :   0.9465
B(  1-C ,  4-H ) :   0.9678 B(  3-C ,  5-H ) :   0.9695 B(  3-C ,  6-H ) :   0.9653
B(  3-C ,  7-C ) :   0.9415 B(  7-C ,  8-H ) :   0.9764 B(  7-C ,  9-C ) :   0.9643
B(  7-C , 10-H ) :   0.9652 B(  9-C , 11-C ) :   0.9731 B(  9-C , 12-H ) :   0.9708
B(  9-C , 13-H ) :   0.9722 B( 11-C , 14-C ) :   0.9591 B( 11-C , 15-H ) :   0.9752
B( 11-C , 16-H ) :   0.9705 B( 14-C , 17-H ) :   0.9865 B( 14-C , 18-C ) :   0.9543
B( 14-C , 19-H ) :   0.9661 B( 18-C , 20-H ) :   0.9666 B( 18-C , 21-H ) :   0.9510
B( 18-C , 22-C ) :   0.9709 B( 22-C , 23-H ) :   0.9725 B( 22-C , 24-H ) :   0.9765
B( 22-C , 25-F ) :   0.9044 B( 26-C , 27-C ) :   1.7199 B( 26-C , 28-N ) :   1.1723
B( 27-C , 31-H ) :   1.0030 B( 27-C , 32-H ) :   0.9714 B( 28-N , 29-H ) :   0.9300
B( 28-N , 30-H ) :   0.8825

Dispersion correction           -0.064078634
FINAL SINGLE POINT ENERGY      -586.860633815184

DIPOLE MOMENT
-------------
                                X             Y             Z
Electronic contribution:     -2.69243      -1.62329      10.47413
Nuclear contribution   :      1.82572       1.04089     -11.09065
                        -----------------------------------------
Total Dipole Moment    :     -0.86671      -0.58239      -0.61651
                        -----------------------------------------
Magnitude (a.u.)       :      1.21262
Magnitude (Debye)      :      3.08225

Rotational constants in cm-1:     0.028436     0.022359     0.014416
Rotational constants in MHz :   852.496561   670.291843   432.183951

                             ****ORCA TERMINATED NORMALLY****
TOTAL RUN TIME: 0 days 0 hours 1 minutes 15 seconds 762 msec
