                         Program Version 5.0.0 -  RELEASE  -
|  1> !BLYP D3BJ RIJCOSX def2-TZVP def2/J TightSCF
|  2> *xyz -1 1
|  3> C         -0.91495        0.61511        2.50554
|  4> C         -0.05915        1.50352        3.41058
|  5> H          0.36536        2.34431        2.86116
|  6> H         -0.69226        1.92021        4.19898
|  7> C          1.08303        0.74964        4.08571
|  8> O          2.22817        1.26348        4.01983
|  9> O          0.81003       -0.34541        4.63627
| 10> H         -0.30401        0.20228        1.73015
| 11> H         -1.69811        1.19946        2.06954
| 12> H         -1.34124       -0.17772        3.08397
| 13> *
| 14>
| 15> %MaxCore 64000
| 16>
| 17> %pal nprocs 4
| 18> end
| 19>
| 20> %scf
| 21>   MaxIter 150
| 22> end
| 23>
| 24>
| 25>                          ****END OF INPUT****

CARTESIAN COORDINATES (ANGSTROEM)
---------------------------------
  C     -0.914950    0.615110    2.505540
  C     -0.059150    1.503520    3.410580
  H      0.365360    2.344310    2.861160
  H     -0.692260    1.920210    4.198980
  C      1.083030    0.749640    4.085710
  O      2.228170    1.263480    4.019830
  O      0.810030   -0.345410    4.636270
  H     -0.304010    0.202280    1.730150
  H     -1.698110    1.199460    2.069540
  H     -1.341240   -0.177720    3.083970

 Total Charge           Charge          ....   -1
 Multiplicity           Mult            ....    1
 Number of Electrons    NEL             ....   40
 Basis Dimension        Dim             ....  185

ORBITAL ENERGIES
----------------

  NO   OCC          E(Eh)            E(eV)
   0   2.0000     -18.496834      -503.3244
   1   2.0000     -18.495238      -503.2810
   2   2.0000      -9.769558      -265.8432
   3   2.0000      -9.733968      -264.8747
   4   2.0000      -9.721839      -264.5447
   5   2.0000      -0.713715       -19.4212
   6   2.0000      -0.626674       -17.0527
   7   2.0000      -0.520529       -14.1643
   8   2.0000      -0.398814       -10.8523
   9   2.0000      -0.254798        -6.9334
  10   2.0000      -0.234623        -6.3844
  11   2.0000      -0.197883        -5.3847
  12   2.0000      -0.171584        -4.6690
  13   2.0000      -0.157715        -4.2917
  14   2.0000      -0.145979        -3.9723
  15   2.0000      -0.118866        -3.2345
  16   2.0000      -0.105050        -2.8585
  17   2.0000       0.003373         0.0918
  18   2.0000       0.015525         0.4225
  19   2.0000       0.033140         0.9018
  20   0.0000       0.164872         4.4864
  21   0.0000       0.205560         5.5936
  22   0.0000       0.218809         5.9541
  23   0.0000       0.227965         6.2033
  24   0.0000       0.236631         6.4391

MULLIKEN ATOMIC CHARGES
-----------------------
   0 C :   -0.260007
   1 C :   -0.100079
   2 H :    0.010665
   3 H :    0.008935
   4 C :    0.127500
   5 O :   -0.476931
   6 O :   -0.474712
   7 H :    0.065428
   8 H :    0.031547
   9 H :    0.067654
Sum of atomic charges:   -1.0000000

LOEWDIN ATOMIC CHARGES
----------------------
   0 C :   -0.323000
   1 C :   -0.293525
   2 H :    0.112417
   3 H :    0.116435
   4 C :   -0.724902
   5 O :   -0.094125
   6 O :   -0.090239
   7 H :    0.103854
   8 H :    0.087885
   9 H :    0.105201

  Mayer bond orders larger than 0.100000
B(  0-C ,  1-C ) :   0.9331 B(  0-C ,  7-H ) :   0.9802 B(  0-C ,  8-H ) :   0.9592
B(  0-C ,  9-H ) :   0.9663 B(  1-C ,  2-H ) :   0.9417 B(  1-C ,  3-H ) :   0.9441
B(  1-C ,  4-C ) :   0.9162 B(  4-C ,  5-O ) :   1.9325 B(  4-C ,  6-O ) :   1.8890

Dispersion correction           -0.013546664
FINAL SINGLE POINT ENERGY      -267.878020496591

DIPOLE MOMENT
-------------
                                X             Y             Z
Electronic contribution:      4.90963      -1.07793       3.46938
Nuclear contribution   :     -6.38408       1.63097      -4.40540
                        -----------------------------------------
Total Dipole Moment    :     -1.47445       0.55303      -0.93602
                        -----------------------------------------
Magnitude (a.u.)       :      1.83193
Magnitude (Debye)      :      4.65640

Rotational constants in cm-1:     0.319732     0.134414     0.104753
Rotational constants in MHz :  9585.336550  4029.633034  3140.404334

                             ****ORCA TERMINATED NORMALLY****
TOTAL RUN TIME: 0 days 0 hours 0 minutes 9 seconds 509 msec
