                         Program Version 5.0.0 -  RELEASE  -
|  1> !BLYP D3BJ RIJCOSX def2-TZVP def2/J TightSCF
|  2> *xyz 1 1
|  3> C          4.60295       -2.44010        2.63478
|  4> C          3.86085       -1.59157        3.62289
|  5> N          2.75650       -2.04616        4.16633
|  6> N          4.25433       -0.36291        3.86046
|  7> H          3.56526        0.31099        4.16898
|  8> H          5.05429       -0.01606        3.33784
|  9> H          2.43970       -2.97389        3.89740
| 10> H          2.06687       -1.41253        4.54981
| 11> C          3.74469       -2.58056        1.36188
| 12> H          5.56156       -1.97135        2.40708
| 13> H          4.81050       -3.42255        3.06310
| 14> H          4.26314       -3.18477        0.64702
| 15> H          3.56325       -1.61180        0.94535
| 16> H          2.81197       -3.04259        1.60980
| 17> *
| 18>
| 19> %MaxCore 64000
| 20>
| 21> %pal nprocs 4
| 22> end
| 23>
| 24> %scf
| 25>   MaxIter 150
| 26> end
| 27>
| 28>
| 29>                          ****END OF INPUT****

CARTESIAN COORDINATES (ANGSTROEM)
---------------------------------
  C      4.602950   -2.440100    2.634780
  C      3.860850   -1.591570    3.622890
  N      2.756500   -2.046160    4.166330
  N      4.254330   -0.362910    3.860460
  H      3.565260    0.310990    4.168980
  H      5.054290   -0.016060    3.337840
  H      2.439700   -2.973890    3.897400
  H      2.066870   -1.412530    4.549810
  C      3.744690   -2.580560    1.361880
  H      5.561560   -1.971350    2.407080
  H      4.810500   -3.422550    3.063100
  H      4.263140   -3.184770    0.647020
  H      3.563250   -1.611800    0.945350
  H      2.811970   -3.042590    1.609800

 Total Charge           Charge          ....    1
 Multiplicity           Mult            ....    1
 Number of Electrons    NEL             ....   40
 Basis Dimension        Dim             ....  209

ORBITAL ENERGIES
----------------

  NO   OCC          E(Eh)            E(eV)
   0   2.0000     -14.249925      -387.7602
   1   2.0000     -14.248987      -387.7347
   2   2.0000     -10.217993      -278.0457
   3   2.0000     -10.105715      -274.9905
   4   2.0000     -10.065003      -273.8827
   5   2.0000      -1.117334       -30.4042
   6   2.0000      -1.027420       -27.9575
   7   2.0000      -0.893318       -24.3084
   8   2.0000      -0.794098       -21.6085
   9   2.0000      -0.753340       -20.4994
  10   2.0000      -0.715901       -19.4807
  11   2.0000      -0.695263       -18.9191
  12   2.0000      -0.646667       -17.5967
  13   2.0000      -0.610322       -16.6077
  14   2.0000      -0.575247       -15.6533
  15   2.0000      -0.552044       -15.0219
  16   2.0000      -0.504904       -13.7391
  17   2.0000      -0.498550       -13.5662
  18   2.0000      -0.486937       -13.2502
  19   2.0000      -0.453038       -12.3278
  20   0.0000      -0.245246        -6.6735
  21   0.0000      -0.185351        -5.0437
  22   0.0000      -0.141664        -3.8549
  23   0.0000      -0.139376        -3.7926
  24   0.0000      -0.109509        -2.9799

MULLIKEN ATOMIC CHARGES
-----------------------
   0 C :   -0.219481
   1 C :    0.292537
   2 N :   -0.272730
   3 N :   -0.266520
   4 H :    0.256664
   5 H :    0.276105
   6 H :    0.276787
   7 H :    0.259777
   8 C :   -0.293632
   9 H :    0.127372
  10 H :    0.162743
  11 H :    0.161508
  12 H :    0.126515
  13 H :    0.112355
Sum of atomic charges:    1.0000000

LOEWDIN ATOMIC CHARGES
----------------------
   0 C :   -0.210515
   1 C :   -0.305694
   2 N :    0.128124
   3 N :    0.126995
   4 H :    0.196470
   5 H :    0.206993
   6 H :    0.206825
   7 H :    0.196056
   8 C :   -0.249308
   9 H :    0.155450
  10 H :    0.163800
  11 H :    0.138257
  12 H :    0.126749
  13 H :    0.119798

  Mayer bond orders larger than 0.100000
B(  0-C ,  1-C ) :   0.9852 B(  0-C ,  8-C ) :   0.9265 B(  0-C ,  9-H ) :   0.9598
B(  0-C , 10-H ) :   0.9445 B(  1-C ,  2-N ) :   1.4303 B(  1-C ,  3-N ) :   1.4425
B(  2-N ,  6-H ) :   0.8972 B(  2-N ,  7-H ) :   0.8980 B(  3-N ,  4-H ) :   0.8984
B(  3-N ,  5-H ) :   0.8929 B(  8-C , 11-H ) :   0.9615 B(  8-C , 12-H ) :   0.9599
B(  8-C , 13-H ) :   0.9696

Dispersion correction           -0.020880617
FINAL SINGLE POINT ENERGY      -229.028522301379

DIPOLE MOMENT
-------------
                                X             Y             Z
Electronic contribution:     -0.24475       1.79862       3.73848
Nuclear contribution   :     -0.22400      -1.16268      -3.30447
                        -----------------------------------------
Total Dipole Moment    :     -0.46875       0.63595       0.43400
                        -----------------------------------------
Magnitude (a.u.)       :      0.90139
Magnitude (Debye)      :      2.29116

Rotational constants in cm-1:     0.258103     0.130571     0.102508
Rotational constants in MHz :  7737.732062  3914.431392  3073.119154

                             ****ORCA TERMINATED NORMALLY****
TOTAL RUN TIME: 0 days 0 hours 0 minutes 12 seconds 773 msec
