                         Program Version 5.0.0 -  RELEASE  -
|  1> !BLYP D3BJ RIJCOSX def2-TZVP def2/J TightSCF
|  2> *xyz 0 1
|  3> C         -0.91495        0.61511        2.50554
|  4> C         -0.05915        1.50352        3.41058
|  5> H          0.36536        2.34431        2.86116
|  6> H         -0.69226        1.92021        4.19898
|  7> C          1.08303        0.74964        4.08571
|  8> F          2.22817        1.26348        4.01983
|  9> O          0.81003       -0.34541        4.63627
| 10> H         -0.30401        0.20228        1.73015
| 11> H         -1.69811        1.19946        2.06954
| 12> H         -1.34124       -0.17772        3.08397
| 13> *
| 14>
| 15> %MaxCore 64000
| 16>
| 17> %pal nprocs 4
| 18> end
| 19>
| 20> %scf
| 21>   MaxIter 150
| 22> end
| 23>
| 24>
| 25>                          ****END OF INPUT****

CARTESIAN COORDINATES (ANGSTROEM)
---------------------------------
  C     -0.914950    0.615110    2.505540
  C     -0.059150    1.503520    3.410580
  H      0.365360    2.344310    2.861160
  H     -0.692260    1.920210    4.198980
  C      1.083030    0.749640    4.085710
  F      2.228170    1.263480    4.019830
  O      0.810030   -0.345410    4.636270
  H     -0.304010    0.202280    1.730150
  H     -1.698110    1.199460    2.069540
  H     -1.341240   -0.177720    3.083970

 Total Charge           Charge          ....    0
 Multiplicity           Mult            ....    1
 Number of Electrons    NEL             ....   40
 Basis Dimension        Dim             ....  185

ORBITAL ENERGIES
----------------

  NO   OCC          E(Eh)            E(eV)
   0   2.0000     -24.350208      -662.6028
   1   2.0000     -18.773993      -510.8663
   2   2.0000     -10.072269      -274.0804
   3   2.0000      -9.934289      -270.3258
   4   2.0000      -9.906313      -269.5645
   5   2.0000      -1.205596       -32.8059
   6   2.0000      -0.936702       -25.4890
   7   2.0000      -0.719938       -19.5905
   8   2.0000      -0.617708       -16.8087
   9   2.0000      -0.568585       -15.4720
  10   2.0000      -0.482764       -13.1367
  11   2.0000      -0.468658       -12.7528
  12   2.0000      -0.444552       -12.0969
  13   2.0000      -0.411957       -11.2099
  14   2.0000      -0.379367       -10.3231
  15   2.0000      -0.348933        -9.4949
  16   2.0000      -0.329489        -8.9658
  17   2.0000      -0.325744        -8.8640
  18   2.0000      -0.301965        -8.2169
  19   2.0000      -0.240276        -6.5382
  20   0.0000      -0.062133        -1.6907
  21   0.0000       0.012843         0.3495
  22   0.0000       0.051001         1.3878
  23   0.0000       0.064894         1.7658
  24   0.0000       0.074072         2.0156

MULLIKEN ATOMIC CHARGES
-----------------------
   0 C :   -0.297240
   1 C :   -0.182508
   2 H :    0.090479
   3 H :    0.107757
   4 C :    0.329899
   5 F :   -0.080328
   6 O :   -0.297035
   7 H :    0.101539
   8 H :    0.104592
   9 H :    0.122845
Sum of atomic charges:    0.0000000

LOEWDIN ATOMIC CHARGES
----------------------
   0 C :   -0.280458
   1 C :   -0.258399
   2 H :    0.135194
   3 H :    0.152637
   4 C :   -0.524449
   5 F :    0.337167
   6 O :    0.081785
   7 H :    0.117422
   8 H :    0.116401
   9 H :    0.122700

  Mayer bond orders larger than 0.100000
B(  0-C ,  1-C ) :   0.9577 B(  0-C ,  7-H ) :   0.9755 B(  0-C ,  8-H ) :   0.9663
B(  0-C ,  9-H ) :   0.9683 B(  1-C ,  2-H ) :   0.9523 B(  1-C ,  3-H ) :   0.9332
B(  1-C ,  4-C ) :   0.9829 B(  4-C ,  5-F ) :   1.1750 B(  4-C ,  6-O ) :   2.0684

Dispersion correction           -0.012859532
FINAL SINGLE POINT ENERGY      -292.453712455218

DIPOLE MOMENT
-------------
                                X             Y             Z
Electronic contribution:      7.76401      -0.20861       4.12777
Nuclear contribution   :     -8.12386       1.06915      -4.71960
                        -----------------------------------------
Total Dipole Moment    :     -0.35985       0.86053      -0.59182
                        -----------------------------------------
Magnitude (a.u.)       :      1.10466
Magnitude (Debye)      :      2.80781

Rotational constants in cm-1:     0.309513     0.127560     0.099675
Rotational constants in MHz :  9278.979128  3824.146597  2988.174827

                             ****ORCA TERMINATED NORMALLY****
TOTAL RUN TIME: 0 days 0 hours 0 minutes 10 seconds 848 msec
