                         Program Version 5.0.0 -  RELEASE  -
|  1> !BLYP D3BJ RIJCOSX def2-TZVP def2/J TightSCF
|  2> *xyz 0 1
|  3> C          4.60295       -2.44010        2.63478
|  4> C          3.86085       -1.59157        3.62289
|  5> C          2.75650       -2.04616        4.16633
|  6> N          4.25433       -0.36291        3.86046
|  7> H          3.56526        0.31099        4.16898
|  8> H          5.05429       -0.01606        3.33784
|  9> H          2.43970       -2.97389        3.89740
| 10> H          2.06687       -1.41253        4.54981
| 11> C          3.74469       -2.58056        1.36188
| 12> H          5.56156       -1.97135        2.40708
| 13> H          4.81050       -3.42255        3.06310
| 14> H          4.26314       -3.18477        0.64702
| 15> H          3.56325       -1.61180        0.94535
| 16> H          2.81197       -3.04259        1.60980
| 17> *
| 18>
| 19> %MaxCore 64000
| 20>
| 21> %pal nprocs 4
| 22> end
| 23>
| 24> %scf
| 25>   MaxIter 150
| 26> end
| 27>
| 28>
| 29>                          ****END OF INPUT****

CARTESIAN COORDINATES (ANGSTROEM)
---------------------------------
  C      4.602950   -2.440100    2.634780
  C      3.860850   -1.591570    3.622890
  C      2.756500   -2.046160    4.166330
  N      4.254330   -0.362910    3.860460
  H      3.565260    0.310990    4.168980
  H      5.054290   -0.016060    3.337840
  H      2.439700   -2.973890    3.897400
  H      2.066870   -1.412530    4.549810
  C      3.744690   -2.580560    1.361880
  H      5.561560   -1.971350    2.407080
  H      4.810500   -3.422550    3.063100
  H      4.263140   -3.184770    0.647020
  H      3.563250   -1.611800    0.945350
  H      2.811970   -3.042590    1.609800

 Total Charge           Charge          ....    0
 Multiplicity           Mult            ....    1
 Number of Electrons    NEL             ....   40
 Basis Dimension        Dim             ....  209

ORBITAL ENERGIES
----------------

  NO   OCC          E(Eh)            E(eV)
   0   2.0000     -14.005258      -381.1024
   1   2.0000      -9.916459      -269.8406
   2   2.0000      -9.905279      -269.5363
   3   2.0000      -9.888173      -269.0709
   4   2.0000      -9.831272      -267.5225
   5   2.0000      -0.845061       -22.9953
   6   2.0000      -0.701890       -19.0994
   7   2.0000      -0.635684       -17.2979
   8   2.0000      -0.570794       -15.5321
   9   2.0000      -0.502033       -13.6610
  10   2.0000      -0.468636       -12.7522
  11   2.0000      -0.426236       -11.5985
  12   2.0000      -0.395342       -10.7578
  13   2.0000      -0.361729        -9.8431
  14   2.0000      -0.339328        -9.2336
  15   2.0000      -0.329624        -8.9695
  16   2.0000      -0.307603        -8.3703
  17   2.0000      -0.297082        -8.0840
  18   2.0000      -0.281010        -7.6467
  19   2.0000      -0.152781        -4.1574
  20   0.0000       0.003574         0.0973
  21   0.0000       0.013270         0.3611
  22   0.0000       0.048263         1.3133
  23   0.0000       0.051410         1.3989
  24   0.0000       0.067435         1.8350

MULLIKEN ATOMIC CHARGES
-----------------------
   0 C :   -0.178516
   1 C :    0.239351
   2 C :   -0.382581
   3 N :   -0.383313
   4 H :    0.205680
   5 H :    0.199519
   6 H :    0.065089
   7 H :    0.060175
   8 C :   -0.271728
   9 H :    0.062247
  10 H :    0.099433
  11 H :    0.091189
  12 H :    0.089578
  13 H :    0.103876
Sum of atomic charges:   -0.0000000

LOEWDIN ATOMIC CHARGES
----------------------
   0 C :   -0.230237
   1 C :   -0.372894
   2 C :   -0.272231
   3 N :    0.014817
   4 H :    0.169154
   5 H :    0.163892
   6 H :    0.104521
   7 H :    0.095438
   8 C :   -0.281103
   9 H :    0.127436
  10 H :    0.142505
  11 H :    0.109090
  12 H :    0.113519
  13 H :    0.116093

  Mayer bond orders larger than 0.100000
B(  0-C ,  1-C ) :   0.9484 B(  0-C ,  8-C ) :   0.9438 B(  0-C ,  9-H ) :   0.9698
B(  0-C , 10-H ) :   0.9812 B(  1-C ,  2-C ) :   1.7283 B(  1-C ,  3-N ) :   1.1664
B(  2-C ,  6-H ) :   0.9994 B(  2-C ,  7-H ) :   0.9856 B(  3-N ,  4-H ) :   0.9222
B(  3-N ,  5-H ) :   0.9297 B(  8-C , 11-H ) :   0.9674 B(  8-C , 12-H ) :   0.9752
B(  8-C , 13-H ) :   0.9753

Dispersion correction           -0.021816687
FINAL SINGLE POINT ENERGY      -212.544662699429

DIPOLE MOMENT
-------------
                                X             Y             Z
Electronic contribution:      0.82320       1.81495       2.56714
Nuclear contribution   :     -0.47010      -1.22282      -3.06417
                        -----------------------------------------
Total Dipole Moment    :      0.35309       0.59213      -0.49702
                        -----------------------------------------
Magnitude (a.u.)       :      0.84990
Magnitude (Debye)      :      2.16027

Rotational constants in cm-1:     0.271862     0.131962     0.105499
Rotational constants in MHz :  8150.219120  3956.123671  3162.785522

                             ****ORCA TERMINATED NORMALLY****
TOTAL RUN TIME: 0 days 0 hours 0 minutes 12 seconds 641 msec
