                         Program Version 5.0.0 -  RELEASE  -
|  1> !BLYP D3BJ RIJCOSX def2-TZVP def2/J TightSCF
|  2> *xyz 0 1
|  3> C         -0.91495        0.61511        2.50554
|  4> C         -0.05915        1.50352        3.41058
|  5> H          0.36536        2.34431        2.86116
|  6> H         -0.69226        1.92021        4.19898
|  7> C          1.08303        0.74964        4.08571
|  8> O          2.22817        1.26348        4.01983
|  9> F          0.81003       -0.34541        4.63627
| 10> H         -0.30401        0.20228        1.73015
| 11> H         -1.69811        1.19946        2.06954
| 12> H         -1.34124       -0.17772        3.08397
| 13> *
| 14>
| 15> %MaxCore 64000
| 16>
| 17> %pal nprocs 4
| 18> end
| 19>
| 20> %scf
| 21>   MaxIter 150
| 22> end
| 23>
| 24>
| 25>                          ****END OF INPUT****

CARTESIAN COORDINATES (ANGSTROEM)
---------------------------------
  C     -0.914950    0.615110    2.505540
  C     -0.059150    1.503520    3.410580
  H      0.365360    2.344310    2.861160
  H     -0.692260    1.920210    4.198980
  C      1.083030    0.749640    4.085710
  O      2.228170    1.263480    4.019830
  F      0.810030   -0.345410    4.636270
  H     -0.304010    0.202280    1.730150
  H     -1.698110    1.199460    2.069540
  H     -1.341240   -0.177720    3.083970

 Total Charge           Charge          ....    0
 Multiplicity           Mult            ....    1
 Number of Electrons    NEL             ....   40
 Basis Dimension        Dim             ....  185

ORBITAL ENERGIES
----------------

  NO   OCC          E(Eh)            E(eV)
   0   2.0000     -24.351350      -662.6339
   1   2.0000     -18.772668      -510.8303
   2   2.0000     -10.071611      -274.0625
   3   2.0000      -9.933662      -270.3087
   4   2.0000      -9.911524      -269.7063
   5   2.0000      -1.207161       -32.8485
   6   2.0000      -0.934501       -25.4291
   7   2.0000      -0.723899       -19.6983
   8   2.0000      -0.614083       -16.7100
   9   2.0000      -0.574992       -15.6463
  10   2.0000      -0.485128       -13.2010
  11   2.0000      -0.474471       -12.9110
  12   2.0000      -0.437606       -11.9079
  13   2.0000      -0.412308       -11.2195
  14   2.0000      -0.381273       -10.3750
  15   2.0000      -0.352385        -9.5889
  16   2.0000      -0.334469        -9.1014
  17   2.0000      -0.330073        -8.9817
  18   2.0000      -0.303654        -8.2628
  19   2.0000      -0.234968        -6.3938
  20   0.0000      -0.059542        -1.6202
  21   0.0000       0.008067         0.2195
  22   0.0000       0.050705         1.3797
  23   0.0000       0.067409         1.8343
  24   0.0000       0.076641         2.0855

MULLIKEN ATOMIC CHARGES
-----------------------
   0 C :   -0.304932
   1 C :   -0.178987
   2 H :    0.114280
   3 H :    0.099189
   4 C :    0.322663
   5 O :   -0.295627
   6 F :   -0.082696
   7 H :    0.110730
   8 H :    0.109823
   9 H :    0.105557
Sum of atomic charges:    0.0000000

LOEWDIN ATOMIC CHARGES
----------------------
   0 C :   -0.288913
   1 C :   -0.253697
   2 H :    0.148272
   3 H :    0.147360
   4 C :   -0.526200
   5 O :    0.078029
   6 F :    0.341413
   7 H :    0.118565
   8 H :    0.118381
   9 H :    0.116789

  Mayer bond orders larger than 0.100000
B(  0-C ,  1-C ) :   0.9398 B(  0-C ,  7-H ) :   0.9739 B(  0-C ,  8-H ) :   0.9677
B(  0-C ,  9-H ) :   0.9691 B(  1-C ,  2-H ) :   0.9622 B(  1-C ,  3-H ) :   0.9312
B(  1-C ,  4-C ) :   0.9998 B(  4-C ,  5-O ) :   2.0867 B(  4-C ,  6-F ) :   1.1624

Dispersion correction           -0.012756721
FINAL SINGLE POINT ENERGY      -292.452583798147

DIPOLE MOMENT
-------------
                                X             Y             Z
Electronic contribution:      5.40343      -2.84532       5.12481
Nuclear contribution   :     -6.57765       2.82334      -5.39171
                        -----------------------------------------
Total Dipole Moment    :     -1.17422      -0.02198      -0.26690
                        -----------------------------------------
Magnitude (a.u.)       :      1.20437
Magnitude (Debye)      :      3.06127

Rotational constants in cm-1:     0.294245     0.132994     0.101060
Rotational constants in MHz :  8821.228602  3987.049251  3029.696815

                             ****ORCA TERMINATED NORMALLY****
TOTAL RUN TIME: 0 days 0 hours 0 minutes 9 seconds 671 msec
