                         Program Version 5.0.0 -  RELEASE  -
|  1> !BLYP D3BJ RIJCOSX def2-TZVP def2/J TightSCF
|  2> *xyz 0 1
|  3> C          4.60295       -2.44010        2.63478
|  4> C          3.86085       -1.59157        3.62289
|  5> N          2.75650       -2.04616        4.16633
|  6> C          4.25433       -0.36291        3.86046
|  7> H          3.56526        0.31099        4.16898
|  8> H          5.05429       -0.01606        3.33784
|  9> H          2.43970       -2.97389        3.89740
| 10> H          2.06687       -1.41253        4.54981
| 11> C          3.74469       -2.58056        1.36188
| 12> H          5.56156       -1.97135        2.40708
| 13> H          4.81050       -3.42255        3.06310
| 14> H          4.26314       -3.18477        0.64702
| 15> H          3.56325       -1.61180        0.94535
| 16> H          2.81197       -3.04259        1.60980
| 17> *
| 18>
| 19> %MaxCore 64000
| 20>
| 21> %pal nprocs 4
| 22> end
| 23>
| 24> %scf
| 25>   MaxIter 150
| 26> end
| 27>
| 28>
| 29>                          ****END OF INPUT****

CARTESIAN COORDINATES (ANGSTROEM)
---------------------------------
  C      4.602950   -2.440100    2.634780
  C      3.860850   -1.591570    3.622890
  N      2.756500   -2.046160    4.166330
  C      4.254330   -0.362910    3.860460
  H      3.565260    0.310990    4.168980
  H      5.054290   -0.016060    3.337840
  H      2.439700   -2.973890    3.897400
  H      2.066870   -1.412530    4.549810
  C      3.744690   -2.580560    1.361880
  H      5.561560   -1.971350    2.407080
  H      4.810500   -3.422550    3.063100
  H      4.263140   -3.184770    0.647020
  H      3.563250   -1.611800    0.945350
  H      2.811970   -3.042590    1.609800

 Total Charge           Charge          ....    0
 Multiplicity           Mult            ....    1
 Number of Electrons    NEL             ....   40
 Basis Dimension        Dim             ....  209

ORBITAL ENERGIES
----------------

  NO   OCC          E(Eh)            E(eV)
   0   2.0000     -14.005369      -381.1055
   1   2.0000      -9.917571      -269.8708
   2   2.0000      -9.904593      -269.5177
   3   2.0000      -9.892001      -269.1750
   4   2.0000      -9.832716      -267.5618
   5   2.0000      -0.844915       -22.9913
   6   2.0000      -0.700346       -19.0574
   7   2.0000      -0.643262       -17.5040
   8   2.0000      -0.566419       -15.4130
   9   2.0000      -0.508805       -13.8453
  10   2.0000      -0.469924       -12.7873
  11   2.0000      -0.421711       -11.4753
  12   2.0000      -0.387748       -10.5512
  13   2.0000      -0.377098       -10.2614
  14   2.0000      -0.338820        -9.2198
  15   2.0000      -0.332171        -9.0388
  16   2.0000      -0.311400        -8.4736
  17   2.0000      -0.293910        -7.9977
  18   2.0000      -0.278105        -7.5676
  19   2.0000      -0.155668        -4.2359
  20   0.0000       0.001485         0.0404
  21   0.0000       0.015273         0.4156
  22   0.0000       0.050126         1.3640
  23   0.0000       0.053150         1.4463
  24   0.0000       0.063111         1.7173

MULLIKEN ATOMIC CHARGES
-----------------------
   0 C :   -0.172302
   1 C :    0.227756
   2 N :   -0.384111
   3 C :   -0.362362
   4 H :    0.055420
   5 H :    0.062434
   6 H :    0.201806
   7 H :    0.204944
   8 C :   -0.285990
   9 H :    0.088219
  10 H :    0.079657
  11 H :    0.099725
  12 H :    0.105981
  13 H :    0.078824
Sum of atomic charges:   -0.0000000

LOEWDIN ATOMIC CHARGES
----------------------
   0 C :   -0.230490
   1 C :   -0.372578
   2 N :    0.018497
   3 C :   -0.273508
   4 H :    0.096339
   5 H :    0.103965
   6 H :    0.165401
   7 H :    0.168192
   8 C :   -0.285428
   9 H :    0.142344
  10 H :    0.130309
  11 H :    0.112413
  12 H :    0.117240
  13 H :    0.107303

  Mayer bond orders larger than 0.100000
B(  0-C ,  1-C ) :   0.9737 B(  0-C ,  8-C ) :   0.9318 B(  0-C ,  9-H ) :   0.9729
B(  0-C , 10-H ) :   0.9668 B(  1-C ,  2-N ) :   1.1700 B(  1-C ,  3-C ) :   1.7416
B(  2-N ,  6-H ) :   0.9351 B(  2-N ,  7-H ) :   0.9222 B(  3-C ,  4-H ) :   0.9881
B(  3-C ,  5-H ) :   0.9931 B(  8-C , 11-H ) :   0.9706 B(  8-C , 12-H ) :   0.9764
B(  8-C , 13-H ) :   0.9734

Dispersion correction           -0.021770423
FINAL SINGLE POINT ENERGY      -212.545297748213

DIPOLE MOMENT
-------------
                                X             Y             Z
Electronic contribution:     -0.51926       0.30339       2.85664
Nuclear contribution   :     -0.12319      -0.83296      -3.13501
                        -----------------------------------------
Total Dipole Moment    :     -0.64245      -0.52957      -0.27837
                        -----------------------------------------
Magnitude (a.u.)       :      0.87788
Magnitude (Debye)      :      2.23140

Rotational constants in cm-1:     0.266453     0.134423     0.106086
Rotational constants in MHz :  7988.053142  4029.892766  3180.375228

                             ****ORCA TERMINATED NORMALLY****
TOTAL RUN TIME: 0 days 0 hours 0 minutes 13 seconds 321 msec
