                         Program Version 5.0.0 -  RELEASE  -
|  1> !BLYP D3BJ RIJCOSX def2-TZVP def2/J TightSCF xyzfile
|  2>
|  3> *xyzfile 0 1 D1.xyz
|  4>
|  5> %MaxCore 64000
|  6>
|  7> %pal nprocs 18
|  8> end
|  9>
| 10> %scf
| 11>   MaxIter 150
| 12> end
| 13>
| 14>
| 15>                          ****END OF INPUT****

CARTESIAN COORDINATES (ANGSTROEM)
---------------------------------
  C      4.602954   -2.440100    2.634780
  C     -0.914947    0.615112    2.505538
  C     -0.059146    1.503524    3.410578
  H      0.365364    2.344315    2.861161
  H     -0.692261    1.920207    4.198985
  C      1.083027    0.749640    4.085705
  C      3.860851   -1.591565    3.622893
  C      2.756502   -2.046159    4.166333
  N      4.254325   -0.362905    3.860455
  H      3.565256    0.310994    4.168983
  H      5.054292   -0.016059    3.337838
  H      2.439696   -2.973894    3.897395
  H      2.066869   -1.412532    4.549813
  F      2.228167    1.263475    4.019826
  O      0.810034   -0.345411    4.636269
  C      3.744685   -2.580557    1.361882
  C      0.772139    0.636882    0.562129
  C     -0.130740   -0.193985    1.470763
  H     -0.840563   -0.760165    0.856377
  H      0.466691   -0.938942    2.006959
  H     -1.647961    1.245963    1.991076
  H     -1.478180   -0.081046    3.130424
  C      3.203721   -1.256004    0.826211
  H      2.898939   -3.239289    1.583074
  H      4.334962   -3.095523    0.600188
  C      2.107815   -1.442385   -0.216865
  H      2.786775   -0.672760    1.650711
  H      4.021008   -0.652993    0.414046
  C      1.390662   -0.145912   -0.602422
  H      1.372179   -2.152184    0.176151
  H      2.523302   -1.906787   -1.117115
  H      1.561361    1.100094    1.161831
  H      0.195516    1.468325    0.142758
  H      0.602893   -0.398214   -1.319716
  H      2.087247    0.508272   -1.137335
  H      5.561557   -1.971347    2.407084
  H      4.810498   -3.422552    3.063099

 Total Charge           Charge          ....    0
 Multiplicity           Mult            ....    1
 Number of Electrons    NEL             ....  118
 Basis Dimension        Dim             ....  597

ORBITAL ENERGIES
----------------

  NO   OCC          E(Eh)            E(eV)
   0   2.0000     -24.375829      -663.3000
   1   2.0000     -18.787523      -511.2345
   2   2.0000     -13.982033      -380.4705
   3   2.0000     -10.086844      -274.4770
   4   2.0000      -9.939195      -270.4593
   5   2.0000      -9.918363      -269.8924
   6   2.0000      -9.903359      -269.4841
   7   2.0000      -9.903205      -269.4799
   8   2.0000      -9.898502      -269.3519
   9   2.0000      -9.896056      -269.2854
  10   2.0000      -9.892223      -269.1811
  11   2.0000      -9.890204      -269.1261
  12   2.0000      -9.890101      -269.1233
  13   2.0000      -9.888280      -269.0738
  14   2.0000      -9.800177      -266.6764
  15   2.0000      -1.234500       -33.5925
  16   2.0000      -0.956280       -26.0217
  17   2.0000      -0.827895       -22.5282
  18   2.0000      -0.747868       -20.3505
  19   2.0000      -0.723956       -19.6999
  20   2.0000      -0.700863       -19.0714
  21   2.0000      -0.666782       -18.1441
  22   2.0000      -0.645023       -17.5520
  23   2.0000      -0.616942       -16.7878
  24   2.0000      -0.605135       -16.4665
  25   2.0000      -0.577269       -15.7083
  26   2.0000      -0.545409       -14.8413
  27   2.0000      -0.525350       -14.2955
  28   2.0000      -0.508870       -13.8470
  29   2.0000      -0.500689       -13.6244
  30   2.0000      -0.489327       -13.3153
  31   2.0000      -0.477787       -13.0013
  32   2.0000      -0.465457       -12.6657
  33   2.0000      -0.441706       -12.0194
  34   2.0000      -0.426640       -11.6095
  35   2.0000      -0.423977       -11.5370
  36   2.0000      -0.415183       -11.2977
  37   2.0000      -0.397738       -10.8230
  38   2.0000      -0.389489       -10.5985
  39   2.0000      -0.375555       -10.2194
  40   2.0000      -0.372774       -10.1437
  41   2.0000      -0.357291        -9.7224
  42   2.0000      -0.353427        -9.6172
  43   2.0000      -0.341589        -9.2951
  44   2.0000      -0.339178        -9.2295
  45   2.0000      -0.325253        -8.8506
  46   2.0000      -0.321697        -8.7538
  47   2.0000      -0.312596        -8.5062
  48   2.0000      -0.306841        -8.3496
  49   2.0000      -0.299374        -8.1464
  50   2.0000      -0.296497        -8.0681
  51   2.0000      -0.287587        -7.8256
  52   2.0000      -0.279183        -7.5969
  53   2.0000      -0.276861        -7.5338
  54   2.0000      -0.270428        -7.3587
  55   2.0000      -0.266373        -7.2484
  56   2.0000      -0.258326        -7.0294
  57   2.0000      -0.227939        -6.2025
  58   2.0000      -0.133733        -3.6391
  59   0.0000      -0.078302        -2.1307
  60   0.0000       0.003211         0.0874
  61   0.0000       0.019526         0.5313
  62   0.0000       0.022851         0.6218
  63   0.0000       0.029138         0.7929

MULLIKEN ATOMIC CHARGES
-----------------------
   0 C :   -0.158066
   1 C :   -0.108133
   2 C :   -0.188010
   3 H :    0.101832
   4 H :    0.119394
   5 C :    0.363845
   6 C :    0.159858
   7 C :   -0.410269
   8 N :   -0.368377
   9 H :    0.202690
  10 H :    0.189244
  11 H :    0.049869
  12 H :    0.133749
  13 F :   -0.116183
  14 O :   -0.284138
  15 C :   -0.118036
  16 C :   -0.195448
  17 C :   -0.229239
  18 H :    0.074783
  19 H :    0.146499
  20 H :    0.084428
  21 H :    0.092952
  22 C :   -0.204377
  23 H :    0.075257
  24 H :    0.062802
  25 C :   -0.121433
  26 H :    0.097355
  27 H :    0.051598
  28 C :   -0.115076
  29 H :    0.083209
  30 H :    0.069704
  31 H :    0.087753
  32 H :    0.072460
  33 H :    0.077094
  34 H :    0.069100
  35 H :    0.057332
  36 H :    0.093978
Sum of atomic charges:    0.0000000

LOEWDIN ATOMIC CHARGES
----------------------
   0 C :   -0.210631
   1 C :   -0.248503
   2 C :   -0.229963
   3 H :    0.138899
   4 H :    0.156917
   5 C :   -0.507270
   6 C :   -0.391596
   7 C :   -0.272314
   8 N :    0.007527
   9 H :    0.147717
  10 H :    0.157994
  11 H :    0.100382
  12 H :    0.089912
  13 F :    0.347154
  14 O :    0.125035
  15 C :   -0.244819
  16 C :   -0.267173
  17 C :   -0.263313
  18 H :    0.137133
  19 H :    0.142540
  20 H :    0.137107
  21 H :    0.142402
  22 C :   -0.260950
  23 H :    0.134660
  24 H :    0.126537
  25 C :   -0.262584
  26 H :    0.138437
  27 H :    0.127280
  28 C :   -0.259506
  29 H :    0.133817
  30 H :    0.131173
  31 H :    0.127382
  32 H :    0.132542
  33 H :    0.132973
  34 H :    0.131696
  35 H :    0.127515
  36 H :    0.143891

  Mayer bond orders larger than 0.100000
B(  0-C ,  6-C ) :   0.9316 B(  0-C , 15-C ) :   0.9608 B(  0-C , 35-H ) :   0.9639
B(  0-C , 36-H ) :   0.9715 B(  1-C ,  2-C ) :   0.9551 B(  1-C , 17-C ) :   0.9738
B(  1-C , 20-H ) :   0.9564 B(  1-C , 21-H ) :   0.9528 B(  2-C ,  3-H ) :   0.9531
B(  2-C ,  4-H ) :   0.9351 B(  2-C ,  5-C ) :   0.9847 B(  5-C , 13-F ) :   1.0801
B(  5-C , 14-O ) :   1.9998 B(  6-C ,  7-C ) :   1.7316 B(  6-C ,  8-N ) :   1.1681
B(  7-C , 11-H ) :   0.9963 B(  7-C , 12-H ) :   0.9678 B(  8-N ,  9-H ) :   0.9029
B(  8-N , 10-H ) :   0.9344 B( 15-C , 22-C ) :   0.9769 B( 15-C , 23-H ) :   0.9601
B( 15-C , 24-H ) :   0.9552 B( 16-C , 17-C ) :   0.9374 B( 16-C , 28-C ) :   0.9814
B( 16-C , 31-H ) :   0.9666 B( 16-C , 32-H ) :   0.9597 B( 17-C , 18-H ) :   0.9601
B( 17-C , 19-H ) :   0.9661 B( 22-C , 25-C ) :   0.9692 B( 22-C , 26-H ) :   0.9756
B( 22-C , 27-H ) :   0.9573 B( 25-C , 28-C ) :   0.9627 B( 25-C , 29-H ) :   0.9618
B( 25-C , 30-H ) :   0.9644 B( 28-C , 33-H ) :   0.9616 B( 28-C , 34-H ) :   0.9647

Dispersion correction           -0.085441092
FINAL SINGLE POINT ENERGY      -700.312141448861

DIPOLE MOMENT
-------------
                                X             Y             Z
Electronic contribution:      1.22800       7.37011      15.03859
Nuclear contribution   :     -1.66567      -5.90236     -15.95042
                        -----------------------------------------
Total Dipole Moment    :     -0.43767       1.46775      -0.91183
                        -----------------------------------------
Magnitude (a.u.)       :      1.78249
Magnitude (Debye)      :      4.53073

Rotational constants in cm-1:     0.021600     0.017292     0.011381
Rotational constants in MHz :   647.565282   518.410024   341.193038

                             ****ORCA TERMINATED NORMALLY****
TOTAL RUN TIME: 0 days 0 hours 0 minutes 31 seconds 298 msec
