                         Program Version 5.0.0 -  RELEASE  -
|  1> !BLYP D3BJ RIJCOSX def2-TZVP def2/J TightSCF xyzfile
|  2>
|  3> *xyzfile 0 1 D2.xyz
|  4>
|  5> %MaxCore 64000
|  6>
|  7> %pal nprocs 18
|  8> end
|  9>
| 10> %scf
| 11>   MaxIter 150
| 12> end
| 13>
| 14>
| 15>                          ****END OF INPUT****

CARTESIAN COORDINATES (ANGSTROEM)
---------------------------------
  C      4.602954   -2.440100    2.634780
  C     -0.914947    0.615112    2.505538
  C     -0.059146    1.503524    3.410578
  H      0.365364    2.344315    2.861161
  H     -0.692261    1.920207    4.198985
  C      1.083027    0.749640    4.085705
  C      3.860851   -1.591565    3.622893
  N      2.756502   -2.046159    4.166333
  C      4.254325   -0.362905    3.860455
  H      3.565256    0.310994    4.168983
  H      5.054292   -0.016059    3.337838
  H      2.439696   -2.973894    3.897395
  H      2.066869   -1.412532    4.549813
  F      2.228167    1.263475    4.019826
  O      0.810034   -0.345411    4.636269
  C      3.744685   -2.580557    1.361882
  C      0.772139    0.636882    0.562129
  C     -0.130740   -0.193985    1.470763
  H     -0.840563   -0.760165    0.856377
  H      0.466691   -0.938942    2.006959
  H     -1.647961    1.245963    1.991076
  H     -1.478180   -0.081046    3.130424
  C      3.203721   -1.256004    0.826211
  H      2.898939   -3.239289    1.583074
  H      4.334962   -3.095523    0.600188
  C      2.107815   -1.442385   -0.216865
  H      2.786775   -0.672760    1.650711
  H      4.021008   -0.652993    0.414046
  C      1.390662   -0.145912   -0.602422
  H      1.372179   -2.152184    0.176151
  H      2.523302   -1.906787   -1.117115
  H      1.561361    1.100094    1.161831
  H      0.195516    1.468325    0.142758
  H      0.602893   -0.398214   -1.319716
  H      2.087247    0.508272   -1.137335
  H      5.561557   -1.971347    2.407084
  H      4.810498   -3.422552    3.063099

 Total Charge           Charge          ....    0
 Multiplicity           Mult            ....    1
 Number of Electrons    NEL             ....  118
 Basis Dimension        Dim             ....  597

ORBITAL ENERGIES
----------------

  NO   OCC          E(Eh)            E(eV)
   0   2.0000     -24.366487      -663.0458
   1   2.0000     -18.798878      -511.5435
   2   2.0000     -13.971049      -380.1716
   3   2.0000     -10.094321      -274.6804
   4   2.0000      -9.942259      -270.5426
   5   2.0000      -9.922043      -269.9925
   6   2.0000      -9.907198      -269.5886
   7   2.0000      -9.904334      -269.5106
   8   2.0000      -9.899041      -269.3666
   9   2.0000      -9.897851      -269.3342
  10   2.0000      -9.893391      -269.2129
  11   2.0000      -9.892734      -269.1950
  12   2.0000      -9.888980      -269.0928
  13   2.0000      -9.886596      -269.0280
  14   2.0000      -9.808558      -266.9044
  15   2.0000      -1.226736       -33.3812
  16   2.0000      -0.966822       -26.3086
  17   2.0000      -0.820423       -22.3249
  18   2.0000      -0.750797       -20.4302
  19   2.0000      -0.724739       -19.7212
  20   2.0000      -0.700157       -19.0522
  21   2.0000      -0.668552       -18.1922
  22   2.0000      -0.639717       -17.4076
  23   2.0000      -0.627901       -17.0860
  24   2.0000      -0.598802       -16.2942
  25   2.0000      -0.578685       -15.7468
  26   2.0000      -0.545124       -14.8336
  27   2.0000      -0.520992       -14.1769
  28   2.0000      -0.504167       -13.7191
  29   2.0000      -0.498664       -13.5693
  30   2.0000      -0.491682       -13.3794
  31   2.0000      -0.483117       -13.1463
  32   2.0000      -0.467309       -12.7161
  33   2.0000      -0.442736       -12.0475
  34   2.0000      -0.429927       -11.6989
  35   2.0000      -0.424549       -11.5526
  36   2.0000      -0.408372       -11.1124
  37   2.0000      -0.399416       -10.8687
  38   2.0000      -0.388940       -10.5836
  39   2.0000      -0.382761       -10.4155
  40   2.0000      -0.372299       -10.1308
  41   2.0000      -0.361421        -9.8348
  42   2.0000      -0.354505        -9.6466
  43   2.0000      -0.346054        -9.4166
  44   2.0000      -0.333770        -9.0823
  45   2.0000      -0.328073        -8.9273
  46   2.0000      -0.322373        -8.7722
  47   2.0000      -0.319409        -8.6916
  48   2.0000      -0.307120        -8.3572
  49   2.0000      -0.303800        -8.2668
  50   2.0000      -0.297764        -8.1026
  51   2.0000      -0.282227        -7.6798
  52   2.0000      -0.280111        -7.6222
  53   2.0000      -0.277139        -7.5413
  54   2.0000      -0.271250        -7.3811
  55   2.0000      -0.267318        -7.2741
  56   2.0000      -0.258449        -7.0328
  57   2.0000      -0.247908        -6.7459
  58   2.0000      -0.135394        -3.6842
  59   0.0000      -0.084018        -2.2862
  60   0.0000       0.003044         0.0828
  61   0.0000       0.015445         0.4203
  62   0.0000       0.024000         0.6531
  63   0.0000       0.028812         0.7840

MULLIKEN ATOMIC CHARGES
-----------------------
   0 C :   -0.156090
   1 C :   -0.109128
   2 C :   -0.186751
   3 H :    0.109116
   4 H :    0.120503
   5 C :    0.378972
   6 C :    0.148090
   7 N :   -0.364596
   8 C :   -0.368844
   9 H :    0.066093
  10 H :    0.051820
  11 H :    0.183676
  12 H :    0.229541
  13 F :   -0.075339
  14 O :   -0.333603
  15 C :   -0.163388
  16 C :   -0.196447
  17 C :   -0.223208
  18 H :    0.076925
  19 H :    0.119426
  20 H :    0.086813
  21 H :    0.091802
  22 C :   -0.191018
  23 H :    0.068935
  24 H :    0.075342
  25 C :   -0.110865
  26 H :    0.109483
  27 H :    0.055251
  28 C :   -0.117630
  29 H :    0.077242
  30 H :    0.069659
  31 H :    0.099094
  32 H :    0.072628
  33 H :    0.076182
  34 H :    0.071945
  35 H :    0.076226
  36 H :    0.082142
Sum of atomic charges:   -0.0000000

LOEWDIN ATOMIC CHARGES
----------------------
   0 C :   -0.209893
   1 C :   -0.249123
   2 C :   -0.226693
   3 H :    0.141932
   4 H :    0.157794
   5 C :   -0.496373
   6 C :   -0.386140
   7 N :    0.022245
   8 C :   -0.292641
   9 H :    0.087013
  10 H :    0.098823
  11 H :    0.159324
  12 H :    0.142833
  13 F :    0.366126
  14 O :    0.099528
  15 C :   -0.251940
  16 C :   -0.266465
  17 C :   -0.264256
  18 H :    0.137203
  19 H :    0.136871
  20 H :    0.137991
  21 H :    0.141415
  22 C :   -0.256766
  23 H :    0.127210
  24 H :    0.130334
  25 C :   -0.264498
  26 H :    0.140381
  27 H :    0.131648
  28 C :   -0.259053
  29 H :    0.131366
  30 H :    0.130928
  31 H :    0.130356
  32 H :    0.132876
  33 H :    0.132602
  34 H :    0.132824
  35 H :    0.142115
  36 H :    0.132103

  Mayer bond orders larger than 0.100000
B(  0-C ,  6-C ) :   0.9615 B(  0-C , 15-C ) :   0.9433 B(  0-C , 35-H ) :   0.9646
B(  0-C , 36-H ) :   0.9694 B(  1-C ,  2-C ) :   0.9518 B(  1-C , 17-C ) :   0.9725
B(  1-C , 20-H ) :   0.9562 B(  1-C , 21-H ) :   0.9544 B(  2-C ,  3-H ) :   0.9560
B(  2-C ,  4-H ) :   0.9329 B(  2-C ,  5-C ) :   0.9855 B(  5-C , 13-F ) :   1.1499
B(  5-C , 14-O ) :   1.9273 B(  6-C ,  7-N ) :   1.2047 B(  6-C ,  8-C ) :   1.7300
B(  7-N , 11-H ) :   0.9395 B(  7-N , 12-H ) :   0.8529 B(  8-C ,  9-H ) :   0.9834
B(  8-C , 10-H ) :   0.9885 B( 12-H , 14-O ) :   0.1205 B( 15-C , 22-C ) :   0.9565
B( 15-C , 23-H ) :   0.9746 B( 15-C , 24-H ) :   0.9575 B( 16-C , 17-C ) :   0.9383
B( 16-C , 28-C ) :   0.9815 B( 16-C , 31-H ) :   0.9657 B( 16-C , 32-H ) :   0.9595
B( 17-C , 18-H ) :   0.9607 B( 17-C , 19-H ) :   0.9683 B( 22-C , 25-C ) :   0.9526
B( 22-C , 26-H ) :   0.9936 B( 22-C , 27-H ) :   0.9575 B( 25-C , 28-C ) :   0.9640
B( 25-C , 29-H ) :   0.9601 B( 25-C , 30-H ) :   0.9653 B( 28-C , 33-H ) :   0.9615
B( 28-C , 34-H ) :   0.9648

Dispersion correction           -0.085327865
FINAL SINGLE POINT ENERGY      -700.322317321956

DIPOLE MOMENT
-------------
                                X             Y             Z
Electronic contribution:      0.08339       6.21542      15.21114
Nuclear contribution   :     -1.39991      -5.60370     -16.00470
                        -----------------------------------------
Total Dipole Moment    :     -1.31652       0.61171      -0.79356
                        -----------------------------------------
Magnitude (a.u.)       :      1.65443
Magnitude (Debye)      :      4.20523

Rotational constants in cm-1:     0.021622     0.017313     0.011402
Rotational constants in MHz :   648.226014   519.043632   341.814105

                             ****ORCA TERMINATED NORMALLY****
TOTAL RUN TIME: 0 days 0 hours 0 minutes 29 seconds 510 msec
