                         Program Version 5.0.0 -  RELEASE  -
|  1> !BLYP D3BJ RIJCOSX def2-TZVP def2/J TightSCF xyzfile
|  2>
|  3> *xyzfile 0 1 D4.xyz
|  4>
|  5> %MaxCore 64000
|  6>
|  7> %pal nprocs 18
|  8> end
|  9>
| 10> %scf
| 11>   MaxIter 150
| 12> end
| 13>
| 14>
| 15>                          ****END OF INPUT****

CARTESIAN COORDINATES (ANGSTROEM)
---------------------------------
  C      4.602954   -2.440100    2.634780
  C     -0.914947    0.615112    2.505538
  C     -0.059146    1.503524    3.410578
  H      0.365364    2.344315    2.861161
  H     -0.692261    1.920207    4.198985
  C      1.083027    0.749640    4.085705
  C      3.860851   -1.591565    3.622893
  N      2.756502   -2.046159    4.166333
  C      4.254325   -0.362905    3.860455
  H      3.565256    0.310994    4.168983
  H      5.054292   -0.016059    3.337838
  H      2.439696   -2.973894    3.897395
  H      2.066869   -1.412532    4.549813
  O      2.228167    1.263475    4.019826
  F      0.810034   -0.345411    4.636269
  C      3.744685   -2.580557    1.361882
  C      0.772139    0.636882    0.562129
  C     -0.130740   -0.193985    1.470763
  H     -0.840563   -0.760165    0.856377
  H      0.466691   -0.938942    2.006959
  H     -1.647961    1.245963    1.991076
  H     -1.478180   -0.081046    3.130424
  C      3.203721   -1.256004    0.826211
  H      2.898939   -3.239289    1.583074
  H      4.334962   -3.095523    0.600188
  C      2.107815   -1.442385   -0.216865
  H      2.786775   -0.672760    1.650711
  H      4.021008   -0.652993    0.414046
  C      1.390662   -0.145912   -0.602422
  H      1.372179   -2.152184    0.176151
  H      2.523302   -1.906787   -1.117115
  H      1.561361    1.100094    1.161831
  H      0.195516    1.468325    0.142758
  H      0.602893   -0.398214   -1.319716
  H      2.087247    0.508272   -1.137335
  H      5.561557   -1.971347    2.407084
  H      4.810498   -3.422552    3.063099

 Total Charge           Charge          ....    0
 Multiplicity           Mult            ....    1
 Number of Electrons    NEL             ....  118
 Basis Dimension        Dim             ....  597

ORBITAL ENERGIES
----------------

  NO   OCC          E(Eh)            E(eV)
   0   2.0000     -24.377164      -663.3363
   1   2.0000     -18.787647      -511.2379
   2   2.0000     -13.984036      -380.5250
   3   2.0000     -10.087297      -274.4893
   4   2.0000      -9.939387      -270.4645
   5   2.0000      -9.923765      -270.0394
   6   2.0000      -9.910193      -269.6701
   7   2.0000      -9.901587      -269.4359
   8   2.0000      -9.897376      -269.3213
   9   2.0000      -9.895047      -269.2579
  10   2.0000      -9.892427      -269.1866
  11   2.0000      -9.891684      -269.1664
  12   2.0000      -9.888041      -269.0673
  13   2.0000      -9.884392      -268.9680
  14   2.0000      -9.799263      -266.6515
  15   2.0000      -1.236623       -33.6502
  16   2.0000      -0.955497       -26.0004
  17   2.0000      -0.827997       -22.5309
  18   2.0000      -0.752073       -20.4649
  19   2.0000      -0.723991       -19.7008
  20   2.0000      -0.700269       -19.0553
  21   2.0000      -0.666265       -18.1300
  22   2.0000      -0.642748       -17.4901
  23   2.0000      -0.619697       -16.8628
  24   2.0000      -0.608196       -16.5499
  25   2.0000      -0.576946       -15.6995
  26   2.0000      -0.547324       -14.8934
  27   2.0000      -0.522243       -14.2110
  28   2.0000      -0.514620       -14.0035
  29   2.0000      -0.505028       -13.7425
  30   2.0000      -0.491018       -13.3613
  31   2.0000      -0.482006       -13.1160
  32   2.0000      -0.459317       -12.4986
  33   2.0000      -0.444973       -12.1083
  34   2.0000      -0.430317       -11.7095
  35   2.0000      -0.427165       -11.6238
  36   2.0000      -0.407019       -11.0756
  37   2.0000      -0.393264       -10.7013
  38   2.0000      -0.387034       -10.5317
  39   2.0000      -0.383711       -10.4413
  40   2.0000      -0.368320       -10.0225
  41   2.0000      -0.362839        -9.8733
  42   2.0000      -0.356335        -9.6964
  43   2.0000      -0.341223        -9.2852
  44   2.0000      -0.335688        -9.1345
  45   2.0000      -0.328736        -8.9454
  46   2.0000      -0.325079        -8.8459
  47   2.0000      -0.312709        -8.5092
  48   2.0000      -0.310106        -8.4384
  49   2.0000      -0.303230        -8.2513
  50   2.0000      -0.299418        -8.1476
  51   2.0000      -0.282596        -7.6898
  52   2.0000      -0.280668        -7.6374
  53   2.0000      -0.277864        -7.5611
  54   2.0000      -0.270250        -7.3539
  55   2.0000      -0.264991        -7.2108
  56   2.0000      -0.257634        -7.0106
  57   2.0000      -0.222960        -6.0670
  58   2.0000      -0.134770        -3.6673
  59   0.0000      -0.076881        -2.0920
  60   0.0000      -0.001947        -0.0530
  61   0.0000       0.013391         0.3644
  62   0.0000       0.023143         0.6298
  63   0.0000       0.030255         0.8233

MULLIKEN ATOMIC CHARGES
-----------------------
   0 C :   -0.158854
   1 C :   -0.147321
   2 C :   -0.174013
   3 H :    0.123322
   4 H :    0.113110
   5 C :    0.355567
   6 C :    0.151464
   7 N :   -0.381493
   8 C :   -0.360779
   9 H :    0.110908
  10 H :    0.044321
  11 H :    0.191253
  12 H :    0.208091
  13 O :   -0.287430
  14 F :   -0.114965
  15 C :   -0.156832
  16 C :   -0.205998
  17 C :   -0.197899
  18 H :    0.078278
  19 H :    0.096923
  20 H :    0.089587
  21 H :    0.088963
  22 C :   -0.211745
  23 H :    0.064555
  24 H :    0.076034
  25 C :   -0.107002
  26 H :    0.130000
  27 H :    0.056514
  28 C :   -0.119036
  29 H :    0.072822
  30 H :    0.069410
  31 H :    0.125665
  32 H :    0.071425
  33 H :    0.074196
  34 H :    0.073062
  35 H :    0.078613
  36 H :    0.079285
Sum of atomic charges:   -0.0000000

LOEWDIN ATOMIC CHARGES
----------------------
   0 C :   -0.211787
   1 C :   -0.259457
   2 C :   -0.225170
   3 H :    0.153332
   4 H :    0.152295
   5 C :   -0.510458
   6 C :   -0.389721
   7 N :    0.011140
   8 C :   -0.269681
   9 H :    0.088741
  10 H :    0.098711
  11 H :    0.160681
  12 H :    0.148016
  13 O :    0.122860
  14 F :    0.350624
  15 C :   -0.253361
  16 C :   -0.265173
  17 C :   -0.265558
  18 H :    0.136991
  19 H :    0.131660
  20 H :    0.138584
  21 H :    0.135697
  22 C :   -0.255908
  23 H :    0.125480
  24 H :    0.130232
  25 C :   -0.265138
  26 H :    0.143218
  27 H :    0.132619
  28 C :   -0.259220
  29 H :    0.129932
  30 H :    0.130734
  31 H :    0.137214
  32 H :    0.132934
  33 H :    0.131704
  34 H :    0.133465
  35 H :    0.143242
  36 H :    0.130523

  Mayer bond orders larger than 0.100000
B(  0-C ,  6-C ) :   0.9639 B(  0-C , 15-C ) :   0.9425 B(  0-C , 35-H ) :   0.9651
B(  0-C , 36-H ) :   0.9691 B(  1-C ,  2-C ) :   0.9295 B(  1-C , 17-C ) :   0.9572
B(  1-C , 20-H ) :   0.9539 B(  1-C , 21-H ) :   0.9669 B(  2-C ,  3-H ) :   0.9643
B(  2-C ,  4-H ) :   0.9336 B(  2-C ,  5-C ) :   0.9977 B(  5-C , 13-O ) :   1.9917
B(  5-C , 14-F ) :   1.0798 B(  6-C ,  7-N ) :   1.1586 B(  6-C ,  8-C ) :   1.7414
B(  7-N , 11-H ) :   0.9380 B(  7-N , 12-H ) :   0.8965 B(  8-C ,  9-H ) :   0.9694
B(  8-C , 10-H ) :   0.9867 B( 15-C , 22-C ) :   0.9463 B( 15-C , 23-H ) :   0.9759
B( 15-C , 24-H ) :   0.9576 B( 16-C , 17-C ) :   0.9361 B( 16-C , 28-C ) :   0.9790
B( 16-C , 31-H ) :   0.9651 B( 16-C , 32-H ) :   0.9588 B( 17-C , 18-H ) :   0.9605
B( 17-C , 19-H ) :   0.9713 B( 22-C , 25-C ) :   0.9453 B( 22-C , 26-H ) :   0.9980
B( 22-C , 27-H ) :   0.9582 B( 25-C , 28-C ) :   0.9644 B( 25-C , 29-H ) :   0.9606
B( 25-C , 30-H ) :   0.9650 B( 28-C , 33-H ) :   0.9620 B( 28-C , 34-H ) :   0.9646

Dispersion correction           -0.085325890
FINAL SINGLE POINT ENERGY      -700.310709240501

DIPOLE MOMENT
-------------
                                X             Y             Z
Electronic contribution:     -2.20497       3.55928      16.27278
Nuclear contribution   :      0.32481      -3.64700     -16.75441
                        -----------------------------------------
Total Dipole Moment    :     -1.88017      -0.08772      -0.48162
                        -----------------------------------------
Magnitude (a.u.)       :      1.94285
Magnitude (Debye)      :      4.93834

Rotational constants in cm-1:     0.021629     0.017327     0.011372
Rotational constants in MHz :   648.414821   519.443407   340.925013

                             ****ORCA TERMINATED NORMALLY****
TOTAL RUN TIME: 0 days 0 hours 0 minutes 29 seconds 260 msec
