                         Program Version 5.0.0 -  RELEASE  -
|  1> !M062X D3Zero RIJCOSX def2-SVPD def2/J TightSCF
|  2> *xyz -1 1
|  3> C          4.08422        1.74208       -2.11472
|  4> C          4.26524        2.50052       -0.79589
|  5> H          4.86853        3.39267       -0.98113
|  6> H          3.30764        2.82457       -0.38781
|  7> C          4.98224        1.65026        0.24742
|  8> O          4.36806        1.38927        1.31371
|  9> O          6.12892        1.23351       -0.04562
| 10> H          3.57911        2.36849       -2.81997
| 11> H          3.50424        0.85965       -1.94198
| 12> H          5.04288        1.46841       -2.50327
| 13> *
| 14> %MaxCore 64000
| 15> %pal nprocs 8
| 16> end
| 17> %scf
| 18>   MaxIter 150
| 19> end
| 20>
| 21>
| 22>                          ****END OF INPUT****

CARTESIAN COORDINATES (ANGSTROEM)
---------------------------------
  C      4.084220    1.742080   -2.114720
  C      4.265240    2.500520   -0.795890
  H      4.868530    3.392670   -0.981130
  H      3.307640    2.824570   -0.387810
  C      4.982240    1.650260    0.247420
  O      4.368060    1.389270    1.313710
  O      6.128920    1.233510   -0.045620
  H      3.579110    2.368490   -2.819970
  H      3.504240    0.859650   -1.941980
  H      5.042880    1.468410   -2.503270

 Total Charge           Charge          ....   -1
 Multiplicity           Mult            ....    1
 Number of Electrons    NEL             ....   40
 Basis Dimension        Dim             ....  146

ORBITAL ENERGIES
----------------

  NO   OCC          E(Eh)            E(eV)
   0   2.0000     -19.371352      -527.1213
   1   2.0000     -19.371151      -527.1158
   2   2.0000     -10.436792      -283.9995
   3   2.0000     -10.389264      -282.7062
   4   2.0000     -10.375568      -282.3335
   5   2.0000      -0.928658       -25.2701
   6   2.0000      -0.827976       -22.5304
   7   2.0000      -0.695136       -18.9156
   8   2.0000      -0.555293       -15.1103
   9   2.0000      -0.395720       -10.7681
  10   2.0000      -0.362825        -9.8730
  11   2.0000      -0.333650        -9.0791
  12   2.0000      -0.302083        -8.2201
  13   2.0000      -0.284706        -7.7472
  14   2.0000      -0.279954        -7.6179
  15   2.0000      -0.245586        -6.6827
  16   2.0000      -0.230347        -6.2681
  17   2.0000      -0.110896        -3.0176
  18   2.0000      -0.109902        -2.9906
  19   2.0000      -0.102129        -2.7791
  20   0.0000       0.173221         4.7136
  21   0.0000       0.206625         5.6225
  22   0.0000       0.216197         5.8830
  23   0.0000       0.243496         6.6259
  24   0.0000       0.263925         7.1818

MULLIKEN ATOMIC CHARGES
-----------------------
   0 C :    0.527499
   1 C :   -0.272490
   2 H :   -0.016314
   3 H :   -0.077653
   4 C :    0.561368
   5 O :   -0.756909
   6 O :   -0.773203
   7 H :   -0.078804
   8 H :   -0.074103
   9 H :   -0.039392
Sum of atomic charges:   -1.0000000

LOEWDIN ATOMIC CHARGES
----------------------
   0 C :    0.102941
   1 C :   -0.040712
   2 H :    0.009319
   3 H :    0.000718
   4 C :   -0.298786
   5 O :   -0.344064
   6 O :   -0.337443
   7 H :   -0.043353
   8 H :   -0.021757
   9 H :   -0.026864

  Mayer bond orders larger than 0.100000
B(  0-C ,  1-C ) :   1.2779 B(  0-C ,  7-H ) :   0.8545 B(  0-C ,  8-H ) :   0.8656
B(  0-C ,  9-H ) :   0.8364 B(  1-C ,  2-H ) :   0.8998 B(  1-C ,  3-H ) :   0.9855
B(  1-C ,  4-C ) :   0.9994 B(  1-C ,  7-H ) :   0.1502 B(  1-C ,  8-H ) :   0.1676
B(  1-C ,  9-H ) :   0.1907 B(  3-H ,  4-C ) :   0.1751 B(  4-C ,  5-O ) :   1.3780
B(  4-C ,  6-O ) :   1.4271

Dispersion correction           -0.000085960
FINAL SINGLE POINT ENERGY      -267.533308291392

DIPOLE MOMENT
-------------
                                X             Y             Z
Electronic contribution:      2.41376      -1.44763       5.07521
Nuclear contribution   :     -3.31311       2.28398      -6.76358
                        -----------------------------------------
Total Dipole Moment    :     -0.89935       0.83635      -1.68837
                        -----------------------------------------
Magnitude (a.u.)       :      2.08780
Magnitude (Debye)      :      5.30676

Rotational constants in cm-1:     0.309287     0.135287     0.107346
Rotational constants in MHz :  9272.201029  4055.789113  3218.155789

                             ****ORCA TERMINATED NORMALLY****
TOTAL RUN TIME: 0 days 0 hours 0 minutes 16 seconds 958 msec
