                         Program Version 5.0.0 -  RELEASE  -
|  1> !M062X D3Zero RIJCOSX def2-SVPD def2/J TightSCF
|  2> *xyz 1 1
|  3> C          3.91385       -1.65829        3.01513
|  4> N          5.03927       -0.90115        2.49282
|  5> C          6.21038       -1.41726        2.17824
|  6> N          6.53591       -2.67712        2.55608
|  7> N          7.07675       -0.70082        1.47891
|  8> H          7.95464       -1.12155        1.20755
|  9> H          6.75616        0.10664        0.96028
| 10> H          4.84217        0.01761        2.11519
| 11> H          5.99388       -3.12692        3.28278
| 12> C          3.13916       -2.37657        1.91061
| 13> H          3.26723       -0.93940        3.52069
| 14> H          4.24720       -2.35509        3.79006
| 15> H          7.49844       -2.97548        2.46878
| 16> H          2.82969       -1.66654        1.17238
| 17> H          2.27790       -2.85264        2.33072
| 18> H          3.76754       -3.11338        1.45548
| 19> *
| 20> %MaxCore 64000
| 21> %pal nprocs 8
| 22> end
| 23> %scf
| 24>   MaxIter 150
| 25> end
| 26>
| 27>
| 28>                          ****END OF INPUT****

CARTESIAN COORDINATES (ANGSTROEM)
---------------------------------
  C      3.913850   -1.658290    3.015130
  N      5.039270   -0.901150    2.492820
  C      6.210380   -1.417260    2.178240
  N      6.535910   -2.677120    2.556080
  N      7.076750   -0.700820    1.478910
  H      7.954640   -1.121550    1.207550
  H      6.756160    0.106640    0.960280
  H      4.842170    0.017610    2.115190
  H      5.993880   -3.126920    3.282780
  C      3.139160   -2.376570    1.910610
  H      3.267230   -0.939400    3.520690
  H      4.247200   -2.355090    3.790060
  H      7.498440   -2.975480    2.468780
  H      2.829690   -1.666540    1.172380
  H      2.277900   -2.852640    2.330720
  H      3.767540   -3.113380    1.455480

 Total Charge           Charge          ....    1
 Multiplicity           Mult            ....    1
 Number of Electrons    NEL             ....   48
 Basis Dimension        Dim             ....  200

ORBITAL ENERGIES
----------------

  NO   OCC          E(Eh)            E(eV)
   0   2.0000     -14.989228      -407.8776
   1   2.0000     -14.987383      -407.8274
   2   2.0000     -14.984957      -407.7614
   3   2.0000     -10.893255      -296.4205
   4   2.0000     -10.761155      -292.8259
   5   2.0000     -10.687163      -290.8125
   6   2.0000      -1.321207       -35.9519
   7   2.0000      -1.203714       -32.7547
   8   2.0000      -1.185319       -32.2542
   9   2.0000      -1.020612       -27.7723
  10   2.0000      -0.924281       -25.1510
  11   2.0000      -0.883544       -24.0424
  12   2.0000      -0.866199       -23.5705
  13   2.0000      -0.820387       -22.3239
  14   2.0000      -0.764470       -20.8023
  15   2.0000      -0.758254       -20.6331
  16   2.0000      -0.728987       -19.8367
  17   2.0000      -0.703745       -19.1499
  18   2.0000      -0.671233       -18.2652
  19   2.0000      -0.629695       -17.1349
  20   2.0000      -0.596943       -16.2436
  21   2.0000      -0.576203       -15.6793
  22   2.0000      -0.543967       -14.8021
  23   2.0000      -0.512056       -13.9338
  24   0.0000      -0.135025        -3.6742
  25   0.0000      -0.130650        -3.5552
  26   0.0000      -0.098633        -2.6839
  27   0.0000      -0.092540        -2.5181
  28   0.0000      -0.065556        -1.7839

MULLIKEN ATOMIC CHARGES
-----------------------
   0 C :    0.233595
   1 N :   -0.430956
   2 C :    1.488659
   3 N :   -0.056181
   4 N :   -0.139665
   5 H :   -0.001798
   6 H :   -0.038017
   7 H :   -0.238226
   8 H :   -0.016430
   9 C :    0.645801
  10 H :   -0.266117
  11 H :   -0.050705
  12 H :   -0.152739
  13 H :   -0.009914
  14 H :    0.059155
  15 H :   -0.026462
Sum of atomic charges:    1.0000000

LOEWDIN ATOMIC CHARGES
----------------------
   0 C :    0.042502
   1 N :    0.031526
   2 C :   -0.023438
   3 N :    0.274967
   4 N :    0.255345
   5 H :    0.041578
   6 H :    0.043636
   7 H :    0.064920
   8 H :    0.015175
   9 C :    0.164810
  10 H :    0.042806
  11 H :    0.025537
  12 H :    0.036592
  13 H :   -0.005017
  14 H :    0.003639
  15 H :   -0.014578

  Mayer bond orders larger than 0.100000
B(  0-C ,  1-N ) :   0.9301 B(  0-C ,  7-H ) :  -0.1699 B(  0-C ,  9-C ) :   1.2454
B(  0-C , 10-H ) :   0.9190 B(  0-C , 11-H ) :   0.8964 B(  0-C , 13-H ) :   0.2324
B(  0-C , 14-H ) :   0.1567 B(  0-C , 15-H ) :   0.1929 B(  1-N ,  2-C ) :   1.0390
B(  1-N ,  3-N ) :   0.1979 B(  1-N ,  4-N ) :   0.2463 B(  1-N ,  7-H ) :   1.3208
B(  1-N , 10-H ) :   0.1930 B(  1-N , 11-H ) :   0.1178 B(  2-C ,  3-N ) :   0.8724
B(  2-C ,  4-N ) :   0.7873 B(  2-C ,  6-H ) :  -0.1679 B(  2-C ,  7-H ) :  -0.2671
B(  2-C ,  8-H ) :  -0.1064 B(  2-C , 12-H ) :  -0.1583 B(  3-N ,  4-N ) :   0.1336
B(  3-N ,  8-H ) :   1.0546 B(  3-N , 12-H ) :   1.2622 B(  4-N ,  5-H ) :   1.1349
B(  4-N ,  6-H ) :   1.1904 B(  5-H ,  6-H ) :  -0.1680 B(  8-H , 12-H ) :  -0.2002
B(  9-C , 13-H ) :   0.8011 B(  9-C , 14-H ) :   0.8049 B(  9-C , 15-H ) :   0.8449

Dispersion correction           -0.000318592
FINAL SINGLE POINT ENERGY      -284.067425054318

DIPOLE MOMENT
-------------
                                X             Y             Z
Electronic contribution:      4.68687       1.90358       0.07821
Nuclear contribution   :     -3.67981      -1.62355      -0.28562
                        -----------------------------------------
Total Dipole Moment    :      1.00706       0.28003      -0.20741
                        -----------------------------------------
Magnitude (a.u.)       :      1.06565
Magnitude (Debye)      :      2.70866

Rotational constants in cm-1:     0.222027     0.074735     0.065694
Rotational constants in MHz :  6656.200457  2240.503315  1969.451902

                             ****ORCA TERMINATED NORMALLY****
TOTAL RUN TIME: 0 days 0 hours 0 minutes 26 seconds 770 msec
