                         Program Version 5.0.0 -  RELEASE  -
|  1> !M062X D3Zero RIJCOSX def2-SVPD def2/J TightSCF xyzfile
|  2>
|  3> *xyzfile 0 1 B.xyz
|  4>
|  5> %MaxCore 64000
|  6>
|  7> %pal nprocs 4
|  8> end
|  9>
| 10> %scf
| 11>   MaxIter 150
| 12> end
| 13>
| 14>
| 15>                          ****END OF INPUT****

CARTESIAN COORDINATES (ANGSTROEM)
---------------------------------
  C      3.913853   -1.658291    3.015134
  N      5.039266   -0.901154    2.492821
  C      4.084215    1.742081   -2.114724
  C      4.265245    2.500518   -0.795890
  H      4.868534    3.392674   -0.981134
  H      3.307640    2.824571   -0.387809
  C      4.982240    1.650257    0.247422
  C      6.210384   -1.417261    2.178244
  N      6.535913   -2.677122    2.556078
  N      7.076754   -0.700820    1.478906
  H      7.954643   -1.121554    1.207554
  H      6.756161    0.106637    0.960278
  H      4.842168    0.017609    2.115191
  H      5.993876   -3.126918    3.282784
  H      7.498441   -2.975482    2.468776
  O      4.368065    1.389270    1.313706
  O      6.128919    1.233512   -0.045620
  C      3.139159   -2.376572    1.910609
  H      3.267235   -0.939401    3.520693
  H      4.247195   -2.355095    3.790065
  C      1.997274    0.430918   -1.399218
  C      3.412746    0.376886   -1.965497
  H      4.047407   -0.246590   -1.326706
  H      3.390774   -0.118719   -2.942839
  H      5.068475    1.598504   -2.565728
  H      3.503356    2.363939   -2.804565
  C      2.399946   -1.389579    1.009490
  H      2.440750   -3.087118    2.362976
  H      3.844475   -2.970462    1.318677
  C      2.070177   -1.936705   -0.372401
  H      1.481611   -1.061542    1.509912
  H      3.008628   -0.490001    0.897451
  C      1.322238   -0.935775   -1.256413
  H      1.472747   -2.850902   -0.283997
  H      3.003539   -2.234041   -0.862535
  H      1.376444    1.058920   -2.047420
  H      2.015341    0.929780   -0.426535
  H      0.316648   -0.787213   -0.848278
  H      1.185611   -1.379252   -2.248613

 Total Charge           Charge          ....    0
 Multiplicity           Mult            ....    1
 Number of Electrons    NEL             ....  126
 Basis Dimension        Dim             ....  510

ORBITAL ENERGIES
----------------

  NO   OCC          E(Eh)            E(eV)
   0   2.0000     -19.559785      -532.2488
   1   2.0000     -19.558077      -532.2023
   2   2.0000     -14.829945      -403.5433
   3   2.0000     -14.794939      -402.5908
   4   2.0000     -14.788943      -402.4276
   5   2.0000     -10.716673      -291.6155
   6   2.0000     -10.616659      -288.8940
   7   2.0000     -10.610106      -288.7157
   8   2.0000     -10.558815      -287.3200
   9   2.0000     -10.536571      -286.7147
  10   2.0000     -10.536137      -286.7029
  11   2.0000     -10.532192      -286.5955
  12   2.0000     -10.523372      -286.3555
  13   2.0000     -10.521914      -286.3158
  14   2.0000     -10.520891      -286.2880
  15   2.0000     -10.511209      -286.0245
  16   2.0000      -1.146253       -31.1911
  17   2.0000      -1.119407       -30.4606
  18   2.0000      -1.031823       -28.0773
  19   2.0000      -1.020458       -27.7681
  20   2.0000      -1.008992       -27.4561
  21   2.0000      -0.904145       -24.6030
  22   2.0000      -0.878246       -23.8983
  23   2.0000      -0.847716       -23.0675
  24   2.0000      -0.805057       -21.9067
  25   2.0000      -0.764383       -20.7999
  26   2.0000      -0.745389       -20.2831
  27   2.0000      -0.713432       -19.4135
  28   2.0000      -0.696087       -18.9415
  29   2.0000      -0.682688       -18.5769
  30   2.0000      -0.652848       -17.7649
  31   2.0000      -0.645830       -17.5739
  32   2.0000      -0.614599       -16.7241
  33   2.0000      -0.597688       -16.2639
  34   2.0000      -0.593954       -16.1623
  35   2.0000      -0.571773       -15.5587
  36   2.0000      -0.543827       -14.7983
  37   2.0000      -0.540572       -14.7097
  38   2.0000      -0.531757       -14.4698
  39   2.0000      -0.526564       -14.3285
  40   2.0000      -0.511690       -13.9238
  41   2.0000      -0.498990       -13.5782
  42   2.0000      -0.490633       -13.3508
  43   2.0000      -0.485287       -13.2053
  44   2.0000      -0.477505       -12.9936
  45   2.0000      -0.471557       -12.8317
  46   2.0000      -0.455371       -12.3913
  47   2.0000      -0.440935       -11.9985
  48   2.0000      -0.431498       -11.7416
  49   2.0000      -0.419287       -11.4094
  50   2.0000      -0.411844       -11.2069
  51   2.0000      -0.404010       -10.9937
  52   2.0000      -0.389117       -10.5884
  53   2.0000      -0.381425       -10.3791
  54   2.0000      -0.377576       -10.2744
  55   2.0000      -0.371178       -10.1003
  56   2.0000      -0.358954        -9.7676
  57   2.0000      -0.353538        -9.6203
  58   2.0000      -0.346741        -9.4353
  59   2.0000      -0.336416        -9.1543
  60   2.0000      -0.299106        -8.1391
  61   2.0000      -0.294387        -8.0107
  62   2.0000      -0.290007        -7.8915
  63   0.0000       0.004362         0.1187
  64   0.0000       0.029884         0.8132
  65   0.0000       0.035271         0.9598
  66   0.0000       0.050403         1.3715
  67   0.0000       0.057061         1.5527

MULLIKEN ATOMIC CHARGES
-----------------------
   0 C :    1.256361
   1 N :    0.086222
   2 C :    0.435672
   3 C :    0.370531
   4 H :   -0.148816
   5 H :    0.154241
   6 C :    0.333787
   7 C :    1.400055
   8 N :    0.006078
   9 N :    0.297064
  10 H :   -0.092990
  11 H :   -0.392235
  12 H :   -1.076668
  13 H :   -0.019275
  14 H :   -0.179854
  15 O :   -0.771708
  16 O :   -0.666717
  17 C :    0.367151
  18 H :   -0.284843
  19 H :   -0.265927
  20 C :   -0.076191
  21 C :   -0.114401
  22 H :   -0.003925
  23 H :   -0.209119
  24 H :   -0.011596
  25 H :   -0.141183
  26 C :    0.801613
  27 H :   -0.145850
  28 H :   -0.029838
  29 C :    0.025522
  30 H :   -0.012932
  31 H :   -1.071371
  32 C :    0.748445
  33 H :   -0.453148
  34 H :    0.142072
  35 H :   -0.455766
  36 H :    0.211876
  37 H :    0.006189
  38 H :   -0.018526
Sum of atomic charges:   -0.0000000

LOEWDIN ATOMIC CHARGES
----------------------
   0 C :    0.077748
   1 N :    0.071875
   2 C :   -0.022285
   3 C :    0.037374
   4 H :    0.029357
   5 H :    0.015468
   6 C :   -0.179823
   7 C :   -0.024060
   8 N :    0.241352
   9 N :    0.279619
  10 H :    0.024726
  11 H :   -0.106337
  12 H :   -0.079082
  13 H :   -0.005993
  14 H :    0.014722
  15 O :   -0.256515
  16 O :   -0.246028
  17 C :   -0.014041
  18 H :    0.041327
  19 H :    0.007160
  20 C :   -0.031628
  21 C :   -0.030665
  22 H :    0.011150
  23 H :    0.025619
  24 H :    0.022527
  25 H :    0.019859
  26 C :   -0.025036
  27 H :    0.026085
  28 H :    0.018149
  29 C :   -0.040623
  30 H :    0.040121
  31 H :   -0.023583
  32 C :   -0.033145
  33 H :    0.021362
  34 H :    0.017458
  35 H :    0.024664
  36 H :    0.008928
  37 H :    0.021512
  38 H :    0.020682

  Mayer bond orders larger than 0.100000
B(  0-C ,  1-N ) :   0.8876 B(  0-C , 12-H ) :  -0.5560 B(  0-C , 17-C ) :   1.0577
B(  0-C , 18-H ) :   0.6249 B(  0-C , 19-H ) :   0.7646 B(  0-C , 26-C ) :   0.1616
B(  0-C , 27-H ) :  -0.1057 B(  1-N ,  7-C ) :   1.1505 B(  1-N ,  8-N ) :   0.1994
B(  1-N , 12-H ) :   1.2557 B(  1-N , 18-H ) :   0.2392 B(  1-N , 19-H ) :   0.1030
B(  2-C ,  3-C ) :   1.1466 B(  2-C ,  4-H ) :   0.1446 B(  2-C , 21-C ) :   1.2355
B(  2-C , 24-H ) :   0.6762 B(  2-C , 25-H ) :   0.8315 B(  3-C ,  4-H ) :   0.6913
B(  3-C ,  5-H ) :   0.7252 B(  3-C ,  6-C ) :   1.1418 B(  3-C , 21-C ) :   0.1178
B(  3-C , 24-H ) :   0.1059 B(  3-C , 25-H ) :   0.1421 B(  4-H ,  6-C ) :   0.2832
B(  5-H ,  6-C ) :   0.2611 B(  6-C , 15-O ) :   1.3056 B(  6-C , 16-O ) :   1.2300
B(  7-C ,  8-N ) :   0.8140 B(  7-C ,  9-N ) :   0.9084 B(  7-C , 11-H ) :  -0.2731
B(  7-C , 12-H ) :  -0.7128 B(  8-N ,  9-N ) :   0.1251 B(  8-N , 13-H ) :   1.0552
B(  8-N , 14-H ) :   1.2281 B(  9-N , 10-H ) :   1.1673 B(  9-N , 11-H ) :   1.1871
B(  9-N , 16-O ) :  -0.1132 B( 10-H , 11-H ) :  -0.2566 B( 12-H , 15-O ) :   0.2689
B( 12-H , 18-H ) :   0.1925 B( 13-H , 14-H ) :  -0.2059 B( 15-O , 31-H ) :   0.1023
B( 17-C , 19-H ) :   0.1787 B( 17-C , 26-C ) :   1.0931 B( 17-C , 27-H ) :   0.9438
B( 17-C , 28-H ) :   0.8884 B( 17-C , 30-H ) :   0.1348 B( 18-H , 19-H ) :  -0.2673
B( 20-C , 21-C ) :   1.2151 B( 20-C , 22-H ) :   0.1092 B( 20-C , 23-H ) :   0.1449
B( 20-C , 29-C ) :   0.1214 B( 20-C , 32-C ) :   1.1399 B( 20-C , 35-H ) :   1.0817
B( 20-C , 36-H ) :   0.8061 B( 20-C , 37-H ) :   0.2813 B( 20-C , 38-H ) :   0.1194
B( 21-C , 22-H ) :   0.9477 B( 21-C , 23-H ) :   0.9019 B( 21-C , 24-H ) :   0.2328
B( 21-C , 25-H ) :   0.1733 B( 21-C , 35-H ) :   0.1041 B( 21-C , 36-H ) :   0.1061
B( 22-H , 33-H ) :  -0.1043 B( 22-H , 34-H ) :   0.1135 B( 24-H , 25-H ) :  -0.1674
B( 26-C , 27-H ) :   0.1347 B( 26-C , 29-C ) :   1.2397 B( 26-C , 30-H ) :   0.6287
B( 26-C , 34-H ) :   0.1595 B( 27-H , 31-H ) :   0.1406 B( 28-H , 33-H ) :  -0.1112
B( 29-C , 31-H ) :   0.1335 B( 29-C , 32-C ) :   1.0973 B( 29-C , 33-H ) :   1.1093
B( 29-C , 34-H ) :   0.8058 B( 29-C , 38-H ) :   0.2274 B( 30-H , 31-H ) :   0.2376
B( 31-H , 36-H ) :   0.1476 B( 32-C , 37-H ) :   0.6659 B( 32-C , 38-H ) :   0.7002
B( 33-H , 34-H ) :  -0.1037 B( 37-H , 38-H ) :  -0.1513

Dispersion correction           -0.002772141
FINAL SINGLE POINT ENERGY      -746.944237055228

DIPOLE MOMENT
-------------
                                X             Y             Z
Electronic contribution:     12.26930       3.27825       7.67957
Nuclear contribution   :    -11.44764      -6.21818      -6.18483
                        -----------------------------------------
Total Dipole Moment    :      0.82166      -2.93993       1.49474
                        -----------------------------------------
Magnitude (a.u.)       :      3.39890
Magnitude (Debye)      :      8.63932

Rotational constants in cm-1:     0.020281     0.013510     0.009451
Rotational constants in MHz :   608.005987   405.034308   283.324538

                             ****ORCA TERMINATED NORMALLY****
TOTAL RUN TIME: 0 days 0 hours 4 minutes 47 seconds 649 msec
