                         Program Version 5.0.0 -  RELEASE  -
|  1> !M062X D3Zero RIJCOSX def2-SVPD def2/J TightSCF
|  2> *xyz 0 1
|  3> C          4.08422        1.74208       -2.11472
|  4> C          4.26524        2.50052       -0.79589
|  5> H          4.86853        3.39267       -0.98113
|  6> H          3.30764        2.82457       -0.38781
|  7> C          4.98224        1.65026        0.24742
|  8> F          4.36806        1.38927        1.31371
|  9> O          6.12892        1.23351       -0.04562
| 10> H          3.57911        2.36849       -2.81997
| 11> H          3.50424        0.85965       -1.94198
| 12> H          5.04288        1.46841       -2.50327
| 13> *
| 14> %MaxCore 64000
| 15> %pal nprocs 8
| 16> end
| 17> %scf
| 18>   MaxIter 150
| 19> end
| 20>
| 21>
| 22>                          ****END OF INPUT****

CARTESIAN COORDINATES (ANGSTROEM)
---------------------------------
  C      4.084220    1.742080   -2.114720
  C      4.265240    2.500520   -0.795890
  H      4.868530    3.392670   -0.981130
  H      3.307640    2.824570   -0.387810
  C      4.982240    1.650260    0.247420
  F      4.368060    1.389270    1.313710
  O      6.128920    1.233510   -0.045620
  H      3.579110    2.368490   -2.819970
  H      3.504240    0.859650   -1.941980
  H      5.042880    1.468410   -2.503270

 Total Charge           Charge          ....    0
 Multiplicity           Mult            ....    1
 Number of Electrons    NEL             ....   40
 Basis Dimension        Dim             ....  146

ORBITAL ENERGIES
----------------

  NO   OCC          E(Eh)            E(eV)
   0   2.0000     -25.328963      -689.2361
   1   2.0000     -19.649363      -534.6863
   2   2.0000     -10.739092      -292.2256
   3   2.0000     -10.584989      -288.0322
   4   2.0000     -10.558749      -287.3182
   5   2.0000      -1.444654       -39.3110
   6   2.0000      -1.145376       -31.1673
   7   2.0000      -0.894467       -24.3397
   8   2.0000      -0.782114       -21.2824
   9   2.0000      -0.729629       -19.8542
  10   2.0000      -0.644829       -17.5467
  11   2.0000      -0.630576       -17.1589
  12   2.0000      -0.592880       -16.1331
  13   2.0000      -0.539226       -14.6731
  14   2.0000      -0.512628       -13.9493
  15   2.0000      -0.470184       -12.7944
  16   2.0000      -0.450495       -12.2586
  17   2.0000      -0.441163       -12.0047
  18   2.0000      -0.415744       -11.3130
  19   2.0000      -0.372668       -10.1408
  20   0.0000       0.009080         0.2471
  21   0.0000       0.030418         0.8277
  22   0.0000       0.059392         1.6161
  23   0.0000       0.068454         1.8627
  24   0.0000       0.092041         2.5046

MULLIKEN ATOMIC CHARGES
-----------------------
   0 C :    0.519182
   1 C :   -0.383353
   2 H :    0.073455
   3 H :   -0.006382
   4 C :    0.813112
   5 F :   -0.403105
   6 O :   -0.546119
   7 H :   -0.021258
   8 H :   -0.040619
   9 H :   -0.004912
Sum of atomic charges:    0.0000000

LOEWDIN ATOMIC CHARGES
----------------------
   0 C :    0.144546
   1 C :    0.004629
   2 H :    0.041082
   3 H :    0.023704
   4 C :    0.008115
   5 F :   -0.051050
   6 O :   -0.143542
   7 H :   -0.011828
   8 H :   -0.007989
   9 H :   -0.007666

  Mayer bond orders larger than 0.100000
B(  0-C ,  1-C ) :   1.3148 B(  0-C ,  7-H ) :   0.8632 B(  0-C ,  8-H ) :   0.8662
B(  0-C ,  9-H ) :   0.8418 B(  1-C ,  2-H ) :   0.8942 B(  1-C ,  3-H ) :   0.9808
B(  1-C ,  4-C ) :   1.0826 B(  1-C ,  7-H ) :   0.1403 B(  1-C ,  8-H ) :   0.1525
B(  1-C ,  9-H ) :   0.1694 B(  4-C ,  5-F ) :   0.6849 B(  4-C ,  6-O ) :   1.7889

Dispersion correction           -0.000089185
FINAL SINGLE POINT ENERGY      -292.065623585332

DIPOLE MOMENT
-------------
                                X             Y             Z
Electronic contribution:      1.90310      -2.02226       8.10378
Nuclear contribution   :     -2.87511       2.61564      -8.50037
                        -----------------------------------------
Total Dipole Moment    :     -0.97201       0.59337      -0.39658
                        -----------------------------------------
Magnitude (a.u.)       :      1.20589
Magnitude (Debye)      :      3.06513

Rotational constants in cm-1:     0.297822     0.128965     0.102219
Rotational constants in MHz :  8928.481997  3866.271686  3064.463504

                             ****ORCA TERMINATED NORMALLY****
TOTAL RUN TIME: 0 days 0 hours 0 minutes 17 seconds 466 msec
