                         Program Version 5.0.0 -  RELEASE  -
|  1> !M062X D3Zero RIJCOSX def2-SVPD def2/J TightSCF
|  2> *xyz 0 1
|  3> C          3.91385       -1.65829        3.01513
|  4> C          5.03927       -0.90115        2.49282
|  5> C          6.21038       -1.41726        2.17824
|  6> N          6.53591       -2.67712        2.55608
|  7> N          7.07675       -0.70082        1.47891
|  8> H          7.95464       -1.12155        1.20755
|  9> H          6.75616        0.10664        0.96028
| 10> H          4.84217        0.01761        2.11519
| 11> H          5.99388       -3.12692        3.28278
| 12> C          3.13916       -2.37657        1.91061
| 13> H          3.26723       -0.93940        3.52069
| 14> H          4.24720       -2.35509        3.79006
| 15> H          7.49844       -2.97548        2.46878
| 16> H          2.82969       -1.66654        1.17238
| 17> H          2.27790       -2.85264        2.33072
| 18> H          3.76754       -3.11338        1.45548
| 19> *
| 20> %MaxCore 64000
| 21> %pal nprocs 8
| 22> end
| 23> %scf
| 24>   MaxIter 150
| 25> end
| 26>
| 27>
| 28>                          ****END OF INPUT****

CARTESIAN COORDINATES (ANGSTROEM)
---------------------------------
  C      3.913850   -1.658290    3.015130
  C      5.039270   -0.901150    2.492820
  C      6.210380   -1.417260    2.178240
  N      6.535910   -2.677120    2.556080
  N      7.076750   -0.700820    1.478910
  H      7.954640   -1.121550    1.207550
  H      6.756160    0.106640    0.960280
  H      4.842170    0.017610    2.115190
  H      5.993880   -3.126920    3.282780
  C      3.139160   -2.376570    1.910610
  H      3.267230   -0.939400    3.520690
  H      4.247200   -2.355090    3.790060
  H      7.498440   -2.975480    2.468780
  H      2.829690   -1.666540    1.172380
  H      2.277900   -2.852640    2.330720
  H      3.767540   -3.113380    1.455480

 Total Charge           Charge          ....    0
 Multiplicity           Mult            ....    1
 Number of Electrons    NEL             ....   48
 Basis Dimension        Dim             ....  200

ORBITAL ENERGIES
----------------

  NO   OCC          E(Eh)            E(eV)
   0   2.0000     -14.762511      -401.7083
   1   2.0000     -14.760422      -401.6515
   2   2.0000     -10.594637      -288.2947
   3   2.0000     -10.525835      -286.4225
   4   2.0000     -10.514922      -286.1256
   5   2.0000     -10.473340      -284.9941
   6   2.0000      -1.060014       -28.8444
   7   2.0000      -0.961983       -26.1769
   8   2.0000      -0.865139       -23.5416
   9   2.0000      -0.779057       -21.1992
  10   2.0000      -0.696220       -18.9451
  11   2.0000      -0.653852       -17.7922
  12   2.0000      -0.615060       -16.7366
  13   2.0000      -0.582883       -15.8610
  14   2.0000      -0.541795       -14.7430
  15   2.0000      -0.507241       -13.8027
  16   2.0000      -0.488699       -13.2982
  17   2.0000      -0.459066       -12.4918
  18   2.0000      -0.448394       -12.2014
  19   2.0000      -0.417781       -11.3684
  20   2.0000      -0.389922       -10.6103
  21   2.0000      -0.380573       -10.3559
  22   2.0000      -0.332270        -9.0415
  23   2.0000      -0.213166        -5.8005
  24   0.0000       0.034847         0.9482
  25   0.0000       0.061014         1.6603
  26   0.0000       0.067001         1.8232
  27   0.0000       0.079589         2.1657
  28   0.0000       0.098991         2.6937

MULLIKEN ATOMIC CHARGES
-----------------------
   0 C :   -0.231828
   1 C :   -0.465469
   2 C :    1.051922
   3 N :   -0.115028
   4 N :   -0.110823
   5 H :   -0.118855
   6 H :   -0.029493
   7 H :   -0.186813
   8 H :   -0.006559
   9 C :    0.686198
  10 H :   -0.066837
  11 H :   -0.069500
  12 H :   -0.258114
  13 H :   -0.030288
  14 H :    0.007422
  15 H :   -0.055936
Sum of atomic charges:    0.0000000

LOEWDIN ATOMIC CHARGES
----------------------
   0 C :   -0.104525
   1 C :   -0.038762
   2 C :   -0.220110
   3 N :    0.193587
   4 N :    0.167054
   5 H :   -0.007174
   6 H :    0.010467
   7 H :   -0.045661
   8 H :   -0.014653
   9 C :    0.122747
  10 H :    0.015065
  11 H :    0.002182
  12 H :   -0.011492
  13 H :   -0.018011
  14 H :   -0.026357
  15 H :   -0.024358

  Mayer bond orders larger than 0.100000
B(  0-C ,  1-C ) :   1.3239 B(  0-C ,  7-H ) :   0.2887 B(  0-C ,  9-C ) :   1.2035
B(  0-C , 10-H ) :   0.8155 B(  0-C , 11-H ) :   0.8909 B(  0-C , 13-H ) :   0.2392
B(  0-C , 14-H ) :   0.1726 B(  0-C , 15-H ) :   0.2116 B(  1-C ,  2-C ) :   1.6686
B(  1-C ,  3-N ) :   0.2019 B(  1-C ,  4-N ) :   0.3339 B(  1-C ,  7-H ) :   0.8171
B(  1-C , 10-H ) :   0.2901 B(  1-C , 11-H ) :   0.2247 B(  2-C ,  3-N ) :   0.8058
B(  2-C ,  4-N ) :   0.7271 B(  2-C ,  6-H ) :  -0.1202 B(  2-C ,  7-H ) :   0.2305
B(  2-C , 12-H ) :  -0.1787 B(  3-N ,  4-N ) :   0.1020 B(  3-N ,  8-H ) :   1.0069
B(  3-N , 12-H ) :   1.3168 B(  4-N ,  5-H ) :   1.1452 B(  4-N ,  6-H ) :   1.1538
B(  5-H ,  6-H ) :  -0.1630 B(  8-H , 12-H ) :  -0.1939 B(  9-C , 13-H ) :   0.8192
B(  9-C , 14-H ) :   0.8018 B(  9-C , 15-H ) :   0.8367

Dispersion correction           -0.000316780
FINAL SINGLE POINT ENERGY      -267.602185921428

DIPOLE MOMENT
-------------
                                X             Y             Z
Electronic contribution:      4.59067       1.23214      -0.03076
Nuclear contribution   :     -3.74303      -1.46908      -0.23637
                        -----------------------------------------
Total Dipole Moment    :      0.84764      -0.23695      -0.26713
                        -----------------------------------------
Magnitude (a.u.)       :      0.91978
Magnitude (Debye)      :      2.33789

Rotational constants in cm-1:     0.225937     0.074877     0.065953
Rotational constants in MHz :  6773.424301  2244.750632  1977.214101

                             ****ORCA TERMINATED NORMALLY****
TOTAL RUN TIME: 0 days 0 hours 0 minutes 28 seconds 341 msec
