                         Program Version 5.0.0 -  RELEASE  -
|  1> !M062X D3Zero RIJCOSX def2-SVPD def2/J TightSCF
|  2> *xyz 0 1
|  3> C          4.08422        1.74208       -2.11472
|  4> C          4.26524        2.50052       -0.79589
|  5> H          4.86853        3.39267       -0.98113
|  6> H          3.30764        2.82457       -0.38781
|  7> C          4.98224        1.65026        0.24742
|  8> O          4.36806        1.38927        1.31371
|  9> F          6.12892        1.23351       -0.04562
| 10> H          3.57911        2.36849       -2.81997
| 11> H          3.50424        0.85965       -1.94198
| 12> H          5.04288        1.46841       -2.50327
| 13> *
| 14> %MaxCore 64000
| 15> %pal nprocs 8
| 16> end
| 17> %scf
| 18>   MaxIter 150
| 19> end
| 20>
| 21>
| 22>                          ****END OF INPUT****

CARTESIAN COORDINATES (ANGSTROEM)
---------------------------------
  C      4.084220    1.742080   -2.114720
  C      4.265240    2.500520   -0.795890
  H      4.868530    3.392670   -0.981130
  H      3.307640    2.824570   -0.387810
  C      4.982240    1.650260    0.247420
  O      4.368060    1.389270    1.313710
  F      6.128920    1.233510   -0.045620
  H      3.579110    2.368490   -2.819970
  H      3.504240    0.859650   -1.941980
  H      5.042880    1.468410   -2.503270

 Total Charge           Charge          ....    0
 Multiplicity           Mult            ....    1
 Number of Electrons    NEL             ....   40
 Basis Dimension        Dim             ....  146

ORBITAL ENERGIES
----------------

  NO   OCC          E(Eh)            E(eV)
   0   2.0000     -25.330386      -689.2749
   1   2.0000     -19.648924      -534.6744
   2   2.0000     -10.738662      -292.2139
   3   2.0000     -10.584768      -288.0262
   4   2.0000     -10.563350      -287.4434
   5   2.0000      -1.447437       -39.3868
   6   2.0000      -1.142384       -31.0858
   7   2.0000      -0.898611       -24.4525
   8   2.0000      -0.779604       -21.2141
   9   2.0000      -0.734905       -19.9978
  10   2.0000      -0.647846       -17.6288
  11   2.0000      -0.637093       -17.3362
  12   2.0000      -0.585450       -15.9309
  13   2.0000      -0.539988       -14.6938
  14   2.0000      -0.512405       -13.9432
  15   2.0000      -0.474588       -12.9142
  16   2.0000      -0.456030       -12.4092
  17   2.0000      -0.443180       -12.0595
  18   2.0000      -0.419556       -11.4167
  19   2.0000      -0.367673       -10.0049
  20   0.0000       0.012183         0.3315
  21   0.0000       0.029829         0.8117
  22   0.0000       0.060034         1.6336
  23   0.0000       0.066723         1.8156
  24   0.0000       0.092166         2.5080

MULLIKEN ATOMIC CHARGES
-----------------------
   0 C :    0.502235
   1 C :   -0.358748
   2 H :    0.064062
   3 H :   -0.023034
   4 C :    0.835651
   5 O :   -0.534057
   6 F :   -0.420585
   7 H :   -0.018371
   8 H :   -0.036849
   9 H :   -0.010304
Sum of atomic charges:   -0.0000000

LOEWDIN ATOMIC CHARGES
----------------------
   0 C :    0.139344
   1 C :    0.008774
   2 H :    0.036303
   3 H :    0.035218
   4 C :    0.003531
   5 O :   -0.146373
   6 F :   -0.046858
   7 H :   -0.011274
   8 H :   -0.006209
   9 H :   -0.012456

  Mayer bond orders larger than 0.100000
B(  0-C ,  1-C ) :   1.2891 B(  0-C ,  7-H ) :   0.8709 B(  0-C ,  8-H ) :   0.8802
B(  0-C ,  9-H ) :   0.8319 B(  1-C ,  2-H ) :   0.8919 B(  1-C ,  3-H ) :   1.0115
B(  1-C ,  4-C ) :   1.0568 B(  1-C ,  7-H ) :   0.1403 B(  1-C ,  8-H ) :   0.1489
B(  1-C ,  9-H ) :   0.1605 B(  3-H ,  4-C ) :   0.1250 B(  4-C ,  5-O ) :   1.7583
B(  4-C ,  6-F ) :   0.6738

Dispersion correction           -0.000092199
FINAL SINGLE POINT ENERGY      -292.064943554411

DIPOLE MOMENT
-------------
                                X             Y             Z
Electronic contribution:      4.82101      -2.27219       5.82318
Nuclear contribution   :     -4.79499       2.78546      -7.01827
                        -----------------------------------------
Total Dipole Moment    :      0.02602       0.51327      -1.19509
                        -----------------------------------------
Magnitude (a.u.)       :      1.30091
Magnitude (Debye)      :      3.30665

Rotational constants in cm-1:     0.286098     0.133492     0.103343
Rotational constants in MHz :  8577.003657  4001.981591  3098.148068

                             ****ORCA TERMINATED NORMALLY****
TOTAL RUN TIME: 0 days 0 hours 0 minutes 17 seconds 509 msec
