                         Program Version 5.0.0 -  RELEASE  -
|  1> !M062X D3Zero RIJCOSX def2-SVPD def2/J TightSCF
|  2> *xyz 0 1
|  3> C          3.91385       -1.65829        3.01513
|  4> N          5.03927       -0.90115        2.49282
|  5> C          6.21038       -1.41726        2.17824
|  6> C          6.53591       -2.67712        2.55608
|  7> N          7.07675       -0.70082        1.47891
|  8> H          7.95464       -1.12155        1.20755
|  9> H          6.75616        0.10664        0.96028
| 10> H          4.84217        0.01761        2.11519
| 11> H          5.99388       -3.12692        3.28278
| 12> C          3.13916       -2.37657        1.91061
| 13> H          3.26723       -0.93940        3.52069
| 14> H          4.24720       -2.35509        3.79006
| 15> H          7.49844       -2.97548        2.46878
| 16> H          2.82969       -1.66654        1.17238
| 17> H          2.27790       -2.85264        2.33072
| 18> H          3.76754       -3.11338        1.45548
| 19> *
| 20> %MaxCore 64000
| 21> %pal nprocs 8
| 22> end
| 23> %scf
| 24>   MaxIter 150
| 25> end
| 26>
| 27>
| 28>                          ****END OF INPUT****

CARTESIAN COORDINATES (ANGSTROEM)
---------------------------------
  C      3.913850   -1.658290    3.015130
  N      5.039270   -0.901150    2.492820
  C      6.210380   -1.417260    2.178240
  C      6.535910   -2.677120    2.556080
  N      7.076750   -0.700820    1.478910
  H      7.954640   -1.121550    1.207550
  H      6.756160    0.106640    0.960280
  H      4.842170    0.017610    2.115190
  H      5.993880   -3.126920    3.282780
  C      3.139160   -2.376570    1.910610
  H      3.267230   -0.939400    3.520690
  H      4.247200   -2.355090    3.790060
  H      7.498440   -2.975480    2.468780
  H      2.829690   -1.666540    1.172380
  H      2.277900   -2.852640    2.330720
  H      3.767540   -3.113380    1.455480

 Total Charge           Charge          ....    0
 Multiplicity           Mult            ....    1
 Number of Electrons    NEL             ....   48
 Basis Dimension        Dim             ....  200

ORBITAL ENERGIES
----------------

  NO   OCC          E(Eh)            E(eV)
   0   2.0000     -14.766116      -401.8064
   1   2.0000     -14.763780      -401.7429
   2   2.0000     -10.601142      -288.4717
   3   2.0000     -10.584807      -288.0273
   4   2.0000     -10.532223      -286.5963
   5   2.0000     -10.463093      -284.7152
   6   2.0000      -1.074531       -29.2395
   7   2.0000      -0.983736       -26.7688
   8   2.0000      -0.842017       -22.9124
   9   2.0000      -0.792175       -21.5562
  10   2.0000      -0.722660       -19.6646
  11   2.0000      -0.640598       -17.4316
  12   2.0000      -0.627079       -17.0637
  13   2.0000      -0.594202       -16.1691
  14   2.0000      -0.537020       -14.6131
  15   2.0000      -0.508499       -13.8370
  16   2.0000      -0.488974       -13.3057
  17   2.0000      -0.464568       -12.6415
  18   2.0000      -0.444395       -12.0926
  19   2.0000      -0.432022       -11.7559
  20   2.0000      -0.428882       -11.6705
  21   2.0000      -0.407588       -11.0910
  22   2.0000      -0.314810        -8.5664
  23   2.0000      -0.216107        -5.8806
  24   0.0000       0.033650         0.9157
  25   0.0000       0.056150         1.5279
  26   0.0000       0.066226         1.8021
  27   0.0000       0.070944         1.9305
  28   0.0000       0.099580         2.7097

MULLIKEN ATOMIC CHARGES
-----------------------
   0 C :    0.231046
   1 N :   -0.447755
   2 C :    0.782773
   3 C :    0.444622
   4 N :   -0.112373
   5 H :   -0.004979
   6 H :   -0.150598
   7 H :   -0.349657
   8 H :   -0.134903
   9 C :    0.675496
  10 H :   -0.327731
  11 H :    0.048078
  12 H :   -0.528649
  13 H :   -0.059512
  14 H :    0.002886
  15 H :   -0.068743
Sum of atomic charges:   -0.0000000

LOEWDIN ATOMIC CHARGES
----------------------
   0 C :    0.018883
   1 N :   -0.036345
   2 C :   -0.234943
   3 C :    0.163735
   4 N :    0.172898
   5 H :    0.010967
   6 H :   -0.004170
   7 H :    0.025796
   8 H :   -0.120578
   9 C :    0.138998
  10 H :    0.019297
  11 H :    0.015530
  12 H :   -0.107005
  13 H :   -0.021102
  14 H :   -0.019212
  15 H :   -0.022749

  Mayer bond orders larger than 0.100000
B(  0-C ,  1-N ) :   0.9102 B(  0-C ,  3-C ) :   0.1017 B(  0-C ,  7-H ) :  -0.1700
B(  0-C ,  9-C ) :   1.1956 B(  0-C , 10-H ) :   0.9591 B(  0-C , 11-H ) :   0.8652
B(  0-C , 13-H ) :   0.2276 B(  0-C , 14-H ) :   0.1688 B(  0-C , 15-H ) :   0.2062
B(  1-N ,  2-C ) :   0.9067 B(  1-N ,  3-C ) :   0.3291 B(  1-N ,  4-N ) :   0.1648
B(  1-N ,  7-H ) :   1.3937 B(  1-N , 10-H ) :   0.1685 B(  1-N , 11-H ) :   0.1001
B(  2-C ,  3-C ) :   1.7500 B(  2-C ,  4-N ) :   0.7760 B(  2-C ,  6-H ) :  -0.1046
B(  2-C ,  7-H ) :  -0.2983 B(  2-C ,  8-H ) :   0.3181 B(  2-C , 12-H ) :   0.1576
B(  3-C ,  4-N ) :   0.2093 B(  3-C ,  8-H ) :   0.6269 B(  3-C , 12-H ) :   0.8532
B(  4-N ,  5-H ) :   1.1125 B(  4-N ,  6-H ) :   1.2155 B(  5-H ,  6-H ) :  -0.1668
B(  8-H , 11-H ) :   0.1024 B(  9-C , 13-H ) :   0.8109 B(  9-C , 14-H ) :   0.8195
B(  9-C , 15-H ) :   0.8523 B( 10-H , 11-H ) :  -0.1097

Dispersion correction           -0.000314000
FINAL SINGLE POINT ENERGY      -267.593042376199

DIPOLE MOMENT
-------------
                                X             Y             Z
Electronic contribution:      3.06018       2.78918      -0.20415
Nuclear contribution   :     -3.42552      -1.84584      -0.22295
                        -----------------------------------------
Total Dipole Moment    :     -0.36534       0.94334      -0.42710
                        -----------------------------------------
Magnitude (a.u.)       :      1.09808
Magnitude (Debye)      :      2.79110

Rotational constants in cm-1:     0.233526     0.075277     0.067092
Rotational constants in MHz :  7000.931279  2256.752901  2011.361214

                             ****ORCA TERMINATED NORMALLY****
TOTAL RUN TIME: 0 days 0 hours 0 minutes 27 seconds 992 msec
