                         Program Version 5.0.0 -  RELEASE  -
|  1> !M062X D3Zero RIJCOSX def2-SVPD def2/J TightSCF
|  2> *xyz 0 1
|  3> C          3.91385       -1.65829        3.01513
|  4> N          5.03927       -0.90115        2.49282
|  5> C          6.21038       -1.41726        2.17824
|  6> N          6.53591       -2.67712        2.55608
|  7> C          7.07675       -0.70082        1.47891
|  8> H          7.95464       -1.12155        1.20755
|  9> H          6.75616        0.10664        0.96028
| 10> H          4.84217        0.01761        2.11519
| 11> H          5.99388       -3.12692        3.28278
| 12> C          3.13916       -2.37657        1.91061
| 13> H          3.26723       -0.93940        3.52069
| 14> H          4.24720       -2.35509        3.79006
| 15> H          7.49844       -2.97548        2.46878
| 16> H          2.82969       -1.66654        1.17238
| 17> H          2.27790       -2.85264        2.33072
| 18> H          3.76754       -3.11338        1.45548
| 19> *
| 20> %MaxCore 64000
| 21> %pal nprocs 8
| 22> end
| 23> %scf
| 24>   MaxIter 150
| 25> end
| 26>
| 27>
| 28>                          ****END OF INPUT****

CARTESIAN COORDINATES (ANGSTROEM)
---------------------------------
  C      3.913850   -1.658290    3.015130
  N      5.039270   -0.901150    2.492820
  C      6.210380   -1.417260    2.178240
  N      6.535910   -2.677120    2.556080
  C      7.076750   -0.700820    1.478910
  H      7.954640   -1.121550    1.207550
  H      6.756160    0.106640    0.960280
  H      4.842170    0.017610    2.115190
  H      5.993880   -3.126920    3.282780
  C      3.139160   -2.376570    1.910610
  H      3.267230   -0.939400    3.520690
  H      4.247200   -2.355090    3.790060
  H      7.498440   -2.975480    2.468780
  H      2.829690   -1.666540    1.172380
  H      2.277900   -2.852640    2.330720
  H      3.767540   -3.113380    1.455480

 Total Charge           Charge          ....    0
 Multiplicity           Mult            ....    1
 Number of Electrons    NEL             ....   48
 Basis Dimension        Dim             ....  200

ORBITAL ENERGIES
----------------

  NO   OCC          E(Eh)            E(eV)
   0   2.0000     -14.762103      -401.6973
   1   2.0000     -14.761594      -401.6834
   2   2.0000     -10.597772      -288.3800
   3   2.0000     -10.593018      -288.2507
   4   2.0000     -10.539656      -286.7986
   5   2.0000     -10.461059      -284.6599
   6   2.0000      -1.069186       -29.0940
   7   2.0000      -0.975751       -26.5515
   8   2.0000      -0.860566       -23.4172
   9   2.0000      -0.787654       -21.4332
  10   2.0000      -0.709884       -19.3169
  11   2.0000      -0.677927       -18.4473
  12   2.0000      -0.610142       -16.6028
  13   2.0000      -0.569960       -15.5094
  14   2.0000      -0.547468       -14.8974
  15   2.0000      -0.508068       -13.8252
  16   2.0000      -0.502537       -13.6747
  17   2.0000      -0.472161       -12.8482
  18   2.0000      -0.446258       -12.1433
  19   2.0000      -0.435235       -11.8433
  20   2.0000      -0.426132       -11.5956
  21   2.0000      -0.419334       -11.4106
  22   2.0000      -0.318943        -8.6789
  23   2.0000      -0.215420        -5.8619
  24   0.0000       0.031561         0.8588
  25   0.0000       0.060806         1.6546
  26   0.0000       0.063739         1.7344
  27   0.0000       0.067710         1.8425
  28   0.0000       0.098793         2.6883

MULLIKEN ATOMIC CHARGES
-----------------------
   0 C :    0.256156
   1 N :   -0.355881
   2 C :    0.830849
   3 N :    0.016985
   4 C :    0.293494
   5 H :   -0.330007
   6 H :   -0.281916
   7 H :   -0.306278
   8 H :   -0.123947
   9 C :    0.656714
  10 H :   -0.314868
  11 H :   -0.093533
  12 H :   -0.159859
  13 H :   -0.045313
  14 H :   -0.011853
  15 H :   -0.030742
Sum of atomic charges:   -0.0000000

LOEWDIN ATOMIC CHARGES
----------------------
   0 C :    0.011369
   1 N :   -0.031608
   2 C :   -0.235004
   3 N :    0.192912
   4 C :    0.141297
   5 H :   -0.101527
   6 H :   -0.099295
   7 H :    0.039610
   8 H :   -0.028904
   9 C :    0.135908
  10 H :    0.019609
  11 H :    0.008262
  12 H :    0.005781
  13 H :   -0.016822
  14 H :   -0.020363
  15 H :   -0.021226

  Mayer bond orders larger than 0.100000
B(  0-C ,  1-N ) :   0.9352 B(  0-C ,  7-H ) :  -0.1874 B(  0-C ,  9-C ) :   1.2196
B(  0-C , 10-H ) :   0.9102 B(  0-C , 11-H ) :   0.8955 B(  0-C , 13-H ) :   0.2518
B(  0-C , 14-H ) :   0.1697 B(  0-C , 15-H ) :   0.1946 B(  1-N ,  2-C ) :   1.0304
B(  1-N ,  3-N ) :   0.1351 B(  1-N ,  4-C ) :   0.2631 B(  1-N ,  7-H ) :   1.2657
B(  1-N , 10-H ) :   0.1982 B(  1-N , 11-H ) :   0.1277 B(  2-C ,  3-N ) :   0.8326
B(  2-C ,  4-C ) :   1.5050 B(  2-C ,  5-H ) :   0.1843 B(  2-C ,  7-H ) :  -0.2320
B(  3-N ,  4-C ) :   0.1842 B(  3-N ,  8-H ) :   1.0392 B(  3-N , 12-H ) :   1.2150
B(  4-C ,  5-H ) :   0.7873 B(  4-C ,  6-H ) :   0.8834 B(  8-H , 12-H ) :  -0.1934
B(  9-C , 13-H ) :   0.7930 B(  9-C , 14-H ) :   0.8254 B(  9-C , 15-H ) :   0.8374

Dispersion correction           -0.000312706
FINAL SINGLE POINT ENERGY      -267.592734721361

DIPOLE MOMENT
-------------
                                X             Y             Z
Electronic contribution:      2.52380       0.92503       0.95705
Nuclear contribution   :     -3.31079      -1.42658      -0.45147
                        -----------------------------------------
Total Dipole Moment    :     -0.78699      -0.50156       0.50558
                        -----------------------------------------
Magnitude (a.u.)       :      1.06138
Magnitude (Debye)      :      2.69782

Rotational constants in cm-1:     0.225507     0.077571     0.068070
Rotational constants in MHz :  6760.542142  2325.533779  2040.680522

                             ****ORCA TERMINATED NORMALLY****
TOTAL RUN TIME: 0 days 0 hours 0 minutes 29 seconds 48 msec
