                         Program Version 5.0.0 -  RELEASE  -
|  1> !M062X D3Zero RIJCOSX def2-SVPD def2/J TightSCF xyzfile
|  2>
|  3> *xyzfile 0 1 D1.xyz
|  4>
|  5> %MaxCore 64000
|  6>
|  7> %pal nprocs 4
|  8> end
|  9>
| 10> %scf
| 11>   MaxIter 150
| 12> end
| 13>
| 14>
| 15>                          ****END OF INPUT****

CARTESIAN COORDINATES (ANGSTROEM)
---------------------------------
  C      3.913853   -1.658291    3.015134
  C      5.039266   -0.901154    2.492821
  C      4.084215    1.742081   -2.114724
  C      4.265245    2.500518   -0.795890
  H      4.868534    3.392674   -0.981134
  H      3.307640    2.824571   -0.387809
  C      4.982240    1.650257    0.247422
  C      6.210384   -1.417261    2.178244
  N      6.535913   -2.677122    2.556078
  N      7.076754   -0.700820    1.478906
  H      7.954643   -1.121554    1.207554
  H      6.756161    0.106637    0.960278
  H      4.842168    0.017609    2.115191
  H      5.993876   -3.126918    3.282784
  H      7.498441   -2.975482    2.468776
  F      4.368065    1.389270    1.313706
  O      6.128919    1.233512   -0.045620
  C      3.139159   -2.376572    1.910609
  H      3.267235   -0.939401    3.520693
  H      4.247195   -2.355095    3.790065
  C      1.997274    0.430918   -1.399218
  C      3.412746    0.376886   -1.965497
  H      4.047407   -0.246590   -1.326706
  H      3.390774   -0.118719   -2.942839
  H      5.068475    1.598504   -2.565728
  H      3.503356    2.363939   -2.804565
  C      2.399946   -1.389579    1.009490
  H      2.440750   -3.087118    2.362976
  H      3.844475   -2.970462    1.318677
  C      2.070177   -1.936705   -0.372401
  H      1.481611   -1.061542    1.509912
  H      3.008628   -0.490001    0.897451
  C      1.322238   -0.935775   -1.256413
  H      1.472747   -2.850902   -0.283997
  H      3.003539   -2.234041   -0.862535
  H      1.376444    1.058920   -2.047420
  H      2.015341    0.929780   -0.426535
  H      0.316648   -0.787213   -0.848278
  H      1.185611   -1.379252   -2.248613

 Total Charge           Charge          ....    0
 Multiplicity           Mult            ....    1
 Number of Electrons    NEL             ....  126
 Basis Dimension        Dim             ....  510

ORBITAL ENERGIES
----------------

  NO   OCC          E(Eh)            E(eV)
   0   2.0000     -25.343185      -689.6231
   1   2.0000     -19.671420      -535.2866
   2   2.0000     -14.747297      -401.2944
   3   2.0000     -14.720780      -400.5728
   4   2.0000     -10.760169      -292.7991
   5   2.0000     -10.589608      -288.1579
   6   2.0000     -10.576229      -287.7938
   7   2.0000     -10.570112      -287.6274
   8   2.0000     -10.554214      -287.1948
   9   2.0000     -10.548959      -287.0518
  10   2.0000     -10.542574      -286.8780
  11   2.0000     -10.534825      -286.6672
  12   2.0000     -10.528539      -286.4961
  13   2.0000     -10.520140      -286.2676
  14   2.0000     -10.515064      -286.1294
  15   2.0000     -10.449678      -284.3502
  16   2.0000      -1.462418       -39.7944
  17   2.0000      -1.172439       -31.9037
  18   2.0000      -1.037613       -28.2349
  19   2.0000      -0.939389       -25.5621
  20   2.0000      -0.925938       -25.1961
  21   2.0000      -0.896388       -24.3919
  22   2.0000      -0.866373       -23.5752
  23   2.0000      -0.836436       -22.7606
  24   2.0000      -0.797329       -21.6964
  25   2.0000      -0.778345       -21.1798
  26   2.0000      -0.748834       -20.3768
  27   2.0000      -0.718329       -19.5467
  28   2.0000      -0.686924       -18.6922
  29   2.0000      -0.670647       -18.2492
  30   2.0000      -0.659568       -17.9478
  31   2.0000      -0.649695       -17.6791
  32   2.0000      -0.639221       -17.3941
  33   2.0000      -0.628759       -17.1094
  34   2.0000      -0.604124       -16.4391
  35   2.0000      -0.591643       -16.0994
  36   2.0000      -0.562095       -15.2954
  37   2.0000      -0.554404       -15.0861
  38   2.0000      -0.549172       -14.9437
  39   2.0000      -0.532749       -14.4968
  40   2.0000      -0.517791       -14.0898
  41   2.0000      -0.510165       -13.8823
  42   2.0000      -0.497722       -13.5437
  43   2.0000      -0.486938       -13.2503
  44   2.0000      -0.485471       -13.2103
  45   2.0000      -0.476478       -12.9656
  46   2.0000      -0.460495       -12.5307
  47   2.0000      -0.456061       -12.4100
  48   2.0000      -0.439513       -11.9597
  49   2.0000      -0.431487       -11.7413
  50   2.0000      -0.430789       -11.7224
  51   2.0000      -0.425873       -11.5886
  52   2.0000      -0.411952       -11.2098
  53   2.0000      -0.400247       -10.8913
  54   2.0000      -0.397348       -10.8124
  55   2.0000      -0.390900       -10.6369
  56   2.0000      -0.373941       -10.1754
  57   2.0000      -0.370901       -10.0927
  58   2.0000      -0.364251        -9.9118
  59   2.0000      -0.358812        -9.7638
  60   2.0000      -0.353380        -9.6160
  61   2.0000      -0.308661        -8.3991
  62   2.0000      -0.195422        -5.3177
  63   0.0000      -0.009560        -0.2601
  64   0.0000       0.029870         0.8128
  65   0.0000       0.044386         1.2078
  66   0.0000       0.047998         1.3061
  67   0.0000       0.052149         1.4190

MULLIKEN ATOMIC CHARGES
-----------------------
   0 C :    0.624057
   1 C :    0.338585
   2 C :    0.437594
   3 C :    0.292558
   4 H :   -0.121559
   5 H :    0.199161
   6 C :    0.543622
   7 C :    0.838246
   8 N :   -0.094801
   9 N :    0.240361
  10 H :   -0.170840
  11 H :   -0.387623
  12 H :   -0.869694
  13 H :   -0.009255
  14 H :   -0.267967
  15 F :   -0.531094
  16 O :   -0.476397
  17 C :    0.473417
  18 H :    0.042595
  19 H :   -0.255014
  20 C :   -0.077914
  21 C :   -0.098963
  22 H :   -0.012117
  23 H :   -0.188212
  24 H :    0.008508
  25 H :   -0.110734
  26 C :    0.709014
  27 H :   -0.130561
  28 H :   -0.078002
  29 C :    0.002175
  30 H :    0.070528
  31 H :   -1.119551
  32 C :    0.744733
  33 H :   -0.456288
  34 H :    0.150462
  35 H :   -0.469108
  36 H :    0.203572
  37 H :    0.010110
  38 H :   -0.003603
Sum of atomic charges:   -0.0000000

LOEWDIN ATOMIC CHARGES
----------------------
   0 C :   -0.050629
   1 C :   -0.014569
   2 C :   -0.010501
   3 C :    0.063160
   4 H :    0.044450
   5 H :    0.025262
   6 C :    0.071586
   7 C :   -0.194394
   8 N :    0.193413
   9 N :    0.198761
  10 H :   -0.005266
  11 H :   -0.118353
  12 H :   -0.112066
  13 H :   -0.018094
  14 H :   -0.013002
  15 F :   -0.050460
  16 O :   -0.110188
  17 C :   -0.026596
  18 H :    0.019586
  19 H :    0.000030
  20 C :   -0.036486
  21 C :   -0.026368
  22 H :    0.014898
  23 H :    0.033843
  24 H :    0.030264
  25 H :    0.030714
  26 C :   -0.032715
  27 H :    0.017571
  28 H :    0.020102
  29 C :   -0.038990
  30 H :    0.035903
  31 H :   -0.026480
  32 C :   -0.032004
  33 H :    0.025186
  34 H :    0.018658
  35 H :    0.025330
  36 H :    0.003097
  37 H :    0.023510
  38 H :    0.021838

  Mayer bond orders larger than 0.100000
B(  0-C ,  1-C ) :   0.8568 B(  0-C , 12-H ) :   0.7348 B(  0-C , 17-C ) :   1.0239
B(  0-C , 18-H ) :   0.6883 B(  0-C , 19-H ) :   0.5947 B(  1-C ,  7-C ) :   1.7148
B(  1-C ,  8-N ) :   0.2591 B(  1-C ,  9-N ) :   0.2511 B(  1-C , 12-H ) :  -0.4892
B(  1-C , 13-H ) :  -0.1142 B(  1-C , 15-F ) :  -0.1199 B(  1-C , 18-H ) :   0.3336
B(  1-C , 19-H ) :   0.3286 B(  1-C , 31-H ) :  -0.1267 B(  2-C ,  3-C ) :   1.1291
B(  2-C ,  4-H ) :   0.1517 B(  2-C , 21-C ) :   1.2410 B(  2-C , 24-H ) :   0.6927
B(  2-C , 25-H ) :   0.8359 B(  3-C ,  4-H ) :   0.6648 B(  3-C ,  5-H ) :   0.7374
B(  3-C ,  6-C ) :   1.2801 B(  3-C , 21-C ) :   0.1053 B(  3-C , 25-H ) :   0.1450
B(  4-H ,  6-C ) :   0.3099 B(  5-H ,  6-C ) :   0.2208 B(  6-C , 15-F ) :   0.6316
B(  6-C , 16-O ) :   1.5960 B(  7-C ,  8-N ) :   0.7426 B(  7-C ,  9-N ) :   0.7388
B(  7-C , 11-H ) :  -0.3041 B(  7-C , 12-H ) :   0.5126 B(  7-C , 14-H ) :  -0.1773
B(  7-C , 19-H ) :  -0.1010 B(  8-N , 13-H ) :   1.0106 B(  8-N , 14-H ) :   1.3051
B(  9-N , 10-H ) :   1.1566 B(  9-N , 11-H ) :   1.2478 B(  9-N , 16-O ) :  -0.1062
B( 10-H , 11-H ) :  -0.2192 B( 12-H , 15-F ) :   0.2106 B( 13-H , 14-H ) :  -0.1989
B( 15-F , 31-H ) :   0.1227 B( 17-C , 26-C ) :   1.1009 B( 17-C , 27-H ) :   0.8695
B( 17-C , 28-H ) :   0.8925 B( 17-C , 30-H ) :   0.1677 B( 18-H , 19-H ) :  -0.1647
B( 20-C , 21-C ) :   1.2070 B( 20-C , 22-H ) :   0.1021 B( 20-C , 23-H ) :   0.1484
B( 20-C , 29-C ) :   0.1287 B( 20-C , 32-C ) :   1.1356 B( 20-C , 35-H ) :   1.1074
B( 20-C , 36-H ) :   0.8028 B( 20-C , 37-H ) :   0.2852 B( 20-C , 38-H ) :   0.1133
B( 21-C , 22-H ) :   0.9545 B( 21-C , 23-H ) :   0.8989 B( 21-C , 24-H ) :   0.2306
B( 21-C , 25-H ) :   0.1701 B( 21-C , 36-H ) :   0.1017 B( 22-H , 33-H ) :  -0.1080
B( 22-H , 34-H ) :   0.1137 B( 24-H , 25-H ) :  -0.1640 B( 26-C , 27-H ) :   0.1832
B( 26-C , 28-H ) :   0.1047 B( 26-C , 29-C ) :   1.2155 B( 26-C , 30-H ) :   0.6276
B( 26-C , 31-H ) :   0.2077 B( 26-C , 33-H ) :   0.1094 B( 26-C , 34-H ) :   0.1305
B( 28-H , 33-H ) :  -0.1122 B( 29-C , 31-H ) :   0.1287 B( 29-C , 32-C ) :   1.0922
B( 29-C , 33-H ) :   1.1098 B( 29-C , 34-H ) :   0.8214 B( 29-C , 38-H ) :   0.2431
B( 30-H , 31-H ) :   0.1790 B( 31-H , 36-H ) :   0.1348 B( 32-C , 37-H ) :   0.6649
B( 32-C , 38-H ) :   0.6872 B( 33-H , 34-H ) :  -0.1073 B( 37-H , 38-H ) :  -0.1477

Dispersion correction           -0.002738388
FINAL SINGLE POINT ENERGY      -754.802283757162

DIPOLE MOMENT
-------------
                                X             Y             Z
Electronic contribution:     11.27546       8.95509       5.89592
Nuclear contribution   :    -11.48003      -8.36271      -6.78621
                        -----------------------------------------
Total Dipole Moment    :     -0.20457       0.59238      -0.89030
                        -----------------------------------------
Magnitude (a.u.)       :      1.08876
Magnitude (Debye)      :      2.76740

Rotational constants in cm-1:     0.020055     0.013548     0.009477
Rotational constants in MHz :   601.234832   406.162779   284.104317

                             ****ORCA TERMINATED NORMALLY****
TOTAL RUN TIME: 0 days 0 hours 4 minutes 42 seconds 221 msec
