                         Program Version 5.0.0 -  RELEASE  -
|  1> !M062X D3Zero RIJCOSX def2-SVPD def2/J TightSCF xyzfile
|  2>
|  3> *xyzfile 0 1 D2.xyz
|  4>
|  5> %MaxCore 64000
|  6>
|  7> %pal nprocs 4
|  8> end
|  9>
| 10> %scf
| 11>   MaxIter 150
| 12> end
| 13>
| 14>
| 15>                          ****END OF INPUT****

CARTESIAN COORDINATES (ANGSTROEM)
---------------------------------
  C      3.913853   -1.658291    3.015134
  N      5.039266   -0.901154    2.492821
  C      4.084215    1.742081   -2.114724
  C      4.265245    2.500518   -0.795890
  H      4.868534    3.392674   -0.981134
  H      3.307640    2.824571   -0.387809
  C      4.982240    1.650257    0.247422
  C      6.210384   -1.417261    2.178244
  C      6.535913   -2.677122    2.556078
  N      7.076754   -0.700820    1.478906
  H      7.954643   -1.121554    1.207554
  H      6.756161    0.106637    0.960278
  H      4.842168    0.017609    2.115191
  H      5.993876   -3.126918    3.282784
  H      7.498441   -2.975482    2.468776
  F      4.368065    1.389270    1.313706
  O      6.128919    1.233512   -0.045620
  C      3.139159   -2.376572    1.910609
  H      3.267235   -0.939401    3.520693
  H      4.247195   -2.355095    3.790065
  C      1.997274    0.430918   -1.399218
  C      3.412746    0.376886   -1.965497
  H      4.047407   -0.246590   -1.326706
  H      3.390774   -0.118719   -2.942839
  H      5.068475    1.598504   -2.565728
  H      3.503356    2.363939   -2.804565
  C      2.399946   -1.389579    1.009490
  H      2.440750   -3.087118    2.362976
  H      3.844475   -2.970462    1.318677
  C      2.070177   -1.936705   -0.372401
  H      1.481611   -1.061542    1.509912
  H      3.008628   -0.490001    0.897451
  C      1.322238   -0.935775   -1.256413
  H      1.472747   -2.850902   -0.283997
  H      3.003539   -2.234041   -0.862535
  H      1.376444    1.058920   -2.047420
  H      2.015341    0.929780   -0.426535
  H      0.316648   -0.787213   -0.848278
  H      1.185611   -1.379252   -2.248613

 Total Charge           Charge          ....    0
 Multiplicity           Mult            ....    1
 Number of Electrons    NEL             ....  126
 Basis Dimension        Dim             ....  510

ORBITAL ENERGIES
----------------

  NO   OCC          E(Eh)            E(eV)
   0   2.0000     -25.370713      -690.3722
   1   2.0000     -19.686539      -535.6980
   2   2.0000     -14.742621      -401.1671
   3   2.0000     -14.721444      -400.5908
   4   2.0000     -10.775471      -293.2155
   5   2.0000     -10.601358      -288.4776
   6   2.0000     -10.579486      -287.8825
   7   2.0000     -10.578162      -287.8464
   8   2.0000     -10.571948      -287.6773
   9   2.0000     -10.563651      -287.4516
  10   2.0000     -10.558578      -287.3135
  11   2.0000     -10.551831      -287.1299
  12   2.0000     -10.545665      -286.9621
  13   2.0000     -10.544393      -286.9275
  14   2.0000     -10.535340      -286.6812
  15   2.0000     -10.442467      -284.1540
  16   2.0000      -1.488511       -40.5044
  17   2.0000      -1.187491       -32.3133
  18   2.0000      -1.051791       -28.6207
  19   2.0000      -0.959287       -26.1035
  20   2.0000      -0.936902       -25.4944
  21   2.0000      -0.904742       -24.6193
  22   2.0000      -0.868515       -23.6335
  23   2.0000      -0.834441       -22.7063
  24   2.0000      -0.806839       -21.9552
  25   2.0000      -0.779760       -21.2183
  26   2.0000      -0.768156       -20.9026
  27   2.0000      -0.738277       -20.0895
  28   2.0000      -0.704782       -19.1781
  29   2.0000      -0.688723       -18.7411
  30   2.0000      -0.677524       -18.4364
  31   2.0000      -0.669531       -18.2189
  32   2.0000      -0.647538       -17.6204
  33   2.0000      -0.629632       -17.1332
  34   2.0000      -0.611124       -16.6295
  35   2.0000      -0.590687       -16.0734
  36   2.0000      -0.572051       -15.5663
  37   2.0000      -0.561733       -15.2855
  38   2.0000      -0.560323       -15.2472
  39   2.0000      -0.543560       -14.7910
  40   2.0000      -0.527658       -14.3583
  41   2.0000      -0.517728       -14.0881
  42   2.0000      -0.507060       -13.7978
  43   2.0000      -0.498397       -13.5621
  44   2.0000      -0.487207       -13.2576
  45   2.0000      -0.478325       -13.0159
  46   2.0000      -0.472299       -12.8519
  47   2.0000      -0.458850       -12.4859
  48   2.0000      -0.450392       -12.2558
  49   2.0000      -0.443739       -12.0747
  50   2.0000      -0.435976       -11.8635
  51   2.0000      -0.427862       -11.6427
  52   2.0000      -0.423278       -11.5180
  53   2.0000      -0.417283       -11.3548
  54   2.0000      -0.408284       -11.1100
  55   2.0000      -0.402728       -10.9588
  56   2.0000      -0.390846       -10.6355
  57   2.0000      -0.384377       -10.4594
  58   2.0000      -0.378679       -10.3044
  59   2.0000      -0.377330       -10.2677
  60   2.0000      -0.371611       -10.1121
  61   2.0000      -0.289753        -7.8846
  62   2.0000      -0.195676        -5.3246
  63   0.0000      -0.024423        -0.6646
  64   0.0000       0.019345         0.5264
  65   0.0000       0.038936         1.0595
  66   0.0000       0.041485         1.1289
  67   0.0000       0.046323         1.2605

MULLIKEN ATOMIC CHARGES
-----------------------
   0 C :    1.177471
   1 N :    0.303182
   2 C :    0.425873
   3 C :    0.288789
   4 H :   -0.118514
   5 H :    0.194650
   6 C :    0.589382
   7 C :    0.756188
   8 C :    0.605697
   9 N :    0.356759
  10 H :   -0.088160
  11 H :   -0.559899
  12 H :   -1.289757
  13 H :   -0.021150
  14 H :   -0.671332
  15 F :   -0.542185
  16 O :   -0.494943
  17 C :    0.386808
  18 H :   -0.371519
  19 H :   -0.121452
  20 C :   -0.063160
  21 C :   -0.100479
  22 H :   -0.017496
  23 H :   -0.187047
  24 H :    0.014087
  25 H :   -0.107573
  26 C :    0.709825
  27 H :   -0.167144
  28 H :   -0.034721
  29 C :    0.029965
  30 H :   -0.017550
  31 H :   -1.027795
  32 C :    0.741093
  33 H :   -0.439825
  34 H :    0.135738
  35 H :   -0.454521
  36 H :    0.182857
  37 H :    0.007301
  38 H :   -0.009444
Sum of atomic charges:   -0.0000000

LOEWDIN ATOMIC CHARGES
----------------------
   0 C :    0.067885
   1 N :   -0.000766
   2 C :   -0.008337
   3 C :    0.064487
   4 H :    0.046223
   5 H :    0.025590
   6 C :    0.068429
   7 C :   -0.218440
   8 C :    0.156809
   9 N :    0.206843
  10 H :    0.012549
  11 H :   -0.128092
  12 H :   -0.058921
  13 H :   -0.127091
  14 H :   -0.110923
  15 F :   -0.042027
  16 O :   -0.105479
  17 C :   -0.010188
  18 H :    0.024100
  19 H :    0.013570
  20 C :   -0.036530
  21 C :   -0.025699
  22 H :    0.014631
  23 H :    0.035567
  24 H :    0.031828
  25 H :    0.032325
  26 C :   -0.038382
  27 H :    0.025231
  28 H :    0.020819
  29 C :   -0.036107
  30 H :    0.035253
  31 H :   -0.030495
  32 C :   -0.030064
  33 H :    0.027642
  34 H :    0.021357
  35 H :    0.026575
  36 H :    0.001851
  37 H :    0.024342
  38 H :    0.023636

  Mayer bond orders larger than 0.100000
B(  0-C ,  1-N ) :   0.9623 B(  0-C , 12-H ) :  -0.5932 B(  0-C , 17-C ) :   1.0367
B(  0-C , 18-H ) :   0.6794 B(  0-C , 19-H ) :   0.7408 B(  0-C , 26-C ) :   0.1568
B(  1-N ,  7-C ) :   0.8671 B(  1-N ,  8-C ) :   0.4239 B(  1-N , 12-H ) :   0.7725
B(  1-N , 18-H ) :   0.2185 B(  2-C ,  3-C ) :   1.1408 B(  2-C ,  4-H ) :   0.1577
B(  2-C , 21-C ) :   1.2465 B(  2-C , 24-H ) :   0.6968 B(  2-C , 25-H ) :   0.8390
B(  3-C ,  4-H ) :   0.6894 B(  3-C ,  5-H ) :   0.7372 B(  3-C ,  6-C ) :   1.2490
B(  3-C , 21-C ) :   0.1007 B(  3-C , 25-H ) :   0.1398 B(  4-H ,  6-C ) :   0.2868
B(  5-H ,  6-C ) :   0.2103 B(  6-C , 15-F ) :   0.5787 B(  6-C , 16-O ) :   1.6237
B(  7-C ,  8-C ) :   1.6542 B(  7-C ,  9-N ) :   0.8431 B(  7-C , 11-H ) :  -0.1752
B(  7-C , 12-H ) :  -0.6612 B(  7-C , 13-H ) :   0.3817 B(  7-C , 14-H ) :   0.3702
B(  8-C ,  9-N ) :   0.2384 B(  8-C , 12-H ) :  -0.1179 B(  8-C , 13-H ) :   0.5578
B(  8-C , 14-H ) :   0.6098 B(  9-N , 10-H ) :   1.1385 B(  9-N , 11-H ) :   1.0873
B( 10-H , 11-H ) :  -0.2733 B( 11-H , 12-H ) :   0.1448 B( 12-H , 15-F ) :   0.2780
B( 12-H , 18-H ) :   0.1652 B( 13-H , 18-H ) :  -0.1215 B( 13-H , 19-H ) :   0.1680
B( 15-F , 31-H ) :   0.1003 B( 17-C , 19-H ) :   0.1542 B( 17-C , 26-C ) :   1.0956
B( 17-C , 27-H ) :   0.9657 B( 17-C , 28-H ) :   0.9030 B( 17-C , 30-H ) :   0.1275
B( 18-H , 19-H ) :  -0.3068 B( 20-C , 21-C ) :   1.2029 B( 20-C , 22-H ) :   0.1004
B( 20-C , 23-H ) :   0.1498 B( 20-C , 29-C ) :   0.1266 B( 20-C , 32-C ) :   1.1529
B( 20-C , 35-H ) :   1.0808 B( 20-C , 36-H ) :   0.8111 B( 20-C , 37-H ) :   0.2864
B( 20-C , 38-H ) :   0.1196 B( 21-C , 22-H ) :   0.9580 B( 21-C , 23-H ) :   0.9060
B( 21-C , 24-H ) :   0.2253 B( 21-C , 25-H ) :   0.1712 B( 21-C , 35-H ) :   0.1048
B( 21-C , 36-H ) :   0.1021 B( 22-H , 34-H ) :   0.1176 B( 24-H , 25-H ) :  -0.1649
B( 26-C , 27-H ) :   0.1517 B( 26-C , 29-C ) :   1.2288 B( 26-C , 30-H ) :   0.6145
B( 26-C , 31-H ) :   0.2359 B( 26-C , 34-H ) :   0.1490 B( 27-H , 31-H ) :   0.1203
B( 28-H , 33-H ) :  -0.1067 B( 29-C , 31-H ) :   0.1284 B( 29-C , 32-C ) :   1.0908
B( 29-C , 33-H ) :   1.1159 B( 29-C , 34-H ) :   0.8203 B( 29-C , 38-H ) :   0.2288
B( 30-H , 31-H ) :   0.2543 B( 31-H , 36-H ) :   0.1348 B( 32-C , 37-H ) :   0.6614
B( 32-C , 38-H ) :   0.7050 B( 33-H , 34-H ) :  -0.1043 B( 37-H , 38-H ) :  -0.1493

Dispersion correction           -0.002755215
FINAL SINGLE POINT ENERGY      -754.798769895317

DIPOLE MOMENT
-------------
                                X             Y             Z
Electronic contribution:      9.73519      10.52064       5.51484
Nuclear contribution   :    -11.22009      -8.67117      -6.77523
                        -----------------------------------------
Total Dipole Moment    :     -1.48490       1.84947      -1.26039
                        -----------------------------------------
Magnitude (a.u.)       :      2.68590
Magnitude (Debye)      :      6.82700

Rotational constants in cm-1:     0.020086     0.013778     0.009581
Rotational constants in MHz :   602.172053   413.051122   287.243919

                             ****ORCA TERMINATED NORMALLY****
TOTAL RUN TIME: 0 days 0 hours 4 minutes 41 seconds 213 msec
