                         Program Version 5.0.0 -  RELEASE  -
|  1> !PBE D3BJ RIJCOSX def2-SVPD def2/J TightSCF
|  2> *xyz -1 1
|  3> C          0.84888        2.66797       -4.30235
|  4> C          2.09343        1.86104       -4.65684
|  5> H          2.44481        2.04157       -5.67499
|  6> H          2.90175        2.13786       -3.98034
|  7> S          1.87964        0.07859       -4.46297
|  8> O          3.20757       -0.46611       -4.42026
|  9> O          1.07506       -0.05616       -3.26876
| 10> O          1.13166       -0.31996       -5.67903
| 11> H          0.05064        2.40112       -4.96303
| 12> H          1.06043        3.71210       -4.40203
| 13> H          0.56237        2.45684       -3.29327
| 14> *
| 15>
| 16> %MaxCore 64000
| 17>
| 18> %pal nprocs 4
| 19> end
| 20>
| 21> %scf
| 22>   MaxIter 150
| 23> end
| 24>
| 25>
| 26>                          ****END OF INPUT****

CARTESIAN COORDINATES (ANGSTROEM)
---------------------------------
  C      0.848880    2.667970   -4.302350
  C      2.093430    1.861040   -4.656840
  H      2.444810    2.041570   -5.674990
  H      2.901750    2.137860   -3.980340
  S      1.879640    0.078590   -4.462970
  O      3.207570   -0.466110   -4.420260
  O      1.075060   -0.056160   -3.268760
  O      1.131660   -0.319960   -5.679030
  H      0.050640    2.401120   -4.963030
  H      1.060430    3.712100   -4.402030
  H      0.562370    2.456840   -3.293270

 Total Charge           Charge          ....   -1
 Multiplicity           Mult            ....    1
 Number of Electrons    NEL             ....   58
 Basis Dimension        Dim             ....  176

ORBITAL ENERGIES
----------------

  NO   OCC          E(Eh)            E(eV)
   0   2.0000     -88.053349     -2396.0534
   1   2.0000     -18.548719      -504.7363
   2   2.0000     -18.545672      -504.6534
   3   2.0000     -18.533763      -504.3293
   4   2.0000      -9.753648      -265.4103
   5   2.0000      -9.748936      -265.2820
   6   2.0000      -7.657792      -208.3791
   7   2.0000      -5.684828      -154.6920
   8   2.0000      -5.684635      -154.6868
   9   2.0000      -5.684017      -154.6700
  10   2.0000      -0.842966       -22.9383
  11   2.0000      -0.710486       -19.3333
  12   2.0000      -0.685040       -18.6409
  13   2.0000      -0.553163       -15.0523
  14   2.0000      -0.435135       -11.8406
  15   2.0000      -0.321847        -8.7579
  16   2.0000      -0.266839        -7.2611
  17   2.0000      -0.264466        -7.1965
  18   2.0000      -0.227662        -6.1950
  19   2.0000      -0.212990        -5.7958
  20   2.0000      -0.207147        -5.6368
  21   2.0000      -0.185318        -5.0428
  22   2.0000      -0.168485        -4.5847
  23   2.0000      -0.105931        -2.8825
  24   2.0000      -0.104938        -2.8555
  25   2.0000      -0.073758        -2.0071
  26   2.0000      -0.067526        -1.8375
  27   2.0000      -0.055950        -1.5225
  28   2.0000      -0.021479        -0.5845
  29   0.0000       0.127791         3.4774
  30   0.0000       0.155573         4.2334
  31   0.0000       0.164457         4.4751
  32   0.0000       0.168864         4.5950
  33   0.0000       0.191327         5.2063

MULLIKEN ATOMIC CHARGES
-----------------------
   0 C :    0.762870
   1 C :   -0.360157
   2 H :   -0.077232
   3 H :   -0.026766
   4 S :    1.195446
   5 O :   -0.731516
   6 O :   -0.750709
   7 O :   -0.785889
   8 H :   -0.058985
   9 H :   -0.130249
  10 H :   -0.036814
Sum of atomic charges:   -1.0000000

LOEWDIN ATOMIC CHARGES
----------------------
   0 C :    0.094060
   1 C :   -0.140741
   2 H :    0.002426
   3 H :   -0.004825
   4 S :    0.804782
   5 O :   -0.550574
   6 O :   -0.549024
   7 O :   -0.575491
   8 H :   -0.016578
   9 H :   -0.036851
  10 H :   -0.027184

  Mayer bond orders larger than 0.100000
B(  0-C ,  1-C ) :   1.3318 B(  0-C ,  3-H ) :   0.1066 B(  0-C ,  8-H ) :   0.8065
B(  0-C ,  9-H ) :   0.7532 B(  0-C , 10-H ) :   0.8104 B(  1-C ,  2-H ) :   0.9858
B(  1-C ,  3-H ) :   0.9785 B(  1-C ,  4-S ) :   0.8914 B(  1-C ,  8-H ) :   0.1969
B(  1-C ,  9-H ) :   0.2301 B(  1-C , 10-H ) :   0.2134 B(  4-S ,  5-O ) :   1.3775
B(  4-S ,  6-O ) :   1.3402 B(  4-S ,  7-O ) :   1.3098

Dispersion correction           -0.009699650
FINAL SINGLE POINT ENERGY      -702.286329078163

DIPOLE MOMENT
-------------
                                X             Y             Z
Electronic contribution:      1.60889      -7.72850       0.05854
Nuclear contribution   :     -1.55288       9.51857       0.00420
                        -----------------------------------------
Total Dipole Moment    :      0.05601       1.79007       0.06274
                        -----------------------------------------
Magnitude (a.u.)       :      1.79204
Magnitude (Debye)      :      4.55501

Rotational constants in cm-1:     0.163401     0.083833     0.082462
Rotational constants in MHz :  4898.624208  2513.264548  2472.149188

                             ****ORCA TERMINATED NORMALLY****
TOTAL RUN TIME: 0 days 0 hours 0 minutes 12 seconds 675 msec
