                         Program Version 5.0.0 -  RELEASE  -
|  1> !PBE D3BJ RIJCOSX def2-SVPD def2/J TightSCF
|  2> *xyz 1 1
|  3> C         -0.46129        2.23469       -4.98962
|  4> C          0.84888        2.66797       -4.30235
|  5> C         -0.42384        2.39877       -6.47432
|  6> N         -0.95947        3.49265       -7.00740
|  7> N          0.14558        1.48689       -7.20399
|  8> H          0.56537        0.69681       -6.72386
|  9> H          0.22068        1.58177       -8.20752
| 10> H         -1.40624        4.18151       -6.40326
| 11> H         -0.93421        3.68160       -7.99947
| 12> H         -1.28888        2.82674       -4.59500
| 13> H         -0.65170        1.18634       -4.75655
| 14> H          1.66208        2.08894       -4.68750
| 15> H          0.76716        2.51042       -3.24717
| 16> H          1.02677        3.70527       -4.49537
| 17> *
| 18>
| 19> %MaxCore 64000
| 20>
| 21> %pal nprocs 4
| 22> end
| 23>
| 24> %scf
| 25>   MaxIter 150
| 26> end
| 27>
| 28>
| 29>                          ****END OF INPUT****

CARTESIAN COORDINATES (ANGSTROEM)
---------------------------------
  C     -0.461290    2.234690   -4.989620
  C      0.848880    2.667970   -4.302350
  C     -0.423840    2.398770   -6.474320
  N     -0.959470    3.492650   -7.007400
  N      0.145580    1.486890   -7.203990
  H      0.565370    0.696810   -6.723860
  H      0.220680    1.581770   -8.207520
  H     -1.406240    4.181510   -6.403260
  H     -0.934210    3.681600   -7.999470
  H     -1.288880    2.826740   -4.595000
  H     -0.651700    1.186340   -4.756550
  H      1.662080    2.088940   -4.687500
  H      0.767160    2.510420   -3.247170
  H      1.026770    3.705270   -4.495370

 Total Charge           Charge          ....    1
 Multiplicity           Mult            ....    1
 Number of Electrons    NEL             ....   40
 Basis Dimension        Dim             ....  172

ORBITAL ENERGIES
----------------

  NO   OCC          E(Eh)            E(eV)
   0   2.0000     -14.248083      -387.7101
   1   2.0000     -14.244805      -387.6208
   2   2.0000     -10.209260      -277.8081
   3   2.0000     -10.095323      -274.7077
   4   2.0000     -10.052845      -273.5518
   5   2.0000      -1.115022       -30.3413
   6   2.0000      -1.025867       -27.9153
   7   2.0000      -0.892987       -24.2994
   8   2.0000      -0.796192       -21.6655
   9   2.0000      -0.756710       -20.5911
  10   2.0000      -0.727428       -19.7943
  11   2.0000      -0.695912       -18.9367
  12   2.0000      -0.654901       -17.8208
  13   2.0000      -0.603018       -16.4090
  14   2.0000      -0.576511       -15.6877
  15   2.0000      -0.569917       -15.5082
  16   2.0000      -0.504614       -13.7313
  17   2.0000      -0.493309       -13.4236
  18   2.0000      -0.485967       -13.2238
  19   2.0000      -0.455992       -12.4082
  20   0.0000      -0.245351        -6.6763
  21   0.0000      -0.183351        -4.9892
  22   0.0000      -0.139366        -3.7923
  23   0.0000      -0.138398        -3.7660
  24   0.0000      -0.111321        -3.0292

MULLIKEN ATOMIC CHARGES
-----------------------
   0 C :   -0.335307
   1 C :    0.654228
   2 C :    0.772330
   3 N :    0.013937
   4 N :    0.154170
   5 H :    0.058939
   6 H :   -0.174465
   7 H :    0.040077
   8 H :   -0.152499
   9 H :   -0.003086
  10 H :    0.018962
  11 H :   -0.027951
  12 H :    0.015933
  13 H :   -0.035269
Sum of atomic charges:    1.0000000

LOEWDIN ATOMIC CHARGES
----------------------
   0 C :    0.007162
   1 C :    0.174932
   2 C :   -0.065258
   3 N :    0.294261
   4 N :    0.297340
   5 H :    0.058067
   6 H :    0.051893
   7 H :    0.053627
   8 H :    0.042693
   9 H :    0.040059
  10 H :    0.045616
  11 H :   -0.007376
  12 H :    0.008962
  13 H :   -0.001979

  Mayer bond orders larger than 0.100000
B(  0-C ,  1-C ) :   1.3174 B(  0-C ,  2-C ) :   1.1343 B(  0-C ,  3-N ) :   0.1196
B(  0-C ,  4-N ) :   0.1056 B(  0-C ,  9-H ) :   0.8815 B(  0-C , 10-H ) :   0.8847
B(  0-C , 11-H ) :   0.1945 B(  0-C , 12-H ) :   0.1584 B(  0-C , 13-H ) :   0.1721
B(  1-C , 11-H ) :   0.7977 B(  1-C , 12-H ) :   0.8263 B(  1-C , 13-H ) :   0.8373
B(  2-C ,  3-N ) :   1.0000 B(  2-C ,  4-N ) :   1.1865 B(  2-C ,  6-H ) :  -0.1790
B(  2-C ,  8-H ) :  -0.2167 B(  2-C ,  9-H ) :   0.1194 B(  3-N ,  4-N ) :   0.1959
B(  3-N ,  7-H ) :   1.0796 B(  3-N ,  8-H ) :   1.3268 B(  4-N ,  5-H ) :   1.0564
B(  4-N ,  6-H ) :   1.3081 B(  5-H ,  6-H ) :  -0.1708 B(  7-H ,  8-H ) :  -0.1809

Dispersion correction           -0.010109811
FINAL SINGLE POINT ENERGY      -228.594041472901

DIPOLE MOMENT
-------------
                                X             Y             Z
Electronic contribution:     -1.55326      -0.26181      -3.88796
Nuclear contribution   :      1.33202       0.27544       2.83701
                        -----------------------------------------
Total Dipole Moment    :     -0.22124       0.01363      -1.05095
                        -----------------------------------------
Magnitude (a.u.)       :      1.07407
Magnitude (Debye)      :      2.73007

Rotational constants in cm-1:     0.258570     0.126296     0.098869
Rotational constants in MHz :  7751.748523  3786.267300  2964.011691

                             ****ORCA TERMINATED NORMALLY****
TOTAL RUN TIME: 0 days 0 hours 0 minutes 12 seconds 485 msec
