                         Program Version 5.0.0 -  RELEASE  -
|  1> !PBE D3BJ RIJCOSX def2-SVPD def2/J TightSCF
|  2> *xyz 0 1
|  3> C          0.84888        2.66797       -4.30235
|  4> C          2.09343        1.86104       -4.65684
|  5> H          2.44481        2.04157       -5.67499
|  6> H          2.90175        2.13786       -3.98034
|  7> S          1.87964        0.07859       -4.46297
|  8> F          3.20757       -0.46611       -4.42026
|  9> O          1.07506       -0.05616       -3.26876
| 10> O          1.13166       -0.31996       -5.67903
| 11> H          0.05064        2.40112       -4.96303
| 12> H          1.06043        3.71210       -4.40203
| 13> H          0.56237        2.45684       -3.29327
| 14> *
| 15>
| 16> %MaxCore 64000
| 17>
| 18> %pal nprocs 4
| 19> end
| 20>
| 21> %scf
| 22>   MaxIter 150
| 23> end
| 24>
| 25>
| 26>                          ****END OF INPUT****

CARTESIAN COORDINATES (ANGSTROEM)
---------------------------------
  C      0.848880    2.667970   -4.302350
  C      2.093430    1.861040   -4.656840
  H      2.444810    2.041570   -5.674990
  H      2.901750    2.137860   -3.980340
  S      1.879640    0.078590   -4.462970
  F      3.207570   -0.466110   -4.420260
  O      1.075060   -0.056160   -3.268760
  O      1.131660   -0.319960   -5.679030
  H      0.050640    2.401120   -4.963030
  H      1.060430    3.712100   -4.402030
  H      0.562370    2.456840   -3.293270

 Total Charge           Charge          ....    0
 Multiplicity           Mult            ....    1
 Number of Electrons    NEL             ....   58
 Basis Dimension        Dim             ....  176

ORBITAL ENERGIES
----------------

  NO   OCC          E(Eh)            E(eV)
   0   2.0000     -88.309965     -2403.0363
   1   2.0000     -24.392736      -663.7601
   2   2.0000     -18.778017      -510.9758
   3   2.0000     -18.766132      -510.6524
   4   2.0000      -9.955372      -270.8994
   5   2.0000      -9.913226      -269.7526
   6   2.0000      -7.915393      -215.3888
   7   2.0000      -5.946662      -161.8169
   8   2.0000      -5.940125      -161.6390
   9   2.0000      -5.938503      -161.5949
  10   2.0000      -1.278016       -34.7766
  11   2.0000      -1.018926       -27.7264
  12   2.0000      -0.918259       -24.9871
  13   2.0000      -0.744424       -20.2568
  14   2.0000      -0.671728       -18.2786
  15   2.0000      -0.611457       -16.6386
  16   2.0000      -0.529682       -14.4134
  17   2.0000      -0.528036       -14.3686
  18   2.0000      -0.499706       -13.5977
  19   2.0000      -0.444046       -12.0831
  20   2.0000      -0.434545       -11.8246
  21   2.0000      -0.396766       -10.7966
  22   2.0000      -0.386060       -10.5052
  23   2.0000      -0.364153        -9.9091
  24   2.0000      -0.344219        -9.3667
  25   2.0000      -0.338834        -9.2201
  26   2.0000      -0.291665        -7.9366
  27   2.0000      -0.278211        -7.5705
  28   2.0000      -0.261219        -7.1081
  29   0.0000      -0.030001        -0.8164
  30   0.0000      -0.003149        -0.0857
  31   0.0000       0.015058         0.4097
  32   0.0000       0.020690         0.5630
  33   0.0000       0.024863         0.6766

MULLIKEN ATOMIC CHARGES
-----------------------
   0 C :    0.773389
   1 C :   -0.384435
   2 H :   -0.028830
   3 H :    0.021537
   4 S :    1.390530
   5 F :   -0.359389
   6 O :   -0.613908
   7 O :   -0.644301
   8 H :   -0.041840
   9 H :   -0.098182
  10 H :   -0.014571
Sum of atomic charges:    0.0000000

LOEWDIN ATOMIC CHARGES
----------------------
   0 C :    0.139855
   1 C :   -0.105180
   2 H :    0.023308
   3 H :    0.013881
   4 S :    1.073111
   5 F :   -0.237896
   6 O :   -0.438866
   7 O :   -0.458123
   8 H :    0.001879
   9 H :   -0.003458
  10 H :   -0.008511

  Mayer bond orders larger than 0.100000
B(  0-C ,  1-C ) :   1.4010 B(  0-C ,  3-H ) :   0.1076 B(  0-C ,  8-H ) :   0.8058
B(  0-C ,  9-H ) :   0.7513 B(  0-C , 10-H ) :   0.8043 B(  1-C ,  2-H ) :   0.9732
B(  1-C ,  3-H ) :   0.9461 B(  1-C ,  4-S ) :   0.9437 B(  1-C ,  8-H ) :   0.1909
B(  1-C ,  9-H ) :   0.2177 B(  1-C , 10-H ) :   0.2077 B(  4-S ,  5-F ) :   0.7351
B(  4-S ,  6-O ) :   1.5397 B(  4-S ,  7-O ) :   1.5023

Dispersion correction           -0.009290058
FINAL SINGLE POINT ENERGY      -726.755770246607

DIPOLE MOMENT
-------------
                                X             Y             Z
Electronic contribution:      4.11066      -9.33582       0.10284
Nuclear contribution   :     -3.08754      10.54185      -0.04092
                        -----------------------------------------
Total Dipole Moment    :      1.02312       1.20603       0.06192
                        -----------------------------------------
Magnitude (a.u.)       :      1.58276
Magnitude (Debye)      :      4.02305

Rotational constants in cm-1:     0.158925     0.081210     0.079022
Rotational constants in MHz :  4764.450166  2434.603461  2369.014434

                             ****ORCA TERMINATED NORMALLY****
TOTAL RUN TIME: 0 days 0 hours 0 minutes 12 seconds 532 msec
