                         Program Version 5.0.0 -  RELEASE  -
|  1> !PBE D3BJ RIJCOSX def2-SVPD def2/J TightSCF
|  2> *xyz 0 1
|  3> C         -0.46129        2.23469       -4.98962
|  4> C          0.84888        2.66797       -4.30235
|  5> C         -0.42384        2.39877       -6.47432
|  6> C         -0.95947        3.49265       -7.00740
|  7> N          0.14558        1.48689       -7.20399
|  8> H          0.56537        0.69681       -6.72386
|  9> H          0.22068        1.58177       -8.20752
| 10> H         -1.40624        4.18151       -6.40326
| 11> H         -0.93421        3.68160       -7.99947
| 12> H         -1.28888        2.82674       -4.59500
| 13> H         -0.65170        1.18634       -4.75655
| 14> H          1.66208        2.08894       -4.68750
| 15> H          0.76716        2.51042       -3.24717
| 16> H          1.02677        3.70527       -4.49537
| 17> *
| 18>
| 19> %MaxCore 64000
| 20>
| 21> %pal nprocs 4
| 22> end
| 23>
| 24> %scf
| 25>   MaxIter 150
| 26> end
| 27>
| 28>
| 29>                          ****END OF INPUT****

CARTESIAN COORDINATES (ANGSTROEM)
---------------------------------
  C     -0.461290    2.234690   -4.989620
  C      0.848880    2.667970   -4.302350
  C     -0.423840    2.398770   -6.474320
  C     -0.959470    3.492650   -7.007400
  N      0.145580    1.486890   -7.203990
  H      0.565370    0.696810   -6.723860
  H      0.220680    1.581770   -8.207520
  H     -1.406240    4.181510   -6.403260
  H     -0.934210    3.681600   -7.999470
  H     -1.288880    2.826740   -4.595000
  H     -0.651700    1.186340   -4.756550
  H      1.662080    2.088940   -4.687500
  H      0.767160    2.510420   -3.247170
  H      1.026770    3.705270   -4.495370

 Total Charge           Charge          ....    0
 Multiplicity           Mult            ....    1
 Number of Electrons    NEL             ....   40
 Basis Dimension        Dim             ....  172

ORBITAL ENERGIES
----------------

  NO   OCC          E(Eh)            E(eV)
   0   2.0000     -14.005185      -381.1005
   1   2.0000      -9.911181      -269.6970
   2   2.0000      -9.895692      -269.2755
   3   2.0000      -9.882252      -268.9098
   4   2.0000      -9.828105      -267.4363
   5   2.0000      -0.849285       -23.1102
   6   2.0000      -0.700905       -19.0726
   7   2.0000      -0.638862       -17.3843
   8   2.0000      -0.569125       -15.4867
   9   2.0000      -0.513857       -13.9828
  10   2.0000      -0.479329       -13.0432
  11   2.0000      -0.429387       -11.6842
  12   2.0000      -0.390913       -10.6373
  13   2.0000      -0.373250       -10.1567
  14   2.0000      -0.347180        -9.4473
  15   2.0000      -0.336722        -9.1627
  16   2.0000      -0.309789        -8.4298
  17   2.0000      -0.293516        -7.9870
  18   2.0000      -0.290335        -7.9004
  19   2.0000      -0.157637        -4.2895
  20   0.0000      -0.005398        -0.1469
  21   0.0000       0.014856         0.4043
  22   0.0000       0.033199         0.9034
  23   0.0000       0.040747         1.1088
  24   0.0000       0.047609         1.2955

MULLIKEN ATOMIC CHARGES
-----------------------
   0 C :   -0.171397
   1 C :    0.645522
   2 C :   -0.082727
   3 C :    0.453442
   4 N :    0.275598
   5 H :   -0.108962
   6 H :   -0.226025
   7 H :   -0.110860
   8 H :   -0.515266
   9 H :    0.058491
  10 H :   -0.075520
  11 H :   -0.058480
  12 H :   -0.015117
  13 H :   -0.068698
Sum of atomic charges:    0.0000000

LOEWDIN ATOMIC CHARGES
----------------------
   0 C :   -0.034886
   1 C :    0.134973
   2 C :   -0.280201
   3 C :    0.177687
   4 N :    0.182771
   5 H :    0.003758
   6 H :    0.011290
   7 H :   -0.081907
   8 H :   -0.091476
   9 H :    0.022524
  10 H :    0.016503
  11 H :   -0.024690
  12 H :   -0.020802
  13 H :   -0.015543

  Mayer bond orders larger than 0.100000
B(  0-C ,  1-C ) :   1.2973 B(  0-C ,  2-C ) :   1.1700 B(  0-C ,  3-C ) :   0.1934
B(  0-C ,  4-N ) :   0.1205 B(  0-C ,  9-H ) :   0.8322 B(  0-C , 10-H ) :   0.8399
B(  0-C , 11-H ) :   0.2218 B(  0-C , 12-H ) :   0.1760 B(  0-C , 13-H ) :   0.1840
B(  1-C , 11-H ) :   0.8036 B(  1-C , 12-H ) :   0.8071 B(  1-C , 13-H ) :   0.8563
B(  2-C ,  3-C ) :   1.5817 B(  2-C ,  4-N ) :   1.2886 B(  2-C ,  8-H ) :   0.1752
B(  2-C ,  9-H ) :   0.1546 B(  2-C , 10-H ) :   0.1650 B(  3-C ,  4-N ) :   0.2858
B(  3-C ,  7-H ) :   0.9042 B(  3-C ,  8-H ) :   0.7203 B(  4-N ,  5-H ) :   1.0937
B(  4-N ,  6-H ) :   1.2643 B(  5-H ,  6-H ) :  -0.1406

Dispersion correction           -0.010483371
FINAL SINGLE POINT ENERGY      -212.139624153895

DIPOLE MOMENT
-------------
                                X             Y             Z
Electronic contribution:     -0.72441      -1.17262      -2.61429
Nuclear contribution   :      1.14741       0.51394       2.60761
                        -----------------------------------------
Total Dipole Moment    :      0.42301      -0.65868      -0.00668
                        -----------------------------------------
Magnitude (a.u.)       :      0.78284
Magnitude (Debye)      :      1.98982

Rotational constants in cm-1:     0.269157     0.129188     0.102123
Rotational constants in MHz :  8069.118715  3872.945231  3061.580645

                             ****ORCA TERMINATED NORMALLY****
TOTAL RUN TIME: 0 days 0 hours 0 minutes 10 seconds 735 msec
