                         Program Version 5.0.0 -  RELEASE  -
|  1> !PBE D3BJ RIJCOSX def2-SVPD def2/J TightSCF
|  2> *xyz 0 1
|  3> C          0.84888        2.66797       -4.30235
|  4> C          2.09343        1.86104       -4.65684
|  5> H          2.44481        2.04157       -5.67499
|  6> H          2.90175        2.13786       -3.98034
|  7> S          1.87964        0.07859       -4.46297
|  8> O          3.20757       -0.46611       -4.42026
|  9> F          1.07506       -0.05616       -3.26876
| 10> O          1.13166       -0.31996       -5.67903
| 11> H          0.05064        2.40112       -4.96303
| 12> H          1.06043        3.71210       -4.40203
| 13> H          0.56237        2.45684       -3.29327
| 14> *
| 15>
| 16> %MaxCore 64000
| 17>
| 18> %pal nprocs 4
| 19> end
| 20>
| 21> %scf
| 22>   MaxIter 150
| 23> end
| 24>
| 25>
| 26>                          ****END OF INPUT****

CARTESIAN COORDINATES (ANGSTROEM)
---------------------------------
  C      0.848880    2.667970   -4.302350
  C      2.093430    1.861040   -4.656840
  H      2.444810    2.041570   -5.674990
  H      2.901750    2.137860   -3.980340
  S      1.879640    0.078590   -4.462970
  O      3.207570   -0.466110   -4.420260
  F      1.075060   -0.056160   -3.268760
  O      1.131660   -0.319960   -5.679030
  H      0.050640    2.401120   -4.963030
  H      1.060430    3.712100   -4.402030
  H      0.562370    2.456840   -3.293270

 Total Charge           Charge          ....    0
 Multiplicity           Mult            ....    1
 Number of Electrons    NEL             ....   58
 Basis Dimension        Dim             ....  176

ORBITAL ENERGIES
----------------

  NO   OCC          E(Eh)            E(eV)
   0   2.0000     -88.309395     -2403.0208
   1   2.0000     -24.387591      -663.6201
   2   2.0000     -18.781405      -511.0680
   3   2.0000     -18.766243      -510.6554
   4   2.0000      -9.955229      -270.8956
   5   2.0000      -9.919377      -269.9200
   6   2.0000      -7.914824      -215.3733
   7   2.0000      -5.946155      -161.8031
   8   2.0000      -5.939557      -161.6236
   9   2.0000      -5.937939      -161.5795
  10   2.0000      -1.269609       -34.5478
  11   2.0000      -1.022804       -27.8319
  12   2.0000      -0.921411       -25.0729
  13   2.0000      -0.749249       -20.3881
  14   2.0000      -0.665415       -18.1069
  15   2.0000      -0.614067       -16.7096
  16   2.0000      -0.537998       -14.6397
  17   2.0000      -0.521675       -14.1955
  18   2.0000      -0.490946       -13.3593
  19   2.0000      -0.446177       -12.1411
  20   2.0000      -0.427557       -11.6344
  21   2.0000      -0.405547       -11.0355
  22   2.0000      -0.393860       -10.7175
  23   2.0000      -0.368985       -10.0406
  24   2.0000      -0.353257        -9.6126
  25   2.0000      -0.339289        -9.2325
  26   2.0000      -0.293538        -7.9876
  27   2.0000      -0.278649        -7.5824
  28   2.0000      -0.264239        -7.1903
  29   0.0000      -0.034032        -0.9260
  30   0.0000       0.003625         0.0987
  31   0.0000       0.015670         0.4264
  32   0.0000       0.019791         0.5385
  33   0.0000       0.024081         0.6553

MULLIKEN ATOMIC CHARGES
-----------------------
   0 C :    0.776032
   1 C :   -0.339564
   2 H :   -0.036019
   3 H :    0.011703
   4 S :    1.358356
   5 O :   -0.591056
   6 F :   -0.364157
   7 O :   -0.646214
   8 H :   -0.039207
   9 H :   -0.098988
  10 H :   -0.030886
Sum of atomic charges:   -0.0000000

LOEWDIN ATOMIC CHARGES
----------------------
   0 C :    0.125092
   1 C :   -0.092585
   2 H :    0.035898
   3 H :    0.018009
   4 S :    1.068548
   5 O :   -0.434254
   6 F :   -0.241688
   7 O :   -0.457251
   8 H :   -0.002419
   9 H :   -0.005379
  10 H :   -0.013973

  Mayer bond orders larger than 0.100000
B(  0-C ,  1-C ) :   1.3519 B(  0-C ,  8-H ) :   0.8155 B(  0-C ,  9-H ) :   0.7504
B(  0-C , 10-H ) :   0.8087 B(  1-C ,  2-H ) :   0.9759 B(  1-C ,  3-H ) :   0.9741
B(  1-C ,  4-S ) :   0.9692 B(  1-C ,  8-H ) :   0.1884 B(  1-C ,  9-H ) :   0.2202
B(  1-C , 10-H ) :   0.1943 B(  4-S ,  5-O ) :   1.5819 B(  4-S ,  6-F ) :   0.7202
B(  4-S ,  7-O ) :   1.5168 B(  5-O ,  7-O ) :   0.1013

Dispersion correction           -0.009228771
FINAL SINGLE POINT ENERGY      -726.760060368976

DIPOLE MOMENT
-------------
                                X             Y             Z
Electronic contribution:      0.57986      -8.63420       1.99439
Nuclear contribution   :     -0.86540      10.11467      -1.24082
                        -----------------------------------------
Total Dipole Moment    :     -0.28554       1.48048       0.75357
                        -----------------------------------------
Magnitude (a.u.)       :      1.68559
Magnitude (Debye)      :      4.28443

Rotational constants in cm-1:     0.154065     0.083345     0.080357
Rotational constants in MHz :  4618.752213  2498.631937  2409.037217

                             ****ORCA TERMINATED NORMALLY****
TOTAL RUN TIME: 0 days 0 hours 0 minutes 9 seconds 686 msec
