                         Program Version 5.0.0 -  RELEASE  -
|  1> !PBE D3BJ RIJCOSX def2-SVPD def2/J TightSCF
|  2> *xyz 0 1
|  3> C         -0.46129        2.23469       -4.98962
|  4> C          0.84888        2.66797       -4.30235
|  5> C         -0.42384        2.39877       -6.47432
|  6> N         -0.95947        3.49265       -7.00740
|  7> C          0.14558        1.48689       -7.20399
|  8> H          0.56537        0.69681       -6.72386
|  9> H          0.22068        1.58177       -8.20752
| 10> H         -1.40624        4.18151       -6.40326
| 11> H         -0.93421        3.68160       -7.99947
| 12> H         -1.28888        2.82674       -4.59500
| 13> H         -0.65170        1.18634       -4.75655
| 14> H          1.66208        2.08894       -4.68750
| 15> H          0.76716        2.51042       -3.24717
| 16> H          1.02677        3.70527       -4.49537
| 17> *
| 18>
| 19> %MaxCore 64000
| 20>
| 21> %pal nprocs 4
| 22> end
| 23>
| 24> %scf
| 25>   MaxIter 150
| 26> end
| 27>
| 28>
| 29>                          ****END OF INPUT****

CARTESIAN COORDINATES (ANGSTROEM)
---------------------------------
  C     -0.461290    2.234690   -4.989620
  C      0.848880    2.667970   -4.302350
  C     -0.423840    2.398770   -6.474320
  N     -0.959470    3.492650   -7.007400
  C      0.145580    1.486890   -7.203990
  H      0.565370    0.696810   -6.723860
  H      0.220680    1.581770   -8.207520
  H     -1.406240    4.181510   -6.403260
  H     -0.934210    3.681600   -7.999470
  H     -1.288880    2.826740   -4.595000
  H     -0.651700    1.186340   -4.756550
  H      1.662080    2.088940   -4.687500
  H      0.767160    2.510420   -3.247170
  H      1.026770    3.705270   -4.495370

 Total Charge           Charge          ....    0
 Multiplicity           Mult            ....    1
 Number of Electrons    NEL             ....   40
 Basis Dimension        Dim             ....  172

ORBITAL ENERGIES
----------------

  NO   OCC          E(Eh)            E(eV)
   0   2.0000     -14.002371      -381.0239
   1   2.0000      -9.909409      -269.6487
   2   2.0000      -9.895562      -269.2719
   3   2.0000      -9.880905      -268.8731
   4   2.0000      -9.826757      -267.3996
   5   2.0000      -0.837540       -22.7906
   6   2.0000      -0.702431       -19.1141
   7   2.0000      -0.642257       -17.4767
   8   2.0000      -0.569805       -15.5052
   9   2.0000      -0.508920       -13.8484
  10   2.0000      -0.470367       -12.7993
  11   2.0000      -0.431399       -11.7390
  12   2.0000      -0.392310       -10.6753
  13   2.0000      -0.368285       -10.0215
  14   2.0000      -0.347858        -9.4657
  15   2.0000      -0.338313        -9.2060
  16   2.0000      -0.307446        -8.3660
  17   2.0000      -0.295783        -8.0487
  18   2.0000      -0.286883        -7.8065
  19   2.0000      -0.160882        -4.3778
  20   0.0000      -0.003652        -0.0994
  21   0.0000       0.015719         0.4277
  22   0.0000       0.032748         0.8911
  23   0.0000       0.040498         1.1020
  24   0.0000       0.049620         1.3502

MULLIKEN ATOMIC CHARGES
-----------------------
   0 C :   -0.163611
   1 C :    0.615528
   2 C :    0.063618
   3 N :    0.120772
   4 C :    0.428132
   5 H :   -0.098506
   6 H :   -0.466414
   7 H :   -0.105173
   8 H :   -0.207253
   9 H :   -0.105960
  10 H :    0.061153
  11 H :   -0.061965
  12 H :   -0.010997
  13 H :   -0.069326
Sum of atomic charges:   -0.0000000

LOEWDIN ATOMIC CHARGES
----------------------
   0 C :   -0.035020
   1 C :    0.135951
   2 C :   -0.273127
   3 N :    0.182124
   4 C :    0.169437
   5 H :   -0.073410
   6 H :   -0.081467
   7 H :   -0.003091
   8 H :    0.000821
   9 H :    0.012162
  10 H :    0.025000
  11 H :   -0.019203
  12 H :   -0.021284
  13 H :   -0.018893

  Mayer bond orders larger than 0.100000
B(  0-C ,  1-C ) :   1.3156 B(  0-C ,  2-C ) :   1.1099 B(  0-C ,  3-N ) :   0.1397
B(  0-C ,  4-C ) :   0.1917 B(  0-C ,  9-H ) :   0.8409 B(  0-C , 10-H ) :   0.8329
B(  0-C , 11-H ) :   0.1973 B(  0-C , 12-H ) :   0.1635 B(  0-C , 13-H ) :   0.2020
B(  1-C ,  9-H ) :   0.1108 B(  1-C , 11-H ) :   0.8421 B(  1-C , 12-H ) :   0.8080
B(  1-C , 13-H ) :   0.8360 B(  2-C ,  3-N ) :   1.1164 B(  2-C ,  4-C ) :   1.6847
B(  2-C ,  5-H ) :   0.1484 B(  2-C ,  6-H ) :   0.2221 B(  2-C ,  8-H ) :  -0.1377
B(  2-C ,  9-H ) :   0.1497 B(  2-C , 10-H ) :   0.1192 B(  3-N ,  4-C ) :   0.3021
B(  3-N ,  7-H ) :   1.1082 B(  3-N ,  8-H ) :   1.3004 B(  4-C ,  5-H ) :   0.7831
B(  4-C ,  6-H ) :   0.7100 B(  7-H ,  8-H ) :  -0.1644

Dispersion correction           -0.010489846
FINAL SINGLE POINT ENERGY      -212.139269651494

DIPOLE MOMENT
-------------
                                X             Y             Z
Electronic contribution:     -1.70840       0.58769      -2.43757
Nuclear contribution   :      1.40335       0.04939       2.56207
                        -----------------------------------------
Total Dipole Moment    :     -0.30505       0.63708       0.12451
                        -----------------------------------------
Magnitude (a.u.)       :      0.71724
Magnitude (Debye)      :      1.82308

Rotational constants in cm-1:     0.271383     0.128194     0.101873
Rotational constants in MHz :  8135.853259  3843.152748  3054.074278

                             ****ORCA TERMINATED NORMALLY****
TOTAL RUN TIME: 0 days 0 hours 0 minutes 11 seconds 304 msec
