                         Program Version 5.0.0 -  RELEASE  -
|  1> !PBE D3BJ RIJCOSX def2-SVPD def2/J TightSCF
|  2> *xyz 0 1
|  3> C          0.84888        2.66797       -4.30235
|  4> C          2.09343        1.86104       -4.65684
|  5> H          2.44481        2.04157       -5.67499
|  6> H          2.90175        2.13786       -3.98034
|  7> S          1.87964        0.07859       -4.46297
|  8> O          3.20757       -0.46611       -4.42026
|  9> O          1.07506       -0.05616       -3.26876
| 10> F          1.13166       -0.31996       -5.67903
| 11> H          0.05064        2.40112       -4.96303
| 12> H          1.06043        3.71210       -4.40203
| 13> H          0.56237        2.45684       -3.29327
| 14> *
| 15>
| 16> %MaxCore 64000
| 17>
| 18> %pal nprocs 4
| 19> end
| 20>
| 21> %scf
| 22>   MaxIter 150
| 23> end
| 24>
| 25>
| 26>                          ****END OF INPUT****

CARTESIAN COORDINATES (ANGSTROEM)
---------------------------------
  C      0.848880    2.667970   -4.302350
  C      2.093430    1.861040   -4.656840
  H      2.444810    2.041570   -5.674990
  H      2.901750    2.137860   -3.980340
  S      1.879640    0.078590   -4.462970
  O      3.207570   -0.466110   -4.420260
  O      1.075060   -0.056160   -3.268760
  F      1.131660   -0.319960   -5.679030
  H      0.050640    2.401120   -4.963030
  H      1.060430    3.712100   -4.402030
  H      0.562370    2.456840   -3.293270

 Total Charge           Charge          ....    0
 Multiplicity           Mult            ....    1
 Number of Electrons    NEL             ....   58
 Basis Dimension        Dim             ....  176

ORBITAL ENERGIES
----------------

  NO   OCC          E(Eh)            E(eV)
   0   2.0000     -88.307337     -2402.9648
   1   2.0000     -24.369794      -663.1358
   2   2.0000     -18.781090      -511.0594
   3   2.0000     -18.777976      -510.9747
   4   2.0000      -9.954300      -270.8703
   5   2.0000      -9.914058      -269.7752
   6   2.0000      -7.912838      -215.3193
   7   2.0000      -5.943858      -161.7406
   8   2.0000      -5.937818      -161.5762
   9   2.0000      -5.936153      -161.5309
  10   2.0000      -1.239782       -33.7362
  11   2.0000      -1.030441       -28.0397
  12   2.0000      -0.940071       -25.5806
  13   2.0000      -0.745332       -20.2815
  14   2.0000      -0.654687       -17.8149
  15   2.0000      -0.606601       -16.5065
  16   2.0000      -0.520937       -14.1754
  17   2.0000      -0.501108       -13.6358
  18   2.0000      -0.491610       -13.3774
  19   2.0000      -0.445255       -12.1160
  20   2.0000      -0.428810       -11.6685
  21   2.0000      -0.408751       -11.1227
  22   2.0000      -0.388221       -10.5640
  23   2.0000      -0.361463        -9.8359
  24   2.0000      -0.357565        -9.7298
  25   2.0000      -0.338436        -9.2093
  26   2.0000      -0.297965        -8.1080
  27   2.0000      -0.290791        -7.9128
  28   2.0000      -0.277691        -7.5564
  29   0.0000      -0.030473        -0.8292
  30   0.0000       0.002103         0.0572
  31   0.0000       0.013761         0.3745
  32   0.0000       0.021777         0.5926
  33   0.0000       0.025426         0.6919

MULLIKEN ATOMIC CHARGES
-----------------------
   0 C :    0.803709
   1 C :   -0.374047
   2 H :   -0.037705
   3 H :    0.017816
   4 S :    1.377499
   5 O :   -0.602295
   6 O :   -0.627953
   7 F :   -0.383452
   8 H :   -0.060517
   9 H :   -0.100243
  10 H :   -0.012810
Sum of atomic charges:    0.0000000

LOEWDIN ATOMIC CHARGES
----------------------
   0 C :    0.126994
   1 C :   -0.095390
   2 H :    0.021525
   3 H :    0.028727
   4 S :    1.069274
   5 O :   -0.435135
   6 O :   -0.436570
   7 F :   -0.257897
   8 H :   -0.005727
   9 H :   -0.006156
  10 H :   -0.009644

  Mayer bond orders larger than 0.100000
B(  0-C ,  1-C ) :   1.3665 B(  0-C ,  8-H ) :   0.7997 B(  0-C ,  9-H ) :   0.7454
B(  0-C , 10-H ) :   0.8112 B(  1-C ,  2-H ) :   0.9721 B(  1-C ,  3-H ) :   0.9701
B(  1-C ,  4-S ) :   0.9659 B(  1-C ,  8-H ) :   0.1923 B(  1-C ,  9-H ) :   0.2176
B(  1-C , 10-H ) :   0.2081 B(  4-S ,  5-O ) :   1.5763 B(  4-S ,  6-O ) :   1.5482
B(  4-S ,  7-F ) :   0.6655 B(  5-O ,  6-O ) :   0.1115

Dispersion correction           -0.009255166
FINAL SINGLE POINT ENERGY      -726.775627040919

DIPOLE MOMENT
-------------
                                X             Y             Z
Electronic contribution:      0.65743      -9.09987      -2.00882
Nuclear contribution   :     -0.92438      10.38956       1.27076
                        -----------------------------------------
Total Dipole Moment    :     -0.26695       1.28969      -0.73806
                        -----------------------------------------
Magnitude (a.u.)       :      1.50973
Magnitude (Debye)      :      3.83743

Rotational constants in cm-1:     0.154243     0.082247     0.080562
Rotational constants in MHz :  4624.087322  2465.703680  2415.175852

                             ****ORCA TERMINATED NORMALLY****
TOTAL RUN TIME: 0 days 0 hours 0 minutes 9 seconds 676 msec
