                         Program Version 5.0.0 -  RELEASE  -
|  1> !PBE D3BJ RIJCOSX def2-SVPD def2/J TightSCF xyzfile
|  2>
|  3> *xyzfile 0 1 D2.xyz
|  4>
|  5> %MaxCore 64000
|  6>
|  7> %pal nprocs 4
|  8> end
|  9>
| 10> %scf
| 11>   MaxIter 150
| 12> end
| 13>
| 14>
| 15>                          ****END OF INPUT****

CARTESIAN COORDINATES (ANGSTROEM)
---------------------------------
  C     -0.461293    2.234686   -4.989619
  C      0.848883    2.667967   -4.302351
  C      2.093434    1.861037   -4.656845
  H      2.444814    2.041567   -5.674990
  H      2.901748    2.137864   -3.980338
  S      1.879644    0.078594   -4.462965
  C     -0.423841    2.398772   -6.474317
  N     -0.959467    3.492647   -7.007401
  C      0.145585    1.486891   -7.203987
  H      0.565371    0.696807   -6.723858
  H      0.220682    1.581768   -8.207520
  H     -1.406243    4.181507   -6.403261
  H     -0.934215    3.681601   -7.999468
  F      3.207574   -0.466111   -4.420259
  O      1.075064   -0.056160   -3.268758
  O      1.131661   -0.319960   -5.679031
  H      0.668432    2.559427   -3.232850
  H      1.034074    3.729426   -4.497081
  H     -1.288884    2.826737   -4.594997
  H     -0.651696    1.186343   -4.756552

 Total Charge           Charge          ....    0
 Multiplicity           Mult            ....    1
 Number of Electrons    NEL             ....   88
 Basis Dimension        Dim             ....  296

ORBITAL ENERGIES
----------------

  NO   OCC          E(Eh)            E(eV)
   0   2.0000     -88.311882     -2403.0885
   1   2.0000     -24.392025      -663.7407
   2   2.0000     -18.778787      -510.9968
   3   2.0000     -18.769224      -510.7366
   4   2.0000     -13.998205      -380.9105
   5   2.0000      -9.949978      -270.7527
   6   2.0000      -9.922888      -270.0155
   7   2.0000      -9.902985      -269.4739
   8   2.0000      -9.898354      -269.3479
   9   2.0000      -9.806510      -266.8487
  10   2.0000      -7.916502      -215.4190
  11   2.0000      -5.947788      -161.8475
  12   2.0000      -5.941565      -161.6782
  13   2.0000      -5.939466      -161.6211
  14   2.0000      -1.277033       -34.7498
  15   2.0000      -1.021887       -27.8070
  16   2.0000      -0.924211       -25.1491
  17   2.0000      -0.833858       -22.6904
  18   2.0000      -0.750930       -20.4338
  19   2.0000      -0.695049       -18.9132
  20   2.0000      -0.655516       -17.8375
  21   2.0000      -0.631021       -17.1710
  22   2.0000      -0.576096       -15.6764
  23   2.0000      -0.531773       -14.4703
  24   2.0000      -0.526098       -14.3158
  25   2.0000      -0.505454       -13.7541
  26   2.0000      -0.504993       -13.7416
  27   2.0000      -0.464049       -12.6274
  28   2.0000      -0.445840       -12.1319
  29   2.0000      -0.436559       -11.8794
  30   2.0000      -0.423909       -11.5352
  31   2.0000      -0.408958       -11.1283
  32   2.0000      -0.394161       -10.7257
  33   2.0000      -0.360207        -9.8017
  34   2.0000      -0.356730        -9.7071
  35   2.0000      -0.343949        -9.3593
  36   2.0000      -0.327716        -8.9176
  37   2.0000      -0.318871        -8.6769
  38   2.0000      -0.296658        -8.0725
  39   2.0000      -0.294787        -8.0216
  40   2.0000      -0.281060        -7.6480
  41   2.0000      -0.270002        -7.3471
  42   2.0000      -0.252087        -6.8596
  43   2.0000      -0.154676        -4.2090
  44   0.0000      -0.026964        -0.7337
  45   0.0000      -0.009682        -0.2635
  46   0.0000       0.006244         0.1699
  47   0.0000       0.012075         0.3286
  48   0.0000       0.019508         0.5308

MULLIKEN ATOMIC CHARGES
-----------------------
   0 C :    0.326078
   1 C :    0.160122
   2 C :    0.062943
   3 H :    0.228329
   4 H :   -0.171098
   5 S :    1.437093
   6 C :    0.164674
   7 N :    0.046833
   8 C :    0.766072
   9 H :    0.002714
  10 H :   -0.727354
  11 H :   -0.131872
  12 H :   -0.226117
  13 F :   -0.417286
  14 O :   -0.637529
  15 O :   -0.763330
  16 H :    0.160168
  17 H :   -0.213928
  18 H :   -0.207638
  19 H :    0.141125
Sum of atomic charges:   -0.0000000

LOEWDIN ATOMIC CHARGES
----------------------
   0 C :    0.027992
   1 C :   -0.011303
   2 C :   -0.047317
   3 H :    0.022072
   4 H :    0.014328
   5 S :    1.117190
   6 C :   -0.241698
   7 N :    0.177496
   8 C :    0.200260
   9 H :   -0.185010
  10 H :   -0.070818
  11 H :   -0.007466
  12 H :   -0.000314
  13 F :   -0.232451
  14 O :   -0.430527
  15 O :   -0.435984
  16 H :    0.026046
  17 H :    0.036550
  18 H :    0.021354
  19 H :    0.019600

  Mayer bond orders larger than 0.100000
B(  0-C ,  1-C ) :   1.2059 B(  0-C ,  6-C ) :   1.0769 B(  0-C ,  7-N ) :   0.1399
B(  0-C ,  8-C ) :   0.2296 B(  0-C , 16-H ) :   0.1322 B(  0-C , 18-H ) :   0.7261
B(  0-C , 19-H ) :   0.8180 B(  1-C ,  2-C ) :   1.4092 B(  1-C ,  3-H ) :   0.1271
B(  1-C ,  4-H ) :   0.2218 B(  1-C , 16-H ) :   0.7332 B(  1-C , 17-H ) :   0.8579
B(  1-C , 18-H ) :   0.1742 B(  1-C , 19-H ) :   0.1525 B(  2-C ,  3-H ) :   0.8328
B(  2-C ,  4-H ) :   0.7998 B(  2-C ,  5-S ) :   0.9311 B(  2-C ,  9-H ) :   0.1085
B(  2-C , 15-O ) :   0.1746 B(  2-C , 16-H ) :   0.1339 B(  2-C , 17-H ) :   0.1131
B(  4-H ,  9-H ) :  -0.1202 B(  5-S , 13-F ) :   0.6860 B(  5-S , 14-O ) :   1.5243
B(  5-S , 15-O ) :   1.4310 B(  6-C ,  7-N ) :   0.9718 B(  6-C ,  8-C ) :   1.7394
B(  6-C ,  9-H ) :   0.2922 B(  6-C , 10-H ) :   0.2429 B(  6-C , 12-H ) :  -0.1406
B(  6-C , 18-H ) :   0.1642 B(  7-N ,  8-C ) :   0.3557 B(  7-N , 11-H ) :   1.1762
B(  7-N , 12-H ) :   1.3640 B(  8-C ,  9-H ) :   0.5845 B(  8-C , 10-H ) :   0.7473
B(  9-H , 10-H ) :  -0.2995 B(  9-H , 15-O ) :   0.1038 B( 11-H , 12-H ) :  -0.1618

Dispersion correction           -0.022957798
FINAL SINGLE POINT ENERGY      -898.463146720269

DIPOLE MOMENT
-------------
                                X             Y             Z
Electronic contribution:      9.17313     -12.43779       5.35567
Nuclear contribution   :     -8.42493      13.96425      -5.19491
                        -----------------------------------------
Total Dipole Moment    :      0.74820       1.52647       0.16076
                        -----------------------------------------
Magnitude (a.u.)       :      1.70756
Magnitude (Debye)      :      4.34026

Rotational constants in cm-1:     0.082815     0.024151     0.022015
Rotational constants in MHz :  2482.732265   724.035221   660.002136

                             ****ORCA TERMINATED NORMALLY****
TOTAL RUN TIME: 0 days 0 hours 0 minutes 20 seconds 74 msec
