                         Program Version 5.0.0 -  RELEASE  -
|  1> !PBE D3BJ RIJCOSX def2-SVPD def2/J TightSCF xyzfile
|  2>
|  3> *xyzfile 0 1 D3.xyz
|  4>
|  5> %MaxCore 64000
|  6>
|  7> %pal nprocs 4
|  8> end
|  9>
| 10> %scf
| 11>   MaxIter 150
| 12> end
| 13>
| 14>
| 15>                          ****END OF INPUT****

CARTESIAN COORDINATES (ANGSTROEM)
---------------------------------
  C     -0.461293    2.234686   -4.989619
  C      0.848883    2.667967   -4.302351
  C      2.093434    1.861037   -4.656845
  H      2.444814    2.041567   -5.674990
  H      2.901748    2.137864   -3.980338
  S      1.879644    0.078594   -4.462965
  C     -0.423841    2.398772   -6.474317
  C     -0.959467    3.492647   -7.007401
  N      0.145585    1.486891   -7.203987
  H      0.565371    0.696807   -6.723858
  H      0.220682    1.581768   -8.207520
  H     -1.406243    4.181507   -6.403261
  H     -0.934215    3.681601   -7.999468
  O      3.207574   -0.466111   -4.420259
  F      1.075064   -0.056160   -3.268758
  O      1.131661   -0.319960   -5.679031
  H      0.668432    2.559427   -3.232850
  H      1.034074    3.729426   -4.497081
  H     -1.288884    2.826737   -4.594997
  H     -0.651696    1.186343   -4.756552

 Total Charge           Charge          ....    0
 Multiplicity           Mult            ....    1
 Number of Electrons    NEL             ....   88
 Basis Dimension        Dim             ....  296

ORBITAL ENERGIES
----------------

  NO   OCC          E(Eh)            E(eV)
   0   2.0000     -88.329349     -2403.5638
   1   2.0000     -24.402553      -664.0272
   2   2.0000     -18.797428      -511.5040
   3   2.0000     -18.790608      -511.3184
   4   2.0000     -13.980086      -380.4175
   5   2.0000      -9.960761      -271.0461
   6   2.0000      -9.930330      -270.2180
   7   2.0000      -9.909974      -269.6641
   8   2.0000      -9.907779      -269.6044
   9   2.0000      -9.826100      -267.3818
  10   2.0000      -7.933880      -215.8919
  11   2.0000      -5.965205      -162.3215
  12   2.0000      -5.958962      -162.1516
  13   2.0000      -5.956815      -162.0932
  14   2.0000      -1.284215       -34.9453
  15   2.0000      -1.042265       -28.3615
  16   2.0000      -0.947301       -25.7774
  17   2.0000      -0.837805       -22.7978
  18   2.0000      -0.764033       -20.7904
  19   2.0000      -0.696559       -18.9543
  20   2.0000      -0.668630       -18.1943
  21   2.0000      -0.629041       -17.1171
  22   2.0000      -0.584818       -15.9137
  23   2.0000      -0.546065       -14.8592
  24   2.0000      -0.542071       -14.7505
  25   2.0000      -0.518143       -14.0994
  26   2.0000      -0.506840       -13.7918
  27   2.0000      -0.468182       -12.7399
  28   2.0000      -0.451816       -12.2945
  29   2.0000      -0.444368       -12.0919
  30   2.0000      -0.427436       -11.6311
  31   2.0000      -0.413866       -11.2619
  32   2.0000      -0.407612       -11.0917
  33   2.0000      -0.375187       -10.2093
  34   2.0000      -0.360621        -9.8130
  35   2.0000      -0.355974        -9.6865
  36   2.0000      -0.338976        -9.2240
  37   2.0000      -0.336177        -9.1479
  38   2.0000      -0.305089        -8.3019
  39   2.0000      -0.304664        -8.2903
  40   2.0000      -0.298236        -8.1154
  41   2.0000      -0.287592        -7.8258
  42   2.0000      -0.280144        -7.6231
  43   2.0000      -0.152616        -4.1529
  44   0.0000      -0.043604        -1.1865
  45   0.0000      -0.005381        -0.1464
  46   0.0000       0.002517         0.0685
  47   0.0000       0.004071         0.1108
  48   0.0000       0.015522         0.4224

MULLIKEN ATOMIC CHARGES
-----------------------
   0 C :    0.479152
   1 C :    0.146778
   2 C :    0.123056
   3 H :    0.152559
   4 H :   -0.151338
   5 S :    1.410178
   6 C :   -0.083156
   7 C :    0.338649
   8 N :    0.650876
   9 H :   -0.376450
  10 H :   -0.249673
  11 H :   -0.092767
  12 H :   -0.456375
  13 O :   -0.609944
  14 F :   -0.381114
  15 O :   -0.770298
  16 H :    0.156388
  17 H :   -0.208641
  18 H :   -0.014223
  19 H :   -0.063657
Sum of atomic charges:   -0.0000000

LOEWDIN ATOMIC CHARGES
----------------------
   0 C :    0.020232
   1 C :   -0.022874
   2 C :   -0.034454
   3 H :    0.035792
   4 H :    0.020301
   5 S :    1.117082
   6 C :   -0.254837
   7 C :    0.173427
   8 N :    0.215059
   9 H :   -0.137976
  10 H :    0.017209
  11 H :   -0.086804
  12 H :   -0.090363
  13 O :   -0.415297
  14 F :   -0.226758
  15 O :   -0.428317
  16 H :    0.021581
  17 H :    0.038280
  18 H :    0.031016
  19 H :    0.007702

  Mayer bond orders larger than 0.100000
B(  0-C ,  1-C ) :   1.1872 B(  0-C ,  6-C ) :   1.1484 B(  0-C ,  8-N ) :   0.1433
B(  0-C , 16-H ) :   0.1485 B(  0-C , 17-H ) :   0.1113 B(  0-C , 18-H ) :   0.7179
B(  0-C , 19-H ) :   0.6801 B(  1-C ,  2-C ) :   1.3709 B(  1-C ,  3-H ) :   0.1349
B(  1-C ,  4-H ) :   0.2088 B(  1-C , 16-H ) :   0.7464 B(  1-C , 17-H ) :   0.8836
B(  1-C , 18-H ) :   0.1558 B(  1-C , 19-H ) :   0.1602 B(  2-C ,  3-H ) :   0.8523
B(  2-C ,  4-H ) :   0.8309 B(  2-C ,  5-S ) :   0.9506 B(  2-C , 15-O ) :   0.1264
B(  2-C , 16-H ) :   0.1334 B(  2-C , 17-H ) :   0.1106 B(  5-S , 13-O ) :   1.5914
B(  5-S , 14-F ) :   0.6962 B(  5-S , 15-O ) :   1.4154 B(  6-C ,  7-C ) :   1.5029
B(  6-C ,  8-N ) :   1.1806 B(  6-C , 10-H ) :  -0.1362 B(  6-C , 12-H ) :   0.1854
B(  6-C , 18-H ) :   0.1685 B(  6-C , 19-H ) :   0.1900 B(  7-C ,  8-N ) :   0.2347
B(  7-C , 11-H ) :   0.9210 B(  7-C , 12-H ) :   0.6468 B(  8-N ,  9-H ) :   0.9257
B(  8-N , 10-H ) :   1.2470 B(  9-H , 10-H ) :  -0.2288 B(  9-H , 15-O ) :   0.1470

Dispersion correction           -0.022695350
FINAL SINGLE POINT ENERGY      -898.486831286936

DIPOLE MOMENT
-------------
                                X             Y             Z
Electronic contribution:      6.47172     -13.18871       7.31277
Nuclear contribution   :     -6.19944      13.70770      -6.43483
                        -----------------------------------------
Total Dipole Moment    :      0.27229       0.51898       0.87794
                        -----------------------------------------
Magnitude (a.u.)       :      1.05558
Magnitude (Debye)      :      2.68308

Rotational constants in cm-1:     0.079903     0.025241     0.022805
Rotational constants in MHz :  2395.439281   756.708181   683.680583

                             ****ORCA TERMINATED NORMALLY****
TOTAL RUN TIME: 0 days 0 hours 0 minutes 21 seconds 355 msec
