                         Program Version 5.0.0 -  RELEASE  -
|  1> !PBE D3BJ RIJCOSX def2-SVPD def2/J TightSCF xyzfile
|  2>
|  3> *xyzfile 0 1 D6.xyz
|  4>
|  5> %MaxCore 64000
|  6>
|  7> %pal nprocs 4
|  8> end
|  9>
| 10> %scf
| 11>   MaxIter 150
| 12> end
| 13>
| 14>
| 15>                          ****END OF INPUT****

CARTESIAN COORDINATES (ANGSTROEM)
---------------------------------
  C     -0.461293    2.234686   -4.989619
  C      0.848883    2.667967   -4.302351
  C      2.093434    1.861037   -4.656845
  H      2.444814    2.041567   -5.674990
  H      2.901748    2.137864   -3.980338
  S      1.879644    0.078594   -4.462965
  C     -0.423841    2.398772   -6.474317
  N     -0.959467    3.492647   -7.007401
  C      0.145585    1.486891   -7.203987
  H      0.565371    0.696807   -6.723858
  H      0.220682    1.581768   -8.207520
  H     -1.406243    4.181507   -6.403261
  H     -0.934215    3.681601   -7.999468
  O      3.207574   -0.466111   -4.420259
  O      1.075064   -0.056160   -3.268758
  F      1.131661   -0.319960   -5.679031
  H      0.668432    2.559427   -3.232850
  H      1.034074    3.729426   -4.497081
  H     -1.288884    2.826737   -4.594997
  H     -0.651696    1.186343   -4.756552

 Total Charge           Charge          ....    0
 Multiplicity           Mult            ....    1
 Number of Electrons    NEL             ....   88
 Basis Dimension        Dim             ....  296

ORBITAL ENERGIES
----------------

  NO   OCC          E(Eh)            E(eV)
   0   2.0000     -88.307123     -2402.9590
   1   2.0000     -24.370049      -663.1428
   2   2.0000     -18.779443      -511.0146
   3   2.0000     -18.776703      -510.9401
   4   2.0000     -14.013365      -381.3231
   5   2.0000      -9.947364      -270.6815
   6   2.0000      -9.924216      -270.0517
   7   2.0000      -9.921659      -269.9821
   8   2.0000      -9.911693      -269.7109
   9   2.0000      -9.831032      -267.5160
  10   2.0000      -7.911776      -215.2904
  11   2.0000      -5.942978      -161.7167
  12   2.0000      -5.936761      -161.5475
  13   2.0000      -5.935030      -161.5004
  14   2.0000      -1.244036       -33.8519
  15   2.0000      -1.029561       -28.0158
  16   2.0000      -0.938478       -25.5373
  17   2.0000      -0.849346       -23.1119
  18   2.0000      -0.754922       -20.5425
  19   2.0000      -0.698154       -18.9977
  20   2.0000      -0.652521       -17.7560
  21   2.0000      -0.646186       -17.5836
  22   2.0000      -0.577186       -15.7060
  23   2.0000      -0.541610       -14.7380
  24   2.0000      -0.505762       -13.7625
  25   2.0000      -0.501370       -13.6430
  26   2.0000      -0.494475       -13.4554
  27   2.0000      -0.481082       -13.0909
  28   2.0000      -0.449535       -12.2325
  29   2.0000      -0.438481       -11.9317
  30   2.0000      -0.422330       -11.4922
  31   2.0000      -0.409624       -11.1464
  32   2.0000      -0.401947       -10.9375
  33   2.0000      -0.366988        -9.9863
  34   2.0000      -0.359693        -9.7878
  35   2.0000      -0.351391        -9.5618
  36   2.0000      -0.337241        -9.1768
  37   2.0000      -0.328751        -8.9458
  38   2.0000      -0.304812        -8.2944
  39   2.0000      -0.300173        -8.1681
  40   2.0000      -0.294421        -8.0116
  41   2.0000      -0.285503        -7.7689
  42   2.0000      -0.276043        -7.5115
  43   2.0000      -0.173205        -4.7132
  44   0.0000      -0.023661        -0.6438
  45   0.0000      -0.009769        -0.2658
  46   0.0000      -0.001601        -0.0436
  47   0.0000       0.010690         0.2909
  48   0.0000       0.017437         0.4745

MULLIKEN ATOMIC CHARGES
-----------------------
   0 C :    0.309066
   1 C :    0.201084
   2 C :    0.123488
   3 H :    0.231167
   4 H :   -0.200939
   5 S :    1.334239
   6 C :    0.227925
   7 N :    0.052330
   8 C :    0.846212
   9 H :   -0.067008
  10 H :   -0.724617
  11 H :   -0.125275
  12 H :   -0.224986
  13 O :   -0.635679
  14 O :   -0.661234
  15 F :   -0.540251
  16 H :    0.165389
  17 H :   -0.208505
  18 H :   -0.205311
  19 H :    0.102903
Sum of atomic charges:    0.0000000

LOEWDIN ATOMIC CHARGES
----------------------
   0 C :    0.024310
   1 C :   -0.019743
   2 C :   -0.039796
   3 H :    0.020807
   4 H :    0.028254
   5 S :    1.083853
   6 C :   -0.240609
   7 N :    0.185482
   8 C :    0.197161
   9 H :   -0.150543
  10 H :   -0.068966
  11 H :   -0.001809
  12 H :    0.003523
  13 O :   -0.425919
  14 O :   -0.429388
  15 F :   -0.267444
  16 H :    0.027254
  17 H :    0.033782
  18 H :    0.023614
  19 H :    0.016176

  Mayer bond orders larger than 0.100000
B(  0-C ,  1-C ) :   1.2085 B(  0-C ,  6-C ) :   1.0707 B(  0-C ,  7-N ) :   0.1400
B(  0-C ,  8-C ) :   0.2007 B(  0-C , 16-H ) :   0.1288 B(  0-C , 17-H ) :   0.1022
B(  0-C , 18-H ) :   0.7422 B(  0-C , 19-H ) :   0.8304 B(  1-C ,  2-C ) :   1.3820
B(  1-C ,  3-H ) :   0.1336 B(  1-C ,  4-H ) :   0.1949 B(  1-C , 16-H ) :   0.7331
B(  1-C , 17-H ) :   0.8463 B(  1-C , 18-H ) :   0.1705 B(  1-C , 19-H ) :   0.1522
B(  2-C ,  3-H ) :   0.8307 B(  2-C ,  4-H ) :   0.8308 B(  2-C ,  5-S ) :   0.9726
B(  2-C , 15-F ) :   0.1356 B(  2-C , 16-H ) :   0.1419 B(  4-H ,  9-H ) :  -0.1362
B(  5-S , 13-O ) :   1.5594 B(  5-S , 14-O ) :   1.5383 B(  5-S , 15-F ) :   0.7106
B(  6-C ,  7-N ) :   0.9839 B(  6-C ,  8-C ) :   1.7170 B(  6-C ,  9-H ) :   0.3108
B(  6-C , 10-H ) :   0.2605 B(  6-C , 12-H ) :  -0.1422 B(  6-C , 18-H ) :   0.1646
B(  7-N ,  8-C ) :   0.3411 B(  7-N , 11-H ) :   1.1689 B(  7-N , 12-H ) :   1.3631
B(  8-C ,  9-H ) :   0.4758 B(  8-C , 10-H ) :   0.7393 B(  9-H , 10-H ) :  -0.3298
B( 11-H , 12-H ) :  -0.1624 B( 13-O , 14-O ) :   0.1121

Dispersion correction           -0.022716284
FINAL SINGLE POINT ENERGY      -898.481648183939

DIPOLE MOMENT
-------------
                                X             Y             Z
Electronic contribution:      5.53423     -11.98060       3.18346
Nuclear contribution   :     -6.15577      13.80449      -3.81895
                        -----------------------------------------
Total Dipole Moment    :     -0.62154       1.82389      -0.63550
                        -----------------------------------------
Magnitude (a.u.)       :      2.02898
Magnitude (Debye)      :      5.15725

Rotational constants in cm-1:     0.081431     0.024887     0.022470
Rotational constants in MHz :  2441.231544   746.086417   673.646914

                             ****ORCA TERMINATED NORMALLY****
TOTAL RUN TIME: 0 days 0 hours 0 minutes 21 seconds 720 msec
