                         Program Version 5.0.0 -  RELEASE  -
|  1> !B3LYP D3BJ RIJCOSX def2-SVP def2/J TightSCF
|  2> *xyz -1 1
|  3> C         -0.87096        0.24804       -2.66280
|  4> C         -0.47749        0.60819       -4.10105
|  5> H          0.20677        1.45830       -4.11875
|  6> H         -1.36844        0.92942       -4.64785
|  7> C          0.18467       -0.50664       -4.91676
|  8> O         -0.15869       -1.70109       -4.65798
|  9> O          1.05594       -0.17441       -5.74037
| 10> H         -1.54056       -0.58646       -2.67455
| 11> H         -1.35339        1.08600       -2.20455
| 12> H          0.00660       -0.00662       -2.10609
| 13> *
| 14>
| 15> %MaxCore 64000
| 16>
| 17> %pal nprocs 4
| 18> end
| 19>
| 20> %scf
| 21>   MaxIter 150
| 22> end
| 23>
| 24>
| 25>                          ****END OF INPUT****

CARTESIAN COORDINATES (ANGSTROEM)
---------------------------------
  C     -0.870960    0.248040   -2.662800
  C     -0.477490    0.608190   -4.101050
  H      0.206770    1.458300   -4.118750
  H     -1.368440    0.929420   -4.647850
  C      0.184670   -0.506640   -4.916760
  O     -0.158690   -1.701090   -4.657980
  O      1.055940   -0.174410   -5.740370
  H     -1.540560   -0.586460   -2.674550
  H     -1.353390    1.086000   -2.204550
  H      0.006600   -0.006620   -2.106090

 Total Charge           Charge          ....   -1
 Multiplicity           Mult            ....    1
 Number of Electrons    NEL             ....   40
 Basis Dimension        Dim             ....   95

ORBITAL ENERGIES
----------------

  NO   OCC          E(Eh)            E(eV)
   0   2.0000     -18.831990      -512.4445
   1   2.0000     -18.829628      -512.3802
   2   2.0000     -10.033341      -273.0211
   3   2.0000     -10.009271      -272.3661
   4   2.0000      -9.990893      -271.8660
   5   2.0000      -0.772190       -21.0124
   6   2.0000      -0.677930       -18.4474
   7   2.0000      -0.580134       -15.7862
   8   2.0000      -0.452196       -12.3049
   9   2.0000      -0.293712        -7.9923
  10   2.0000      -0.277221        -7.5436
  11   2.0000      -0.235039        -6.3957
  12   2.0000      -0.205890        -5.6026
  13   2.0000      -0.195234        -5.3126
  14   2.0000      -0.179181        -4.8758
  15   2.0000      -0.148147        -4.0313
  16   2.0000      -0.132371        -3.6020
  17   2.0000      -0.010014        -0.2725
  18   2.0000      -0.007409        -0.2016
  19   2.0000       0.009645         0.2625
  20   0.0000       0.216646         5.8952
  21   0.0000       0.265417         7.2224
  22   0.0000       0.272646         7.4191
  23   0.0000       0.283005         7.7010
  24   0.0000       0.291634         7.9358

MULLIKEN ATOMIC CHARGES
-----------------------
   0 C :    0.072026
   1 C :    0.015907
   2 H :   -0.066763
   3 H :   -0.052915
   4 C :    0.014913
   5 O :   -0.444763
   6 O :   -0.412240
   7 H :   -0.023862
   8 H :   -0.072330
   9 H :   -0.029974
Sum of atomic charges:   -1.0000000

LOEWDIN ATOMIC CHARGES
----------------------
   0 C :   -0.057374
   1 C :   -0.088289
   2 H :   -0.006694
   3 H :    0.001939
   4 C :   -0.056288
   5 O :   -0.410598
   6 O :   -0.379879
   7 H :    0.005093
   8 H :   -0.013381
   9 H :    0.005471

  Mayer bond orders larger than 0.100000
B(  0-C ,  1-C ) :   1.0840 B(  0-C ,  7-H ) :   0.9556 B(  0-C ,  8-H ) :   0.9492
B(  0-C ,  9-H ) :   0.9719 B(  1-C ,  2-H ) :   0.9316 B(  1-C ,  3-H ) :   0.9282
B(  1-C ,  4-C ) :   0.9118 B(  4-C ,  5-O ) :   1.8344 B(  4-C ,  6-O ) :   1.8847
B(  5-O ,  6-O ) :   0.1186

Dispersion correction           -0.010902249
FINAL SINGLE POINT ENERGY      -267.479650752416

DIPOLE MOMENT
-------------
                                X             Y             Z
Electronic contribution:      2.73392      -3.08167      -4.73156
Nuclear contribution   :     -3.54611       4.15440       5.90446
                        -----------------------------------------
Total Dipole Moment    :     -0.81219       1.07274       1.17290
                        -----------------------------------------
Magnitude (a.u.)       :      1.78497
Magnitude (Debye)      :      4.53704

Rotational constants in cm-1:     0.332789     0.132085     0.101080
Rotational constants in MHz :  9976.755824  3959.803182  3030.288811

                             ****ORCA TERMINATED NORMALLY****
TOTAL RUN TIME: 0 days 0 hours 0 minutes 10 seconds 532 msec
