                         Program Version 5.0.0 -  RELEASE  -
|  1> !B3LYP D3BJ RIJCOSX def2-SVP def2/J TightSCF
|  2> *xyz 1 1
|  3> C          2.48645       -2.67712       -2.56345
|  4> C          3.03764       -2.36672       -3.92351
|  5> N          2.28036       -2.45441       -4.96769
|  6> N          4.32174       -2.01793       -4.01664
|  7> H          4.87994       -1.91167       -3.17382
|  8> H          4.71015       -1.67088       -4.88356
|  9> H          1.27042       -2.41265       -4.86614
| 10> H          2.58183       -2.05528       -5.84688
| 11> C          2.49799       -1.46946       -1.61030
| 12> H          1.47259       -3.05153       -2.69437
| 13> H          3.08320       -3.49064       -2.14147
| 14> H          1.91240       -0.67831       -2.02991
| 15> H          3.50450       -1.13364       -1.47227
| 16> H          2.08509       -1.75655       -0.66585
| 17> *
| 18>
| 19> %MaxCore 64000
| 20>
| 21> %pal nprocs 4
| 22> end
| 23>
| 24> %scf
| 25>   MaxIter 150
| 26> end
| 27>
| 28>
| 29>                          ****END OF INPUT****

CARTESIAN COORDINATES (ANGSTROEM)
---------------------------------
  C      2.486450   -2.677120   -2.563450
  C      3.037640   -2.366720   -3.923510
  N      2.280360   -2.454410   -4.967690
  N      4.321740   -2.017930   -4.016640
  H      4.879940   -1.911670   -3.173820
  H      4.710150   -1.670880   -4.883560
  H      1.270420   -2.412650   -4.866140
  H      2.581830   -2.055280   -5.846880
  C      2.497990   -1.469460   -1.610300
  H      1.472590   -3.051530   -2.694370
  H      3.083200   -3.490640   -2.141470
  H      1.912400   -0.678310   -2.029910
  H      3.504500   -1.133640   -1.472270
  H      2.085090   -1.756550   -0.665850

 Total Charge           Charge          ....    1
 Multiplicity           Mult            ....    1
 Number of Electrons    NEL             ....   40
 Basis Dimension        Dim             ....  115

ORBITAL ENERGIES
----------------

  NO   OCC          E(Eh)            E(eV)
   0   2.0000     -14.578574      -396.7032
   1   2.0000     -14.573045      -396.5527
   2   2.0000     -10.504991      -285.8553
   3   2.0000     -10.380556      -282.4693
   4   2.0000     -10.341819      -281.4152
   5   2.0000      -1.197887       -32.5962
   6   2.0000      -1.101334       -29.9688
   7   2.0000      -0.961178       -26.1550
   8   2.0000      -0.859882       -23.3986
   9   2.0000      -0.811682       -22.0870
  10   2.0000      -0.775205       -21.0944
  11   2.0000      -0.746644       -20.3172
  12   2.0000      -0.701994       -19.1022
  13   2.0000      -0.650383       -17.6978
  14   2.0000      -0.622264       -16.9327
  15   2.0000      -0.607530       -16.5317
  16   2.0000      -0.548319       -14.9205
  17   2.0000      -0.537814       -14.6347
  18   2.0000      -0.527970       -14.3668
  19   2.0000      -0.494880       -13.4664
  20   0.0000      -0.209273        -5.6946
  21   0.0000      -0.144860        -3.9418
  22   0.0000      -0.102972        -2.8020
  23   0.0000      -0.100879        -2.7450
  24   0.0000      -0.069997        -1.9047

MULLIKEN ATOMIC CHARGES
-----------------------
   0 C :    0.022167
   1 C :   -0.097650
   2 N :    0.069256
   3 N :    0.018312
   4 H :    0.177436
   5 H :    0.167397
   6 H :    0.181778
   7 H :    0.161976
   8 C :    0.035938
   9 H :    0.041107
  10 H :    0.085092
  11 H :    0.038754
  12 H :    0.027338
  13 H :    0.071097
Sum of atomic charges:    1.0000000

LOEWDIN ATOMIC CHARGES
----------------------
   0 C :   -0.025553
   1 C :    0.147399
   2 N :    0.113849
   3 N :    0.091664
   4 H :    0.118585
   5 H :    0.109260
   6 H :    0.123776
   7 H :    0.110829
   8 C :   -0.015950
   9 H :    0.047865
  10 H :    0.065431
  11 H :    0.034860
  12 H :    0.026211
  13 H :    0.051773

  Mayer bond orders larger than 0.100000
B(  0-C ,  1-C ) :   1.0295 B(  0-C ,  8-C ) :   1.0808 B(  0-C ,  9-H ) :   0.9216
B(  0-C , 10-H ) :   0.9160 B(  1-C ,  2-N ) :   1.5331 B(  1-C ,  3-N ) :   1.4974
B(  2-N ,  6-H ) :   0.9186 B(  2-N ,  7-H ) :   0.9315 B(  3-N ,  4-H ) :   0.9238
B(  3-N ,  5-H ) :   0.9308 B(  8-C , 11-H ) :   0.9697 B(  8-C , 12-H ) :   0.9709
B(  8-C , 13-H ) :   0.9601

Dispersion correction           -0.016681930
FINAL SINGLE POINT ENERGY      -228.731988516298

DIPOLE MOMENT
-------------
                                X             Y             Z
Electronic contribution:      1.07799      -1.05780      -3.96754
Nuclear contribution   :     -0.84604       1.34287       2.92710
                        -----------------------------------------
Total Dipole Moment    :      0.23195       0.28507      -1.04044
                        -----------------------------------------
Magnitude (a.u.)       :      1.10344
Magnitude (Debye)      :      2.80473

Rotational constants in cm-1:     0.265816     0.126189     0.097583
Rotational constants in MHz :  7968.948902  3783.040103  2925.457702

                             ****ORCA TERMINATED NORMALLY****
TOTAL RUN TIME: 0 days 0 hours 0 minutes 12 seconds 779 msec
