                         Program Version 5.0.0 -  RELEASE  -
|  1> !B3LYP D3BJ RIJCOSX def2-TZVP def2/J TightSCF xyzfile
|  2>
|  3> *xyzfile 0 1 B.xyz
|  4>
|  5> %MaxCore 64000
|  6>
|  7> %pal nprocs 18
|  8> end
|  9>
| 10> %scf
| 11>   MaxIter 150
| 12> end
| 13>
| 14>
| 15>                          ****END OF INPUT****

CARTESIAN COORDINATES (ANGSTROEM)
---------------------------------
  C      2.486452   -2.677121   -2.563447
  C     -0.870963    0.248043   -2.662804
  C     -0.477492    0.608191   -4.101052
  H      0.206773    1.458299   -4.118748
  H     -1.368442    0.929419   -4.647855
  C      0.184673   -0.506640   -4.916760
  C      3.037640   -2.366715   -3.923509
  N      2.280360   -2.454408   -4.967692
  N      4.321736   -2.017932   -4.016641
  H      4.879940   -1.911668   -3.173823
  H      4.710148   -1.670882   -4.883561
  H      1.270423   -2.412650   -4.866143
  H      2.581829   -2.055282   -5.846878
  O     -0.158685   -1.701088   -4.657981
  O      1.055938   -0.174410   -5.740373
  C      2.497991   -1.469464   -1.610303
  C      1.582841   -0.321986   -2.042619
  H      2.193083   -1.833912   -0.625420
  H      3.523356   -1.103982   -1.490392
  C      0.100160   -0.673551   -1.915815
  H      1.822311   -0.040361   -3.072834
  H      1.813180    0.557019   -1.433266
  H     -0.063284   -1.679120   -2.301112
  H     -0.168820   -0.691680   -0.853831
  H     -1.001048    1.181040   -2.104071
  H     -1.844645   -0.246592   -2.663281
  H      1.472592   -3.051527   -2.694366
  H      3.083201   -3.490638   -2.141472

 Total Charge           Charge          ....    0
 Multiplicity           Mult            ....    1
 Number of Electrons    NEL             ....   94
 Basis Dimension        Dim             ....  468

ORBITAL ENERGIES
----------------

  NO   OCC          E(Eh)            E(eV)
   0   2.0000     -19.033647      -517.9319
   1   2.0000     -19.026125      -517.7272
   2   2.0000     -14.396129      -391.7386
   3   2.0000     -14.359324      -390.7371
   4   2.0000     -10.315248      -280.6922
   5   2.0000     -10.215647      -277.9819
   6   2.0000     -10.212443      -277.8947
   7   2.0000     -10.194240      -277.3994
   8   2.0000     -10.163892      -276.5736
   9   2.0000     -10.145614      -276.0762
  10   2.0000     -10.140913      -275.9483
  11   2.0000     -10.128880      -275.6208
  12   2.0000      -1.030860       -28.0511
  13   2.0000      -0.996131       -27.1061
  14   2.0000      -0.933451       -25.4005
  15   2.0000      -0.902500       -24.5583
  16   2.0000      -0.829532       -22.5727
  17   2.0000      -0.775873       -21.1126
  18   2.0000      -0.731981       -19.9182
  19   2.0000      -0.677942       -18.4477
  20   2.0000      -0.658471       -17.9179
  21   2.0000      -0.615073       -16.7370
  22   2.0000      -0.606398       -16.5009
  23   2.0000      -0.578601       -15.7445
  24   2.0000      -0.555608       -15.1189
  25   2.0000      -0.523048       -14.2329
  26   2.0000      -0.497462       -13.5366
  27   2.0000      -0.478832       -13.0297
  28   2.0000      -0.456627       -12.4255
  29   2.0000      -0.450573       -12.2607
  30   2.0000      -0.443070       -12.0566
  31   2.0000      -0.421669       -11.4742
  32   2.0000      -0.411134       -11.1875
  33   2.0000      -0.407244       -11.0817
  34   2.0000      -0.389065       -10.5870
  35   2.0000      -0.379097       -10.3158
  36   2.0000      -0.366673        -9.9777
  37   2.0000      -0.356306        -9.6956
  38   2.0000      -0.351129        -9.5547
  39   2.0000      -0.334115        -9.0917
  40   2.0000      -0.322157        -8.7663
  41   2.0000      -0.314070        -8.5463
  42   2.0000      -0.305037        -8.3005
  43   2.0000      -0.296143        -8.0585
  44   2.0000      -0.224315        -6.1039
  45   2.0000      -0.211736        -5.7616
  46   2.0000      -0.199259        -5.4221
  47   0.0000      -0.042737        -1.1629
  48   0.0000      -0.015445        -0.4203
  49   0.0000       0.025808         0.7023
  50   0.0000       0.046703         1.2709
  51   0.0000       0.053862         1.4657

MULLIKEN ATOMIC CHARGES
-----------------------
   0 C :   -0.226807
   1 C :   -0.133798
   2 C :   -0.192774
   3 H :    0.087164
   4 H :    0.090435
   5 C :    0.266092
   6 C :    0.266589
   7 N :   -0.248440
   8 N :   -0.383061
   9 H :    0.254805
  10 H :    0.251619
  11 H :    0.277825
  12 H :    0.236356
  13 O :   -0.541982
  14 O :   -0.490170
  15 C :   -0.161132
  16 C :   -0.214160
  17 H :    0.101110
  18 H :    0.084225
  19 C :   -0.147891
  20 H :    0.131322
  21 H :    0.080100
  22 H :    0.104446
  23 H :    0.073247
  24 H :    0.072637
  25 H :    0.076455
  26 H :    0.152074
  27 H :    0.133713
Sum of atomic charges:   -0.0000000

LOEWDIN ATOMIC CHARGES
----------------------
   0 C :   -0.202673
   1 C :   -0.259866
   2 C :   -0.247533
   3 H :    0.135463
   4 H :    0.142272
   5 C :   -0.654051
   6 C :   -0.316850
   7 N :    0.150811
   8 N :    0.055831
   9 H :    0.186912
  10 H :    0.182376
  11 H :    0.160716
  12 H :    0.183122
  13 O :   -0.078569
  14 O :   -0.056564
  15 C :   -0.250414
  16 C :   -0.253694
  17 H :    0.142432
  18 H :    0.126274
  19 C :   -0.266913
  20 H :    0.146775
  21 H :    0.133474
  22 H :    0.136978
  23 H :    0.127390
  24 H :    0.127889
  25 H :    0.136157
  26 H :    0.159615
  27 H :    0.152640

  Mayer bond orders larger than 0.100000
B(  0-C ,  6-C ) :   0.9656 B(  0-C , 15-C ) :   0.9502 B(  0-C , 26-H ) :   0.9725
B(  0-C , 27-H ) :   0.9570 B(  1-C ,  2-C ) :   0.9548 B(  1-C , 19-C ) :   0.9826
B(  1-C , 24-H ) :   0.9659 B(  1-C , 25-H ) :   0.9598 B(  2-C ,  3-H ) :   0.9688
B(  2-C ,  4-H ) :   0.9477 B(  2-C ,  5-C ) :   0.9558 B(  5-C , 13-O ) :   1.6152
B(  5-C , 14-O ) :   1.8268 B(  6-C ,  7-N ) :   1.6122 B(  6-C ,  8-N ) :   1.2926
B(  7-N , 11-H ) :   0.7398 B(  7-N , 12-H ) :   0.8962 B(  8-N ,  9-H ) :   0.9059
B(  8-N , 10-H ) :   0.9070 B( 11-H , 13-O ) :   0.2458 B( 15-C , 16-C ) :   0.9456
B( 15-C , 17-H ) :   0.9582 B( 15-C , 18-H ) :   0.9753 B( 16-C , 19-C ) :   0.9399
B( 16-C , 20-H ) :   0.9772 B( 16-C , 21-H ) :   0.9588 B( 19-C , 22-H ) :   0.9700
B( 19-C , 23-H ) :   0.9548

Dispersion correction           -0.051342766
FINAL SINGLE POINT ENERGY      -574.387034654410

DIPOLE MOMENT
-------------
                                X             Y             Z
Electronic contribution:      1.71850      -2.91762      -8.85995
Nuclear contribution   :      1.39386       1.90489      10.36520
                        -----------------------------------------
Total Dipole Moment    :      3.11236      -1.01273       1.50525
                        -----------------------------------------
Magnitude (a.u.)       :      3.60252
Magnitude (Debye)      :      9.15689

Rotational constants in cm-1:     0.041165     0.025922     0.019001
Rotational constants in MHz :  1234.086888   777.109255   569.639629

                             ****ORCA TERMINATED NORMALLY****
TOTAL RUN TIME: 0 days 0 hours 1 minutes 1 seconds 626 msec
