                         Program Version 5.0.0 -  RELEASE  -
|  1> !B3LYP D3BJ RIJCOSX def2-SVP def2/J TightSCF
|  2> *xyz 0 1
|  3> C         -0.87096        0.24804       -2.66280
|  4> C         -0.47749        0.60819       -4.10105
|  5> H          0.20677        1.45830       -4.11875
|  6> H         -1.36844        0.92942       -4.64785
|  7> C          0.18467       -0.50664       -4.91676
|  8> F         -0.15869       -1.70109       -4.65798
|  9> O          1.05594       -0.17441       -5.74037
| 10> H         -1.54056       -0.58646       -2.67455
| 11> H         -1.35339        1.08600       -2.20455
| 12> H          0.00660       -0.00662       -2.10609
| 13> *
| 14>
| 15> %MaxCore 64000
| 16>
| 17> %pal nprocs 4
| 18> end
| 19>
| 20> %scf
| 21>   MaxIter 150
| 22> end
| 23>
| 24>
| 25>                          ****END OF INPUT****

CARTESIAN COORDINATES (ANGSTROEM)
---------------------------------
  C     -0.870960    0.248040   -2.662800
  C     -0.477490    0.608190   -4.101050
  H      0.206770    1.458300   -4.118750
  H     -1.368440    0.929420   -4.647850
  C      0.184670   -0.506640   -4.916760
  F     -0.158690   -1.701090   -4.657980
  O      1.055940   -0.174410   -5.740370
  H     -1.540560   -0.586460   -2.674550
  H     -1.353390    1.086000   -2.204550
  H      0.006600   -0.006620   -2.106090

 Total Charge           Charge          ....    0
 Multiplicity           Mult            ....    1
 Number of Electrons    NEL             ....   40
 Basis Dimension        Dim             ....   95

ORBITAL ENERGIES
----------------

  NO   OCC          E(Eh)            E(eV)
   0   2.0000     -24.746207      -673.3785
   1   2.0000     -19.133092      -520.6379
   2   2.0000     -10.351880      -281.6890
   3   2.0000     -10.210486      -277.8414
   4   2.0000     -10.190201      -277.2895
   5   2.0000      -1.284010       -34.9397
   6   2.0000      -1.019674       -27.7467
   7   2.0000      -0.790135       -21.5007
   8   2.0000      -0.672624       -18.3030
   9   2.0000      -0.630734       -17.1631
  10   2.0000      -0.537767       -14.6334
  11   2.0000      -0.530271       -14.4294
  12   2.0000      -0.484714       -13.1897
  13   2.0000      -0.461427       -12.5561
  14   2.0000      -0.427970       -11.6457
  15   2.0000      -0.397039       -10.8040
  16   2.0000      -0.382586       -10.4107
  17   2.0000      -0.374883       -10.2011
  18   2.0000      -0.343025        -9.3342
  19   2.0000      -0.284002        -7.7281
  20   0.0000      -0.018833        -0.5125
  21   0.0000       0.052874         1.4388
  22   0.0000       0.102154         2.7797
  23   0.0000       0.113475         3.0878
  24   0.0000       0.127200         3.4613

MULLIKEN ATOMIC CHARGES
-----------------------
   0 C :    0.025033
   1 C :   -0.064200
   2 H :    0.041375
   3 H :    0.043417
   4 C :    0.225289
   5 F :   -0.089350
   6 O :   -0.234096
   7 H :    0.018141
   8 H :    0.014865
   9 H :    0.019526
Sum of atomic charges:   -0.0000000

LOEWDIN ATOMIC CHARGES
----------------------
   0 C :   -0.043868
   1 C :   -0.065947
   2 H :    0.043195
   3 H :    0.045126
   4 C :    0.101777
   5 F :    0.026733
   6 O :   -0.179934
   7 H :    0.021909
   8 H :    0.027227
   9 H :    0.023783

  Mayer bond orders larger than 0.100000
B(  0-C ,  1-C ) :   1.0758 B(  0-C ,  7-H ) :   0.9708 B(  0-C ,  8-H ) :   0.9621
B(  0-C ,  9-H ) :   0.9784 B(  1-C ,  2-H ) :   0.9465 B(  1-C ,  3-H ) :   0.9260
B(  1-C ,  4-C ) :   1.0023 B(  4-C ,  5-F ) :   1.1821 B(  4-C ,  6-O ) :   2.1055

Dispersion correction           -0.010257549
FINAL SINGLE POINT ENERGY      -292.037476255713

DIPOLE MOMENT
-------------
                                X             Y             Z
Electronic contribution:      2.66447      -5.40193      -5.37885
Nuclear contribution   :     -3.42837       5.66737       6.17046
                        -----------------------------------------
Total Dipole Moment    :     -0.76390       0.26544       0.79160
                        -----------------------------------------
Magnitude (a.u.)       :      1.13165
Magnitude (Debye)      :      2.87643

Rotational constants in cm-1:     0.304660     0.130969     0.097716
Rotational constants in MHz :  9133.464515  3926.366384  2929.457090

                             ****ORCA TERMINATED NORMALLY****
TOTAL RUN TIME: 0 days 0 hours 0 minutes 11 seconds 77 msec
