                         Program Version 5.0.0 -  RELEASE  -
|  1> !B3LYP D3BJ RIJCOSX def2-SVP def2/J TightSCF
|  2> *xyz 0 1
|  3> C          2.48645       -2.67712       -2.56345
|  4> C          3.03764       -2.36672       -3.92351
|  5> C          2.28036       -2.45441       -4.96769
|  6> N          4.32174       -2.01793       -4.01664
|  7> H          4.87994       -1.91167       -3.17382
|  8> H          4.71015       -1.67088       -4.88356
|  9> H          1.27042       -2.41265       -4.86614
| 10> H          2.58183       -2.05528       -5.84688
| 11> C          2.49799       -1.46946       -1.61030
| 12> H          1.47259       -3.05153       -2.69437
| 13> H          3.08320       -3.49064       -2.14147
| 14> H          1.91240       -0.67831       -2.02991
| 15> H          3.50450       -1.13364       -1.47227
| 16> H          2.08509       -1.75655       -0.66585
| 17> *
| 18>
| 19> %MaxCore 64000
| 20>
| 21> %pal nprocs 4
| 22> end
| 23>
| 24> %scf
| 25>   MaxIter 150
| 26> end
| 27>
| 28>
| 29>                          ****END OF INPUT****

CARTESIAN COORDINATES (ANGSTROEM)
---------------------------------
  C      2.486450   -2.677120   -2.563450
  C      3.037640   -2.366720   -3.923510
  C      2.280360   -2.454410   -4.967690
  N      4.321740   -2.017930   -4.016640
  H      4.879940   -1.911670   -3.173820
  H      4.710150   -1.670880   -4.883560
  H      1.270420   -2.412650   -4.866140
  H      2.581830   -2.055280   -5.846880
  C      2.497990   -1.469460   -1.610300
  H      1.472590   -3.051530   -2.694370
  H      3.083200   -3.490640   -2.141470
  H      1.912400   -0.678310   -2.029910
  H      3.504500   -1.133640   -1.472270
  H      2.085090   -1.756550   -0.665850

 Total Charge           Charge          ....    0
 Multiplicity           Mult            ....    1
 Number of Electrons    NEL             ....   40
 Basis Dimension        Dim             ....  115

ORBITAL ENERGIES
----------------

  NO   OCC          E(Eh)            E(eV)
   0   2.0000     -14.322199      -389.7268
   1   2.0000     -10.194884      -277.4169
   2   2.0000     -10.177986      -276.9571
   3   2.0000     -10.171675      -276.7854
   4   2.0000     -10.108596      -275.0689
   5   2.0000      -0.907609       -24.6973
   6   2.0000      -0.766482       -20.8570
   7   2.0000      -0.711497       -19.3608
   8   2.0000      -0.625033       -17.0080
   9   2.0000      -0.558001       -15.1840
  10   2.0000      -0.517007       -14.0685
  11   2.0000      -0.470362       -12.7992
  12   2.0000      -0.432227       -11.7615
  13   2.0000      -0.426053       -11.5935
  14   2.0000      -0.382612       -10.4114
  15   2.0000      -0.377642       -10.2762
  16   2.0000      -0.351288        -9.5590
  17   2.0000      -0.329051        -8.9539
  18   2.0000      -0.318977        -8.6798
  19   2.0000      -0.187260        -5.0956
  20   0.0000       0.046990         1.2787
  21   0.0000       0.060266         1.6399
  22   0.0000       0.097962         2.6657
  23   0.0000       0.101764         2.7691
  24   0.0000       0.119452         3.2504

MULLIKEN ATOMIC CHARGES
-----------------------
   0 C :    0.073256
   1 C :   -0.110357
   2 C :   -0.027003
   3 N :   -0.064260
   4 H :    0.098440
   5 H :    0.106653
   6 H :   -0.045638
   7 H :   -0.067243
   8 C :    0.047023
   9 H :   -0.008574
  10 H :   -0.001471
  11 H :    0.006173
  12 H :   -0.012314
  13 H :    0.005315
Sum of atomic charges:    0.0000000

LOEWDIN ATOMIC CHARGES
----------------------
   0 C :   -0.022053
   1 C :    0.010983
   2 C :   -0.171553
   3 N :   -0.010378
   4 H :    0.066770
   5 H :    0.073554
   6 H :   -0.000312
   7 H :   -0.009934
   8 C :   -0.040930
   9 H :    0.029372
  10 H :    0.021741
  11 H :    0.021629
  12 H :    0.010520
  13 H :    0.020590

  Mayer bond orders larger than 0.100000
B(  0-C ,  1-C ) :   1.0412 B(  0-C ,  8-C ) :   1.0939 B(  0-C ,  9-H ) :   0.9277
B(  0-C , 10-H ) :   0.9261 B(  1-C ,  2-C ) :   1.8888 B(  1-C ,  3-N ) :   1.2614
B(  2-C ,  6-H ) :   0.9298 B(  2-C ,  7-H ) :   0.9433 B(  3-N ,  4-H ) :   0.9527
B(  3-N ,  5-H ) :   0.9486 B(  8-C , 11-H ) :   0.9686 B(  8-C , 12-H ) :   0.9692
B(  8-C , 13-H ) :   0.9651

Dispersion correction           -0.017401463
FINAL SINGLE POINT ENERGY      -212.271381190623

DIPOLE MOMENT
-------------
                                X             Y             Z
Electronic contribution:      1.61694      -0.87535      -2.13048
Nuclear contribution   :     -0.99743       1.27863       2.57190
                        -----------------------------------------
Total Dipole Moment    :      0.61950       0.40328       0.44142
                        -----------------------------------------
Magnitude (a.u.)       :      0.86097
Magnitude (Debye)      :      2.18842

Rotational constants in cm-1:     0.274050     0.130114     0.100964
Rotational constants in MHz :  8215.815505  3900.722919  3026.834930

                             ****ORCA TERMINATED NORMALLY****
TOTAL RUN TIME: 0 days 0 hours 0 minutes 13 seconds 453 msec
