                         Program Version 5.0.0 -  RELEASE  -
|  1> !B3LYP D3BJ RIJCOSX def2-SVP def2/J TightSCF
|  2> *xyz 0 1
|  3> C         -0.87096        0.24804       -2.66280
|  4> C         -0.47749        0.60819       -4.10105
|  5> H          0.20677        1.45830       -4.11875
|  6> H         -1.36844        0.92942       -4.64785
|  7> C          0.18467       -0.50664       -4.91676
|  8> O         -0.15869       -1.70109       -4.65798
|  9> F          1.05594       -0.17441       -5.74037
| 10> H         -1.54056       -0.58646       -2.67455
| 11> H         -1.35339        1.08600       -2.20455
| 12> H          0.00660       -0.00662       -2.10609
| 13> *
| 14>
| 15> %MaxCore 64000
| 16>
| 17> %pal nprocs 4
| 18> end
| 19>
| 20> %scf
| 21>   MaxIter 150
| 22> end
| 23>
| 24>
| 25>                          ****END OF INPUT****

CARTESIAN COORDINATES (ANGSTROEM)
---------------------------------
  C     -0.870960    0.248040   -2.662800
  C     -0.477490    0.608190   -4.101050
  H      0.206770    1.458300   -4.118750
  H     -1.368440    0.929420   -4.647850
  C      0.184670   -0.506640   -4.916760
  O     -0.158690   -1.701090   -4.657980
  F      1.055940   -0.174410   -5.740370
  H     -1.540560   -0.586460   -2.674550
  H     -1.353390    1.086000   -2.204550
  H      0.006600   -0.006620   -2.106090

 Total Charge           Charge          ....    0
 Multiplicity           Mult            ....    1
 Number of Electrons    NEL             ....   40
 Basis Dimension        Dim             ....   95

ORBITAL ENERGIES
----------------

  NO   OCC          E(Eh)            E(eV)
   0   2.0000     -24.755155      -673.6220
   1   2.0000     -19.130197      -520.5591
   2   2.0000     -10.354206      -281.7523
   3   2.0000     -10.211838      -277.8783
   4   2.0000     -10.184316      -277.1293
   5   2.0000      -1.302807       -35.4512
   6   2.0000      -1.004901       -27.3447
   7   2.0000      -0.786205       -21.3937
   8   2.0000      -0.682173       -18.5629
   9   2.0000      -0.630426       -17.1548
  10   2.0000      -0.545594       -14.8464
  11   2.0000      -0.530943       -14.4477
  12   2.0000      -0.496139       -13.5006
  13   2.0000      -0.460977       -12.5438
  14   2.0000      -0.424547       -11.5525
  15   2.0000      -0.390987       -10.6393
  16   2.0000      -0.371700       -10.1145
  17   2.0000      -0.369405       -10.0520
  18   2.0000      -0.337827        -9.1928
  19   2.0000      -0.281343        -7.6557
  20   0.0000      -0.021788        -0.5929
  21   0.0000       0.058308         1.5867
  22   0.0000       0.103532         2.8172
  23   0.0000       0.112425         3.0592
  24   0.0000       0.128103         3.4859

MULLIKEN ATOMIC CHARGES
-----------------------
   0 C :    0.051306
   1 C :   -0.066809
   2 H :    0.015271
   3 H :    0.044575
   4 C :    0.222105
   5 O :   -0.265319
   6 F :   -0.055476
   7 H :    0.031429
   8 H :    0.007285
   9 H :    0.015634
Sum of atomic charges:    0.0000000

LOEWDIN ATOMIC CHARGES
----------------------
   0 C :   -0.031137
   1 C :   -0.068632
   2 H :    0.027029
   3 H :    0.046940
   4 C :    0.097797
   5 O :   -0.208557
   6 F :    0.059068
   7 H :    0.028841
   8 H :    0.024074
   9 H :    0.024577

  Mayer bond orders larger than 0.100000
B(  0-C ,  1-C ) :   1.1038 B(  0-C ,  7-H ) :   0.9665 B(  0-C ,  8-H ) :   0.9613
B(  0-C ,  9-H ) :   0.9780 B(  1-C ,  2-H ) :   0.9352 B(  1-C ,  3-H ) :   0.9203
B(  1-C ,  4-C ) :   0.9999 B(  4-C ,  5-O ) :   2.0664 B(  4-C ,  6-F ) :   1.2197

Dispersion correction           -0.010350740
FINAL SINGLE POINT ENERGY      -292.030972404032

DIPOLE MOMENT
-------------
                                X             Y             Z
Electronic contribution:      4.66375      -2.92102      -7.17603
Nuclear contribution   :     -4.75269       4.00281       7.35060
                        -----------------------------------------
Total Dipole Moment    :     -0.08894       1.08179       0.17457
                        -----------------------------------------
Magnitude (a.u.)       :      1.09939
Magnitude (Debye)      :      2.79442

Rotational constants in cm-1:     0.323805     0.124913     0.096140
Rotational constants in MHz :  9707.430323  3744.789513  2882.191141

                             ****ORCA TERMINATED NORMALLY****
TOTAL RUN TIME: 0 days 0 hours 0 minutes 10 seconds 393 msec
