                         Program Version 5.0.0 -  RELEASE  -
|  1> !B3LYP D3BJ RIJCOSX def2-SVP def2/J TightSCF
|  2> *xyz 0 1
|  3> C          2.48645       -2.67712       -2.56345
|  4> C          3.03764       -2.36672       -3.92351
|  5> N          2.28036       -2.45441       -4.96769
|  6> C          4.32174       -2.01793       -4.01664
|  7> H          4.87994       -1.91167       -3.17382
|  8> H          4.71015       -1.67088       -4.88356
|  9> H          1.27042       -2.41265       -4.86614
| 10> H          2.58183       -2.05528       -5.84688
| 11> C          2.49799       -1.46946       -1.61030
| 12> H          1.47259       -3.05153       -2.69437
| 13> H          3.08320       -3.49064       -2.14147
| 14> H          1.91240       -0.67831       -2.02991
| 15> H          3.50450       -1.13364       -1.47227
| 16> H          2.08509       -1.75655       -0.66585
| 17> *
| 18>
| 19> %MaxCore 64000
| 20>
| 21> %pal nprocs 4
| 22> end
| 23>
| 24> %scf
| 25>   MaxIter 150
| 26> end
| 27>
| 28>
| 29>                          ****END OF INPUT****

CARTESIAN COORDINATES (ANGSTROEM)
---------------------------------
  C      2.486450   -2.677120   -2.563450
  C      3.037640   -2.366720   -3.923510
  N      2.280360   -2.454410   -4.967690
  C      4.321740   -2.017930   -4.016640
  H      4.879940   -1.911670   -3.173820
  H      4.710150   -1.670880   -4.883560
  H      1.270420   -2.412650   -4.866140
  H      2.581830   -2.055280   -5.846880
  C      2.497990   -1.469460   -1.610300
  H      1.472590   -3.051530   -2.694370
  H      3.083200   -3.490640   -2.141470
  H      1.912400   -0.678310   -2.029910
  H      3.504500   -1.133640   -1.472270
  H      2.085090   -1.756550   -0.665850

 Total Charge           Charge          ....    0
 Multiplicity           Mult            ....    1
 Number of Electrons    NEL             ....   40
 Basis Dimension        Dim             ....  115

ORBITAL ENERGIES
----------------

  NO   OCC          E(Eh)            E(eV)
   0   2.0000     -14.326109      -389.8333
   1   2.0000     -10.195245      -277.4267
   2   2.0000     -10.178804      -276.9793
   3   2.0000     -10.167252      -276.6650
   4   2.0000     -10.108830      -275.0753
   5   2.0000      -0.923096       -25.1187
   6   2.0000      -0.767758       -20.8917
   7   2.0000      -0.695514       -18.9259
   8   2.0000      -0.630053       -17.1446
   9   2.0000      -0.561916       -15.2905
  10   2.0000      -0.513828       -13.9820
  11   2.0000      -0.474235       -12.9046
  12   2.0000      -0.439951       -11.9717
  13   2.0000      -0.403608       -10.9827
  14   2.0000      -0.388382       -10.5684
  15   2.0000      -0.373019       -10.1504
  16   2.0000      -0.348878        -9.4934
  17   2.0000      -0.332986        -9.0610
  18   2.0000      -0.327532        -8.9126
  19   2.0000      -0.177702        -4.8355
  20   0.0000       0.050738         1.3807
  21   0.0000       0.055458         1.5091
  22   0.0000       0.095948         2.6109
  23   0.0000       0.100812         2.7432
  24   0.0000       0.123113         3.3501

MULLIKEN ATOMIC CHARGES
-----------------------
   0 C :    0.070396
   1 C :   -0.169631
   2 N :   -0.011032
   3 C :   -0.022069
   4 H :   -0.049244
   5 H :   -0.065033
   6 H :    0.097582
   7 H :    0.100777
   8 C :    0.053673
   9 H :   -0.031643
  10 H :    0.018874
  11 H :   -0.002114
  12 H :    0.011148
  13 H :   -0.001684
Sum of atomic charges:    0.0000000

LOEWDIN ATOMIC CHARGES
----------------------
   0 C :   -0.022688
   1 C :   -0.004811
   2 N :    0.013205
   3 C :   -0.176689
   4 H :   -0.005215
   5 H :   -0.012290
   6 H :    0.067234
   7 H :    0.074047
   8 C :   -0.034096
   9 H :    0.011344
  10 H :    0.034803
  11 H :    0.017513
  12 H :    0.020925
  13 H :    0.016717

  Mayer bond orders larger than 0.100000
B(  0-C ,  1-C ) :   1.0118 B(  0-C ,  8-C ) :   1.1064 B(  0-C ,  9-H ) :   0.9280
B(  0-C , 10-H ) :   0.9327 B(  1-C ,  2-N ) :   1.2933 B(  1-C ,  3-C ) :   1.8530
B(  2-N ,  6-H ) :   0.9471 B(  2-N ,  7-H ) :   0.9492 B(  3-C ,  4-H ) :   0.9422
B(  3-C ,  5-H ) :   0.9441 B(  8-C , 11-H ) :   0.9685 B(  8-C , 12-H ) :   0.9724
B(  8-C , 13-H ) :   0.9624

Dispersion correction           -0.017450843
FINAL SINGLE POINT ENERGY      -212.272021885533

DIPOLE MOMENT
-------------
                                X             Y             Z
Electronic contribution:     -0.30001      -1.21610      -3.02410
Nuclear contribution   :     -0.52463       1.37972       2.79217
                        -----------------------------------------
Total Dipole Moment    :     -0.82464       0.16362      -0.23193
                        -----------------------------------------
Magnitude (a.u.)       :      0.87212
Magnitude (Debye)      :      2.21676

Rotational constants in cm-1:     0.281086     0.127387     0.100311
Rotational constants in MHz :  8426.743103  3818.969834  3007.238026

                             ****ORCA TERMINATED NORMALLY****
TOTAL RUN TIME: 0 days 0 hours 0 minutes 14 seconds 443 msec
