                         Program Version 5.0.0 -  RELEASE  -
|  1> !B3LYP D3BJ RIJCOSX def2-TZVP def2/J TightSCF xyzfile
|  2>
|  3> *xyzfile 0 1 D4.xyz
|  4>
|  5> %MaxCore 64000
|  6>
|  7> %pal nprocs 18
|  8> end
|  9>
| 10> %scf
| 11>   MaxIter 150
| 12> end
| 13>
| 14>
| 15>                          ****END OF INPUT****

CARTESIAN COORDINATES (ANGSTROEM)
---------------------------------
  C      2.486452   -2.677121   -2.563447
  C     -0.870963    0.248043   -2.662804
  C     -0.477492    0.608191   -4.101052
  H      0.206773    1.458299   -4.118748
  H     -1.368442    0.929419   -4.647855
  C      0.184673   -0.506640   -4.916760
  C      3.037640   -2.366715   -3.923509
  N      2.280360   -2.454408   -4.967692
  C      4.321736   -2.017932   -4.016641
  H      4.879940   -1.911668   -3.173823
  H      4.710148   -1.670882   -4.883561
  H      1.270423   -2.412650   -4.866143
  H      2.581829   -2.055282   -5.846878
  O     -0.158685   -1.701088   -4.657981
  F      1.055938   -0.174410   -5.740373
  C      2.497991   -1.469464   -1.610303
  C      1.582841   -0.321986   -2.042619
  H      2.193083   -1.833912   -0.625420
  H      3.523356   -1.103982   -1.490392
  C      0.100160   -0.673551   -1.915815
  H      1.822311   -0.040361   -3.072834
  H      1.813180    0.557019   -1.433266
  H     -0.063284   -1.679120   -2.301112
  H     -0.168820   -0.691680   -0.853831
  H     -1.001048    1.181040   -2.104071
  H     -1.844645   -0.246592   -2.663281
  H      1.472592   -3.051527   -2.694366
  H      3.083201   -3.490638   -2.141472

 Total Charge           Charge          ....    0
 Multiplicity           Mult            ....    1
 Number of Electrons    NEL             ....   94
 Basis Dimension        Dim             ....  468

ORBITAL ENERGIES
----------------

  NO   OCC          E(Eh)            E(eV)
   0   2.0000     -24.776549      -674.2042
   1   2.0000     -19.153671      -521.1979
   2   2.0000     -14.281782      -388.6270
   3   2.0000     -10.373289      -282.2715
   4   2.0000     -10.212439      -277.8946
   5   2.0000     -10.187008      -277.2026
   6   2.0000     -10.171707      -276.7862
   7   2.0000     -10.166315      -276.6395
   8   2.0000     -10.165907      -276.6284
   9   2.0000     -10.160705      -276.4868
  10   2.0000     -10.155717      -276.3511
  11   2.0000     -10.081815      -274.3401
  12   2.0000      -1.350020       -36.7359
  13   2.0000      -1.059675       -28.8352
  14   2.0000      -0.916489       -24.9389
  15   2.0000      -0.829133       -22.5618
  16   2.0000      -0.791098       -21.5269
  17   2.0000      -0.750809       -20.4306
  18   2.0000      -0.710392       -19.3308
  19   2.0000      -0.684410       -18.6237
  20   2.0000      -0.663615       -18.0579
  21   2.0000      -0.621105       -16.9011
  22   2.0000      -0.583972       -15.8907
  23   2.0000      -0.576764       -15.6946
  24   2.0000      -0.557597       -15.1730
  25   2.0000      -0.548105       -14.9147
  26   2.0000      -0.527992       -14.3674
  27   2.0000      -0.496449       -13.5091
  28   2.0000      -0.481203       -13.0942
  29   2.0000      -0.476422       -12.9641
  30   2.0000      -0.469787       -12.7836
  31   2.0000      -0.443227       -12.0608
  32   2.0000      -0.424872       -11.5614
  33   2.0000      -0.412864       -11.2346
  34   2.0000      -0.405888       -11.0448
  35   2.0000      -0.393360       -10.7039
  36   2.0000      -0.380837       -10.3631
  37   2.0000      -0.372871       -10.1463
  38   2.0000      -0.360937        -9.8216
  39   2.0000      -0.360108        -9.7990
  40   2.0000      -0.340948        -9.2777
  41   2.0000      -0.335319        -9.1245
  42   2.0000      -0.323326        -8.7982
  43   2.0000      -0.319766        -8.7013
  44   2.0000      -0.314094        -8.5469
  45   2.0000      -0.299406        -8.1473
  46   2.0000      -0.168695        -4.5904
  47   0.0000      -0.055670        -1.5149
  48   0.0000       0.021687         0.5901
  49   0.0000       0.043133         1.1737
  50   0.0000       0.052028         1.4158
  51   0.0000       0.054958         1.4955

MULLIKEN ATOMIC CHARGES
-----------------------
   0 C :   -0.218434
   1 C :   -0.143061
   2 C :   -0.241271
   3 H :    0.129931
   4 H :    0.135010
   5 C :    0.389326
   6 C :    0.162880
   7 N :   -0.393931
   8 C :   -0.414069
   9 H :    0.074423
  10 H :    0.067852
  11 H :    0.247555
  12 H :    0.197243
  13 O :   -0.373218
  14 F :   -0.091658
  15 C :   -0.117773
  16 C :   -0.202028
  17 H :    0.073328
  18 H :    0.096144
  19 C :   -0.191955
  20 H :    0.103958
  21 H :    0.082341
  22 H :    0.120128
  23 H :    0.092761
  24 H :    0.100038
  25 H :    0.099592
  26 H :    0.103646
  27 H :    0.111241
Sum of atomic charges:    0.0000000

LOEWDIN ATOMIC CHARGES
----------------------
   0 C :   -0.207919
   1 C :   -0.248842
   2 C :   -0.232030
   3 H :    0.147497
   4 H :    0.157902
   5 C :   -0.487422
   6 C :   -0.382837
   7 N :    0.028610
   8 C :   -0.296837
   9 H :    0.099166
  10 H :    0.090854
  11 H :    0.140623
  12 H :    0.160828
  13 O :    0.061665
  14 F :    0.356449
  15 C :   -0.246529
  16 C :   -0.255464
  17 H :    0.132832
  18 H :    0.136053
  19 C :   -0.263459
  20 H :    0.137013
  21 H :    0.132706
  22 H :    0.138952
  23 H :    0.135497
  24 H :    0.139062
  25 H :    0.141190
  26 H :    0.135391
  27 H :    0.149047

  Mayer bond orders larger than 0.100000
B(  0-C ,  6-C ) :   0.9165 B(  0-C , 15-C ) :   0.9558 B(  0-C , 26-H ) :   0.9996
B(  0-C , 27-H ) :   0.9717 B(  1-C ,  2-C ) :   0.9630 B(  1-C , 19-C ) :   0.9670
B(  1-C , 24-H ) :   0.9660 B(  1-C , 25-H ) :   0.9643 B(  2-C ,  3-H ) :   0.9554
B(  2-C ,  4-H ) :   0.9321 B(  2-C ,  5-C ) :   1.0047 B(  5-C , 13-O ) :   1.9075
B(  5-C , 14-F ) :   1.1638 B(  6-C ,  7-N ) :   1.2437 B(  6-C ,  8-C ) :   1.7165
B(  7-N , 11-H ) :   0.8625 B(  7-N , 12-H ) :   0.9313 B(  8-C ,  9-H ) :   0.9939
B(  8-C , 10-H ) :   0.9884 B( 11-H , 13-O ) :   0.1138 B( 15-C , 16-C ) :   0.9784
B( 15-C , 17-H ) :   0.9596 B( 15-C , 18-H ) :   0.9622 B( 16-C , 19-C ) :   0.9486
B( 16-C , 20-H ) :   0.9625 B( 16-C , 21-H ) :   0.9615 B( 19-C , 22-H ) :   0.9753
B( 19-C , 23-H ) :   0.9631

Dispersion correction           -0.051192329
FINAL SINGLE POINT ENERGY      -582.295999595190

DIPOLE MOMENT
-------------
                                X             Y             Z
Electronic contribution:     -3.44762       0.78065     -12.75931
Nuclear contribution   :      2.21030       0.63135      12.80988
                        -----------------------------------------
Total Dipole Moment    :     -1.23732       1.41200       0.05057
                        -----------------------------------------
Magnitude (a.u.)       :      1.87810
Magnitude (Debye)      :      4.77376

Rotational constants in cm-1:     0.039980     0.026547     0.019089
Rotational constants in MHz :  1198.568620   795.867393   572.288555

                             ****ORCA TERMINATED NORMALLY****
TOTAL RUN TIME: 0 days 0 hours 1 minutes 1 seconds 699 msec
