                         Program Version 5.0.0 -  RELEASE  -
|  1> !B3LYP D3BJ RIJCOSX def2-SVPD def2/J TightSCF
|  2> *xyz -1 1
|  3> C          3.93993        0.32036       -4.36773
|  4> C          5.10585        0.66802       -5.30546
|  5> O          4.80913        1.15019       -6.41436
|  6> O          6.26737        0.56500       -4.81948
|  7> H          3.01376        0.44480       -4.88890
|  8> H          3.96058        0.96928       -3.51722
|  9> H          4.03331       -0.69517       -4.04388
| 10> *
| 11>
| 12> %MaxCore 64000
| 13>
| 14> %pal nprocs 4
| 15> end
| 16>
| 17> %scf
| 18>   MaxIter 150
| 19> end
| 20>
| 21>
| 22>                          ****END OF INPUT****

CARTESIAN COORDINATES (ANGSTROEM)
---------------------------------
  C      3.939930    0.320360   -4.367730
  C      5.105850    0.668020   -5.305460
  O      4.809130    1.150190   -6.414360
  O      6.267370    0.565000   -4.819480
  H      3.013760    0.444800   -4.888900
  H      3.960580    0.969280   -3.517220
  H      4.033310   -0.695170   -4.043880

 Total Charge           Charge          ....   -1
 Multiplicity           Mult            ....    1
 Number of Electrons    NEL             ....   32
 Basis Dimension        Dim             ....  110

ORBITAL ENERGIES
----------------

  NO   OCC          E(Eh)            E(eV)
   0   2.0000     -18.877675      -513.6877
   1   2.0000     -18.873343      -513.5698
   2   2.0000     -10.068601      -273.9806
   3   2.0000      -9.994855      -271.9738
   4   2.0000      -0.809767       -22.0349
   5   2.0000      -0.718160       -19.5421
   6   2.0000      -0.534667       -14.5490
   7   2.0000      -0.299177        -8.1410
   8   2.0000      -0.258456        -7.0329
   9   2.0000      -0.244015        -6.6400
  10   2.0000      -0.224703        -6.1145
  11   2.0000      -0.186354        -5.0709
  12   2.0000      -0.166758        -4.5377
  13   2.0000      -0.049882        -1.3574
  14   2.0000      -0.041223        -1.1217
  15   2.0000      -0.028404        -0.7729
  16   0.0000       0.170875         4.6497
  17   0.0000       0.213978         5.8226
  18   0.0000       0.222691         6.0597
  19   0.0000       0.240496         6.5442
  20   0.0000       0.263919         7.1816

MULLIKEN ATOMIC CHARGES
-----------------------
   0 C :    0.682335
   1 C :    0.034491
   2 O :   -0.618013
   3 O :   -0.675765
   4 H :   -0.159082
   5 H :   -0.133419
   6 H :   -0.130547
Sum of atomic charges:   -1.0000000

LOEWDIN ATOMIC CHARGES
----------------------
   0 C :    0.151100
   1 C :   -0.336610
   2 O :   -0.329992
   3 O :   -0.347719
   4 H :   -0.050369
   5 H :   -0.040975
   6 H :   -0.045437

  Mayer bond orders larger than 0.100000
B(  0-C ,  1-C ) :   1.1933 B(  0-C ,  4-H ) :   0.8396 B(  0-C ,  5-H ) :   0.7985
B(  0-C ,  6-H ) :   0.7806 B(  1-C ,  2-O ) :   1.5107 B(  1-C ,  3-O ) :   1.4829
B(  1-C ,  4-H ) :   0.2682 B(  1-C ,  5-H ) :   0.1779 B(  1-C ,  6-H ) :   0.1935

Dispersion correction           -0.006235112
FINAL SINGLE POINT ENERGY      -228.262201063693

DIPOLE MOMENT
-------------
                                X             Y             Z
Electronic contribution:      2.72465       0.86625      -2.23554
Nuclear contribution   :     -3.81330      -1.22874       3.01208
                        -----------------------------------------
Total Dipole Moment    :     -1.08865      -0.36249       0.77654
                        -----------------------------------------
Magnitude (a.u.)       :      1.38549
Magnitude (Debye)      :      3.52163

Rotational constants in cm-1:     0.390282     0.335702     0.186718
Rotational constants in MHz : 11700.346989 10064.094211  5597.661196

                             ****ORCA TERMINATED NORMALLY****
TOTAL RUN TIME: 0 days 0 hours 0 minutes 7 seconds 485 msec
