                         Program Version 5.0.0 -  RELEASE  -
|  1> !B3LYP D3BJ RIJCOSX def2-SVPD def2/J TightSCF
|  2> *xyz 1 1
|  3> C          3.90595        2.81985       -3.75292
|  4> N          5.29562        3.13151       -4.10533
|  5> C          5.70862        3.46889       -5.32419
|  6> N          6.90470        3.03895       -5.71708
|  7> N          4.98188        4.29357       -6.09746
|  8> H          5.00055        4.10131       -7.08776
|  9> H          4.08469        4.59690       -5.73965
| 10> H          5.96336        2.52611       -3.64239
| 11> H          7.04716        2.06686       -5.47360
| 12> H          7.19815        3.30799       -6.64523
| 13> H          3.24866        3.48801       -4.26909
| 14> H          3.77188        2.93227       -2.69732
| 15> H          3.68381        1.81198       -4.03533
| 16> *
| 17>
| 18> %MaxCore 64000
| 19>
| 20> %pal nprocs 4
| 21> end
| 22>
| 23> %scf
| 24>   MaxIter 150
| 25> end
| 26>
| 27>
| 28>                          ****END OF INPUT****

CARTESIAN COORDINATES (ANGSTROEM)
---------------------------------
  C      3.905950    2.819850   -3.752920
  N      5.295620    3.131510   -4.105330
  C      5.708620    3.468890   -5.324190
  N      6.904700    3.038950   -5.717080
  N      4.981880    4.293570   -6.097460
  H      5.000550    4.101310   -7.087760
  H      4.084690    4.596900   -5.739650
  H      5.963360    2.526110   -3.642390
  H      7.047160    2.066860   -5.473600
  H      7.198150    3.307990   -6.645230
  H      3.248660    3.488010   -4.269090
  H      3.771880    2.932270   -2.697320
  H      3.683810    1.811980   -4.035330

 Total Charge           Charge          ....    1
 Multiplicity           Mult            ....    1
 Number of Electrons    NEL             ....   40
 Basis Dimension        Dim             ....  164

ORBITAL ENERGIES
----------------

  NO   OCC          E(Eh)            E(eV)
   0   2.0000     -14.564848      -396.3297
   1   2.0000     -14.562942      -396.2778
   2   2.0000     -14.562544      -396.2670
   3   2.0000     -10.526536      -286.4416
   4   2.0000     -10.395388      -282.8729
   5   2.0000      -1.219187       -33.1758
   6   2.0000      -1.106085       -30.0981
   7   2.0000      -1.098534       -29.8926
   8   2.0000      -0.906811       -24.6756
   9   2.0000      -0.826232       -22.4829
  10   2.0000      -0.785660       -21.3789
  11   2.0000      -0.760705       -20.6998
  12   2.0000      -0.708955       -19.2916
  13   2.0000      -0.696192       -18.9443
  14   2.0000      -0.652903       -17.7664
  15   2.0000      -0.643011       -17.4972
  16   2.0000      -0.591663       -16.1000
  17   2.0000      -0.584944       -15.9171
  18   2.0000      -0.497330       -13.5330
  19   2.0000      -0.470888       -12.8135
  20   0.0000      -0.203588        -5.5399
  21   0.0000      -0.164754        -4.4832
  22   0.0000      -0.125720        -3.4210
  23   0.0000      -0.117829        -3.2063
  24   0.0000      -0.092229        -2.5097

MULLIKEN ATOMIC CHARGES
-----------------------
   0 C :    1.404952
   1 N :   -0.397939
   2 C :    0.657755
   3 N :    0.132355
   4 N :    0.208133
   5 H :   -0.050009
   6 H :   -0.064249
   7 H :   -0.196195
   8 H :   -0.016413
   9 H :   -0.022246
  10 H :   -0.258366
  11 H :   -0.247179
  12 H :   -0.150599
Sum of atomic charges:    1.0000000

LOEWDIN ATOMIC CHARGES
----------------------
   0 C :    0.273399
   1 N :    0.035480
   2 C :   -0.058093
   3 N :    0.279118
   4 N :    0.290484
   5 H :    0.036600
   6 H :    0.017426
   7 H :    0.049577
   8 H :    0.036921
   9 H :    0.036053
  10 H :   -0.015150
  11 H :    0.010753
  12 H :    0.007430

  Mayer bond orders larger than 0.100000
B(  0-C ,  1-N ) :   0.9181 B(  0-C , 10-H ) :   0.7780 B(  0-C , 11-H ) :   0.7314
B(  0-C , 12-H ) :   0.7494 B(  1-N ,  2-C ) :   1.2054 B(  1-N ,  3-N ) :   0.1774
B(  1-N ,  7-H ) :   1.1627 B(  1-N , 10-H ) :   0.1513 B(  1-N , 11-H ) :   0.2150
B(  1-N , 12-H ) :   0.1403 B(  2-C ,  3-N ) :   1.0663 B(  2-C ,  4-N ) :   1.0679
B(  2-C ,  7-H ) :  -0.1563 B(  3-N ,  4-N ) :   0.1200 B(  3-N ,  8-H ) :   1.0486
B(  3-N ,  9-H ) :   0.9856 B(  4-N ,  5-H ) :   1.1154 B(  4-N ,  6-H ) :   0.9999
B(  5-H ,  6-H ) :  -0.1242

Dispersion correction           -0.015055747
FINAL SINGLE POINT ENERGY      -244.777107665563

DIPOLE MOMENT
-------------
                                X             Y             Z
Electronic contribution:      2.50171       1.08597      -1.18873
Nuclear contribution   :     -2.62204      -1.73043       0.52001
                        -----------------------------------------
Total Dipole Moment    :     -0.12032      -0.64446      -0.66872
                        -----------------------------------------
Magnitude (a.u.)       :      0.93648
Magnitude (Debye)      :      2.38033

Rotational constants in cm-1:     0.299316     0.133886     0.097604
Rotational constants in MHz :  8973.254382  4013.798371  2926.103660

                             ****ORCA TERMINATED NORMALLY****
TOTAL RUN TIME: 0 days 0 hours 0 minutes 14 seconds 710 msec
