                         Program Version 5.0.0 -  RELEASE  -
|  1> !B3LYP D3BJ RIJCOSX def2-SVPD def2/J TightSCF xyzfile
|  2>
|  3> *xyzfile 0 1 B.xyz
|  4>
|  5> %MaxCore 64000
|  6>
|  7> %pal nprocs 4
|  8> end
|  9>
| 10> %scf
| 11>   MaxIter 150
| 12> end
| 13>
| 14>
| 15>                          ****END OF INPUT****

CARTESIAN COORDINATES (ANGSTROEM)
---------------------------------
  C      3.905947    2.819855   -3.752920
  N      5.295615    3.131515   -4.105334
  C      3.803511    1.374716   -3.260807
  C      3.939934    0.320362   -4.367729
  H      4.105043   -0.655085   -3.907733
  H      3.022801    0.280517   -4.957117
  C      5.105846    0.668022   -5.305463
  C      5.708619    3.468885   -5.324190
  N      6.904696    3.038954   -5.717084
  N      4.981884    4.293570   -6.097457
  H      5.000546    4.101311   -7.087761
  H      4.084693    4.596899   -5.739652
  H      5.963358    2.526112   -3.642391
  H      7.047164    2.066861   -5.473604
  H      7.198145    3.307994   -6.645225
  H      3.282025    2.949187   -4.640259
  H      3.565254    3.514574   -2.982523
  H      4.574833    1.215157   -2.500443
  H      2.843514    1.260845   -2.751465
  O      4.809132    1.150187   -6.414361
  O      6.267366    0.564999   -4.819481

 Total Charge           Charge          ....    0
 Multiplicity           Mult            ....    1
 Number of Electrons    NEL             ....   78
 Basis Dimension        Dim             ....  294

ORBITAL ENERGIES
----------------

  NO   OCC          E(Eh)            E(eV)
   0   2.0000     -19.060497      -518.6625
   1   2.0000     -19.057320      -518.5760
   2   2.0000     -14.396373      -391.7452
   3   2.0000     -14.386970      -391.4893
   4   2.0000     -14.365507      -390.9053
   5   2.0000     -10.349962      -281.6368
   6   2.0000     -10.245488      -278.7939
   7   2.0000     -10.245089      -278.7830
   8   2.0000     -10.195655      -277.4379
   9   2.0000     -10.162457      -276.5345
  10   2.0000      -1.043541       -28.3962
  11   2.0000      -0.996148       -27.1066
  12   2.0000      -0.936624       -25.4868
  13   2.0000      -0.918178       -24.9849
  14   2.0000      -0.904190       -24.6043
  15   2.0000      -0.790808       -21.5190
  16   2.0000      -0.709851       -19.3160
  17   2.0000      -0.656166       -17.8552
  18   2.0000      -0.621884       -16.9223
  19   2.0000      -0.608886       -16.5686
  20   2.0000      -0.576000       -15.6738
  21   2.0000      -0.537573       -14.6281
  22   2.0000      -0.518661       -14.1135
  23   2.0000      -0.498273       -13.5587
  24   2.0000      -0.482084       -13.1182
  25   2.0000      -0.473174       -12.8757
  26   2.0000      -0.432073       -11.7573
  27   2.0000      -0.423496       -11.5239
  28   2.0000      -0.412250       -11.2179
  29   2.0000      -0.390593       -10.6286
  30   2.0000      -0.384142       -10.4530
  31   2.0000      -0.378755       -10.3065
  32   2.0000      -0.343250        -9.3403
  33   2.0000      -0.339108        -9.2276
  34   2.0000      -0.319228        -8.6866
  35   2.0000      -0.295321        -8.0361
  36   2.0000      -0.237573        -6.4647
  37   2.0000      -0.221344        -6.0231
  38   2.0000      -0.211971        -5.7680
  39   0.0000      -0.025420        -0.6917
  40   0.0000      -0.005931        -0.1614
  41   0.0000       0.017871         0.4863
  42   0.0000       0.028688         0.7806
  43   0.0000       0.048180         1.3110

MULLIKEN ATOMIC CHARGES
-----------------------
   0 C :    0.970453
   1 N :   -0.324339
   2 C :    0.229142
   3 C :    0.531183
   4 H :   -0.183030
   5 H :   -0.090779
   6 C :    0.351740
   7 C :    0.737647
   8 N :    0.248863
   9 N :    0.041274
  10 H :   -0.060539
  11 H :   -0.027925
  12 H :   -0.136598
  13 H :   -0.133279
  14 H :   -0.024042
  15 H :   -0.066726
  16 H :   -0.460455
  17 H :   -0.017317
  18 H :   -0.277314
  19 O :   -0.588525
  20 O :   -0.719435
Sum of atomic charges:   -0.0000000

LOEWDIN ATOMIC CHARGES
----------------------
   0 C :    0.078493
   1 N :    0.068237
   2 C :   -0.002982
   3 C :    0.045796
   4 H :    0.022201
   5 H :    0.016572
   6 C :   -0.258598
   7 C :   -0.083461
   8 N :    0.289005
   9 N :    0.269370
  10 H :    0.022670
  11 H :    0.005265
  12 H :    0.021954
  13 H :   -0.064124
  14 H :    0.024163
  15 H :    0.021120
  16 H :    0.016407
  17 H :    0.024517
  18 H :    0.018990
  19 O :   -0.262129
  20 O :   -0.273465

  Mayer bond orders larger than 0.100000
B(  0-C ,  1-N ) :   0.8694 B(  0-C ,  2-C ) :   1.1680 B(  0-C , 15-H ) :   0.6977
B(  0-C , 16-H ) :   0.7779 B(  0-C , 18-H ) :   0.2051 B(  1-N ,  2-C ) :   0.1661
B(  1-N ,  7-C ) :   1.1066 B(  1-N ,  8-N ) :   0.1621 B(  1-N ,  9-N ) :   0.1034
B(  1-N , 12-H ) :   1.1199 B(  1-N , 15-H ) :   0.1317 B(  1-N , 16-H ) :   0.1115
B(  2-C ,  3-C ) :   1.1949 B(  2-C ,  4-H ) :   0.1951 B(  2-C ,  5-H ) :   0.1440
B(  2-C , 17-H ) :   0.8009 B(  2-C , 18-H ) :   0.8647 B(  3-C ,  4-H ) :   0.7432
B(  3-C ,  5-H ) :   0.7802 B(  3-C ,  6-C ) :   0.9938 B(  4-H ,  6-C ) :   0.1426
B(  5-H ,  6-C ) :   0.2904 B(  6-C , 19-O ) :   1.5835 B(  6-C , 20-O ) :   1.3458
B(  7-C ,  8-N ) :   1.0267 B(  7-C ,  9-N ) :   0.8772 B(  7-C , 12-H ) :  -0.2139
B(  8-N ,  9-N ) :   0.1568 B(  8-N , 13-H ) :   0.9553 B(  8-N , 14-H ) :   0.9294
B(  9-N , 10-H ) :   1.1387 B(  9-N , 11-H ) :   0.9495 B( 10-H , 11-H ) :  -0.1245
B( 13-H , 20-O ) :   0.1803 B( 15-H , 16-H ) :  -0.1389 B( 17-H , 18-H ) :  -0.1042

Dispersion correction           -0.037868969
FINAL SINGLE POINT ENERGY      -511.296202460907

DIPOLE MOMENT
-------------
                                X             Y             Z
Electronic contribution:      4.16615       0.40986      -3.40932
Nuclear contribution   :     -4.94498       2.03334       3.78956
                        -----------------------------------------
Total Dipole Moment    :     -0.77883       2.44320       0.38024
                        -----------------------------------------
Magnitude (a.u.)       :      2.59237
Magnitude (Debye)      :      6.58929

Rotational constants in cm-1:     0.062533     0.042832     0.033687
Rotational constants in MHz :  1874.701390  1284.063603  1009.911042

                             ****ORCA TERMINATED NORMALLY****
TOTAL RUN TIME: 0 days 0 hours 1 minutes 4 seconds 554 msec
