                         Program Version 5.0.0 -  RELEASE  -
|  1> !B3LYP D3BJ RIJCOSX def2-SVPD def2/J TightSCF
|  2> *xyz 0 1
|  3> C          3.93993        0.32036       -4.36773
|  4> C          5.10585        0.66802       -5.30546
|  5> F          4.80913        1.15019       -6.41436
|  6> O          6.26737        0.56500       -4.81948
|  7> H          3.01376        0.44480       -4.88890
|  8> H          3.96058        0.96928       -3.51722
|  9> H          4.03331       -0.69517       -4.04388
| 10> *
| 11>
| 12> %MaxCore 64000
| 13>
| 14> %pal nprocs 4
| 15> end
| 16>
| 17> %scf
| 18>   MaxIter 150
| 19> end
| 20>
| 21>
| 22>                          ****END OF INPUT****

CARTESIAN COORDINATES (ANGSTROEM)
---------------------------------
  C      3.939930    0.320360   -4.367730
  C      5.105850    0.668020   -5.305460
  F      4.809130    1.150190   -6.414360
  O      6.267370    0.565000   -4.819480
  H      3.013760    0.444800   -4.888900
  H      3.960580    0.969280   -3.517220
  H      4.033310   -0.695170   -4.043880

 Total Charge           Charge          ....    0
 Multiplicity           Mult            ....    1
 Number of Electrons    NEL             ....   32
 Basis Dimension        Dim             ....  110

ORBITAL ENERGIES
----------------

  NO   OCC          E(Eh)            E(eV)
   0   2.0000     -24.777540      -674.2311
   1   2.0000     -19.151663      -521.1432
   2   2.0000     -10.374342      -282.3002
   3   2.0000     -10.212398      -277.8935
   4   2.0000      -1.319729       -35.9117
   5   2.0000      -1.024988       -27.8913
   6   2.0000      -0.767112       -20.8742
   7   2.0000      -0.667829       -18.1726
   8   2.0000      -0.560186       -15.2434
   9   2.0000      -0.554359       -15.0849
  10   2.0000      -0.505298       -13.7499
  11   2.0000      -0.448594       -12.2069
  12   2.0000      -0.435690       -11.8557
  13   2.0000      -0.406746       -11.0681
  14   2.0000      -0.357255        -9.7214
  15   2.0000      -0.298855        -8.1322
  16   0.0000      -0.041087        -1.1180
  17   0.0000       0.010206         0.2777
  18   0.0000       0.056123         1.5272
  19   0.0000       0.084750         2.3062
  20   0.0000       0.085931         2.3383

MULLIKEN ATOMIC CHARGES
-----------------------
   0 C :    0.615113
   1 C :    0.395300
   2 F :   -0.325476
   3 O :   -0.466256
   4 H :   -0.114799
   5 H :   -0.047463
   6 H :   -0.056419
Sum of atomic charges:   -0.0000000

LOEWDIN ATOMIC CHARGES
----------------------
   0 C :    0.224171
   1 C :   -0.035347
   2 F :   -0.028320
   3 O :   -0.142066
   4 H :   -0.018590
   5 H :    0.001290
   6 H :   -0.001138

  Mayer bond orders larger than 0.100000
B(  0-C ,  1-C ) :   1.2322 B(  0-C ,  4-H ) :   0.8554 B(  0-C ,  5-H ) :   0.7928
B(  0-C ,  6-H ) :   0.7731 B(  1-C ,  2-F ) :   0.8317 B(  1-C ,  3-O ) :   1.8122
B(  1-C ,  4-H ) :   0.1714 B(  1-C ,  5-H ) :   0.1494 B(  1-C ,  6-H ) :   0.1725

Dispersion correction           -0.005736682
FINAL SINGLE POINT ENERGY      -252.789947270072

DIPOLE MOMENT
-------------
                                X             Y             Z
Electronic contribution:      2.40173       1.62533      -4.16377
Nuclear contribution   :     -3.58567      -1.71656       4.24175
                        -----------------------------------------
Total Dipole Moment    :     -1.18394      -0.09123       0.07799
                        -----------------------------------------
Magnitude (a.u.)       :      1.19001
Magnitude (Debye)      :      3.02476

Rotational constants in cm-1:     0.365806     0.323297     0.177262
Rotational constants in MHz : 10966.600844  9692.195205  5314.176777

                             ****ORCA TERMINATED NORMALLY****
TOTAL RUN TIME: 0 days 0 hours 0 minutes 7 seconds 27 msec
