                         Program Version 5.0.0 -  RELEASE  -
|  1> !B3LYP D3BJ RIJCOSX def2-SVPD def2/J TightSCF
|  2> *xyz 0 1
|  3> C          3.90595        2.81985       -3.75292
|  4> C          5.29562        3.13151       -4.10533
|  5> C          5.70862        3.46889       -5.32419
|  6> N          6.90470        3.03895       -5.71708
|  7> N          4.98188        4.29357       -6.09746
|  8> H          5.00055        4.10131       -7.08776
|  9> H          4.08469        4.59690       -5.73965
| 10> H          5.96336        2.52611       -3.64239
| 11> H          7.04716        2.06686       -5.47360
| 12> H          7.19815        3.30799       -6.64523
| 13> H          3.24866        3.48801       -4.26909
| 14> H          3.77188        2.93227       -2.69732
| 15> H          3.68381        1.81198       -4.03533
| 16> *
| 17>
| 18> %MaxCore 64000
| 19>
| 20> %pal nprocs 4
| 21> end
| 22>
| 23> %scf
| 24>   MaxIter 150
| 25> end
| 26>
| 27>
| 28>                          ****END OF INPUT****

CARTESIAN COORDINATES (ANGSTROEM)
---------------------------------
  C      3.905950    2.819850   -3.752920
  C      5.295620    3.131510   -4.105330
  C      5.708620    3.468890   -5.324190
  N      6.904700    3.038950   -5.717080
  N      4.981880    4.293570   -6.097460
  H      5.000550    4.101310   -7.087760
  H      4.084690    4.596900   -5.739650
  H      5.963360    2.526110   -3.642390
  H      7.047160    2.066860   -5.473600
  H      7.198150    3.307990   -6.645230
  H      3.248660    3.488010   -4.269090
  H      3.771880    2.932270   -2.697320
  H      3.683810    1.811980   -4.035330

 Total Charge           Charge          ....    0
 Multiplicity           Mult            ....    1
 Number of Electrons    NEL             ....   40
 Basis Dimension        Dim             ....  164

ORBITAL ENERGIES
----------------

  NO   OCC          E(Eh)            E(eV)
   0   2.0000     -14.333496      -390.0342
   1   2.0000     -14.331859      -389.9897
   2   2.0000     -10.224823      -278.2316
   3   2.0000     -10.152834      -276.2727
   4   2.0000     -10.111508      -275.1481
   5   2.0000      -0.957116       -26.0445
   6   2.0000      -0.868893       -23.6438
   7   2.0000      -0.748239       -20.3606
   8   2.0000      -0.652516       -17.7559
   9   2.0000      -0.580106       -15.7855
  10   2.0000      -0.537835       -14.6352
  11   2.0000      -0.507200       -13.8016
  12   2.0000      -0.479266       -13.0415
  13   2.0000      -0.430520       -11.7151
  14   2.0000      -0.403317       -10.9748
  15   2.0000      -0.381027       -10.3683
  16   2.0000      -0.355592        -9.6761
  17   2.0000      -0.334681        -9.1071
  18   2.0000      -0.275455        -7.4955
  19   2.0000      -0.169297        -4.6068
  20   0.0000       0.009187         0.2500
  21   0.0000       0.036922         1.0047
  22   0.0000       0.050163         1.3650
  23   0.0000       0.055578         1.5124
  24   0.0000       0.084907         2.3104

MULLIKEN ATOMIC CHARGES
-----------------------
   0 C :    1.083340
   1 C :   -0.349653
   2 C :    0.143981
   3 N :    0.163103
   4 N :    0.173528
   5 H :   -0.125444
   6 H :   -0.070607
   7 H :   -0.286972
   8 H :   -0.035167
   9 H :   -0.129980
  10 H :   -0.328512
  11 H :   -0.074041
  12 H :   -0.163575
Sum of atomic charges:   -0.0000000

LOEWDIN ATOMIC CHARGES
----------------------
   0 C :    0.103716
   1 C :   -0.047765
   2 C :   -0.249977
   3 N :    0.192856
   4 N :    0.202108
   5 H :   -0.016312
   6 H :   -0.015224
   7 H :   -0.058626
   8 H :    0.000408
   9 H :   -0.015358
  10 H :   -0.046761
  11 H :   -0.025711
  12 H :   -0.023351

  Mayer bond orders larger than 0.100000
B(  0-C ,  1-C ) :   1.1031 B(  0-C ,  7-H ) :   0.2187 B(  0-C , 10-H ) :   0.6571
B(  0-C , 11-H ) :   0.6444 B(  0-C , 12-H ) :   0.7762 B(  1-C ,  2-C ) :   1.8904
B(  1-C ,  3-N ) :   0.3052 B(  1-C ,  4-N ) :   0.1494 B(  1-C ,  7-H ) :   0.6400
B(  1-C , 10-H ) :   0.3464 B(  1-C , 11-H ) :   0.2573 B(  1-C , 12-H ) :   0.1145
B(  2-C ,  3-N ) :   1.0169 B(  2-C ,  4-N ) :   1.0884 B(  2-C ,  7-H ) :   0.3688
B(  3-N ,  8-H ) :   1.0281 B(  3-N ,  9-H ) :   0.9439 B(  4-N ,  5-H ) :   1.0754
B(  4-N ,  6-H ) :   0.9841 B( 10-H , 11-H ) :   0.1288

Dispersion correction           -0.015844116
FINAL SINGLE POINT ENERGY      -228.315909747534

DIPOLE MOMENT
-------------
                                X             Y             Z
Electronic contribution:      2.52372       1.35231      -1.80021
Nuclear contribution   :     -2.63304      -1.77161       0.70501
                        -----------------------------------------
Total Dipole Moment    :     -0.10933      -0.41930      -1.09520
                        -----------------------------------------
Magnitude (a.u.)       :      1.17780
Magnitude (Debye)      :      2.99373

Rotational constants in cm-1:     0.303572     0.135185     0.098519
Rotational constants in MHz :  9100.846149  4052.756012  2953.539431

                             ****ORCA TERMINATED NORMALLY****
TOTAL RUN TIME: 0 days 0 hours 0 minutes 14 seconds 475 msec
