                         Program Version 5.0.0 -  RELEASE  -
|  1> !B3LYP D3BJ RIJCOSX def2-SVPD def2/J TightSCF
|  2> *xyz 0 1
|  3> C          3.93993        0.32036       -4.36773
|  4> C          5.10585        0.66802       -5.30546
|  5> O          4.80913        1.15019       -6.41436
|  6> F          6.26737        0.56500       -4.81948
|  7> H          3.01376        0.44480       -4.88890
|  8> H          3.96058        0.96928       -3.51722
|  9> H          4.03331       -0.69517       -4.04388
| 10> *
| 11>
| 12> %MaxCore 64000
| 13>
| 14> %pal nprocs 4
| 15> end
| 16>
| 17> %scf
| 18>   MaxIter 150
| 19> end
| 20>
| 21>
| 22>                          ****END OF INPUT****

CARTESIAN COORDINATES (ANGSTROEM)
---------------------------------
  C      3.939930    0.320360   -4.367730
  C      5.105850    0.668020   -5.305460
  O      4.809130    1.150190   -6.414360
  F      6.267370    0.565000   -4.819480
  H      3.013760    0.444800   -4.888900
  H      3.960580    0.969280   -3.517220
  H      4.033310   -0.695170   -4.043880

 Total Charge           Charge          ....    0
 Multiplicity           Mult            ....    1
 Number of Electrons    NEL             ....   32
 Basis Dimension        Dim             ....  110

ORBITAL ENERGIES
----------------

  NO   OCC          E(Eh)            E(eV)
   0   2.0000     -24.770769      -674.0469
   1   2.0000     -19.154815      -521.2290
   2   2.0000     -10.372634      -282.2537
   3   2.0000     -10.212083      -277.8849
   4   2.0000      -1.305742       -35.5311
   5   2.0000      -1.036711       -28.2103
   6   2.0000      -0.766378       -20.8542
   7   2.0000      -0.660166       -17.9640
   8   2.0000      -0.552694       -15.0396
   9   2.0000      -0.547540       -14.8993
  10   2.0000      -0.505497       -13.7553
  11   2.0000      -0.447283       -12.1712
  12   2.0000      -0.436770       -11.8851
  13   2.0000      -0.409234       -11.1358
  14   2.0000      -0.366590        -9.9754
  15   2.0000      -0.301217        -8.1965
  16   0.0000      -0.036374        -0.9898
  17   0.0000       0.010656         0.2900
  18   0.0000       0.056366         1.5338
  19   0.0000       0.082052         2.2327
  20   0.0000       0.089989         2.4487

MULLIKEN ATOMIC CHARGES
-----------------------
   0 C :    0.629645
   1 C :    0.404127
   2 O :   -0.421073
   3 F :   -0.370066
   4 H :   -0.132462
   5 H :   -0.051608
   6 H :   -0.058565
Sum of atomic charges:   -0.0000000

LOEWDIN ATOMIC CHARGES
----------------------
   0 C :    0.224098
   1 C :   -0.036143
   2 O :   -0.129319
   3 F :   -0.040530
   4 H :   -0.005146
   5 H :   -0.003949
   6 H :   -0.009011

  Mayer bond orders larger than 0.100000
B(  0-C ,  1-C ) :   1.2120 B(  0-C ,  4-H ) :   0.8567 B(  0-C ,  5-H ) :   0.7904
B(  0-C ,  6-H ) :   0.7788 B(  1-C ,  2-O ) :   1.8617 B(  1-C ,  3-F ) :   0.7629
B(  1-C ,  4-H ) :   0.2326 B(  1-C ,  5-H ) :   0.1380 B(  1-C ,  6-H ) :   0.1484

Dispersion correction           -0.005736475
FINAL SINGLE POINT ENERGY      -252.795707195494

DIPOLE MOMENT
-------------
                                X             Y             Z
Electronic contribution:      4.76670       0.67537      -1.57371
Nuclear contribution   :     -5.09247      -1.11188       2.59376
                        -----------------------------------------
Total Dipole Moment    :     -0.32576      -0.43652       1.02005
                        -----------------------------------------
Magnitude (a.u.)       :      1.15636
Magnitude (Debye)      :      2.93923

Rotational constants in cm-1:     0.367940     0.321271     0.177147
Rotational constants in MHz : 11030.570495  9631.458923  5310.737691

                             ****ORCA TERMINATED NORMALLY****
TOTAL RUN TIME: 0 days 0 hours 0 minutes 6 seconds 816 msec
