                         Program Version 5.0.0 -  RELEASE  -
|  1> !B3LYP D3BJ RIJCOSX def2-SVPD def2/J TightSCF
|  2> *xyz 0 1
|  3> C          3.90595        2.81985       -3.75292
|  4> N          5.29562        3.13151       -4.10533
|  5> C          5.70862        3.46889       -5.32419
|  6> C          6.90470        3.03895       -5.71708
|  7> N          4.98188        4.29357       -6.09746
|  8> H          5.00055        4.10131       -7.08776
|  9> H          4.08469        4.59690       -5.73965
| 10> H          5.96336        2.52611       -3.64239
| 11> H          7.04716        2.06686       -5.47360
| 12> H          7.19815        3.30799       -6.64523
| 13> H          3.24866        3.48801       -4.26909
| 14> H          3.77188        2.93227       -2.69732
| 15> H          3.68381        1.81198       -4.03533
| 16> *
| 17>
| 18> %MaxCore 64000
| 19>
| 20> %pal nprocs 4
| 21> end
| 22>
| 23> %scf
| 24>   MaxIter 150
| 25> end
| 26>
| 27>
| 28>                          ****END OF INPUT****

CARTESIAN COORDINATES (ANGSTROEM)
---------------------------------
  C      3.905950    2.819850   -3.752920
  N      5.295620    3.131510   -4.105330
  C      5.708620    3.468890   -5.324190
  C      6.904700    3.038950   -5.717080
  N      4.981880    4.293570   -6.097460
  H      5.000550    4.101310   -7.087760
  H      4.084690    4.596900   -5.739650
  H      5.963360    2.526110   -3.642390
  H      7.047160    2.066860   -5.473600
  H      7.198150    3.307990   -6.645230
  H      3.248660    3.488010   -4.269090
  H      3.771880    2.932270   -2.697320
  H      3.683810    1.811980   -4.035330

 Total Charge           Charge          ....    0
 Multiplicity           Mult            ....    1
 Number of Electrons    NEL             ....   40
 Basis Dimension        Dim             ....  164

ORBITAL ENERGIES
----------------

  NO   OCC          E(Eh)            E(eV)
   0   2.0000     -14.335235      -390.0816
   1   2.0000     -14.334489      -390.0613
   2   2.0000     -10.231263      -278.4068
   3   2.0000     -10.217958      -278.0448
   4   2.0000     -10.098807      -274.8025
   5   2.0000      -0.962694       -26.1962
   6   2.0000      -0.879226       -23.9249
   7   2.0000      -0.741473       -20.1765
   8   2.0000      -0.668305       -18.1855
   9   2.0000      -0.595734       -16.2107
  10   2.0000      -0.535252       -14.5650
  11   2.0000      -0.493721       -13.4348
  12   2.0000      -0.481863       -13.1122
  13   2.0000      -0.452803       -12.3214
  14   2.0000      -0.408991       -11.1292
  15   2.0000      -0.392370       -10.6769
  16   2.0000      -0.388852       -10.5812
  17   2.0000      -0.344931        -9.3861
  18   2.0000      -0.261590        -7.1182
  19   2.0000      -0.177264        -4.8236
  20   0.0000       0.007418         0.2019
  21   0.0000       0.034916         0.9501
  22   0.0000       0.047609         1.2955
  23   0.0000       0.057584         1.5669
  24   0.0000       0.079621         2.1666

MULLIKEN ATOMIC CHARGES
-----------------------
   0 C :    1.388943
   1 N :   -0.437218
   2 C :    0.102217
   3 C :    0.668856
   4 N :    0.241285
   5 H :   -0.090921
   6 H :   -0.165046
   7 H :   -0.179638
   8 H :   -0.325887
   9 H :   -0.425188
  10 H :   -0.303028
  11 H :   -0.303593
  12 H :   -0.170782
Sum of atomic charges:    0.0000000

LOEWDIN ATOMIC CHARGES
----------------------
   0 C :    0.217278
   1 N :   -0.030013
   2 C :   -0.250204
   3 C :    0.151011
   4 N :    0.208505
   5 H :    0.001532
   6 H :   -0.028658
   7 H :    0.019879
   8 H :   -0.107274
   9 H :   -0.108235
  10 H :   -0.035551
  11 H :   -0.018308
  12 H :   -0.019962

  Mayer bond orders larger than 0.100000
B(  0-C ,  1-N ) :   0.9176 B(  0-C , 10-H ) :   0.7707 B(  0-C , 11-H ) :   0.7071
B(  0-C , 12-H ) :   0.7465 B(  1-N ,  2-C ) :   1.2017 B(  1-N ,  3-C ) :   0.2059
B(  1-N ,  7-H ) :   1.1236 B(  1-N , 10-H ) :   0.1574 B(  1-N , 11-H ) :   0.2238
B(  1-N , 12-H ) :   0.1277 B(  2-C ,  3-C ) :   1.7747 B(  2-C ,  4-N ) :   1.0505
B(  2-C ,  7-H ) :  -0.1067 B(  2-C ,  8-H ) :   0.2612 B(  2-C ,  9-H ) :   0.3693
B(  3-C ,  4-N ) :   0.2186 B(  3-C ,  8-H ) :   0.7745 B(  3-C ,  9-H ) :   0.4982
B(  4-N ,  5-H ) :   1.0886 B(  4-N ,  6-H ) :   0.9757 B(  5-H ,  6-H ) :  -0.1190
B(  8-H ,  9-H ) :   0.2117

Dispersion correction           -0.015713331
FINAL SINGLE POINT ENERGY      -228.303258752918

DIPOLE MOMENT
-------------
                                X             Y             Z
Electronic contribution:      0.96079       1.45943      -0.29217
Nuclear contribution   :     -2.30713      -1.79036       0.37856
                        -----------------------------------------
Total Dipole Moment    :     -1.34634      -0.33093       0.08639
                        -----------------------------------------
Magnitude (a.u.)       :      1.38911
Magnitude (Debye)      :      3.53083

Rotational constants in cm-1:     0.307513     0.139026     0.101190
Rotational constants in MHz :  9218.994719  4167.905268  3033.592538

                             ****ORCA TERMINATED NORMALLY****
TOTAL RUN TIME: 0 days 0 hours 0 minutes 14 seconds 715 msec
