                         Program Version 5.0.0 -  RELEASE  -
|  1> !B3LYP D3BJ RIJCOSX def2-SVPD def2/J TightSCF
|  2> *xyz 0 1
|  3> C          3.90595        2.81985       -3.75292
|  4> N          5.29562        3.13151       -4.10533
|  5> C          5.70862        3.46889       -5.32419
|  6> N          6.90470        3.03895       -5.71708
|  7> C          4.98188        4.29357       -6.09746
|  8> H          5.00055        4.10131       -7.08776
|  9> H          4.08469        4.59690       -5.73965
| 10> H          5.96336        2.52611       -3.64239
| 11> H          7.04716        2.06686       -5.47360
| 12> H          7.19815        3.30799       -6.64523
| 13> H          3.24866        3.48801       -4.26909
| 14> H          3.77188        2.93227       -2.69732
| 15> H          3.68381        1.81198       -4.03533
| 16> *
| 17>
| 18> %MaxCore 64000
| 19>
| 20> %pal nprocs 4
| 21> end
| 22>
| 23> %scf
| 24>   MaxIter 150
| 25> end
| 26>
| 27>
| 28>                          ****END OF INPUT****

CARTESIAN COORDINATES (ANGSTROEM)
---------------------------------
  C      3.905950    2.819850   -3.752920
  N      5.295620    3.131510   -4.105330
  C      5.708620    3.468890   -5.324190
  N      6.904700    3.038950   -5.717080
  C      4.981880    4.293570   -6.097460
  H      5.000550    4.101310   -7.087760
  H      4.084690    4.596900   -5.739650
  H      5.963360    2.526110   -3.642390
  H      7.047160    2.066860   -5.473600
  H      7.198150    3.307990   -6.645230
  H      3.248660    3.488010   -4.269090
  H      3.771880    2.932270   -2.697320
  H      3.683810    1.811980   -4.035330

 Total Charge           Charge          ....    0
 Multiplicity           Mult            ....    1
 Number of Electrons    NEL             ....   40
 Basis Dimension        Dim             ....  164

ORBITAL ENERGIES
----------------

  NO   OCC          E(Eh)            E(eV)
   0   2.0000     -14.335938      -390.1007
   1   2.0000     -14.334739      -390.0681
   2   2.0000     -10.230621      -278.3893
   3   2.0000     -10.211948      -277.8812
   4   2.0000     -10.103169      -274.9212
   5   2.0000      -0.967799       -26.3351
   6   2.0000      -0.880843       -23.9690
   7   2.0000      -0.718419       -19.5492
   8   2.0000      -0.692619       -18.8471
   9   2.0000      -0.566353       -15.4112
  10   2.0000      -0.541905       -14.7460
  11   2.0000      -0.522520       -14.2185
  12   2.0000      -0.455348       -12.3906
  13   2.0000      -0.449531       -12.2324
  14   2.0000      -0.420058       -11.4304
  15   2.0000      -0.387049       -10.5321
  16   2.0000      -0.381319       -10.3762
  17   2.0000      -0.348120        -9.4728
  18   2.0000      -0.262584        -7.1453
  19   2.0000      -0.177712        -4.8358
  20   0.0000       0.009374         0.2551
  21   0.0000       0.036534         0.9941
  22   0.0000       0.050471         1.3734
  23   0.0000       0.053998         1.4693
  24   0.0000       0.079584         2.1656

MULLIKEN ATOMIC CHARGES
-----------------------
   0 C :    1.426781
   1 N :   -0.325779
   2 C :    0.037995
   3 N :    0.101128
   4 C :    0.632790
   5 H :   -0.408407
   6 H :   -0.306241
   7 H :   -0.308426
   8 H :   -0.066609
   9 H :   -0.014156
  10 H :   -0.279227
  11 H :   -0.287577
  12 H :   -0.202272
Sum of atomic charges:    0.0000000

LOEWDIN ATOMIC CHARGES
----------------------
   0 C :    0.226094
   1 N :   -0.030837
   2 C :   -0.261395
   3 N :    0.194556
   4 C :    0.170173
   5 H :   -0.108580
   6 H :   -0.118816
   7 H :    0.007752
   8 H :   -0.012639
   9 H :    0.000458
  10 H :   -0.029058
  11 H :   -0.018225
  12 H :   -0.019482

  Mayer bond orders larger than 0.100000
B(  0-C ,  1-N ) :   0.8964 B(  0-C , 10-H ) :   0.7798 B(  0-C , 11-H ) :   0.6979
B(  0-C , 12-H ) :   0.7355 B(  1-N ,  2-C ) :   1.1830 B(  1-N ,  3-N ) :   0.1392
B(  1-N ,  4-C ) :   0.2172 B(  1-N ,  7-H ) :   1.0845 B(  1-N , 10-H ) :   0.1363
B(  1-N , 11-H ) :   0.2114 B(  1-N , 12-H ) :   0.1642 B(  2-C ,  3-N ) :   1.0716
B(  2-C ,  4-C ) :   1.8382 B(  2-C ,  5-H ) :   0.2390 B(  2-C ,  6-H ) :   0.3126
B(  3-N ,  4-C ) :   0.1622 B(  3-N ,  8-H ) :   0.9786 B(  3-N ,  9-H ) :   0.9780
B(  4-C ,  5-H ) :   0.7379 B(  4-C ,  6-H ) :   0.4860 B(  5-H ,  6-H ) :   0.3121

Dispersion correction           -0.015787228
FINAL SINGLE POINT ENERGY      -228.306744125006

DIPOLE MOMENT
-------------
                                X             Y             Z
Electronic contribution:      2.78459       0.29042       0.00073
Nuclear contribution   :     -2.69659      -1.53624       0.30152
                        -----------------------------------------
Total Dipole Moment    :      0.08800      -1.24583       0.30225
                        -----------------------------------------
Magnitude (a.u.)       :      1.28499
Magnitude (Debye)      :      3.26617

Rotational constants in cm-1:     0.320409     0.134796     0.100241
Rotational constants in MHz :  9605.632807  4041.079317  3005.150506

                             ****ORCA TERMINATED NORMALLY****
TOTAL RUN TIME: 0 days 0 hours 0 minutes 16 seconds 669 msec
