                         Program Version 5.0.0 -  RELEASE  -
|  1> !B3LYP D3BJ RIJCOSX def2-SVPD def2/J TightSCF xyzfile
|  2>
|  3> *xyzfile 0 1 D3.xyz
|  4>
|  5> %MaxCore 64000
|  6>
|  7> %pal nprocs 4
|  8> end
|  9>
| 10> %scf
| 11>   MaxIter 150
| 12> end
| 13>
| 14>
| 15>                          ****END OF INPUT****

CARTESIAN COORDINATES (ANGSTROEM)
---------------------------------
  C      3.905947    2.819855   -3.752920
  N      5.295615    3.131515   -4.105334
  C      3.803511    1.374716   -3.260807
  C      3.939934    0.320362   -4.367729
  H      4.105043   -0.655085   -3.907733
  H      3.022801    0.280517   -4.957117
  C      5.105846    0.668022   -5.305463
  C      5.708619    3.468885   -5.324190
  N      6.904696    3.038954   -5.717084
  C      4.981884    4.293570   -6.097457
  H      5.000546    4.101311   -7.087761
  H      4.084693    4.596899   -5.739652
  H      5.963358    2.526112   -3.642391
  H      7.047164    2.066861   -5.473604
  H      7.198145    3.307994   -6.645225
  H      3.282025    2.949187   -4.640259
  H      3.565254    3.514574   -2.982523
  H      4.574833    1.215157   -2.500443
  H      2.843514    1.260845   -2.751465
  F      4.809132    1.150187   -6.414361
  O      6.267366    0.564999   -4.819481

 Total Charge           Charge          ....    0
 Multiplicity           Mult            ....    1
 Number of Electrons    NEL             ....   78
 Basis Dimension        Dim             ....  294

ORBITAL ENERGIES
----------------

  NO   OCC          E(Eh)            E(eV)
   0   2.0000     -24.790168      -674.5748
   1   2.0000     -19.169417      -521.6264
   2   2.0000     -14.334300      -390.0561
   3   2.0000     -14.311566      -389.4375
   4   2.0000     -10.390417      -282.7376
   5   2.0000     -10.229929      -278.3705
   6   2.0000     -10.228600      -278.3344
   7   2.0000     -10.223725      -278.2017
   8   2.0000     -10.216142      -277.9954
   9   2.0000     -10.097311      -274.7618
  10   2.0000      -1.332028       -36.2463
  11   2.0000      -1.050848       -28.5950
  12   2.0000      -0.963614       -26.2213
  13   2.0000      -0.879890       -23.9430
  14   2.0000      -0.813802       -22.1447
  15   2.0000      -0.734981       -19.9999
  16   2.0000      -0.699631       -19.0379
  17   2.0000      -0.679362       -18.4864
  18   2.0000      -0.633590       -17.2409
  19   2.0000      -0.577453       -15.7133
  20   2.0000      -0.568000       -15.4561
  21   2.0000      -0.560165       -15.2429
  22   2.0000      -0.542251       -14.7554
  23   2.0000      -0.516891       -14.0653
  24   2.0000      -0.504803       -13.7364
  25   2.0000      -0.485615       -13.2142
  26   2.0000      -0.476083       -12.9549
  27   2.0000      -0.439784       -11.9671
  28   2.0000      -0.431844       -11.7511
  29   2.0000      -0.412016       -11.2115
  30   2.0000      -0.395442       -10.7605
  31   2.0000      -0.394321       -10.7300
  32   2.0000      -0.380431       -10.3521
  33   2.0000      -0.373991       -10.1768
  34   2.0000      -0.362477        -9.8635
  35   2.0000      -0.334995        -9.1157
  36   2.0000      -0.317707        -8.6453
  37   2.0000      -0.254531        -6.9261
  38   2.0000      -0.173077        -4.7097
  39   0.0000      -0.061093        -1.6624
  40   0.0000       0.006629         0.1804
  41   0.0000       0.031308         0.8519
  42   0.0000       0.036222         0.9857
  43   0.0000       0.042933         1.1683

MULLIKEN ATOMIC CHARGES
-----------------------
   0 C :    0.950601
   1 N :   -0.193382
   2 C :    0.328416
   3 C :    0.450132
   4 H :   -0.161374
   5 H :   -0.082365
   6 C :    0.779629
   7 C :    0.046668
   8 N :    0.282014
   9 C :    0.560129
  10 H :   -0.504018
  11 H :   -0.259329
  12 H :   -0.218075
  13 H :   -0.165082
  14 H :    0.009234
  15 H :   -0.057745
  16 H :   -0.522805
  17 H :   -0.032225
  18 H :   -0.248708
  19 F :   -0.382184
  20 O :   -0.579532
Sum of atomic charges:   -0.0000000

LOEWDIN ATOMIC CHARGES
----------------------
   0 C :    0.074975
   1 N :    0.016979
   2 C :    0.002005
   3 C :    0.073425
   4 H :    0.036673
   5 H :    0.025896
   6 C :    0.013138
   7 C :   -0.269520
   8 N :    0.224405
   9 C :    0.164396
  10 H :   -0.106639
  11 H :   -0.115806
  12 H :    0.003376
  13 H :   -0.086951
  14 H :    0.007817
  15 H :    0.017755
  16 H :    0.018060
  17 H :    0.027698
  18 H :    0.024237
  19 F :   -0.004587
  20 O :   -0.147329

  Mayer bond orders larger than 0.100000
B(  0-C ,  1-N ) :   0.8854 B(  0-C ,  2-C ) :   1.1366 B(  0-C , 15-H ) :   0.7179
B(  0-C , 16-H ) :   0.8006 B(  0-C , 18-H ) :   0.2163 B(  1-N ,  2-C ) :   0.1673
B(  1-N ,  7-C ) :   1.2346 B(  1-N ,  9-C ) :   0.2574 B(  1-N , 12-H ) :   0.9672
B(  1-N , 15-H ) :   0.1688 B(  2-C ,  3-C ) :   1.1885 B(  2-C ,  4-H ) :   0.2006
B(  2-C ,  5-H ) :   0.1365 B(  2-C , 17-H ) :   0.7956 B(  2-C , 18-H ) :   0.8424
B(  3-C ,  4-H ) :   0.7432 B(  3-C ,  5-H ) :   0.8124 B(  3-C ,  6-C ) :   1.0984
B(  4-H ,  6-C ) :   0.1470 B(  5-H ,  6-C ) :   0.1645 B(  6-C , 19-F ) :   0.7004
B(  6-C , 20-O ) :   1.6390 B(  7-C ,  8-N ) :   1.0443 B(  7-C ,  9-C ) :   1.8480
B(  7-C , 10-H ) :   0.2365 B(  7-C , 11-H ) :   0.3493 B(  7-C , 12-H ) :  -0.1635
B(  7-C , 13-H ) :   0.1396 B(  7-C , 14-H ) :   0.1159 B(  7-C , 15-H ) :   0.1007
B(  8-N ,  9-C ) :   0.1670 B(  8-N , 13-H ) :   0.8388 B(  8-N , 14-H ) :   0.8972
B(  9-C , 10-H ) :   0.7372 B(  9-C , 11-H ) :   0.5038 B( 10-H , 11-H ) :   0.1913
B( 15-H , 16-H ) :  -0.1459 B( 17-H , 18-H ) :  -0.1066

Dispersion correction           -0.037553149
FINAL SINGLE POINT ENERGY      -519.170981255895

DIPOLE MOMENT
-------------
                                X             Y             Z
Electronic contribution:      3.56807      -4.84484      -4.86383
Nuclear contribution   :     -4.64021       3.37029       5.31478
                        -----------------------------------------
Total Dipole Moment    :     -1.07214      -1.47455       0.45095
                        -----------------------------------------
Magnitude (a.u.)       :      1.87807
Magnitude (Debye)      :      4.77366

Rotational constants in cm-1:     0.061077     0.043622     0.034103
Rotational constants in MHz :  1831.041375  1307.759852  1022.388536

                             ****ORCA TERMINATED NORMALLY****
TOTAL RUN TIME: 0 days 0 hours 1 minutes 12 seconds 821 msec
