                         Program Version 5.0.0 -  RELEASE  -
|  1> !B3LYP D3BJ RIJCOSX def2-SVPD def2/J TightSCF xyzfile
|  2>
|  3> *xyzfile 0 1 D4.xyz
|  4>
|  5> %MaxCore 64000
|  6>
|  7> %pal nprocs 4
|  8> end
|  9>
| 10> %scf
| 11>   MaxIter 150
| 12> end
| 13>
| 14>
| 15>                          ****END OF INPUT****

CARTESIAN COORDINATES (ANGSTROEM)
---------------------------------
  C      3.905947    2.819855   -3.752920
  C      5.295615    3.131515   -4.105334
  C      3.803511    1.374716   -3.260807
  C      3.939934    0.320362   -4.367729
  H      4.105043   -0.655085   -3.907733
  H      3.022801    0.280517   -4.957117
  C      5.105846    0.668022   -5.305463
  C      5.708619    3.468885   -5.324190
  N      6.904696    3.038954   -5.717084
  N      4.981884    4.293570   -6.097457
  H      5.000546    4.101311   -7.087761
  H      4.084693    4.596899   -5.739652
  H      5.963358    2.526112   -3.642391
  H      7.047164    2.066861   -5.473604
  H      7.198145    3.307994   -6.645225
  H      3.282025    2.949187   -4.640259
  H      3.565254    3.514574   -2.982523
  H      4.574833    1.215157   -2.500443
  H      2.843514    1.260845   -2.751465
  O      4.809132    1.150187   -6.414361
  F      6.267366    0.564999   -4.819481

 Total Charge           Charge          ....    0
 Multiplicity           Mult            ....    1
 Number of Electrons    NEL             ....   78
 Basis Dimension        Dim             ....  294

ORBITAL ENERGIES
----------------

  NO   OCC          E(Eh)            E(eV)
   0   2.0000     -24.775855      -674.1853
   1   2.0000     -19.148336      -521.0527
   2   2.0000     -14.333421      -390.0322
   3   2.0000     -14.322383      -389.7318
   4   2.0000     -10.366084      -282.0755
   5   2.0000     -10.228243      -278.3247
   6   2.0000     -10.209272      -277.8084
   7   2.0000     -10.191007      -277.3114
   8   2.0000     -10.170827      -276.7623
   9   2.0000     -10.112734      -275.1815
  10   2.0000      -1.313191       -35.7338
  11   2.0000      -1.034262       -28.1437
  12   2.0000      -0.954470       -25.9725
  13   2.0000      -0.865893       -23.5622
  14   2.0000      -0.811422       -22.0799
  15   2.0000      -0.745855       -20.2958
  16   2.0000      -0.691223       -18.8091
  17   2.0000      -0.658776       -17.9262
  18   2.0000      -0.606717       -16.5096
  19   2.0000      -0.589679       -16.0460
  20   2.0000      -0.558230       -15.1902
  21   2.0000      -0.545241       -14.8368
  22   2.0000      -0.530272       -14.4294
  23   2.0000      -0.510571       -13.8933
  24   2.0000      -0.499969       -13.6048
  25   2.0000      -0.471186       -12.8216
  26   2.0000      -0.465062       -12.6550
  27   2.0000      -0.444440       -12.0938
  28   2.0000      -0.431230       -11.7344
  29   2.0000      -0.402378       -10.9493
  30   2.0000      -0.386268       -10.5109
  31   2.0000      -0.374712       -10.1964
  32   2.0000      -0.366285        -9.9671
  33   2.0000      -0.348914        -9.4944
  34   2.0000      -0.339505        -9.2384
  35   2.0000      -0.329961        -8.9787
  36   2.0000      -0.294296        -8.0082
  37   2.0000      -0.267676        -7.2838
  38   2.0000      -0.175742        -4.7822
  39   0.0000      -0.034830        -0.9478
  40   0.0000       0.013602         0.3701
  41   0.0000       0.028745         0.7822
  42   0.0000       0.039148         1.0653
  43   0.0000       0.046375         1.2619

MULLIKEN ATOMIC CHARGES
-----------------------
   0 C :    0.602942
   1 C :    0.013683
   2 C :    0.330335
   3 C :    0.495973
   4 H :   -0.169323
   5 H :   -0.075471
   6 C :    0.678164
   7 C :    0.193108
   8 N :    0.323516
   9 N :    0.095691
  10 H :   -0.097636
  11 H :   -0.032367
  12 H :   -0.335751
  13 H :   -0.141188
  14 H :   -0.057296
  15 H :   -0.216929
  16 H :   -0.328101
  17 H :   -0.064000
  18 H :   -0.275673
  19 O :   -0.465839
  20 F :   -0.473838
Sum of atomic charges:    0.0000000

LOEWDIN ATOMIC CHARGES
----------------------
   0 C :   -0.039617
   1 C :   -0.015868
   2 C :   -0.013954
   3 C :    0.071861
   4 H :    0.025423
   5 H :    0.032245
   6 C :   -0.011865
   7 C :   -0.245008
   8 N :    0.225866
   9 N :    0.225334
  10 H :   -0.006733
  11 H :   -0.005521
  12 H :   -0.060567
  13 H :   -0.052233
  14 H :   -0.000035
  15 H :    0.008724
  16 H :    0.007681
  17 H :    0.024291
  18 H :    0.017826
  19 O :   -0.138550
  20 F :   -0.049298

  Mayer bond orders larger than 0.100000
B(  0-C ,  1-C ) :   0.9782 B(  0-C ,  2-C ) :   1.1993 B(  0-C , 12-H ) :   0.2184
B(  0-C , 15-H ) :   0.7142 B(  0-C , 16-H ) :   0.7236 B(  0-C , 18-H ) :   0.2249
B(  1-C ,  2-C ) :   0.1899 B(  1-C ,  7-C ) :   1.7075 B(  1-C ,  8-N ) :   0.3684
B(  1-C ,  9-N ) :   0.1685 B(  1-C , 12-H ) :   0.3638 B(  1-C , 15-H ) :   0.1240
B(  1-C , 16-H ) :   0.1924 B(  2-C ,  3-C ) :   1.1567 B(  2-C ,  4-H ) :   0.2043
B(  2-C ,  5-H ) :   0.1297 B(  2-C , 17-H ) :   0.7889 B(  2-C , 18-H ) :   0.8083
B(  3-C ,  4-H ) :   0.7564 B(  3-C ,  5-H ) :   0.8075 B(  3-C ,  6-C ) :   1.0870
B(  3-C , 17-H ) :   0.1031 B(  4-H ,  6-C ) :   0.1154 B(  5-H ,  6-C ) :   0.2287
B(  6-C , 19-O ) :   1.7543 B(  6-C , 20-F ) :   0.5654 B(  7-C ,  8-N ) :   0.8818
B(  7-C ,  9-N ) :   1.0186 B(  7-C , 12-H ) :   0.3209 B(  7-C , 14-H ) :   0.1949
B(  8-N ,  9-N ) :   0.1403 B(  8-N , 13-H ) :   0.9200 B(  8-N , 14-H ) :   0.8095
B(  9-N , 10-H ) :   1.0646 B(  9-N , 11-H ) :   0.9762 B( 10-H , 11-H ) :  -0.1080
B( 15-H , 16-H ) :  -0.1278 B( 17-H , 18-H ) :  -0.1032

Dispersion correction           -0.037900227
FINAL SINGLE POINT ENERGY      -519.182853492904

DIPOLE MOMENT
-------------
                                X             Y             Z
Electronic contribution:      5.83649      -4.48035      -3.89141
Nuclear contribution   :     -6.25608       3.89116       3.75052
                        -----------------------------------------
Total Dipole Moment    :     -0.41959      -0.58919      -0.14088
                        -----------------------------------------
Magnitude (a.u.)       :      0.73692
Magnitude (Debye)      :      1.87309

Rotational constants in cm-1:     0.061229     0.042568     0.033282
Rotational constants in MHz :  1835.590871  1276.154029   997.769927

                             ****ORCA TERMINATED NORMALLY****
TOTAL RUN TIME: 0 days 0 hours 1 minutes 8 seconds 499 msec
