                         Program Version 5.0.0 -  RELEASE  -
|  1> !B3LYP D3BJ RIJCOSX def2-SVPD def2/J TightSCF xyzfile
|  2>
|  3> *xyzfile 0 1 D5.xyz
|  4>
|  5> %MaxCore 64000
|  6>
|  7> %pal nprocs 4
|  8> end
|  9>
| 10> %scf
| 11>   MaxIter 150
| 12> end
| 13>
| 14>
| 15>                          ****END OF INPUT****

CARTESIAN COORDINATES (ANGSTROEM)
---------------------------------
  C      3.905947    2.819855   -3.752920
  N      5.295615    3.131515   -4.105334
  C      3.803511    1.374716   -3.260807
  C      3.939934    0.320362   -4.367729
  H      4.105043   -0.655085   -3.907733
  H      3.022801    0.280517   -4.957117
  C      5.105846    0.668022   -5.305463
  C      5.708619    3.468885   -5.324190
  C      6.904696    3.038954   -5.717084
  N      4.981884    4.293570   -6.097457
  H      5.000546    4.101311   -7.087761
  H      4.084693    4.596899   -5.739652
  H      5.963358    2.526112   -3.642391
  H      7.047164    2.066861   -5.473604
  H      7.198145    3.307994   -6.645225
  H      3.282025    2.949187   -4.640259
  H      3.565254    3.514574   -2.982523
  H      4.574833    1.215157   -2.500443
  H      2.843514    1.260845   -2.751465
  O      4.809132    1.150187   -6.414361
  F      6.267366    0.564999   -4.819481

 Total Charge           Charge          ....    0
 Multiplicity           Mult            ....    1
 Number of Electrons    NEL             ....   78
 Basis Dimension        Dim             ....  294

ORBITAL ENERGIES
----------------

  NO   OCC          E(Eh)            E(eV)
   0   2.0000     -24.772334      -674.0895
   1   2.0000     -19.153073      -521.1816
   2   2.0000     -14.337292      -390.1375
   3   2.0000     -14.327867      -389.8811
   4   2.0000     -10.368993      -282.1546
   5   2.0000     -10.231531      -278.4141
   6   2.0000     -10.223273      -278.1894
   7   2.0000     -10.222451      -278.1670
   8   2.0000     -10.216309      -277.9999
   9   2.0000     -10.085852      -274.4500
  10   2.0000      -1.310433       -35.6587
  11   2.0000      -1.037522       -28.2324
  12   2.0000      -0.963907       -26.2293
  13   2.0000      -0.881477       -23.9862
  14   2.0000      -0.814646       -22.1676
  15   2.0000      -0.739575       -20.1248
  16   2.0000      -0.697850       -18.9895
  17   2.0000      -0.660586       -17.9755
  18   2.0000      -0.620952       -16.8970
  19   2.0000      -0.599319       -16.3083
  20   2.0000      -0.560151       -15.2425
  21   2.0000      -0.556490       -15.1429
  22   2.0000      -0.524511       -14.2727
  23   2.0000      -0.507799       -13.8179
  24   2.0000      -0.500626       -13.6227
  25   2.0000      -0.488266       -13.2864
  26   2.0000      -0.469124       -12.7655
  27   2.0000      -0.443794       -12.0762
  28   2.0000      -0.425691       -11.5836
  29   2.0000      -0.407274       -11.0825
  30   2.0000      -0.397748       -10.8233
  31   2.0000      -0.385840       -10.4992
  32   2.0000      -0.377168       -10.2633
  33   2.0000      -0.369788       -10.0625
  34   2.0000      -0.363009        -9.8780
  35   2.0000      -0.326983        -8.8977
  36   2.0000      -0.297981        -8.1085
  37   2.0000      -0.263632        -7.1738
  38   2.0000      -0.167838        -4.5671
  39   0.0000      -0.039461        -1.0738
  40   0.0000       0.005216         0.1419
  41   0.0000       0.024042         0.6542
  42   0.0000       0.034581         0.9410
  43   0.0000       0.040693         1.1073

MULLIKEN ATOMIC CHARGES
-----------------------
   0 C :    0.966324
   1 N :   -0.251878
   2 C :    0.259110
   3 C :    0.450455
   4 H :   -0.164617
   5 H :   -0.066514
   6 C :    0.615904
   7 C :    0.019441
   8 C :    0.985412
   9 N :    0.144348
  10 H :   -0.059308
  11 H :   -0.058590
  12 H :   -0.109135
  13 H :   -0.617890
  14 H :   -0.333060
  15 H :   -0.073676
  16 H :   -0.453068
  17 H :   -0.066955
  18 H :   -0.257253
  19 O :   -0.422205
  20 F :   -0.506847
Sum of atomic charges:    0.0000000

LOEWDIN ATOMIC CHARGES
----------------------
   0 C :    0.064158
   1 N :    0.015595
   2 C :   -0.004448
   3 C :    0.071292
   4 H :    0.028017
   5 H :    0.033338
   6 C :   -0.012279
   7 C :   -0.255902
   8 C :    0.167030
   9 N :    0.221176
  10 H :    0.006099
  11 H :   -0.020884
  12 H :    0.010384
  13 H :   -0.139687
  14 H :   -0.090086
  15 H :    0.017425
  16 H :    0.013080
  17 H :    0.024073
  18 H :    0.021968
  19 O :   -0.119246
  20 F :   -0.051103

  Mayer bond orders larger than 0.100000
B(  0-C ,  1-N ) :   0.8614 B(  0-C ,  2-C ) :   1.1550 B(  0-C , 15-H ) :   0.6936
B(  0-C , 16-H ) :   0.7572 B(  0-C , 18-H ) :   0.2005 B(  1-N ,  2-C ) :   0.1666
B(  1-N ,  7-C ) :   1.1603 B(  1-N ,  8-C ) :   0.1782 B(  1-N , 12-H ) :   1.0329
B(  1-N , 15-H ) :   0.1470 B(  1-N , 16-H ) :   0.1111 B(  2-C ,  3-C ) :   1.1793
B(  2-C ,  4-H ) :   0.2033 B(  2-C ,  5-H ) :   0.1248 B(  2-C , 17-H ) :   0.7936
B(  2-C , 18-H ) :   0.8649 B(  3-C ,  4-H ) :   0.7577 B(  3-C ,  5-H ) :   0.8053
B(  3-C ,  6-C ) :   1.0854 B(  4-H ,  6-C ) :   0.1199 B(  5-H ,  6-C ) :   0.2329
B(  6-C , 13-H ) :   0.1047 B(  6-C , 19-O ) :   1.8064 B(  6-C , 20-F ) :   0.6026
B(  7-C ,  8-C ) :   1.8144 B(  7-C ,  9-N ) :   0.9153 B(  7-C , 11-H ) :   0.1766
B(  7-C , 12-H ) :  -0.1340 B(  7-C , 13-H ) :   0.2391 B(  7-C , 14-H ) :   0.4987
B(  8-C ,  9-N ) :   0.2902 B(  8-C , 13-H ) :   0.3523 B(  8-C , 14-H ) :   0.2246
B(  9-N , 10-H ) :   1.0529 B(  9-N , 11-H ) :   0.8501 B(  9-N , 14-H ) :   0.1004
B( 10-H , 11-H ) :  -0.1290 B( 13-H , 14-H ) :   0.1546 B( 13-H , 20-F ) :   0.2251
B( 15-H , 16-H ) :  -0.1457

Dispersion correction           -0.037642309
FINAL SINGLE POINT ENERGY      -519.157727037995

DIPOLE MOMENT
-------------
                                X             Y             Z
Electronic contribution:      4.42543      -4.64551      -2.59198
Nuclear contribution   :     -6.05797       3.87976       3.55209
                        -----------------------------------------
Total Dipole Moment    :     -1.63253      -0.76575       0.96011
                        -----------------------------------------
Magnitude (a.u.)       :      2.04288
Magnitude (Debye)      :      5.19258

Rotational constants in cm-1:     0.061282     0.043164     0.033679
Rotational constants in MHz :  1837.191639  1294.028651  1009.659886

                             ****ORCA TERMINATED NORMALLY****
TOTAL RUN TIME: 0 days 0 hours 1 minutes 18 seconds 610 msec
