                         Program Version 5.0.0 -  RELEASE  -
|  1> !PBE D3BJ RIJCOSX def2-SVPD def2/J TightSCF
|  2> *xyz -1 1
|  3> C         -7.33044       -2.67899       -3.20681
|  4> S         -6.01966       -2.92697       -4.41913
|  5> O         -5.64583       -1.58838       -4.91931
|  6> O         -4.88196       -3.50370       -3.66724
|  7> O         -6.54927       -3.80515       -5.42507
|  8> C         -6.28692       -0.73588       -1.89353
|  9> C         -7.46900       -1.24615       -2.71383
| 10> H         -7.60191       -0.60135       -3.58533
| 11> H         -8.38979       -1.17344       -2.12692
| 12> H         -7.11825       -3.37982       -2.39805
| 13> H         -8.24184       -3.00474       -3.70651
| 14> H         -5.39124       -0.81034       -2.47415
| 15> H         -6.18709       -1.32597       -1.00655
| 16> H         -6.45393        0.28631       -1.62495
| 17> *
| 18> %MaxCore 64000
| 19>
| 20> %pal nprocs 8
| 21> end
| 22>
| 23> %scf
| 24>   MaxIter 150
| 25> end
| 26>
| 27>
| 28>                          ****END OF INPUT****

CARTESIAN COORDINATES (ANGSTROEM)
---------------------------------
  C     -7.330440   -2.678990   -3.206810
  S     -6.019660   -2.926970   -4.419130
  O     -5.645830   -1.588380   -4.919310
  O     -4.881960   -3.503700   -3.667240
  O     -6.549270   -3.805150   -5.425070
  C     -6.286920   -0.735880   -1.893530
  C     -7.469000   -1.246150   -2.713830
  H     -7.601910   -0.601350   -3.585330
  H     -8.389790   -1.173440   -2.126920
  H     -7.118250   -3.379820   -2.398050
  H     -8.241840   -3.004740   -3.706510
  H     -5.391240   -0.810340   -2.474150
  H     -6.187090   -1.325970   -1.006550
  H     -6.453930    0.286310   -1.624950

 Total Charge           Charge          ....   -1
 Multiplicity           Mult            ....    1
 Number of Electrons    NEL             ....   66
 Basis Dimension        Dim             ....  212

ORBITAL ENERGIES
----------------

  NO   OCC          E(Eh)            E(eV)
   0   2.0000     -88.056054     -2396.1270
   1   2.0000     -18.550596      -504.7874
   2   2.0000     -18.541508      -504.5401
   3   2.0000     -18.537134      -504.4210
   4   2.0000      -9.766206      -265.7520
   5   2.0000      -9.759580      -265.5717
   6   2.0000      -9.749397      -265.2946
   7   2.0000      -7.660230      -208.4455
   8   2.0000      -5.687252      -154.7580
   9   2.0000      -5.687151      -154.7552
  10   2.0000      -5.686461      -154.7365
  11   2.0000      -0.839407       -22.8414
  12   2.0000      -0.704158       -19.1611
  13   2.0000      -0.682195       -18.5635
  14   2.0000      -0.581132       -15.8134
  15   2.0000      -0.496511       -13.5108
  16   2.0000      -0.407842       -11.0979
  17   2.0000      -0.326142        -8.8748
  18   2.0000      -0.279934        -7.6174
  19   2.0000      -0.273996        -7.4558
  20   2.0000      -0.244437        -6.6515
  21   2.0000      -0.232584        -6.3289
  22   2.0000      -0.212030        -5.7696
  23   2.0000      -0.205111        -5.5814
  24   2.0000      -0.180816        -4.9203
  25   2.0000      -0.175198        -4.7674
  26   2.0000      -0.163946        -4.4612
  27   2.0000      -0.104620        -2.8469
  28   2.0000      -0.101676        -2.7667
  29   2.0000      -0.073305        -1.9947
  30   2.0000      -0.066001        -1.7960
  31   2.0000      -0.055954        -1.5226
  32   2.0000      -0.020607        -0.5607
  33   0.0000       0.119718         3.2577
  34   0.0000       0.145481         3.9587
  35   0.0000       0.151415         4.1202
  36   0.0000       0.161294         4.3890
  37   0.0000       0.179281         4.8785

MULLIKEN ATOMIC CHARGES
-----------------------
   0 C :    0.025840
   1 S :    1.169206
   2 O :   -0.789898
   3 O :   -0.763027
   4 O :   -0.745426
   5 C :    0.779897
   6 C :   -0.216274
   7 H :    0.030249
   8 H :   -0.225819
   9 H :   -0.020251
  10 H :   -0.038976
  11 H :   -0.098752
  12 H :   -0.023950
  13 H :   -0.082819
Sum of atomic charges:   -1.0000000

LOEWDIN ATOMIC CHARGES
----------------------
   0 C :   -0.090546
   1 S :    0.819965
   2 O :   -0.556378
   3 O :   -0.574816
   4 O :   -0.549952
   5 C :    0.122427
   6 C :   -0.107758
   7 H :    0.014116
   8 H :    0.004851
   9 H :    0.002999
  10 H :   -0.004958
  11 H :   -0.025623
  12 H :   -0.022871
  13 H :   -0.031456

  Mayer bond orders larger than 0.100000
B(  0-C ,  1-S ) :   0.8629 B(  0-C ,  4-O ) :   0.1096 B(  0-C ,  6-C ) :   1.2518
B(  0-C ,  7-H ) :   0.1522 B(  0-C ,  8-H ) :   0.1351 B(  0-C ,  9-H ) :   0.9183
B(  0-C , 10-H ) :   0.9247 B(  1-S ,  2-O ) :   1.2903 B(  1-S ,  3-O ) :   1.2943
B(  1-S ,  4-O ) :   1.3747 B(  5-C ,  6-C ) :   1.3014 B(  5-C , 11-H ) :   0.8131
B(  5-C , 12-H ) :   0.7583 B(  5-C , 13-H ) :   0.7488 B(  6-C ,  7-H ) :   0.8501
B(  6-C ,  8-H ) :   0.9269 B(  6-C ,  9-H ) :   0.1155 B(  6-C , 10-H ) :   0.1235
B(  6-C , 11-H ) :   0.2269 B(  6-C , 12-H ) :   0.2256 B(  6-C , 13-H ) :   0.2275

Dispersion correction           -0.013346290
FINAL SINGLE POINT ENERGY      -741.520649640723

DIPOLE MOMENT
-------------
                                X             Y             Z
Electronic contribution:      3.86275      -5.86313      -7.98644
Nuclear contribution   :     -5.28952       6.71955       9.52938
                        -----------------------------------------
Total Dipole Moment    :     -1.42677       0.85642       1.54294
                        -----------------------------------------
Magnitude (a.u.)       :      2.26931
Magnitude (Debye)      :      5.76813

Rotational constants in cm-1:     0.135789     0.055302     0.052251
Rotational constants in MHz :  4070.851802  1657.908940  1566.458563

                             ****ORCA TERMINATED NORMALLY****
TOTAL RUN TIME: 0 days 0 hours 0 minutes 6 seconds 29 msec
