                         Program Version 5.0.0 -  RELEASE  -
|  1> !PBE D3BJ RIJCOSX def2-SVPD def2/J TightSCF
|  2> *xyz 1 1
|  3> C         -2.16038       -1.36949       -3.46710
|  4> N         -3.03011       -1.91086       -4.54107
|  5> C         -2.04772        0.14658       -3.51177
|  6> H         -3.47744       -2.79151       -4.25710
|  7> H         -2.53801       -2.01786       -5.43808
|  8> H         -3.89159       -1.37604       -4.71437
|  9> H         -1.18444       -1.84400       -3.56639
| 10> H         -2.59819       -1.70838       -2.52848
| 11> C         -3.32876        0.87504       -3.10367
| 12> H         -1.74003        0.45234       -4.51713
| 13> H         -1.23261        0.43494       -2.84221
| 14> H         -4.12483        0.59148       -3.76000
| 15> H         -3.17368        1.93185       -3.16688
| 16> H         -3.58415        0.61151       -2.09857
| 17> *
| 18> %MaxCore 64000
| 19>
| 20> %pal nprocs 8
| 21> end
| 22>
| 23> %scf
| 24>   MaxIter 150
| 25> end
| 26>
| 27>
| 28>                          ****END OF INPUT****

CARTESIAN COORDINATES (ANGSTROEM)
---------------------------------
  C     -2.160380   -1.369490   -3.467100
  N     -3.030110   -1.910860   -4.541070
  C     -2.047720    0.146580   -3.511770
  H     -3.477440   -2.791510   -4.257100
  H     -2.538010   -2.017860   -5.438080
  H     -3.891590   -1.376040   -4.714370
  H     -1.184440   -1.844000   -3.566390
  H     -2.598190   -1.708380   -2.528480
  C     -3.328760    0.875040   -3.103670
  H     -1.740030    0.452340   -4.517130
  H     -1.232610    0.434940   -2.842210
  H     -4.124830    0.591480   -3.760000
  H     -3.173680    1.931850   -3.166880
  H     -3.584150    0.611510   -2.098570

 Total Charge           Charge          ....    1
 Multiplicity           Mult            ....    1
 Number of Electrons    NEL             ....   34
 Basis Dimension        Dim             ....  160

ORBITAL ENERGIES
----------------

  NO   OCC          E(Eh)            E(eV)
   0   2.0000     -14.329131      -389.9155
   1   2.0000     -10.142418      -275.9892
   2   2.0000     -10.075398      -274.1655
   3   2.0000     -10.041968      -273.2558
   4   2.0000      -1.125674       -30.6311
   5   2.0000      -0.899612       -24.4797
   6   2.0000      -0.817098       -22.2344
   7   2.0000      -0.755360       -20.5544
   8   2.0000      -0.729288       -19.8449
   9   2.0000      -0.709514       -19.3069
  10   2.0000      -0.645303       -17.5596
  11   2.0000      -0.584414       -15.9027
  12   2.0000      -0.561999       -15.2928
  13   2.0000      -0.540470       -14.7069
  14   2.0000      -0.485352       -13.2071
  15   2.0000      -0.479608       -13.0508
  16   2.0000      -0.471427       -12.8282
  17   0.0000      -0.214516        -5.8373
  18   0.0000      -0.162414        -4.4195
  19   0.0000      -0.158895        -4.3237
  20   0.0000      -0.136840        -3.7236
  21   0.0000      -0.112602        -3.0641

MULLIKEN ATOMIC CHARGES
-----------------------
   0 C :    0.696257
   1 N :   -0.879495
   2 C :   -0.307929
   3 H :    0.369136
   4 H :    0.429623
   5 H :    0.331344
   6 H :   -0.115033
   7 H :   -0.020892
   8 C :    0.781203
   9 H :   -0.034838
  10 H :   -0.024108
  11 H :   -0.212284
  12 H :   -0.034836
  13 H :    0.021852
Sum of atomic charges:    1.0000000

LOEWDIN ATOMIC CHARGES
----------------------
   0 C :    0.084047
   1 N :    0.334291
   2 C :   -0.048135
   3 H :    0.104837
   4 H :    0.112177
   5 H :    0.086536
   6 H :    0.054541
   7 H :    0.054035
   8 C :    0.152075
   9 H :    0.036784
  10 H :    0.048068
  11 H :   -0.027123
  12 H :    0.007431
  13 H :    0.000435

  Mayer bond orders larger than 0.100000
B(  0-C ,  1-N ) :   0.6845 B(  0-C ,  2-C ) :   1.2233 B(  0-C ,  6-H ) :   0.8549
B(  0-C ,  7-H ) :   0.8550 B(  0-C , 10-H ) :   0.1202 B(  1-N ,  3-H ) :   0.7065
B(  1-N ,  4-H ) :   0.6499 B(  1-N ,  5-H ) :   0.7559 B(  1-N ,  6-H ) :   0.1364
B(  2-C ,  8-C ) :   1.3370 B(  2-C ,  9-H ) :   0.9206 B(  2-C , 10-H ) :   0.8932
B(  2-C , 11-H ) :   0.2003 B(  2-C , 12-H ) :   0.2125 B(  2-C , 13-H ) :   0.1890
B(  8-C , 11-H ) :   0.8161 B(  8-C , 12-H ) :   0.7755 B(  8-C , 13-H ) :   0.7659
B( 11-H , 13-H ) :   0.1064

Dispersion correction           -0.009311834
FINAL SINGLE POINT ENERGY      -174.491535338124

DIPOLE MOMENT
-------------
                                X             Y             Z
Electronic contribution:      0.33333      -2.10451      -1.07821
Nuclear contribution   :     -0.76147       0.35838       0.01319
                        -----------------------------------------
Total Dipole Moment    :     -0.42814      -1.74613      -1.06502
                        -----------------------------------------
Magnitude (a.u.)       :      2.08962
Magnitude (Debye)      :      5.31140

Rotational constants in cm-1:     0.457188     0.153451     0.133348
Rotational constants in MHz : 13706.154863  4600.337483  3997.673747

                             ****ORCA TERMINATED NORMALLY****
TOTAL RUN TIME: 0 days 0 hours 0 minutes 3 seconds 478 msec
