                         Program Version 5.0.0 -  RELEASE  -
|  1> !PBE D3BJ RIJCOSX def2-SVPD def2/J TightSCF
|  2> *xyz 0 1
|  3> C         -7.33044       -2.67899       -3.20681
|  4> S         -6.01966       -2.92697       -4.41913
|  5> F         -5.64583       -1.58838       -4.91931
|  6> O         -4.88196       -3.50370       -3.66724
|  7> O         -6.54927       -3.80515       -5.42507
|  8> C         -6.28692       -0.73588       -1.89353
|  9> C         -7.46900       -1.24615       -2.71383
| 10> H         -7.60191       -0.60135       -3.58533
| 11> H         -8.38979       -1.17344       -2.12692
| 12> H         -7.11825       -3.37982       -2.39805
| 13> H         -8.24184       -3.00474       -3.70651
| 14> H         -5.39124       -0.81034       -2.47415
| 15> H         -6.18709       -1.32597       -1.00655
| 16> H         -6.45393        0.28631       -1.62495
| 17> *
| 18> %MaxCore 64000
| 19>
| 20> %pal nprocs 8
| 21> end
| 22>
| 23> %scf
| 24>   MaxIter 150
| 25> end
| 26>
| 27>
| 28>                          ****END OF INPUT****

CARTESIAN COORDINATES (ANGSTROEM)
---------------------------------
  C     -7.330440   -2.678990   -3.206810
  S     -6.019660   -2.926970   -4.419130
  F     -5.645830   -1.588380   -4.919310
  O     -4.881960   -3.503700   -3.667240
  O     -6.549270   -3.805150   -5.425070
  C     -6.286920   -0.735880   -1.893530
  C     -7.469000   -1.246150   -2.713830
  H     -7.601910   -0.601350   -3.585330
  H     -8.389790   -1.173440   -2.126920
  H     -7.118250   -3.379820   -2.398050
  H     -8.241840   -3.004740   -3.706510
  H     -5.391240   -0.810340   -2.474150
  H     -6.187090   -1.325970   -1.006550
  H     -6.453930    0.286310   -1.624950

 Total Charge           Charge          ....    0
 Multiplicity           Mult            ....    1
 Number of Electrons    NEL             ....   66
 Basis Dimension        Dim             ....  212

ORBITAL ENERGIES
----------------

  NO   OCC          E(Eh)            E(eV)
   0   2.0000     -88.306353     -2402.9380
   1   2.0000     -24.372706      -663.2150
   2   2.0000     -18.780076      -511.0319
   3   2.0000     -18.765628      -510.6387
   4   2.0000      -9.956606      -270.9330
   5   2.0000      -9.932471      -270.2763
   6   2.0000      -9.902158      -269.4514
   7   2.0000      -7.911567      -215.2847
   8   2.0000      -5.942764      -161.7108
   9   2.0000      -5.936452      -161.5391
  10   2.0000      -5.934849      -161.4955
  11   2.0000      -1.243481       -33.8368
  12   2.0000      -1.020700       -27.7747
  13   2.0000      -0.921371       -25.0718
  14   2.0000      -0.762740       -20.7552
  15   2.0000      -0.682350       -18.5677
  16   2.0000      -0.636807       -17.3284
  17   2.0000      -0.576578       -15.6895
  18   2.0000      -0.524897       -14.2832
  19   2.0000      -0.504643       -13.7320
  20   2.0000      -0.485015       -13.1979
  21   2.0000      -0.445413       -12.1203
  22   2.0000      -0.433275       -11.7900
  23   2.0000      -0.416089       -11.3224
  24   2.0000      -0.400205       -10.8901
  25   2.0000      -0.390327       -10.6213
  26   2.0000      -0.349585        -9.5127
  27   2.0000      -0.343328        -9.3424
  28   2.0000      -0.338900        -9.2219
  29   2.0000      -0.327940        -8.9237
  30   2.0000      -0.290934        -7.9167
  31   2.0000      -0.277933        -7.5629
  32   2.0000      -0.264351        -7.1933
  33   0.0000      -0.036239        -0.9861
  34   0.0000       0.001558         0.0424
  35   0.0000       0.013235         0.3601
  36   0.0000       0.016889         0.4596
  37   0.0000       0.017295         0.4706

MULLIKEN ATOMIC CHARGES
-----------------------
   0 C :    0.061792
   1 S :    1.322872
   2 F :   -0.387887
   3 O :   -0.633804
   4 O :   -0.612476
   5 C :    0.816543
   6 C :   -0.193715
   7 H :    0.012359
   8 H :   -0.193964
   9 H :    0.012377
  10 H :   -0.005508
  11 H :   -0.131804
  12 H :   -0.005990
  13 H :   -0.060795
Sum of atomic charges:    0.0000000

LOEWDIN ATOMIC CHARGES
----------------------
   0 C :   -0.045214
   1 S :    1.075770
   2 F :   -0.256417
   3 O :   -0.460205
   4 O :   -0.435413
   5 C :    0.141489
   6 C :   -0.090217
   7 H :    0.023867
   8 H :    0.031715
   9 H :    0.033217
  10 H :    0.020413
  11 H :   -0.024002
  12 H :   -0.005175
  13 H :   -0.009829

  Mayer bond orders larger than 0.100000
B(  0-C ,  1-S ) :   0.9430 B(  0-C ,  6-C ) :   1.2514 B(  0-C ,  7-H ) :   0.1326
B(  0-C ,  8-H ) :   0.1233 B(  0-C ,  9-H ) :   0.9109 B(  0-C , 10-H ) :   0.9174
B(  1-S ,  2-F ) :   0.6706 B(  1-S ,  3-O ) :   1.5034 B(  1-S ,  4-O ) :   1.5735
B(  5-C ,  6-C ) :   1.3253 B(  5-C , 11-H ) :   0.8126 B(  5-C , 12-H ) :   0.7591
B(  5-C , 13-H ) :   0.7458 B(  6-C ,  7-H ) :   0.8605 B(  6-C ,  8-H ) :   0.9145
B(  6-C ,  9-H ) :   0.1110 B(  6-C , 10-H ) :   0.1205 B(  6-C , 11-H ) :   0.2165
B(  6-C , 12-H ) :   0.2215 B(  6-C , 13-H ) :   0.2186

Dispersion correction           -0.012804565
FINAL SINGLE POINT ENERGY      -766.004538511525

DIPOLE MOMENT
-------------
                                X             Y             Z
Electronic contribution:      4.83606      -4.61613      -9.84467
Nuclear contribution   :     -5.93570       5.78812      10.65621
                        -----------------------------------------
Total Dipole Moment    :     -1.09963       1.17199       0.81153
                        -----------------------------------------
Magnitude (a.u.)       :      1.80037
Magnitude (Debye)      :      4.57618

Rotational constants in cm-1:     0.129417     0.054385     0.051980
Rotational constants in MHz :  3879.823072  1630.427453  1558.324762

                             ****ORCA TERMINATED NORMALLY****
TOTAL RUN TIME: 0 days 0 hours 0 minutes 6 seconds 96 msec
