                         Program Version 5.0.0 -  RELEASE  -
|  1> !PBE D3BJ RIJCOSX def2-SVPD def2/J TightSCF
|  2> *xyz 0 1
|  3> C         -2.16038       -1.36949       -3.46710
|  4> C         -3.03011       -1.91086       -4.54107
|  5> C         -2.04772        0.14658       -3.51177
|  6> H         -3.47744       -2.79151       -4.25710
|  7> H         -2.53801       -2.01786       -5.43808
|  8> H         -3.89159       -1.37604       -4.71437
|  9> H         -1.18444       -1.84400       -3.56639
| 10> H         -2.59819       -1.70838       -2.52848
| 11> C         -3.32876        0.87504       -3.10367
| 12> H         -1.74003        0.45234       -4.51713
| 13> H         -1.23261        0.43494       -2.84221
| 14> H         -4.12483        0.59148       -3.76000
| 15> H         -3.17368        1.93185       -3.16688
| 16> H         -3.58415        0.61151       -2.09857
| 17> *
| 18> %MaxCore 64000
| 19>
| 20> %pal nprocs 8
| 21> end
| 22>
| 23> %scf
| 24>   MaxIter 150
| 25> end
| 26>
| 27>
| 28>                          ****END OF INPUT****

CARTESIAN COORDINATES (ANGSTROEM)
---------------------------------
  C     -2.160380   -1.369490   -3.467100
  C     -3.030110   -1.910860   -4.541070
  C     -2.047720    0.146580   -3.511770
  H     -3.477440   -2.791510   -4.257100
  H     -2.538010   -2.017860   -5.438080
  H     -3.891590   -1.376040   -4.714370
  H     -1.184440   -1.844000   -3.566390
  H     -2.598190   -1.708380   -2.528480
  C     -3.328760    0.875040   -3.103670
  H     -1.740030    0.452340   -4.517130
  H     -1.232610    0.434940   -2.842210
  H     -4.124830    0.591480   -3.760000
  H     -3.173680    1.931850   -3.166880
  H     -3.584150    0.611510   -2.098570

 Total Charge           Charge          ....    0
 Multiplicity           Mult            ....    1
 Number of Electrons    NEL             ....   34
 Basis Dimension        Dim             ....  160

ORBITAL ENERGIES
----------------

  NO   OCC          E(Eh)            E(eV)
   0   2.0000      -9.886284      -269.0195
   1   2.0000      -9.882679      -268.9214
   2   2.0000      -9.875959      -268.7385
   3   2.0000      -9.857927      -268.2478
   4   2.0000      -0.722994       -19.6737
   5   2.0000      -0.654980       -17.8229
   6   2.0000      -0.576799       -15.6955
   7   2.0000      -0.506617       -13.7857
   8   2.0000      -0.417254       -11.3541
   9   2.0000      -0.410676       -11.1751
  10   2.0000      -0.381487       -10.3808
  11   2.0000      -0.344814        -9.3829
  12   2.0000      -0.333655        -9.0792
  13   2.0000      -0.321476        -8.7478
  14   2.0000      -0.282336        -7.6828
  15   2.0000      -0.281177        -7.6512
  16   2.0000      -0.278944        -7.5905
  17   0.0000       0.008352         0.2273
  18   0.0000       0.034341         0.9345
  19   0.0000       0.036227         0.9858
  20   0.0000       0.042805         1.1648
  21   0.0000       0.076247         2.0748

MULLIKEN ATOMIC CHARGES
-----------------------
   0 C :   -0.210594
   1 C :    1.099432
   2 C :   -0.276760
   3 H :   -0.168726
   4 H :   -0.108973
   5 H :   -0.513497
   6 H :   -0.148450
   7 H :   -0.011338
   8 C :    0.761664
   9 H :   -0.092255
  10 H :   -0.086505
  11 H :   -0.222062
  12 H :   -0.050086
  13 H :    0.028150
Sum of atomic charges:    0.0000000

LOEWDIN ATOMIC CHARGES
----------------------
   0 C :   -0.077829
   1 C :    0.120350
   2 C :   -0.083981
   3 H :   -0.033464
   4 H :   -0.024826
   5 H :   -0.046258
   6 H :    0.023041
   7 H :    0.023669
   8 C :    0.125363
   9 H :    0.024265
  10 H :    0.015921
  11 H :   -0.030827
  12 H :   -0.019351
  13 H :   -0.016072

  Mayer bond orders larger than 0.100000
B(  0-C ,  1-C ) :   1.2817 B(  0-C ,  2-C ) :   1.2298 B(  0-C ,  3-H ) :   0.2232
B(  0-C ,  4-H ) :   0.2239 B(  0-C ,  5-H ) :   0.2662 B(  0-C ,  6-H ) :   0.9096
B(  0-C ,  7-H ) :   0.8519 B(  0-C ,  9-H ) :   0.1500 B(  0-C , 10-H ) :   0.1206
B(  1-C ,  3-H ) :   0.5581 B(  1-C ,  4-H ) :   0.6917 B(  1-C ,  5-H ) :   0.5328
B(  1-C ,  6-H ) :   0.1149 B(  1-C ,  7-H ) :   0.1315 B(  2-C ,  6-H ) :   0.1159
B(  2-C ,  8-C ) :   1.3118 B(  2-C ,  9-H ) :   0.9104 B(  2-C , 10-H ) :   0.9027
B(  2-C , 11-H ) :   0.2215 B(  2-C , 12-H ) :   0.2148 B(  2-C , 13-H ) :   0.2226
B(  3-H ,  5-H ) :   0.3091 B(  4-H ,  5-H ) :   0.1151 B(  8-C , 11-H ) :   0.8363
B(  8-C , 12-H ) :   0.7528 B(  8-C , 13-H ) :   0.7503

Dispersion correction           -0.009321802
FINAL SINGLE POINT ENERGY      -158.094501404467

DIPOLE MOMENT
-------------
                                X             Y             Z
Electronic contribution:      0.86828       0.03191       0.25363
Nuclear contribution   :     -0.87438      -0.05339      -0.25605
                        -----------------------------------------
Total Dipole Moment    :     -0.00610      -0.02148      -0.00242
                        -----------------------------------------
Magnitude (a.u.)       :      0.02246
Magnitude (Debye)      :      0.05709

Rotational constants in cm-1:     0.464420     0.160323     0.139078
Rotational constants in MHz : 13922.972952  4806.377145  4169.443621

                             ****ORCA TERMINATED NORMALLY****
TOTAL RUN TIME: 0 days 0 hours 0 minutes 3 seconds 474 msec
