                         Program Version 5.0.0 -  RELEASE  -
|  1> !PBE D3BJ RIJCOSX def2-SVPD def2/J TightSCF
|  2> *xyz 0 1
|  3> C         -7.33044       -2.67899       -3.20681
|  4> S         -6.01966       -2.92697       -4.41913
|  5> O         -5.64583       -1.58838       -4.91931
|  6> F         -4.88196       -3.50370       -3.66724
|  7> O         -6.54927       -3.80515       -5.42507
|  8> C         -6.28692       -0.73588       -1.89353
|  9> C         -7.46900       -1.24615       -2.71383
| 10> H         -7.60191       -0.60135       -3.58533
| 11> H         -8.38979       -1.17344       -2.12692
| 12> H         -7.11825       -3.37982       -2.39805
| 13> H         -8.24184       -3.00474       -3.70651
| 14> H         -5.39124       -0.81034       -2.47415
| 15> H         -6.18709       -1.32597       -1.00655
| 16> H         -6.45393        0.28631       -1.62495
| 17> *
| 18> %MaxCore 64000
| 19>
| 20> %pal nprocs 8
| 21> end
| 22>
| 23> %scf
| 24>   MaxIter 150
| 25> end
| 26>
| 27>
| 28>                          ****END OF INPUT****

CARTESIAN COORDINATES (ANGSTROEM)
---------------------------------
  C     -7.330440   -2.678990   -3.206810
  S     -6.019660   -2.926970   -4.419130
  O     -5.645830   -1.588380   -4.919310
  F     -4.881960   -3.503700   -3.667240
  O     -6.549270   -3.805150   -5.425070
  C     -6.286920   -0.735880   -1.893530
  C     -7.469000   -1.246150   -2.713830
  H     -7.601910   -0.601350   -3.585330
  H     -8.389790   -1.173440   -2.126920
  H     -7.118250   -3.379820   -2.398050
  H     -8.241840   -3.004740   -3.706510
  H     -5.391240   -0.810340   -2.474150
  H     -6.187090   -1.325970   -1.006550
  H     -6.453930    0.286310   -1.624950

 Total Charge           Charge          ....    0
 Multiplicity           Mult            ....    1
 Number of Electrons    NEL             ....   66
 Basis Dimension        Dim             ....  212

ORBITAL ENERGIES
----------------

  NO   OCC          E(Eh)            E(eV)
   0   2.0000     -88.306764     -2402.9492
   1   2.0000     -24.369564      -663.1295
   2   2.0000     -18.780491      -511.0431
   3   2.0000     -18.769644      -510.7480
   4   2.0000      -9.957151      -270.9479
   5   2.0000      -9.924684      -270.0644
   6   2.0000      -9.896254      -269.2908
   7   2.0000      -7.911998      -215.2964
   8   2.0000      -5.943098      -161.7199
   9   2.0000      -5.936899      -161.5512
  10   2.0000      -5.935361      -161.5094
  11   2.0000      -1.239638       -33.7323
  12   2.0000      -1.022049       -27.8114
  13   2.0000      -0.925510       -25.1844
  14   2.0000      -0.757919       -20.6240
  15   2.0000      -0.681626       -18.5480
  16   2.0000      -0.633937       -17.2503
  17   2.0000      -0.571498       -15.5513
  18   2.0000      -0.512533       -13.9467
  19   2.0000      -0.500760       -13.6264
  20   2.0000      -0.493852       -13.4384
  21   2.0000      -0.445406       -12.1201
  22   2.0000      -0.437369       -11.9014
  23   2.0000      -0.406244       -11.0545
  24   2.0000      -0.398668       -10.8483
  25   2.0000      -0.390745       -10.6327
  26   2.0000      -0.346654        -9.4329
  27   2.0000      -0.341397        -9.2899
  28   2.0000      -0.328733        -8.9453
  29   2.0000      -0.323298        -8.7974
  30   2.0000      -0.289962        -7.8903
  31   2.0000      -0.285541        -7.7700
  32   2.0000      -0.267800        -7.2872
  33   0.0000      -0.025395        -0.6910
  34   0.0000      -0.009823        -0.2673
  35   0.0000       0.008529         0.2321
  36   0.0000       0.018017         0.4903
  37   0.0000       0.024949         0.6789

MULLIKEN ATOMIC CHARGES
-----------------------
   0 C :    0.017244
   1 S :    1.342384
   2 O :   -0.667774
   3 F :   -0.366974
   4 O :   -0.612679
   5 C :    0.799719
   6 C :   -0.155510
   7 H :    0.042033
   8 H :   -0.202117
   9 H :    0.022219
  10 H :   -0.011037
  11 H :   -0.134162
  12 H :   -0.008917
  13 H :   -0.064429
Sum of atomic charges:   -0.0000000

LOEWDIN ATOMIC CHARGES
----------------------
   0 C :   -0.050716
   1 S :    1.080381
   2 O :   -0.448903
   3 F :   -0.261286
   4 O :   -0.435600
   5 C :    0.139596
   6 C :   -0.082520
   7 H :    0.028967
   8 H :    0.032218
   9 H :    0.020684
  10 H :    0.024769
  11 H :   -0.026371
  12 H :   -0.012067
  13 H :   -0.009152

  Mayer bond orders larger than 0.100000
B(  0-C ,  1-S ) :   0.9312 B(  0-C ,  6-C ) :   1.2862 B(  0-C ,  7-H ) :   0.1484
B(  0-C ,  8-H ) :   0.1353 B(  0-C ,  9-H ) :   0.9005 B(  0-C , 10-H ) :   0.9212
B(  1-S ,  2-O ) :   1.5031 B(  1-S ,  3-F ) :   0.6644 B(  1-S ,  4-O ) :   1.5775
B(  5-C ,  6-C ) :   1.3194 B(  5-C , 11-H ) :   0.8163 B(  5-C , 12-H ) :   0.7619
B(  5-C , 13-H ) :   0.7493 B(  6-C ,  7-H ) :   0.8504 B(  6-C ,  8-H ) :   0.9008
B(  6-C ,  9-H ) :   0.1175 B(  6-C , 10-H ) :   0.1110 B(  6-C , 11-H ) :   0.2132
B(  6-C , 12-H ) :   0.2194 B(  6-C , 13-H ) :   0.2184

Dispersion correction           -0.012860962
FINAL SINGLE POINT ENERGY      -766.008291455715

DIPOLE MOMENT
-------------
                                X             Y             Z
Electronic contribution:      6.15865      -7.84797      -7.78911
Nuclear contribution   :     -6.75719       7.84793       9.30968
                        -----------------------------------------
Total Dipole Moment    :     -0.59854      -0.00004       1.52057
                        -----------------------------------------
Magnitude (a.u.)       :      1.63413
Magnitude (Debye)      :      4.15363

Rotational constants in cm-1:     0.129104     0.054499     0.051192
Rotational constants in MHz :  3870.429564  1633.827608  1534.709243

                             ****ORCA TERMINATED NORMALLY****
TOTAL RUN TIME: 0 days 0 hours 0 minutes 5 seconds 779 msec
