                         Program Version 5.0.0 -  RELEASE  -
|  1> !PBE D3BJ RIJCOSX def2-SVPD def2/J TightSCF
|  2> *xyz 0 1
|  3> C         -7.33044       -2.67899       -3.20681
|  4> S         -6.01966       -2.92697       -4.41913
|  5> O         -5.64583       -1.58838       -4.91931
|  6> O         -4.88196       -3.50370       -3.66724
|  7> F         -6.54927       -3.80515       -5.42507
|  8> C         -6.28692       -0.73588       -1.89353
|  9> C         -7.46900       -1.24615       -2.71383
| 10> H         -7.60191       -0.60135       -3.58533
| 11> H         -8.38979       -1.17344       -2.12692
| 12> H         -7.11825       -3.37982       -2.39805
| 13> H         -8.24184       -3.00474       -3.70651
| 14> H         -5.39124       -0.81034       -2.47415
| 15> H         -6.18709       -1.32597       -1.00655
| 16> H         -6.45393        0.28631       -1.62495
| 17> *
| 18> %MaxCore 64000
| 19>
| 20> %pal nprocs 8
| 21> end
| 22>
| 23> %scf
| 24>   MaxIter 150
| 25> end
| 26>
| 27>
| 28>                          ****END OF INPUT****

CARTESIAN COORDINATES (ANGSTROEM)
---------------------------------
  C     -7.330440   -2.678990   -3.206810
  S     -6.019660   -2.926970   -4.419130
  O     -5.645830   -1.588380   -4.919310
  O     -4.881960   -3.503700   -3.667240
  F     -6.549270   -3.805150   -5.425070
  C     -6.286920   -0.735880   -1.893530
  C     -7.469000   -1.246150   -2.713830
  H     -7.601910   -0.601350   -3.585330
  H     -8.389790   -1.173440   -2.126920
  H     -7.118250   -3.379820   -2.398050
  H     -8.241840   -3.004740   -3.706510
  H     -5.391240   -0.810340   -2.474150
  H     -6.187090   -1.325970   -1.006550
  H     -6.453930    0.286310   -1.624950

 Total Charge           Charge          ....    0
 Multiplicity           Mult            ....    1
 Number of Electrons    NEL             ....   66
 Basis Dimension        Dim             ....  212

ORBITAL ENERGIES
----------------

  NO   OCC          E(Eh)            E(eV)
   0   2.0000     -88.309331     -2403.0191
   1   2.0000     -24.390880      -663.7096
   2   2.0000     -18.770604      -510.7741
   3   2.0000     -18.767177      -510.6808
   4   2.0000      -9.957848      -270.9668
   5   2.0000      -9.924480      -270.0588
   6   2.0000      -9.889034      -269.0943
   7   2.0000      -7.914518      -215.3650
   8   2.0000      -5.945833      -161.7943
   9   2.0000      -5.939237      -161.6149
  10   2.0000      -5.937676      -161.5724
  11   2.0000      -1.275977       -34.7211
  12   2.0000      -1.007850       -27.4250
  13   2.0000      -0.908976       -24.7345
  14   2.0000      -0.756865       -20.5954
  15   2.0000      -0.687643       -18.7117
  16   2.0000      -0.642720       -17.4893
  17   2.0000      -0.573714       -15.6115
  18   2.0000      -0.527366       -14.3504
  19   2.0000      -0.522181       -14.2093
  20   2.0000      -0.498322       -13.5600
  21   2.0000      -0.441128       -12.0037
  22   2.0000      -0.437575       -11.9070
  23   2.0000      -0.411533       -11.1984
  24   2.0000      -0.394807       -10.7432
  25   2.0000      -0.378538       -10.3005
  26   2.0000      -0.340681        -9.2704
  27   2.0000      -0.333853        -9.0846
  28   2.0000      -0.327899        -8.9226
  29   2.0000      -0.315088        -8.5740
  30   2.0000      -0.284740        -7.7482
  31   2.0000      -0.277036        -7.5385
  32   2.0000      -0.255224        -6.9450
  33   0.0000      -0.027715        -0.7542
  34   0.0000      -0.012530        -0.3410
  35   0.0000       0.008611         0.2343
  36   0.0000       0.019120         0.5203
  37   0.0000       0.021460         0.5840

MULLIKEN ATOMIC CHARGES
-----------------------
   0 C :    0.016745
   1 S :    1.374390
   2 O :   -0.660230
   3 O :   -0.626840
   4 F :   -0.378479
   5 C :    0.808007
   6 C :   -0.193613
   7 H :    0.040648
   8 H :   -0.201657
   9 H :    0.015154
  10 H :   -0.000282
  11 H :   -0.119610
  12 H :   -0.011208
  13 H :   -0.063025
Sum of atomic charges:    0.0000000

LOEWDIN ATOMIC CHARGES
----------------------
   0 C :   -0.056397
   1 S :    1.085186
   2 O :   -0.450777
   3 O :   -0.459026
   4 F :   -0.242596
   5 C :    0.145055
   6 C :   -0.079146
   7 H :    0.026324
   8 H :    0.032415
   9 H :    0.025768
  10 H :    0.012800
  11 H :   -0.020447
  12 H :   -0.009055
  13 H :   -0.010102

  Mayer bond orders larger than 0.100000
B(  0-C ,  1-S ) :   0.9182 B(  0-C ,  6-C ) :   1.2951 B(  0-C ,  7-H ) :   0.1459
B(  0-C ,  8-H ) :   0.1279 B(  0-C ,  9-H ) :   0.9276 B(  0-C , 10-H ) :   0.8719
B(  1-S ,  2-O ) :   1.4800 B(  1-S ,  3-O ) :   1.4942 B(  1-S ,  4-F ) :   0.7169
B(  5-C ,  6-C ) :   1.3231 B(  5-C , 11-H ) :   0.8181 B(  5-C , 12-H ) :   0.7548
B(  5-C , 13-H ) :   0.7453 B(  6-C ,  7-H ) :   0.8482 B(  6-C ,  8-H ) :   0.9076
B(  6-C ,  9-H ) :   0.1120 B(  6-C , 10-H ) :   0.1318 B(  6-C , 11-H ) :   0.2140
B(  6-C , 12-H ) :   0.2218 B(  6-C , 13-H ) :   0.2193

Dispersion correction           -0.012920491
FINAL SINGLE POINT ENERGY      -765.990205993154

DIPOLE MOMENT
-------------
                                X             Y             Z
Electronic contribution:      3.35178      -8.36487     -10.77792
Nuclear contribution   :     -4.96410       8.17213      11.20012
                        -----------------------------------------
Total Dipole Moment    :     -1.61232      -0.19274       0.42220
                        -----------------------------------------
Magnitude (a.u.)       :      1.67779
Magnitude (Debye)      :      4.26461

Rotational constants in cm-1:     0.133784     0.053405     0.050278
Rotational constants in MHz :  4010.731548  1601.045142  1507.298018

                             ****ORCA TERMINATED NORMALLY****
TOTAL RUN TIME: 0 days 0 hours 0 minutes 6 seconds 184 msec
