                         Program Version 5.0.0 -  RELEASE  -
|  1> !PBE D3BJ RIJCOSX def2-SVPD def2/J TightSCF xyzfile
|  2>
|  3> *xyzfile 0 1 D1.xyz
|  4>
|  5> %MaxCore 64000
|  6>
|  7> %pal nprocs 4
|  8> end
|  9>
| 10> %scf
| 11>   MaxIter 150
| 12> end
| 13>
| 14>
| 15>                          ****END OF INPUT****

CARTESIAN COORDINATES (ANGSTROEM)
---------------------------------
  C     -2.160376   -1.369486   -3.467104
  C     -3.030108   -1.910857   -4.541074
  C     -2.047717    0.146583   -3.511774
  C     -7.330440   -2.678991   -3.206811
  S     -6.019659   -2.926965   -4.419128
  H     -3.477443   -2.791513   -4.257096
  H     -2.538013   -2.017860   -5.438075
  H     -3.891589   -1.376039   -4.714365
  F     -5.645830   -1.588384   -4.919307
  O     -4.881961   -3.503697   -3.667235
  H     -1.184438   -1.843997   -3.566393
  H     -2.598195   -1.708376   -2.528477
  O     -6.549267   -3.805150   -5.425071
  C     -3.328755    0.875037   -3.103669
  H     -1.740034    0.452343   -4.517126
  H     -1.232611    0.434938   -2.842208
  C     -3.628487    0.771601   -1.609363
  H     -4.175106    0.490791   -3.682203
  H     -3.237812    1.928663   -3.381480
  C     -4.975718    1.361432   -1.190644
  H     -2.830700    1.276234   -1.054766
  H     -3.594312   -0.275838   -1.294603
  C     -6.184720    0.784347   -1.926464
  H     -4.956292    2.445725   -1.342200
  H     -5.097256    1.205252   -0.114136
  C     -6.286921   -0.735882   -1.893531
  H     -6.163994    1.100199   -2.974250
  H     -7.094530    1.223459   -1.504509
  C     -7.468999   -1.246153   -2.713833
  H     -6.360641   -1.090347   -0.859176
  H     -5.369848   -1.171853   -2.295982
  H     -7.601914   -0.601349   -3.585329
  H     -8.389791   -1.173436   -2.126922
  H     -7.118254   -3.379818   -2.398055
  H     -8.241838   -3.004745   -3.706513

 Total Charge           Charge          ....    0
 Multiplicity           Mult            ....    1
 Number of Electrons    NEL             ....  122
 Basis Dimension        Dim             ....  464

ORBITAL ENERGIES
----------------

  NO   OCC          E(Eh)            E(eV)
   0   2.0000     -88.313592     -2403.1350
   1   2.0000     -24.378184      -663.3641
   2   2.0000     -18.785569      -511.1813
   3   2.0000     -18.771336      -510.7940
   4   2.0000      -9.958892      -270.9952
   5   2.0000      -9.930235      -270.2154
   6   2.0000      -9.909634      -269.6548
   7   2.0000      -9.902064      -269.4489
   8   2.0000      -9.895230      -269.2629
   9   2.0000      -9.888660      -269.0841
  10   2.0000      -9.886370      -269.0218
  11   2.0000      -9.878721      -268.8137
  12   2.0000      -9.869523      -268.5634
  13   2.0000      -9.824079      -267.3268
  14   2.0000      -7.917583      -215.4484
  15   2.0000      -5.948792      -161.8749
  16   2.0000      -5.942664      -161.7081
  17   2.0000      -5.940863      -161.6591
  18   2.0000      -1.251022       -34.0420
  19   2.0000      -1.027043       -27.9473
  20   2.0000      -0.930757       -25.3272
  21   2.0000      -0.769577       -20.9412
  22   2.0000      -0.738299       -20.0901
  23   2.0000      -0.711477       -19.3603
  24   2.0000      -0.687271       -18.7016
  25   2.0000      -0.652507       -17.7556
  26   2.0000      -0.637814       -17.3558
  27   2.0000      -0.604602       -16.4521
  28   2.0000      -0.572047       -15.5662
  29   2.0000      -0.556715       -15.1490
  30   2.0000      -0.530610       -14.4386
  31   2.0000      -0.519876       -14.1465
  32   2.0000      -0.506069       -13.7708
  33   2.0000      -0.495306       -13.4780
  34   2.0000      -0.486344       -13.2341
  35   2.0000      -0.447906       -12.1881
  36   2.0000      -0.442063       -12.0291
  37   2.0000      -0.428816       -11.6687
  38   2.0000      -0.420805       -11.4507
  39   2.0000      -0.414950       -11.2914
  40   2.0000      -0.404731       -11.0133
  41   2.0000      -0.393534       -10.7086
  42   2.0000      -0.386776       -10.5247
  43   2.0000      -0.382005       -10.3949
  44   2.0000      -0.365595        -9.9483
  45   2.0000      -0.353022        -9.6062
  46   2.0000      -0.348481        -9.4827
  47   2.0000      -0.343255        -9.3405
  48   2.0000      -0.334201        -9.0941
  49   2.0000      -0.325502        -8.8574
  50   2.0000      -0.315037        -8.5726
  51   2.0000      -0.310754        -8.4560
  52   2.0000      -0.299483        -8.1493
  53   2.0000      -0.295316        -8.0360
  54   2.0000      -0.290308        -7.8997
  55   2.0000      -0.284307        -7.7364
  56   2.0000      -0.276294        -7.5183
  57   2.0000      -0.271385        -7.3848
  58   2.0000      -0.265786        -7.2324
  59   2.0000      -0.263489        -7.1699
  60   2.0000      -0.237901        -6.4736
  61   0.0000      -0.038259        -1.0411
  62   0.0000      -0.001512        -0.0412
  63   0.0000       0.003313         0.0901
  64   0.0000       0.007656         0.2083
  65   0.0000       0.011514         0.3133

MULLIKEN ATOMIC CHARGES
-----------------------
   0 C :    0.034713
   1 C :    1.911430
   2 C :    0.578910
   3 C :    0.453600
   4 S :    1.302198
   5 H :   -0.458495
   6 H :   -0.295057
   7 H :   -0.936998
   8 F :   -0.431362
   9 O :   -0.712256
  10 H :   -0.300301
  11 H :   -0.007790
  12 O :   -0.670073
  13 C :    0.370414
  14 H :   -0.098158
  15 H :   -0.108387
  16 C :   -0.158086
  17 H :   -0.532474
  18 H :   -0.075864
  19 C :    0.702724
  20 H :   -0.366363
  21 H :    0.143008
  22 C :   -0.115934
  23 H :   -0.028832
  24 H :    0.005803
  25 C :    0.307728
  26 H :    0.225819
  27 H :   -0.450488
  28 C :    0.287433
  29 H :   -0.057088
  30 H :   -0.328083
  31 H :    0.085313
  32 H :   -0.220711
  33 H :   -0.030600
  34 H :   -0.025690
Sum of atomic charges:    0.0000000

LOEWDIN ATOMIC CHARGES
----------------------
   0 C :   -0.039782
   1 C :    0.125191
   2 C :   -0.029969
   3 C :   -0.031443
   4 S :    1.115614
   5 H :   -0.120358
   6 H :   -0.012778
   7 H :   -0.094933
   8 F :   -0.252378
   9 O :   -0.431261
  10 H :    0.025349
  11 H :    0.012963
  12 O :   -0.418509
  13 C :   -0.024870
  14 H :    0.026239
  15 H :    0.018439
  16 C :   -0.036085
  17 H :   -0.005334
  18 H :    0.027414
  19 C :   -0.030988
  20 H :    0.026319
  21 H :    0.006837
  22 C :   -0.039914
  23 H :    0.024405
  24 H :    0.023602
  25 C :   -0.024922
  26 H :    0.017603
  27 H :    0.026906
  28 C :   -0.046058
  29 H :    0.042359
  30 H :    0.000118
  31 H :    0.024145
  32 H :    0.037548
  33 H :    0.036191
  34 H :    0.022341

  Mayer bond orders larger than 0.100000
B(  0-C ,  1-C ) :   1.0023 B(  0-C ,  2-C ) :   1.2237 B(  0-C ,  5-H ) :   0.4295
B(  0-C ,  6-H ) :   0.1322 B(  0-C ,  7-H ) :   0.4196 B(  0-C , 10-H ) :   0.8655
B(  0-C , 11-H ) :   0.7352 B(  0-C , 13-C ) :   0.1273 B(  0-C , 14-H ) :   0.1521
B(  0-C , 15-H ) :   0.1933 B(  1-C ,  5-H ) :  -0.2097 B(  1-C ,  6-H ) :   0.5821
B(  1-C ,  7-H ) :  -0.5851 B(  1-C , 11-H ) :   0.2436 B(  2-C ,  7-H ) :  -0.1024
B(  2-C , 11-H ) :   0.1157 B(  2-C , 13-C ) :   1.2049 B(  2-C , 14-H ) :   0.6658
B(  2-C , 15-H ) :   0.6997 B(  2-C , 17-H ) :   0.1677 B(  3-C ,  4-S ) :   0.8716
B(  3-C , 12-O ) :   0.1288 B(  3-C , 28-C ) :   1.2697 B(  3-C , 33-H ) :   0.8719
B(  3-C , 34-H ) :   0.7229 B(  4-S ,  8-F ) :   0.6412 B(  4-S ,  9-O ) :   1.4747
B(  4-S , 12-O ) :   1.4987 B(  5-H ,  6-H ) :  -0.1483 B(  5-H ,  7-H ) :   0.9086
B(  5-H ,  9-O ) :   0.1487 B(  6-H ,  7-H ) :   0.1508 B(  7-H ,  9-O ) :   0.1159
B(  7-H , 10-H ) :   0.1004 B(  7-H , 17-H ) :   0.1757 B(  9-O , 12-O ) :   0.1159
B( 10-H , 11-H ) :  -0.1051 B( 11-H , 21-H ) :   0.1143 B( 13-C , 14-H ) :   0.2172
B( 13-C , 15-H ) :   0.1701 B( 13-C , 16-C ) :   1.1930 B( 13-C , 17-H ) :   0.7521
B( 13-C , 18-H ) :   0.7176 B( 13-C , 20-H ) :   0.2046 B( 13-C , 21-H ) :   0.1132
B( 14-H , 15-H ) :  -0.1610 B( 16-C , 17-H ) :   0.2115 B( 16-C , 18-H ) :   0.2056
B( 16-C , 19-C ) :   1.1890 B( 16-C , 20-H ) :   0.9713 B( 16-C , 21-H ) :   0.8301
B( 16-C , 22-C ) :   0.1741 B( 16-C , 23-H ) :   0.1626 B( 16-C , 24-H ) :   0.2816
B( 17-H , 26-H ) :   0.1056 B( 19-C , 22-C ) :   1.1512 B( 19-C , 23-H ) :   0.6407
B( 19-C , 24-H ) :   0.6438 B( 22-C , 23-H ) :   0.2495 B( 22-C , 24-H ) :   0.1275
B( 22-C , 25-C ) :   1.2632 B( 22-C , 26-H ) :   0.7559 B( 22-C , 27-H ) :   1.0216
B( 22-C , 28-C ) :   0.1436 B( 22-C , 29-H ) :   0.1145 B( 22-C , 30-H ) :   0.1412
B( 23-H , 24-H ) :  -0.1154 B( 25-C , 26-H ) :   0.1142 B( 25-C , 27-H ) :   0.2024
B( 25-C , 28-C ) :   1.1454 B( 25-C , 29-H ) :   0.6900 B( 25-C , 30-H ) :   0.8457
B( 25-C , 32-H ) :   0.1987 B( 28-C , 29-H ) :   0.1425 B( 28-C , 31-H ) :   0.8292
B( 28-C , 32-H ) :   0.7754 B( 28-C , 34-H ) :   0.2389 B( 29-H , 30-H ) :   0.2196

Dispersion correction           -0.041016868
FINAL SINGLE POINT ENERGY     -1040.593737871659

DIPOLE MOMENT
-------------
                                X             Y             Z
Electronic contribution:    -10.81950     -16.22972     -13.18287
Nuclear contribution   :      9.63012      17.20461      14.03552
                        -----------------------------------------
Total Dipole Moment    :     -1.18938       0.97488       0.85265
                        -----------------------------------------
Magnitude (a.u.)       :      1.75842
Magnitude (Debye)      :      4.46955

Rotational constants in cm-1:     0.025899     0.015189     0.010690
Rotational constants in MHz :   776.424978   455.369614   320.488876

                             ****ORCA TERMINATED NORMALLY****
TOTAL RUN TIME: 0 days 0 hours 0 minutes 50 seconds 699 msec
