                         Program Version 5.0.0 -  RELEASE  -
|  1> !PBE D3BJ RIJCOSX def2-SVPD def2/J TightSCF xyzfile
|  2>
|  3> *xyzfile 0 1 D2.xyz
|  4>
|  5> %MaxCore 64000
|  6>
|  7> %pal nprocs 4
|  8> end
|  9>
| 10> %scf
| 11>   MaxIter 150
| 12> end
| 13>
| 14>
| 15>                          ****END OF INPUT****

CARTESIAN COORDINATES (ANGSTROEM)
---------------------------------
  C     -2.160376   -1.369486   -3.467104
  C     -3.030108   -1.910857   -4.541074
  C     -2.047717    0.146583   -3.511774
  C     -7.330440   -2.678991   -3.206811
  S     -6.019659   -2.926965   -4.419128
  H     -3.477443   -2.791513   -4.257096
  H     -2.538013   -2.017860   -5.438075
  H     -3.891589   -1.376039   -4.714365
  O     -5.645830   -1.588384   -4.919307
  F     -4.881961   -3.503697   -3.667235
  H     -1.184438   -1.843997   -3.566393
  H     -2.598195   -1.708376   -2.528477
  O     -6.549267   -3.805150   -5.425071
  C     -3.328755    0.875037   -3.103669
  H     -1.740034    0.452343   -4.517126
  H     -1.232611    0.434938   -2.842208
  C     -3.628487    0.771601   -1.609363
  H     -4.175106    0.490791   -3.682203
  H     -3.237812    1.928663   -3.381480
  C     -4.975718    1.361432   -1.190644
  H     -2.830700    1.276234   -1.054766
  H     -3.594312   -0.275838   -1.294603
  C     -6.184720    0.784347   -1.926464
  H     -4.956292    2.445725   -1.342200
  H     -5.097256    1.205252   -0.114136
  C     -6.286921   -0.735882   -1.893531
  H     -6.163994    1.100199   -2.974250
  H     -7.094530    1.223459   -1.504509
  C     -7.468999   -1.246153   -2.713833
  H     -6.360641   -1.090347   -0.859176
  H     -5.369848   -1.171853   -2.295982
  H     -7.601914   -0.601349   -3.585329
  H     -8.389791   -1.173436   -2.126922
  H     -7.118254   -3.379818   -2.398055
  H     -8.241838   -3.004745   -3.706513

 Total Charge           Charge          ....    0
 Multiplicity           Mult            ....    1
 Number of Electrons    NEL             ....  122
 Basis Dimension        Dim             ....  464

ORBITAL ENERGIES
----------------

  NO   OCC          E(Eh)            E(eV)
   0   2.0000     -88.313781     -2403.1402
   1   2.0000     -24.375624      -663.2944
   2   2.0000     -18.785665      -511.1839
   3   2.0000     -18.774774      -510.8876
   4   2.0000      -9.959523      -271.0124
   5   2.0000      -9.923704      -270.0377
   6   2.0000      -9.906637      -269.5733
   7   2.0000      -9.896784      -269.3052
   8   2.0000      -9.891790      -269.1693
   9   2.0000      -9.886144      -269.0157
  10   2.0000      -9.880910      -268.8732
  11   2.0000      -9.877661      -268.7848
  12   2.0000      -9.872039      -268.6318
  13   2.0000      -9.826922      -267.4041
  14   2.0000      -7.917670      -215.4508
  15   2.0000      -5.948794      -161.8749
  16   2.0000      -5.942776      -161.7112
  17   2.0000      -5.941014      -161.6632
  18   2.0000      -1.249033       -33.9879
  19   2.0000      -1.027757       -27.9667
  20   2.0000      -0.932942       -25.3867
  21   2.0000      -0.765048       -20.8180
  22   2.0000      -0.735636       -20.0177
  23   2.0000      -0.710408       -19.3312
  24   2.0000      -0.687884       -18.7183
  25   2.0000      -0.651858       -17.7379
  26   2.0000      -0.637004       -17.3338
  27   2.0000      -0.601186       -16.3591
  28   2.0000      -0.569303       -15.4915
  29   2.0000      -0.555295       -15.1103
  30   2.0000      -0.519214       -14.1285
  31   2.0000      -0.516459       -14.0536
  32   2.0000      -0.510431       -13.8895
  33   2.0000      -0.499579       -13.5942
  34   2.0000      -0.483889       -13.1673
  35   2.0000      -0.452012       -12.2999
  36   2.0000      -0.437868       -11.9150
  37   2.0000      -0.427708       -11.6385
  38   2.0000      -0.421324       -11.4648
  39   2.0000      -0.415122       -11.2960
  40   2.0000      -0.398689       -10.8489
  41   2.0000      -0.388465       -10.5707
  42   2.0000      -0.385355       -10.4860
  43   2.0000      -0.381418       -10.3789
  44   2.0000      -0.361485        -9.8365
  45   2.0000      -0.352680        -9.5969
  46   2.0000      -0.345179        -9.3928
  47   2.0000      -0.339573        -9.2403
  48   2.0000      -0.330480        -8.9928
  49   2.0000      -0.322273        -8.7695
  50   2.0000      -0.316270        -8.6061
  51   2.0000      -0.303995        -8.2721
  52   2.0000      -0.297532        -8.0963
  53   2.0000      -0.292131        -7.9493
  54   2.0000      -0.288783        -7.8582
  55   2.0000      -0.281318        -7.6550
  56   2.0000      -0.280089        -7.6216
  57   2.0000      -0.274054        -7.4574
  58   2.0000      -0.262986        -7.1562
  59   2.0000      -0.261006        -7.1023
  60   2.0000      -0.246259        -6.7011
  61   0.0000      -0.028560        -0.7771
  62   0.0000      -0.011237        -0.3058
  63   0.0000       0.001614         0.0439
  64   0.0000       0.007724         0.2102
  65   0.0000       0.014347         0.3904

MULLIKEN ATOMIC CHARGES
-----------------------
   0 C :    0.053659
   1 C :    1.961421
   2 C :    0.573205
   3 C :    0.420197
   4 S :    1.325050
   5 H :   -0.557816
   6 H :   -0.299831
   7 H :   -0.887838
   8 O :   -0.690992
   9 F :   -0.477673
  10 H :   -0.298630
  11 H :   -0.009441
  12 O :   -0.672308
  13 C :    0.392497
  14 H :   -0.083406
  15 H :   -0.111415
  16 C :   -0.149681
  17 H :   -0.555435
  18 H :   -0.063546
  19 C :    0.700569
  20 H :   -0.361126
  21 H :    0.128161
  22 C :   -0.140822
  23 H :   -0.032399
  24 H :    0.004326
  25 C :    0.307496
  26 H :    0.234499
  27 H :   -0.438679
  28 C :    0.306312
  29 H :   -0.058210
  30 H :   -0.346658
  31 H :    0.136370
  32 H :   -0.234054
  33 H :   -0.036215
  34 H :   -0.037586
Sum of atomic charges:   -0.0000000

LOEWDIN ATOMIC CHARGES
----------------------
   0 C :   -0.045801
   1 C :    0.130165
   2 C :   -0.027745
   3 C :   -0.037815
   4 S :    1.114817
   5 H :   -0.094132
   6 H :   -0.010043
   7 H :   -0.114500
   8 O :   -0.425294
   9 F :   -0.261884
  10 H :    0.022420
  11 H :    0.008139
  12 O :   -0.419239
  13 C :   -0.019908
  14 H :    0.027753
  15 H :    0.017929
  16 C :   -0.037928
  17 H :    0.000460
  18 H :    0.027868
  19 C :   -0.031623
  20 H :    0.025139
  21 H :    0.003949
  22 C :   -0.035512
  23 H :    0.024375
  24 H :    0.022274
  25 C :   -0.027604
  26 H :    0.022607
  27 H :    0.027025
  28 C :   -0.039682
  29 H :    0.038078
  30 H :   -0.001735
  31 H :    0.028556
  32 H :    0.038290
  33 H :    0.024181
  34 H :    0.026419

  Mayer bond orders larger than 0.100000
B(  0-C ,  1-C ) :   0.9987 B(  0-C ,  2-C ) :   1.2283 B(  0-C ,  5-H ) :   0.4164
B(  0-C ,  6-H ) :   0.1202 B(  0-C ,  7-H ) :   0.4105 B(  0-C , 10-H ) :   0.8684
B(  0-C , 11-H ) :   0.7273 B(  0-C , 13-C ) :   0.1260 B(  0-C , 14-H ) :   0.1589
B(  0-C , 15-H ) :   0.1916 B(  1-C ,  5-H ) :  -0.3009 B(  1-C ,  6-H ) :   0.5712
B(  1-C ,  7-H ) :  -0.4941 B(  1-C , 11-H ) :   0.2324 B(  2-C ,  7-H ) :  -0.1111
B(  2-C , 11-H ) :   0.1223 B(  2-C , 13-C ) :   1.2031 B(  2-C , 14-H ) :   0.6567
B(  2-C , 15-H ) :   0.7056 B(  2-C , 17-H ) :   0.1664 B(  3-C ,  4-S ) :   0.8664
B(  3-C , 12-O ) :   0.1401 B(  3-C , 25-C ) :   0.1047 B(  3-C , 28-C ) :   1.2686
B(  3-C , 31-H ) :   0.1114 B(  3-C , 33-H ) :   0.8735 B(  3-C , 34-H ) :   0.7313
B(  4-S ,  8-O ) :   1.4731 B(  4-S ,  9-F ) :   0.6033 B(  4-S , 12-O ) :   1.4966
B(  5-H ,  6-H ) :  -0.1585 B(  5-H ,  7-H ) :   0.9082 B(  5-H ,  9-F ) :   0.2007
B(  6-H ,  7-H ) :   0.1786 B(  7-H ,  9-F ) :   0.1265 B(  7-H , 10-H ) :   0.1002
B(  7-H , 17-H ) :   0.1822 B(  8-O , 12-O ) :   0.1372 B( 10-H , 11-H ) :  -0.1120
B( 11-H , 21-H ) :   0.1176 B( 13-C , 14-H ) :   0.2155 B( 13-C , 15-H ) :   0.1722
B( 13-C , 16-C ) :   1.1832 B( 13-C , 17-H ) :   0.7373 B( 13-C , 18-H ) :   0.7086
B( 13-C , 20-H ) :   0.2034 B( 13-C , 21-H ) :   0.1119 B( 14-H , 15-H ) :  -0.1587
B( 16-C , 17-H ) :   0.2197 B( 16-C , 18-H ) :   0.2064 B( 16-C , 19-C ) :   1.1899
B( 16-C , 20-H ) :   0.9653 B( 16-C , 21-H ) :   0.8298 B( 16-C , 22-C ) :   0.1752
B( 16-C , 23-H ) :   0.1623 B( 16-C , 24-H ) :   0.2839 B( 17-H , 26-H ) :   0.1079
B( 19-C , 22-C ) :   1.1491 B( 19-C , 23-H ) :   0.6435 B( 19-C , 24-H ) :   0.6404
B( 22-C , 23-H ) :   0.2472 B( 22-C , 24-H ) :   0.1276 B( 22-C , 25-C ) :   1.2839
B( 22-C , 26-H ) :   0.7498 B( 22-C , 27-H ) :   1.0233 B( 22-C , 28-C ) :   0.1477
B( 22-C , 29-H ) :   0.1142 B( 22-C , 30-H ) :   0.1478 B( 23-H , 24-H ) :  -0.1159
B( 25-C , 26-H ) :   0.1183 B( 25-C , 27-H ) :   0.1972 B( 25-C , 28-C ) :   1.1578
B( 25-C , 29-H ) :   0.6715 B( 25-C , 30-H ) :   0.8403 B( 25-C , 32-H ) :   0.2050
B( 28-C , 29-H ) :   0.1398 B( 28-C , 31-H ) :   0.8110 B( 28-C , 32-H ) :   0.7781
B( 28-C , 34-H ) :   0.2160 B( 29-H , 30-H ) :   0.2612

Dispersion correction           -0.041131564
FINAL SINGLE POINT ENERGY     -1040.597081050613

DIPOLE MOMENT
-------------
                                X             Y             Z
Electronic contribution:     -9.51539     -19.47928     -11.13720
Nuclear contribution   :      8.71934      19.48829      12.54264
                        -----------------------------------------
Total Dipole Moment    :     -0.79605       0.00900       1.40544
                        -----------------------------------------
Magnitude (a.u.)       :      1.61525
Magnitude (Debye)      :      4.10565

Rotational constants in cm-1:     0.025810     0.015137     0.010647
Rotational constants in MHz :   773.773140   453.802427   319.195213

                             ****ORCA TERMINATED NORMALLY****
TOTAL RUN TIME: 0 days 0 hours 0 minutes 51 seconds 194 msec
