                         Program Version 5.0.0 -  RELEASE  -
|  1> !CAM-B3LYP RIJCOSX def2-SVP def2/J TightSCF
|  2> *xyz -1 1
|  3> C         -0.77894        0.17197        1.80496
|  4> C         -0.60249       -0.63071        0.49224
|  5> H          0.31389       -1.24035        0.60350
|  6> H         -0.36383        0.11332       -0.30117
|  7> O         -1.71206       -1.37684        0.20253
|  8> H         -1.65864        0.77733        1.73736
|  9> H          0.07466        0.79896        1.95712
| 10> H         -0.87474       -0.50584        2.62734
| 11> *
| 12> %MaxCore 64000
| 13>
| 14> %pal nprocs 4
| 15> end
| 16>
| 17> %scf
| 18>   MaxIter 150
| 19> end
| 20>
| 21>
| 22>                          ****END OF INPUT****

CARTESIAN COORDINATES (ANGSTROEM)
---------------------------------
  C     -0.778940    0.171970    1.804960
  C     -0.602490   -0.630710    0.492240
  H      0.313890   -1.240350    0.603500
  H     -0.363830    0.113320   -0.301170
  O     -1.712060   -1.376840    0.202530
  H     -1.658640    0.777330    1.737360
  H      0.074660    0.798960    1.957120
  H     -0.874740   -0.505840    2.627340

 Total Charge           Charge          ....   -1
 Multiplicity           Mult            ....    1
 Number of Electrons    NEL             ....   26
 Basis Dimension        Dim             ....   67

ORBITAL ENERGIES
----------------

  NO   OCC          E(Eh)            E(eV)
   0   2.0000     -18.814344      -511.9643
   1   2.0000     -10.047062      -273.3945
   2   2.0000     -10.033778      -273.0330
   3   2.0000      -0.704989       -19.1837
   4   2.0000      -0.576017       -15.6742
   5   2.0000      -0.419862       -11.4250
   6   2.0000      -0.301129        -8.1941
   7   2.0000      -0.276421        -7.5218
   8   2.0000      -0.217127        -5.9083
   9   2.0000      -0.202760        -5.5174
  10   2.0000      -0.132332        -3.6009
  11   2.0000       0.016952         0.4613
  12   2.0000       0.018175         0.4946
  13   0.0000       0.294580         8.0159
  14   0.0000       0.339749         9.2450
  15   0.0000       0.353702         9.6247
  16   0.0000       0.362683         9.8691
  17   0.0000       0.405872        11.0443

MULLIKEN ATOMIC CHARGES
-----------------------
   0 C :    0.065417
   1 C :    0.268612
   2 H :   -0.179457
   3 H :   -0.183051
   4 O :   -0.706109
   5 H :   -0.069428
   6 H :   -0.125526
   7 H :   -0.070459
Sum of atomic charges:   -1.0000000

LOEWDIN ATOMIC CHARGES
----------------------
   0 C :   -0.109170
   1 C :    0.011859
   2 H :   -0.082217
   3 H :   -0.085010
   4 O :   -0.668808
   5 H :   -0.014769
   6 H :   -0.036581
   7 H :   -0.015304

  Mayer bond orders larger than 0.100000
B(  0-C ,  1-C ) :   1.0020 B(  0-C ,  5-H ) :   0.9574 B(  0-C ,  6-H ) :   0.9192
B(  0-C ,  7-H ) :   0.9594 B(  1-C ,  2-H ) :   0.8675 B(  1-C ,  3-H ) :   0.8656
B(  1-C ,  4-O ) :   1.5163

FINAL SINGLE POINT ENERGY      -154.198587373805

DIPOLE MOMENT
-------------
                                X             Y             Z
Electronic contribution:     -1.87999      -2.03001      -1.55565
Nuclear contribution   :      2.47835       2.80827       2.30058
                        -----------------------------------------
Total Dipole Moment    :      0.59835       0.77826       0.74493
                        -----------------------------------------
Magnitude (a.u.)       :      1.23233
Magnitude (Debye)      :      3.13233

Rotational constants in cm-1:     1.255775     0.327783     0.287473
Rotational constants in MHz : 37647.186859  9826.677683  8618.224821

                             ****ORCA TERMINATED NORMALLY****
TOTAL RUN TIME: 0 days 0 hours 0 minutes 8 seconds 791 msec
