                         Program Version 5.0.0 -  RELEASE  -
|  1> !CAM-B3LYP RIJCOSX def2-SVP def2/J TightSCF
|  2> *xyz 1 1
|  3> C         -2.12050        0.88520        1.78951
|  4> C         -0.77894        0.17197        1.80496
|  5> H         -2.32419        1.47265        2.68608
|  6> H         -2.18770        1.54127        0.91948
|  7> N         -3.17690       -0.15948        1.61070
|  8> H         -4.06474        0.23127        1.28675
|  9> H         -3.34407       -0.67151        2.48493
| 10> H         -2.71686       -0.78189        0.93588
| 11> H         -0.65708       -0.37837        0.89547
| 12> H         -0.74207       -0.50050        2.63642
| 13> H          0.00707        0.89251        1.89389
| 14> *
| 15> %MaxCore 64000
| 16>
| 17> %pal nprocs 4
| 18> end
| 19>
| 20> %scf
| 21>   MaxIter 150
| 22> end
| 23>
| 24>
| 25>                          ****END OF INPUT****

CARTESIAN COORDINATES (ANGSTROEM)
---------------------------------
  C     -2.120500    0.885200    1.789510
  C     -0.778940    0.171970    1.804960
  H     -2.324190    1.472650    2.686080
  H     -2.187700    1.541270    0.919480
  N     -3.176900   -0.159480    1.610700
  H     -4.064740    0.231270    1.286750
  H     -3.344070   -0.671510    2.484930
  H     -2.716860   -0.781890    0.935880
  H     -0.657080   -0.378370    0.895470
  H     -0.742070   -0.500500    2.636420
  H      0.007070    0.892510    1.893890

 Total Charge           Charge          ....    1
 Multiplicity           Mult            ....    1
 Number of Electrons    NEL             ....   26
 Basis Dimension        Dim             ....   82

ORBITAL ENERGIES
----------------

  NO   OCC          E(Eh)            E(eV)
   0   2.0000     -14.741117      -401.1262
   1   2.0000     -10.514784      -286.1218
   2   2.0000     -10.439610      -284.0762
   3   2.0000      -1.293327       -35.1932
   4   2.0000      -1.043351       -28.3910
   5   2.0000      -0.919366       -25.0172
   6   2.0000      -0.878565       -23.9070
   7   2.0000      -0.867341       -23.6016
   8   2.0000      -0.762178       -20.7399
   9   2.0000      -0.713816       -19.4239
  10   2.0000      -0.651641       -17.7321
  11   2.0000      -0.643916       -17.5218
  12   2.0000      -0.622035       -16.9264
  13   0.0000      -0.140489        -3.8229
  14   0.0000      -0.079815        -2.1719
  15   0.0000      -0.077078        -2.0974
  16   0.0000      -0.047384        -1.2894
  17   0.0000      -0.007577        -0.2062

MULLIKEN ATOMIC CHARGES
-----------------------
   0 C :   -0.033823
   1 C :   -0.040294
   2 H :    0.107564
   3 H :    0.099544
   4 N :    0.008386
   5 H :    0.221139
   6 H :    0.216556
   7 H :    0.209153
   8 H :    0.056361
   9 H :    0.059820
  10 H :    0.095594
Sum of atomic charges:    1.0000000

LOEWDIN ATOMIC CHARGES
----------------------
   0 C :    0.057681
   1 C :   -0.042910
   2 H :    0.056058
   3 H :    0.055388
   4 N :    0.293640
   5 H :    0.146731
   6 H :    0.146552
   7 H :    0.142852
   8 H :    0.038421
   9 H :    0.040448
  10 H :    0.065138

  Mayer bond orders larger than 0.100000
B(  0-C ,  1-C ) :   1.0928 B(  0-C ,  2-H ) :   0.9546 B(  0-C ,  3-H ) :   0.9546
B(  0-C ,  4-N ) :   0.9252 B(  1-C ,  8-H ) :   0.9632 B(  1-C ,  9-H ) :   0.9742
B(  1-C , 10-H ) :   0.9574 B(  4-N ,  5-H ) :   0.9305 B(  4-N ,  6-H ) :   0.9358
B(  4-N ,  7-H ) :   0.9363

FINAL SINGLE POINT ENERGY      -135.348355676275

DIPOLE MOMENT
-------------
                                X             Y             Z
Electronic contribution:     -1.88519      -0.18224      -0.06711
Nuclear contribution   :      0.50278      -0.30871      -0.06979
                        -----------------------------------------
Total Dipole Moment    :     -1.38241      -0.49095      -0.13690
                        -----------------------------------------
Magnitude (a.u.)       :      1.47337
Magnitude (Debye)      :      3.74501

Rotational constants in cm-1:     0.963746     0.295157     0.256910
Rotational constants in MHz : 28892.375247  8848.576767  7701.963879

                             ****ORCA TERMINATED NORMALLY****
TOTAL RUN TIME: 0 days 0 hours 0 minutes 11 seconds 526 msec
