                         Program Version 5.0.0 -  RELEASE  -
|  1> !CAM-B3LYP RIJCOSX def2-TZVP def2/J TightSCF xyzfile
|  2>
|  3> *xyzfile 0 1 B.xyz
|  4>
|  5> %MaxCore 64000
|  6>
|  7> %pal nprocs 18
|  8> end
|  9>
| 10> %scf
| 11>   MaxIter 150
| 12> end
| 13>
| 14>
| 15>                          ****END OF INPUT****

CARTESIAN COORDINATES (ANGSTROEM)
---------------------------------
  C     -2.120502    0.885196    1.789506
  C     -0.778939    0.171966    1.804965
  H     -2.324193    1.472649    2.686078
  H     -2.187698    1.541272    0.919482
  N     -3.176900   -0.159484    1.610700
  H      0.015695    0.910767    1.939153
  H     -0.743553   -0.506827    2.665420
  C     -0.602493   -0.630712    0.492240
  H      0.313894   -1.240346    0.603498
  H     -0.363829    0.113322   -0.301169
  O     -1.712061   -1.376836    0.202535
  H     -4.064736    0.231272    1.286754
  H     -3.344073   -0.671511    2.484928
  H     -2.716861   -0.781886    0.935880

 Total Charge           Charge          ....    0
 Multiplicity           Mult            ....    1
 Number of Electrons    NEL             ....   42
 Basis Dimension        Dim             ....  209

ORBITAL ENERGIES
----------------

  NO   OCC          E(Eh)            E(eV)
   0   2.0000     -19.061529      -518.6906
   1   2.0000     -14.468984      -393.7211
   2   2.0000     -10.307309      -280.4761
   3   2.0000     -10.238329      -278.5991
   4   2.0000     -10.235713      -278.5279
   5   2.0000      -1.075098       -29.2549
   6   2.0000      -0.971326       -26.4311
   7   2.0000      -0.852501       -23.1977
   8   2.0000      -0.732894       -19.9430
   9   2.0000      -0.666951       -18.1486
  10   2.0000      -0.644780       -17.5453
  11   2.0000      -0.617123       -16.7928
  12   2.0000      -0.555551       -15.1173
  13   2.0000      -0.505870       -13.7654
  14   2.0000      -0.471354       -12.8262
  15   2.0000      -0.468633       -12.7522
  16   2.0000      -0.423964       -11.5366
  17   2.0000      -0.405238       -11.0271
  18   2.0000      -0.379712       -10.3325
  19   2.0000      -0.244313        -6.6481
  20   2.0000      -0.236758        -6.4425
  21   0.0000       0.029631         0.8063
  22   0.0000       0.074440         2.0256
  23   0.0000       0.084716         2.3052
  24   0.0000       0.117396         3.1945
  25   0.0000       0.131421         3.5761

MULLIKEN ATOMIC CHARGES
-----------------------
   0 C :   -0.146606
   1 C :   -0.236473
   2 H :    0.131108
   3 H :    0.138652
   4 N :   -0.301862
   5 H :    0.099032
   6 H :    0.084857
   7 C :    0.042744
   8 H :    0.044866
   9 H :    0.019531
  10 O :   -0.677963
  11 H :    0.255079
  12 H :    0.254063
  13 H :    0.292972
Sum of atomic charges:    0.0000000

LOEWDIN ATOMIC CHARGES
----------------------
   0 C :   -0.271920
   1 C :   -0.293381
   2 H :    0.124472
   3 H :    0.140909
   4 N :    0.129219
   5 H :    0.136200
   6 H :    0.129026
   7 C :   -0.468681
   8 H :    0.101229
   9 H :    0.092821
  10 O :   -0.286912
  11 H :    0.180681
  12 H :    0.186940
  13 H :    0.099397

  Mayer bond orders larger than 0.100000
B(  0-C ,  1-C ) :   0.9627 B(  0-C ,  2-H ) :   0.9808 B(  0-C ,  3-H ) :   0.9675
B(  0-C ,  4-N ) :   0.8784 B(  1-C ,  5-H ) :   0.9659 B(  1-C ,  6-H ) :   0.9673
B(  1-C ,  7-C ) :   0.9453 B(  4-N , 11-H ) :   0.9083 B(  4-N , 12-H ) :   0.9094
B(  4-N , 13-H ) :   0.6072 B(  7-C ,  8-H ) :   0.9575 B(  7-C ,  9-H ) :   0.9453
B(  7-C , 10-O ) :   1.2396 B( 10-O , 13-H ) :   0.4317

FINAL SINGLE POINT ENERGY      -249.631310131878

DIPOLE MOMENT
-------------
                                X             Y             Z
Electronic contribution:     -1.54719      -1.45984      -0.78306
Nuclear contribution   :      0.08650       3.01678       2.47433
                        -----------------------------------------
Total Dipole Moment    :     -1.46069       1.55694       1.69127
                        -----------------------------------------
Magnitude (a.u.)       :      2.72361
Magnitude (Debye)      :      6.92288

Rotational constants in cm-1:     0.238796     0.156489     0.106146
Rotational constants in MHz :  7158.916762  4691.413084  3182.185740

                             ****ORCA TERMINATED NORMALLY****
TOTAL RUN TIME: 0 days 0 hours 0 minutes 11 seconds 546 msec
