                         Program Version 5.0.0 -  RELEASE  -
|  1> !CAM-B3LYP RIJCOSX def2-SVP def2/J TightSCF
|  2> *xyz 0 1
|  3> C         -0.77894        0.17197        1.80496
|  4> C         -0.60249       -0.63071        0.49224
|  5> H          0.31389       -1.24035        0.60350
|  6> H         -0.36383        0.11332       -0.30117
|  7> F         -1.71206       -1.37684        0.20253
|  8> H         -1.65864        0.77733        1.73736
|  9> H          0.07466        0.79896        1.95712
| 10> H         -0.87474       -0.50584        2.62734
| 11> *
| 12> %MaxCore 64000
| 13>
| 14> %pal nprocs 4
| 15> end
| 16>
| 17> %scf
| 18>   MaxIter 150
| 19> end
| 20>
| 21>
| 22>                          ****END OF INPUT****

CARTESIAN COORDINATES (ANGSTROEM)
---------------------------------
  C     -0.778940    0.171970    1.804960
  C     -0.602490   -0.630710    0.492240
  H      0.313890   -1.240350    0.603500
  H     -0.363830    0.113320   -0.301170
  F     -1.712060   -1.376840    0.202530
  H     -1.658640    0.777330    1.737360
  H      0.074660    0.798960    1.957120
  H     -0.874740   -0.505840    2.627340

 Total Charge           Charge          ....    0
 Multiplicity           Mult            ....    1
 Number of Electrons    NEL             ....   26
 Basis Dimension        Dim             ....   67

ORBITAL ENERGIES
----------------

  NO   OCC          E(Eh)            E(eV)
   0   2.0000     -24.737921      -673.1531
   1   2.0000     -10.334028      -281.2032
   2   2.0000     -10.252801      -278.9929
   3   2.0000      -1.249247       -33.9937
   4   2.0000      -0.833643       -22.6846
   5   2.0000      -0.698293       -19.0015
   6   2.0000      -0.571219       -15.5437
   7   2.0000      -0.562546       -15.3076
   8   2.0000      -0.520888       -14.1741
   9   2.0000      -0.467604       -12.7241
  10   2.0000      -0.464689       -12.6448
  11   2.0000      -0.393959       -10.7202
  12   2.0000      -0.391574       -10.6553
  13   0.0000       0.105563         2.8725
  14   0.0000       0.152038         4.1372
  15   0.0000       0.160703         4.3730
  16   0.0000       0.180458         4.9105
  17   0.0000       0.197276         5.3682

MULLIKEN ATOMIC CHARGES
-----------------------
   0 C :   -0.038409
   1 C :    0.225887
   2 H :    0.006771
   3 H :    0.006588
   4 F :   -0.260340
   5 H :    0.024645
   6 H :    0.011563
   7 H :    0.023294
Sum of atomic charges:   -0.0000000

LOEWDIN ATOMIC CHARGES
----------------------
   0 C :   -0.072378
   1 C :    0.109205
   2 H :    0.009717
   3 H :    0.010192
   4 F :   -0.134233
   5 H :    0.025423
   6 H :    0.027919
   7 H :    0.024155

  Mayer bond orders larger than 0.100000
B(  0-C ,  1-C ) :   1.0933 B(  0-C ,  5-H ) :   0.9723 B(  0-C ,  6-H ) :   0.9626
B(  0-C ,  7-H ) :   0.9736 B(  1-C ,  2-H ) :   0.9592 B(  1-C ,  3-H ) :   0.9599
B(  1-C ,  4-F ) :   1.0099

FINAL SINGLE POINT ENERGY      -178.843892923473

DIPOLE MOMENT
-------------
                                X             Y             Z
Electronic contribution:     -2.75820      -3.31853      -2.84456
Nuclear contribution   :      3.27800       3.70743       3.04146
                        -----------------------------------------
Total Dipole Moment    :      0.51980       0.38890       0.19689
                        -----------------------------------------
Magnitude (a.u.)       :      0.67838
Magnitude (Debye)      :      1.72431

Rotational constants in cm-1:     1.234437     0.305084     0.268865
Rotational constants in MHz : 37007.496448  9146.194083  8060.380630

                             ****ORCA TERMINATED NORMALLY****
TOTAL RUN TIME: 0 days 0 hours 0 minutes 8 seconds 660 msec
