                         Program Version 5.0.0 -  RELEASE  -
|  1> !CAM-B3LYP RIJCOSX def2-SVP def2/J TightSCF
|  2> *xyz 0 1
|  3> C         -2.12050        0.88520        1.78951
|  4> C         -0.77894        0.17197        1.80496
|  5> H         -2.32419        1.47265        2.68608
|  6> H         -2.18770        1.54127        0.91948
|  7> C         -3.17690       -0.15948        1.61070
|  8> H         -4.06474        0.23127        1.28675
|  9> H         -3.34407       -0.67151        2.48493
| 10> H         -2.71686       -0.78189        0.93588
| 11> H         -0.65708       -0.37837        0.89547
| 12> H         -0.74207       -0.50050        2.63642
| 13> H          0.00707        0.89251        1.89389
| 14> *
| 15> %MaxCore 64000
| 16>
| 17> %pal nprocs 4
| 18> end
| 19>
| 20> %scf
| 21>   MaxIter 150
| 22> end
| 23>
| 24>
| 25>                          ****END OF INPUT****

CARTESIAN COORDINATES (ANGSTROEM)
---------------------------------
  C     -2.120500    0.885200    1.789510
  C     -0.778940    0.171970    1.804960
  H     -2.324190    1.472650    2.686080
  H     -2.187700    1.541270    0.919480
  C     -3.176900   -0.159480    1.610700
  H     -4.064740    0.231270    1.286750
  H     -3.344070   -0.671510    2.484930
  H     -2.716860   -0.781890    0.935880
  H     -0.657080   -0.378370    0.895470
  H     -0.742070   -0.500500    2.636420
  H      0.007070    0.892510    1.893890

 Total Charge           Charge          ....    0
 Multiplicity           Mult            ....    1
 Number of Electrons    NEL             ....   26
 Basis Dimension        Dim             ....   82

ORBITAL ENERGIES
----------------

  NO   OCC          E(Eh)            E(eV)
   0   2.0000     -10.243194      -278.7315
   1   2.0000     -10.237335      -278.5720
   2   2.0000     -10.219307      -278.0815
   3   2.0000      -0.870746       -23.6942
   4   2.0000      -0.757742       -20.6192
   5   2.0000      -0.655237       -17.8299
   6   2.0000      -0.540955       -14.7201
   7   2.0000      -0.521386       -14.1876
   8   2.0000      -0.465891       -12.6776
   9   2.0000      -0.449891       -12.2421
  10   2.0000      -0.403896       -10.9906
  11   2.0000      -0.394944       -10.7470
  12   2.0000      -0.390808       -10.6344
  13   0.0000       0.106608         2.9010
  14   0.0000       0.152936         4.1616
  15   0.0000       0.156334         4.2541
  16   0.0000       0.161950         4.4069
  17   0.0000       0.188757         5.1363

MULLIKEN ATOMIC CHARGES
-----------------------
   0 C :   -0.062858
   1 C :    0.009191
   2 H :    0.002949
   3 H :   -0.000661
   4 C :    0.086656
   5 H :   -0.013308
   6 H :   -0.014918
   7 H :   -0.023399
   8 H :    0.007528
   9 H :    0.004960
  10 H :    0.003860
Sum of atomic charges:   -0.0000000

LOEWDIN ATOMIC CHARGES
----------------------
   0 C :   -0.036339
   1 C :   -0.051483
   2 H :    0.015978
   3 H :    0.018117
   4 C :   -0.040811
   5 H :    0.011156
   6 H :    0.012378
   7 H :    0.013334
   8 H :    0.019350
   9 H :    0.019531
  10 H :    0.018788

  Mayer bond orders larger than 0.100000
B(  0-C ,  1-C ) :   1.1037 B(  0-C ,  2-H ) :   0.9578 B(  0-C ,  3-H ) :   0.9564
B(  0-C ,  4-C ) :   1.0957 B(  1-C ,  8-H ) :   0.9716 B(  1-C ,  9-H ) :   0.9770
B(  1-C , 10-H ) :   0.9690 B(  4-C ,  5-H ) :   0.9640 B(  4-C ,  6-H ) :   0.9692
B(  4-C ,  7-H ) :   0.9730

FINAL SINGLE POINT ENERGY      -118.950341914815

DIPOLE MOMENT
-------------
                                X             Y             Z
Electronic contribution:     -0.13783       0.45876       0.11028
Nuclear contribution   :      0.13334      -0.45108      -0.10852
                        -----------------------------------------
Total Dipole Moment    :     -0.00449       0.00768       0.00176
                        -----------------------------------------
Magnitude (a.u.)       :      0.00906
Magnitude (Debye)      :      0.02304

Rotational constants in cm-1:     0.972269     0.310387     0.269029
Rotational constants in MHz : 29147.878530  9305.178981  8065.286472

                             ****ORCA TERMINATED NORMALLY****
TOTAL RUN TIME: 0 days 0 hours 0 minutes 11 seconds 27 msec
