                         Program Version 5.0.0 -  RELEASE  -
|  1> !LC-PBE RIJCOSX def2-SVPD def2/J TightSCF
|  2> *xyz -1 1
|  3> C         -0.77894        0.17197        1.80496
|  4> C         -0.60249       -0.63071        0.49224
|  5> H          0.31389       -1.24035        0.60350
|  6> H         -0.36383        0.11332       -0.30117
|  7> O         -1.71206       -1.37684        0.20253
|  8> H         -1.65864        0.77733        1.73736
|  9> H          0.07466        0.79896        1.95712
| 10> H         -0.87474       -0.50584        2.62734
| 11> *
| 12> %MaxCore 64000
| 13>
| 14> %pal nprocs 4
| 15> end
| 16>
| 17> %scf
| 18>   MaxIter 150
| 19> end
| 20>
| 21>
| 22>                          ****END OF INPUT****

CARTESIAN COORDINATES (ANGSTROEM)
---------------------------------
  C     -0.778940    0.171970    1.804960
  C     -0.602490   -0.630710    0.492240
  H      0.313890   -1.240350    0.603500
  H     -0.363830    0.113320   -0.301170
  O     -1.712060   -1.376840    0.202530
  H     -1.658640    0.777330    1.737360
  H      0.074660    0.798960    1.957120
  H     -0.874740   -0.505840    2.627340

 Total Charge           Charge          ....   -1
 Multiplicity           Mult            ....    1
 Number of Electrons    NEL             ....   26
 Basis Dimension        Dim             ....  103

ORBITAL ENERGIES
----------------

  NO   OCC          E(Eh)            E(eV)
   0   2.0000     -18.647511      -507.4246
   1   2.0000      -9.940105      -270.4840
   2   2.0000      -9.916332      -269.8371
   3   2.0000      -0.832905       -22.6645
   4   2.0000      -0.685736       -18.6598
   5   2.0000      -0.522970       -14.2307
   6   2.0000      -0.394259       -10.7283
   7   2.0000      -0.365532        -9.9466
   8   2.0000      -0.307937        -8.3794
   9   2.0000      -0.289314        -7.8726
  10   2.0000      -0.242384        -6.5956
  11   2.0000      -0.091288        -2.4841
  12   2.0000      -0.089891        -2.4461
  13   0.0000       0.244821         6.6619
  14   0.0000       0.276833         7.5330
  15   0.0000       0.317485         8.6392
  16   0.0000       0.330486         8.9930
  17   0.0000       0.345307         9.3963

MULLIKEN ATOMIC CHARGES
-----------------------
   0 C :    0.127961
   1 C :   -0.011308
   2 H :   -0.099632
   3 H :   -0.079042
   4 O :   -0.867427
   5 H :   -0.031914
   6 H :   -0.007350
   7 H :   -0.031289
Sum of atomic charges:   -1.0000000

LOEWDIN ATOMIC CHARGES
----------------------
   0 C :    0.030425
   1 C :   -0.287442
   2 H :   -0.019607
   3 H :   -0.017450
   4 O :   -0.597474
   5 H :   -0.030017
   6 H :   -0.046902
   7 H :   -0.031533

  Mayer bond orders larger than 0.100000
B(  0-C ,  1-C ) :   1.1781 B(  0-C ,  5-H ) :   0.9319 B(  0-C ,  6-H ) :   0.9085
B(  0-C ,  7-H ) :   0.9325 B(  1-C ,  2-H ) :   1.0009 B(  1-C ,  3-H ) :   0.9895
B(  1-C ,  4-O ) :   1.2895 B(  1-C ,  5-H ) :   0.1395 B(  1-C ,  7-H ) :   0.1286

FINAL SINGLE POINT ENERGY      -153.847312715097

DIPOLE MOMENT
-------------
                                X             Y             Z
Electronic contribution:     -1.46685      -1.70520      -1.40784
Nuclear contribution   :      2.47835       2.80827       2.30058
                        -----------------------------------------
Total Dipole Moment    :      1.01150       1.10307       0.89275
                        -----------------------------------------
Magnitude (a.u.)       :      1.74267
Magnitude (Debye)      :      4.42951

Rotational constants in cm-1:     1.255775     0.327783     0.287473
Rotational constants in MHz : 37647.186859  9826.677683  8618.224821

                             ****ORCA TERMINATED NORMALLY****
TOTAL RUN TIME: 0 days 0 hours 0 minutes 11 seconds 436 msec
