                         Program Version 5.0.0 -  RELEASE  -
|  1> !LC-PBE RIJCOSX def2-SVPD def2/J TightSCF
|  2> *xyz 1 1
|  3> C         -2.12050        0.88520        1.78951
|  4> C         -0.77894        0.17197        1.80496
|  5> H         -2.32419        1.47265        2.68608
|  6> H         -2.18770        1.54127        0.91948
|  7> N         -3.17690       -0.15948        1.61070
|  8> H         -4.06474        0.23127        1.28675
|  9> H         -3.34407       -0.67151        2.48493
| 10> H         -2.71686       -0.78189        0.93588
| 11> H         -0.65708       -0.37837        0.89547
| 12> H         -0.74207       -0.50050        2.63642
| 13> H          0.00707        0.89251        1.89389
| 14> *
| 15> %MaxCore 64000
| 16>
| 17> %pal nprocs 4
| 18> end
| 19>
| 20> %scf
| 21>   MaxIter 150
| 22> end
| 23>
| 24>
| 25>                          ****END OF INPUT****

CARTESIAN COORDINATES (ANGSTROEM)
---------------------------------
  C     -2.120500    0.885200    1.789510
  C     -0.778940    0.171970    1.804960
  H     -2.324190    1.472650    2.686080
  H     -2.187700    1.541270    0.919480
  N     -3.176900   -0.159480    1.610700
  H     -4.064740    0.231270    1.286750
  H     -3.344070   -0.671510    2.484930
  H     -2.716860   -0.781890    0.935880
  H     -0.657080   -0.378370    0.895470
  H     -0.742070   -0.500500    2.636420
  H      0.007070    0.892510    1.893890

 Total Charge           Charge          ....    1
 Multiplicity           Mult            ....    1
 Number of Electrons    NEL             ....   26
 Basis Dimension        Dim             ....  124

ORBITAL ENERGIES
----------------

  NO   OCC          E(Eh)            E(eV)
   0   2.0000     -14.563505      -396.2931
   1   2.0000     -10.384740      -282.5831
   2   2.0000     -10.307023      -280.4683
   3   2.0000      -1.383911       -37.6581
   4   2.0000      -1.136513       -30.9261
   5   2.0000      -1.004650       -27.3379
   6   2.0000      -0.954214       -25.9655
   7   2.0000      -0.942632       -25.6503
   8   2.0000      -0.835256       -22.7285
   9   2.0000      -0.786409       -21.3993
  10   2.0000      -0.720694       -19.6111
  11   2.0000      -0.711700       -19.3663
  12   2.0000      -0.686880       -18.6910
  13   0.0000      -0.107623        -2.9286
  14   0.0000      -0.050011        -1.3609
  15   0.0000      -0.047265        -1.2861
  16   0.0000      -0.042889        -1.1671
  17   0.0000      -0.011381        -0.3097

MULLIKEN ATOMIC CHARGES
-----------------------
   0 C :    0.024500
   1 C :    0.288110
   2 H :   -0.009058
   3 H :    0.062995
   4 N :   -0.770885
   5 H :    0.352781
   6 H :    0.392052
   7 H :    0.464599
   8 H :    0.051630
   9 H :    0.103402
  10 H :    0.039875
Sum of atomic charges:    1.0000000

LOEWDIN ATOMIC CHARGES
----------------------
   0 C :    0.034813
   1 C :    0.134333
   2 H :    0.064576
   3 H :    0.065196
   4 N :    0.316083
   5 H :    0.114981
   6 H :    0.118519
   7 H :    0.096900
   8 H :    0.011300
   9 H :    0.015996
  10 H :    0.027303

  Mayer bond orders larger than 0.100000
B(  0-C ,  1-C ) :   1.2627 B(  0-C ,  2-H ) :   1.0015 B(  0-C ,  3-H ) :   0.9495
B(  0-C ,  4-N ) :   0.8498 B(  0-C , 10-H ) :   0.1362 B(  1-C ,  8-H ) :   0.8829
B(  1-C ,  9-H ) :   0.8583 B(  1-C , 10-H ) :   0.9075 B(  4-N ,  5-H ) :   0.8082
B(  4-N ,  6-H ) :   0.8008 B(  4-N ,  7-H ) :   0.6588

FINAL SINGLE POINT ENERGY      -134.989669018291

DIPOLE MOMENT
-------------
                                X             Y             Z
Electronic contribution:     -1.84470      -0.16380      -0.06142
Nuclear contribution   :      0.50278      -0.30871      -0.06979
                        -----------------------------------------
Total Dipole Moment    :     -1.34192      -0.47252      -0.13121
                        -----------------------------------------
Magnitude (a.u.)       :      1.42872
Magnitude (Debye)      :      3.63152

Rotational constants in cm-1:     0.963746     0.295157     0.256910
Rotational constants in MHz : 28892.375247  8848.576767  7701.963879

                             ****ORCA TERMINATED NORMALLY****
TOTAL RUN TIME: 0 days 0 hours 0 minutes 12 seconds 772 msec
