                         Program Version 5.0.0 -  RELEASE  -
|  1> !LC-PBE RIJCOSX def2-SVPD def2/J TightSCF
|  2> *xyz 0 1
|  3> C         -0.77894        0.17197        1.80496
|  4> C         -0.60249       -0.63071        0.49224
|  5> H          0.31389       -1.24035        0.60350
|  6> H         -0.36383        0.11332       -0.30117
|  7> F         -1.71206       -1.37684        0.20253
|  8> H         -1.65864        0.77733        1.73736
|  9> H          0.07466        0.79896        1.95712
| 10> H         -0.87474       -0.50584        2.62734
| 11> *
| 12> %MaxCore 64000
| 13>
| 14> %pal nprocs 4
| 15> end
| 16>
| 17> %scf
| 18>   MaxIter 150
| 19> end
| 20>
| 21>
| 22>                          ****END OF INPUT****

CARTESIAN COORDINATES (ANGSTROEM)
---------------------------------
  C     -0.778940    0.171970    1.804960
  C     -0.602490   -0.630710    0.492240
  H      0.313890   -1.240350    0.603500
  H     -0.363830    0.113320   -0.301170
  F     -1.712060   -1.376840    0.202530
  H     -1.658640    0.777330    1.737360
  H      0.074660    0.798960    1.957120
  H     -0.874740   -0.505840    2.627340

 Total Charge           Charge          ....    0
 Multiplicity           Mult            ....    1
 Number of Electrons    NEL             ....   26
 Basis Dimension        Dim             ....  103

ORBITAL ENERGIES
----------------

  NO   OCC          E(Eh)            E(eV)
   0   2.0000     -24.495592      -666.5590
   1   2.0000     -10.210878      -277.8521
   2   2.0000     -10.123682      -275.4794
   3   2.0000      -1.341959       -36.5166
   4   2.0000      -0.933044       -25.3894
   5   2.0000      -0.790325       -21.5058
   6   2.0000      -0.660923       -17.9846
   7   2.0000      -0.650956       -17.7134
   8   2.0000      -0.609178       -16.5766
   9   2.0000      -0.547211       -14.8904
  10   2.0000      -0.537888       -14.6367
  11   2.0000      -0.471197       -12.8219
  12   2.0000      -0.465214       -12.6591
  13   0.0000       0.091342         2.4856
  14   0.0000       0.121220         3.2986
  15   0.0000       0.155593         4.2339
  16   0.0000       0.158737         4.3195
  17   0.0000       0.187824         5.1110

MULLIKEN ATOMIC CHARGES
-----------------------
   0 C :    0.082402
   1 C :    0.227579
   2 H :    0.012505
   3 H :    0.032889
   4 F :   -0.417211
   5 H :    0.011634
   6 H :    0.035771
   7 H :    0.014431
Sum of atomic charges:   -0.0000000

LOEWDIN ATOMIC CHARGES
----------------------
   0 C :    0.102335
   1 C :    0.037483
   2 H :    0.040492
   3 H :    0.043665
   4 F :   -0.211579
   5 H :   -0.003688
   6 H :   -0.003732
   7 H :   -0.004976

  Mayer bond orders larger than 0.100000
B(  0-C ,  1-C ) :   1.3086 B(  0-C ,  5-H ) :   0.9266 B(  0-C ,  6-H ) :   0.8952
B(  0-C ,  7-H ) :   0.9288 B(  1-C ,  2-H ) :   0.9732 B(  1-C ,  3-H ) :   0.9636
B(  1-C ,  4-F ) :   0.8150 B(  1-C ,  5-H ) :   0.1051

FINAL SINGLE POINT ENERGY      -178.437878067235

DIPOLE MOMENT
-------------
                                X             Y             Z
Electronic contribution:     -2.68259      -3.25416      -2.81103
Nuclear contribution   :      3.27800       3.70743       3.04146
                        -----------------------------------------
Total Dipole Moment    :      0.59542       0.45327       0.23043
                        -----------------------------------------
Magnitude (a.u.)       :      0.78299
Magnitude (Debye)      :      1.99020

Rotational constants in cm-1:     1.234437     0.305084     0.268865
Rotational constants in MHz : 37007.496448  9146.194083  8060.380630

                             ****ORCA TERMINATED NORMALLY****
TOTAL RUN TIME: 0 days 0 hours 0 minutes 9 seconds 101 msec
