                         Program Version 5.0.0 -  RELEASE  -
|  1> !LC-PBE RIJCOSX def2-SVPD def2/J TightSCF
|  2> *xyz 0 1
|  3> C         -2.12050        0.88520        1.78951
|  4> C         -0.77894        0.17197        1.80496
|  5> H         -2.32419        1.47265        2.68608
|  6> H         -2.18770        1.54127        0.91948
|  7> C         -3.17690       -0.15948        1.61070
|  8> H         -4.06474        0.23127        1.28675
|  9> H         -3.34407       -0.67151        2.48493
| 10> H         -2.71686       -0.78189        0.93588
| 11> H         -0.65708       -0.37837        0.89547
| 12> H         -0.74207       -0.50050        2.63642
| 13> H          0.00707        0.89251        1.89389
| 14> *
| 15> %MaxCore 64000
| 16>
| 17> %pal nprocs 4
| 18> end
| 19>
| 20> %scf
| 21>   MaxIter 150
| 22> end
| 23>
| 24>
| 25>                          ****END OF INPUT****

CARTESIAN COORDINATES (ANGSTROEM)
---------------------------------
  C     -2.120500    0.885200    1.789510
  C     -0.778940    0.171970    1.804960
  H     -2.324190    1.472650    2.686080
  H     -2.187700    1.541270    0.919480
  C     -3.176900   -0.159480    1.610700
  H     -4.064740    0.231270    1.286750
  H     -3.344070   -0.671510    2.484930
  H     -2.716860   -0.781890    0.935880
  H     -0.657080   -0.378370    0.895470
  H     -0.742070   -0.500500    2.636420
  H      0.007070    0.892510    1.893890

 Total Charge           Charge          ....    0
 Multiplicity           Mult            ....    1
 Number of Electrons    NEL             ....   26
 Basis Dimension        Dim             ....  124

ORBITAL ENERGIES
----------------

  NO   OCC          E(Eh)            E(eV)
   0   2.0000     -10.114513      -275.2299
   1   2.0000     -10.105269      -274.9783
   2   2.0000     -10.085987      -274.4537
   3   2.0000      -0.970702       -26.4141
   4   2.0000      -0.849248       -23.1092
   5   2.0000      -0.740742       -20.1566
   6   2.0000      -0.620335       -16.8802
   7   2.0000      -0.598861       -16.2958
   8   2.0000      -0.538068       -14.6416
   9   2.0000      -0.519919       -14.1477
  10   2.0000      -0.470587       -12.8053
  11   2.0000      -0.462125       -12.5751
  12   2.0000      -0.455038       -12.3822
  13   0.0000       0.096962         2.6385
  14   0.0000       0.121111         3.2956
  15   0.0000       0.128327         3.4920
  16   0.0000       0.162790         4.4298
  17   0.0000       0.180514         4.9120

MULLIKEN ATOMIC CHARGES
-----------------------
   0 C :   -0.638790
   1 C :    0.321390
   2 H :   -0.070898
   3 H :    0.034873
   4 C :    0.705764
   5 H :   -0.174015
   6 H :   -0.093539
   7 H :   -0.109317
   8 H :    0.042761
   9 H :    0.032405
  10 H :   -0.050634
Sum of atomic charges:   -0.0000000

LOEWDIN ATOMIC CHARGES
----------------------
   0 C :   -0.140733
   1 C :    0.075853
   2 H :    0.031315
   3 H :    0.033475
   4 C :    0.086335
   5 H :   -0.023117
   6 H :   -0.016536
   7 H :   -0.031214
   8 H :   -0.005279
   9 H :    0.000121
  10 H :   -0.010219

  Mayer bond orders larger than 0.100000
B(  0-C ,  1-C ) :   1.2276 B(  0-C ,  2-H ) :   1.0373 B(  0-C ,  3-H ) :   0.9547
B(  0-C ,  4-C ) :   1.2288 B(  0-C ,  5-H ) :   0.1421 B(  0-C ,  6-H ) :   0.1657
B(  0-C ,  7-H ) :   0.2024 B(  0-C ,  8-H ) :   0.1060 B(  0-C ,  9-H ) :   0.1246
B(  0-C , 10-H ) :   0.1377 B(  1-C ,  8-H ) :   0.8834 B(  1-C ,  9-H ) :   0.8705
B(  1-C , 10-H ) :   0.9104 B(  4-C ,  5-H ) :   0.8427 B(  4-C ,  6-H ) :   0.7819
B(  4-C ,  7-H ) :   0.8089

FINAL SINGLE POINT ENERGY      -118.609528378850

DIPOLE MOMENT
-------------
                                X             Y             Z
Electronic contribution:     -0.13853       0.47259       0.11207
Nuclear contribution   :      0.13334      -0.45108      -0.10852
                        -----------------------------------------
Total Dipole Moment    :     -0.00519       0.02151       0.00355
                        -----------------------------------------
Magnitude (a.u.)       :      0.02241
Magnitude (Debye)      :      0.05695

Rotational constants in cm-1:     0.972269     0.310387     0.269029
Rotational constants in MHz : 29147.878530  9305.178981  8065.286472

                             ****ORCA TERMINATED NORMALLY****
TOTAL RUN TIME: 0 days 0 hours 0 minutes 12 seconds 406 msec
