                         Program Version 5.0.0 -  RELEASE  -
|  1> !DLPNO-CCSD(T) aug-cc-pVTZ aug-cc-pVTZ/C TightSCF TightPNO RIJCOSX def2/J
|  2> *xyz -1 1
|  3> C          4.08422        1.74208       -2.11472
|  4> C          4.26524        2.50052       -0.79589
|  5> H          4.86853        3.39267       -0.98113
|  6> H          3.30764        2.82457       -0.38781
|  7> C          4.98224        1.65026        0.24742
|  8> O          4.36806        1.38927        1.31371
|  9> O          6.12892        1.23351       -0.04562
| 10> H          3.57911        2.36849       -2.81997
| 11> H          3.50424        0.85965       -1.94198
| 12> H          5.04288        1.46841       -2.50327
| 13> *
| 14> %MaxCore 64000
| 15> %pal nprocs 8
| 16> end
| 17> %scf
| 18>   MaxIter 150
| 19> end
| 20>
| 21>
| 22>                          ****END OF INPUT****

CARTESIAN COORDINATES (ANGSTROEM)
---------------------------------
  C      4.084220    1.742080   -2.114720
  C      4.265240    2.500520   -0.795890
  H      4.868530    3.392670   -0.981130
  H      3.307640    2.824570   -0.387810
  C      4.982240    1.650260    0.247420
  O      4.368060    1.389270    1.313710
  O      6.128920    1.233510   -0.045620
  H      3.579110    2.368490   -2.819970
  H      3.504240    0.859650   -1.941980
  H      5.042880    1.468410   -2.503270

 Total Charge           Charge          ....   -1
 Multiplicity           Mult            ....    1
 Number of Electrons    NEL             ....   40
 Basis Dimension        Dim             ....  345

ORBITAL ENERGIES
----------------

  NO   OCC          E(Eh)            E(eV)
   0   2.0000     -20.282659      -551.9192
   1   2.0000     -20.281601      -551.8904
   2   2.0000     -11.123572      -302.6878
   3   2.0000     -11.063168      -301.0441
   4   2.0000     -11.052612      -300.7569
   5   2.0000      -1.161977       -31.6190
   6   2.0000      -1.054268       -28.6881
   7   2.0000      -0.877628       -23.8815
   8   2.0000      -0.711761       -19.3680
   9   2.0000      -0.518084       -14.0978
  10   2.0000      -0.462358       -12.5814
  11   2.0000      -0.444177       -12.0867
  12   2.0000      -0.398062       -10.8318
  13   2.0000      -0.383277       -10.4295
  14   2.0000      -0.371339       -10.1046
  15   2.0000      -0.334963        -9.1148
  16   2.0000      -0.310225        -8.4417
  17   2.0000      -0.196673        -5.3517
  18   2.0000      -0.195337        -5.3154
  19   2.0000      -0.183837        -5.0025
  20   0.0000       0.117440         3.1957
  21   0.0000       0.135170         3.6782
  22   0.0000       0.137921         3.7530
  23   0.0000       0.147409         4.0112
  24   0.0000       0.157219         4.2781

MULLIKEN ATOMIC CHARGES
-----------------------
   0 C :   -0.982094
   1 C :   -0.165168
   2 H :    0.226098
   3 H :    0.254665
   4 C :    0.491332
   5 O :   -0.852658
   6 O :   -0.857438
   7 H :    0.263849
   8 H :    0.296848
   9 H :    0.324567
Sum of atomic charges:   -1.0000000

LOEWDIN ATOMIC CHARGES
----------------------
   0 C :    0.549673
   1 C :    0.169124
   2 H :   -0.182516
   3 H :   -0.198266
   4 C :   -1.216309
   5 O :    0.236882
   6 O :    0.248149
   7 H :   -0.209314
   8 H :   -0.193283
   9 H :   -0.204140

  Mayer bond orders larger than 0.100000
B(  0-C ,  1-C ) :   0.8435 B(  0-C ,  4-C ) :   0.1119 B(  0-C ,  7-H ) :   0.9712
B(  0-C ,  8-H ) :   0.9343 B(  0-C ,  9-H ) :   0.9110 B(  1-C ,  2-H ) :   0.9668
B(  1-C ,  3-H ) :   0.9560 B(  1-C ,  4-C ) :   0.6721 B(  4-C ,  5-O ) :   1.3984
B(  4-C ,  6-O ) :   1.4236

E(0)                                       ...   -266.375474561
E(0)                                       ...   -266.375474561
E(CORR)(strong-pairs)                      ...     -1.023503218
E(CORR)(weak-pairs)                        ...     -0.000895256
E(CORR)(corrected)                         ...     -1.024398475
E(TOT)                                     ...   -267.399873036
E(CCSD(T))                                 ...   -267.443567865
FINAL SINGLE POINT ENERGY      -267.443567864669

DIPOLE MOMENT
-------------
                                X             Y             Z
Electronic contribution:      2.34804      -1.37447       4.96031
Nuclear contribution   :     -3.31311       2.28398      -6.76358
                        -----------------------------------------
Total Dipole Moment    :     -0.96507       0.90951      -1.80327
                        -----------------------------------------
Magnitude (a.u.)       :      2.23839
Magnitude (Debye)      :      5.68953

Rotational constants in cm-1:     0.309287     0.135287     0.107346
Rotational constants in MHz :  9272.201029  4055.789113  3218.155789

                             ****ORCA TERMINATED NORMALLY****
TOTAL RUN TIME: 0 days 0 hours 12 minutes 26 seconds 890 msec
