                         Program Version 5.0.0 -  RELEASE  -
|  1> !DLPNO-CCSD(T) aug-cc-pVTZ aug-cc-pVTZ/C TightSCF TightPNO RIJCOSX def2/J
|  2> *xyz 1 1
|  3> C          3.91385       -1.65829        3.01513
|  4> N          5.03927       -0.90115        2.49282
|  5> C          6.21038       -1.41726        2.17824
|  6> N          6.53591       -2.67712        2.55608
|  7> N          7.07675       -0.70082        1.47891
|  8> H          7.95464       -1.12155        1.20755
|  9> H          6.75616        0.10664        0.96028
| 10> H          4.84217        0.01761        2.11519
| 11> H          5.99388       -3.12692        3.28278
| 12> C          3.13916       -2.37657        1.91061
| 13> H          3.26723       -0.93940        3.52069
| 14> H          4.24720       -2.35509        3.79006
| 15> H          7.49844       -2.97548        2.46878
| 16> H          2.82969       -1.66654        1.17238
| 17> H          2.27790       -2.85264        2.33072
| 18> H          3.76754       -3.11338        1.45548
| 19> *
| 20> %MaxCore 64000
| 21> %pal nprocs 8
| 22> end
| 23> %scf
| 24>   MaxIter 150
| 25> end
| 26>
| 27>
| 28>                          ****END OF INPUT****

CARTESIAN COORDINATES (ANGSTROEM)
---------------------------------
  C      3.913850   -1.658290    3.015130
  N      5.039270   -0.901150    2.492820
  C      6.210380   -1.417260    2.178240
  N      6.535910   -2.677120    2.556080
  N      7.076750   -0.700820    1.478910
  H      7.954640   -1.121550    1.207550
  H      6.756160    0.106640    0.960280
  H      4.842170    0.017610    2.115190
  H      5.993880   -3.126920    3.282780
  C      3.139160   -2.376570    1.910610
  H      3.267230   -0.939400    3.520690
  H      4.247200   -2.355090    3.790060
  H      7.498440   -2.975480    2.468780
  H      2.829690   -1.666540    1.172380
  H      2.277900   -2.852640    2.330720
  H      3.767540   -3.113380    1.455480

 Total Charge           Charge          ....    1
 Multiplicity           Mult            ....    1
 Number of Electrons    NEL             ....   48
 Basis Dimension        Dim             ....  506

ORBITAL ENERGIES
----------------

  NO   OCC          E(Eh)            E(eV)
   0   2.0000     -15.787186      -429.5912
   1   2.0000     -15.785250      -429.5385
   2   2.0000     -15.784659      -429.5224
   3   2.0000     -11.588772      -315.3465
   4   2.0000     -11.434524      -311.1492
   5   2.0000     -11.356590      -309.0285
   6   2.0000      -1.542812       -41.9821
   7   2.0000      -1.408448       -38.3258
   8   2.0000      -1.387853       -37.7654
   9   2.0000      -1.191141       -32.4126
  10   2.0000      -1.067128       -29.0380
  11   2.0000      -1.014434       -27.6042
  12   2.0000      -0.975998       -26.5582
  13   2.0000      -0.932914       -25.3859
  14   2.0000      -0.863238       -23.4899
  15   2.0000      -0.856571       -23.3085
  16   2.0000      -0.822585       -22.3837
  17   2.0000      -0.793376       -21.5889
  18   2.0000      -0.764187       -20.7946
  19   2.0000      -0.714364       -19.4388
  20   2.0000      -0.682870       -18.5818
  21   2.0000      -0.660201       -17.9650
  22   2.0000      -0.625346       -17.0165
  23   2.0000      -0.584448       -15.9037
  24   0.0000      -0.093548        -2.5456
  25   0.0000      -0.076139        -2.0719
  26   0.0000      -0.068831        -1.8730
  27   0.0000      -0.059625        -1.6225
  28   0.0000      -0.048839        -1.3290

MULLIKEN ATOMIC CHARGES
-----------------------
   0 C :   -0.383997
   1 N :   -0.066944
   2 C :    0.570320
   3 N :   -0.258031
   4 N :   -0.422700
   5 H :    0.158544
   6 H :    0.147012
   7 H :    0.148106
   8 H :    0.222409
   9 C :   -0.909063
  10 H :    0.380171
  11 H :    0.304168
  12 H :    0.160374
  13 H :    0.281385
  14 H :    0.344489
  15 H :    0.323756
Sum of atomic charges:    1.0000000

LOEWDIN ATOMIC CHARGES
----------------------
   0 C :    0.233713
   1 N :    0.617108
   2 C :   -0.364453
   3 N :    0.947533
   4 N :    0.935158
   5 H :   -0.242474
   6 H :   -0.236693
   7 H :   -0.230078
   8 H :   -0.279172
   9 C :    0.644479
  10 H :   -0.122928
  11 H :   -0.144130
  12 H :   -0.243945
  13 H :   -0.171083
  14 H :   -0.164815
  15 H :   -0.178219

  Mayer bond orders larger than 0.100000
B(  0-C ,  1-N ) :   0.8575 B(  0-C ,  2-C ) :  -0.1089 B(  0-C ,  9-C ) :   0.8916
B(  0-C , 10-H ) :   0.8926 B(  0-C , 11-H ) :   0.8877 B(  1-N ,  2-C ) :   0.9795
B(  1-N ,  7-H ) :   1.0254 B(  2-C ,  3-N ) :   1.0002 B(  2-C ,  4-N ) :   1.0136
B(  3-N ,  8-H ) :   0.9894 B(  3-N , 12-H ) :   1.0138 B(  4-N ,  5-H ) :   1.0739
B(  4-N ,  6-H ) :   1.0763 B(  9-C , 13-H ) :   0.9699 B(  9-C , 14-H ) :   0.9008
B(  9-C , 15-H ) :   0.9136

E(0)                                       ...   -282.707997253
E(0)                                       ...   -282.707997253
E(CORR)(strong-pairs)                      ...     -1.182572983
E(CORR)(weak-pairs)                        ...     -0.001260926
E(CORR)(corrected)                         ...     -1.183833909
E(TOT)                                     ...   -283.891831162
E(CCSD(T))                                 ...   -283.939218442
FINAL SINGLE POINT ENERGY      -283.939218441869

DIPOLE MOMENT
-------------
                                X             Y             Z
Electronic contribution:      4.73233       1.90855       0.07297
Nuclear contribution   :     -3.67981      -1.62355      -0.28562
                        -----------------------------------------
Total Dipole Moment    :      1.05252       0.28500      -0.21265
                        -----------------------------------------
Magnitude (a.u.)       :      1.11097
Magnitude (Debye)      :      2.82385

Rotational constants in cm-1:     0.222027     0.074735     0.065694
Rotational constants in MHz :  6656.200457  2240.503315  1969.451902

                             ****ORCA TERMINATED NORMALLY****
TOTAL RUN TIME: 0 days 0 hours 24 minutes 12 seconds 538 msec
