                         Program Version 5.0.0 -  RELEASE  -
|  1> !DLPNO-CCSD(T) aug-cc-pVTZ aug-cc-pVTZ/C TightSCF TightPNO RIJCOSX def2/J
|  2> *xyz 0 1
|  3> C          3.91385       -1.65829        3.01513
|  4> C          5.03927       -0.90115        2.49282
|  5> C          6.21038       -1.41726        2.17824
|  6> N          6.53591       -2.67712        2.55608
|  7> N          7.07675       -0.70082        1.47891
|  8> H          7.95464       -1.12155        1.20755
|  9> H          6.75616        0.10664        0.96028
| 10> H          4.84217        0.01761        2.11519
| 11> H          5.99388       -3.12692        3.28278
| 12> C          3.13916       -2.37657        1.91061
| 13> H          3.26723       -0.93940        3.52069
| 14> H          4.24720       -2.35509        3.79006
| 15> H          7.49844       -2.97548        2.46878
| 16> H          2.82969       -1.66654        1.17238
| 17> H          2.27790       -2.85264        2.33072
| 18> H          3.76754       -3.11338        1.45548
| 19> *
| 20> %MaxCore 64000
| 21> %pal nprocs 8
| 22> end
| 23> %scf
| 24>   MaxIter 150
| 25> end
| 26>
| 27>
| 28>                          ****END OF INPUT****

CARTESIAN COORDINATES (ANGSTROEM)
---------------------------------
  C      3.913850   -1.658290    3.015130
  C      5.039270   -0.901150    2.492820
  C      6.210380   -1.417260    2.178240
  N      6.535910   -2.677120    2.556080
  N      7.076750   -0.700820    1.478910
  H      7.954640   -1.121550    1.207550
  H      6.756160    0.106640    0.960280
  H      4.842170    0.017610    2.115190
  H      5.993880   -3.126920    3.282780
  C      3.139160   -2.376570    1.910610
  H      3.267230   -0.939400    3.520690
  H      4.247200   -2.355090    3.790060
  H      7.498440   -2.975480    2.468780
  H      2.829690   -1.666540    1.172380
  H      2.277900   -2.852640    2.330720
  H      3.767540   -3.113380    1.455480

 Total Charge           Charge          ....    0
 Multiplicity           Mult            ....    1
 Number of Electrons    NEL             ....   48
 Basis Dimension        Dim             ....  506

ORBITAL ENERGIES
----------------

  NO   OCC          E(Eh)            E(eV)
   0   2.0000     -15.561991      -423.4633
   1   2.0000     -15.559885      -423.4060
   2   2.0000     -11.280958      -306.9705
   3   2.0000     -11.196579      -304.6744
   4   2.0000     -11.184737      -304.3522
   5   2.0000     -11.137983      -303.0799
   6   2.0000      -1.276542       -34.7365
   7   2.0000      -1.163472       -31.6597
   8   2.0000      -1.049758       -28.5654
   9   2.0000      -0.947878       -25.7931
  10   2.0000      -0.840615       -22.8743
  11   2.0000      -0.774999       -21.0888
  12   2.0000      -0.720824       -19.6146
  13   2.0000      -0.693149       -18.8615
  14   2.0000      -0.639720       -17.4077
  15   2.0000      -0.603040       -16.4096
  16   2.0000      -0.581963       -15.8360
  17   2.0000      -0.548626       -14.9289
  18   2.0000      -0.540744       -14.7144
  19   2.0000      -0.497653       -13.5418
  20   2.0000      -0.472850       -12.8669
  21   2.0000      -0.462697       -12.5906
  22   2.0000      -0.417108       -11.3501
  23   2.0000      -0.260418        -7.0863
  24   0.0000       0.024196         0.6584
  25   0.0000       0.035043         0.9536
  26   0.0000       0.039479         1.0743
  27   0.0000       0.046408         1.2628
  28   0.0000       0.052118         1.4182

MULLIKEN ATOMIC CHARGES
-----------------------
   0 C :   -0.251428
   1 C :   -0.410972
   2 C :    0.592675
   3 N :   -0.430232
   4 N :   -0.568337
   5 H :    0.079984
   6 H :    0.077523
   7 H :    0.301896
   8 H :    0.130221
   9 C :   -0.987624
  10 H :    0.238799
  11 H :    0.228744
  12 H :    0.111999
  13 H :    0.282273
  14 H :    0.268488
  15 H :    0.335992
Sum of atomic charges:    0.0000000

LOEWDIN ATOMIC CHARGES
----------------------
   0 C :    0.206381
   1 C :    0.186106
   2 C :   -0.427383
   3 N :    0.872786
   4 N :    0.848325
   5 H :   -0.285035
   6 H :   -0.268172
   7 H :   -0.267243
   8 H :   -0.304287
   9 C :    0.600611
  10 H :   -0.152971
  11 H :   -0.167273
  12 H :   -0.284216
  13 H :   -0.181746
  14 H :   -0.190158
  15 H :   -0.185727

  Mayer bond orders larger than 0.100000
B(  0-C ,  1-C ) :   0.8091 B(  0-C ,  9-C ) :   0.8182 B(  0-C , 10-H ) :   1.0484
B(  0-C , 11-H ) :   0.9078 B(  1-C ,  2-C ) :   1.1292 B(  1-C ,  3-N ) :  -0.1658
B(  1-C ,  4-N ) :  -0.1431 B(  1-C ,  7-H ) :   0.9154 B(  1-C ,  9-C ) :   0.1156
B(  2-C ,  3-N ) :   0.8325 B(  2-C ,  4-N ) :   0.6936 B(  3-N ,  4-N ) :  -0.1393
B(  3-N ,  8-H ) :   1.0887 B(  3-N , 12-H ) :   1.0495 B(  4-N ,  5-H ) :   1.1446
B(  4-N ,  6-H ) :   1.1473 B(  9-C , 13-H ) :   0.9706 B(  9-C , 14-H ) :   0.9873
B(  9-C , 15-H ) :   0.9052

E(0)                                       ...   -266.255137147
E(0)                                       ...   -266.255137147
E(CORR)(strong-pairs)                      ...     -1.165950377
E(CORR)(weak-pairs)                        ...     -0.001259306
E(CORR)(corrected)                         ...     -1.167209684
E(TOT)                                     ...   -267.422346830
E(CCSD(T))                                 ...   -267.470022429
FINAL SINGLE POINT ENERGY      -267.470022429377

DIPOLE MOMENT
-------------
                                X             Y             Z
Electronic contribution:      4.62475       1.21054      -0.05151
Nuclear contribution   :     -3.74303      -1.46908      -0.23637
                        -----------------------------------------
Total Dipole Moment    :      0.88172      -0.25854      -0.28788
                        -----------------------------------------
Magnitude (a.u.)       :      0.96288
Magnitude (Debye)      :      2.44746

Rotational constants in cm-1:     0.225937     0.074877     0.065953
Rotational constants in MHz :  6773.424301  2244.750632  1977.214101

                             ****ORCA TERMINATED NORMALLY****
TOTAL RUN TIME: 0 days 0 hours 26 minutes 46 seconds 873 msec
