                         Program Version 5.0.0 -  RELEASE  -
|  1> !DLPNO-CCSD(T) aug-cc-pVTZ aug-cc-pVTZ/C TightSCF TightPNO RIJCOSX def2/J
|  2> *xyz 0 1
|  3> C          4.08422        1.74208       -2.11472
|  4> C          4.26524        2.50052       -0.79589
|  5> H          4.86853        3.39267       -0.98113
|  6> H          3.30764        2.82457       -0.38781
|  7> C          4.98224        1.65026        0.24742
|  8> O          4.36806        1.38927        1.31371
|  9> F          6.12892        1.23351       -0.04562
| 10> H          3.57911        2.36849       -2.81997
| 11> H          3.50424        0.85965       -1.94198
| 12> H          5.04288        1.46841       -2.50327
| 13> *
| 14> %MaxCore 64000
| 15> %pal nprocs 8
| 16> end
| 17> %scf
| 18>   MaxIter 150
| 19> end
| 20>
| 21>
| 22>                          ****END OF INPUT****

CARTESIAN COORDINATES (ANGSTROEM)
---------------------------------
  C      4.084220    1.742080   -2.114720
  C      4.265240    2.500520   -0.795890
  H      4.868530    3.392670   -0.981130
  H      3.307640    2.824570   -0.387810
  C      4.982240    1.650260    0.247420
  O      4.368060    1.389270    1.313710
  F      6.128920    1.233510   -0.045620
  H      3.579110    2.368490   -2.819970
  H      3.504240    0.859650   -1.941980
  H      5.042880    1.468410   -2.503270

 Total Charge           Charge          ....    0
 Multiplicity           Mult            ....    1
 Number of Electrons    NEL             ....   40
 Basis Dimension        Dim             ....  345

ORBITAL ENERGIES
----------------

  NO   OCC          E(Eh)            E(eV)
   0   2.0000     -26.376707      -717.7467
   1   2.0000     -20.562455      -559.5328
   2   2.0000     -11.429175      -311.0037
   3   2.0000     -11.262028      -306.4554
   4   2.0000     -11.236748      -305.7675
   5   2.0000      -1.731142       -47.1068
   6   2.0000      -1.371869       -37.3305
   7   2.0000      -1.082582       -29.4585
   8   2.0000      -0.937109       -25.5000
   9   2.0000      -0.878287       -23.8994
  10   2.0000      -0.777841       -21.1661
  11   2.0000      -0.768309       -20.9067
  12   2.0000      -0.704770       -19.1778
  13   2.0000      -0.639771       -17.4091
  14   2.0000      -0.615232       -16.7413
  15   2.0000      -0.565625       -15.3914
  16   2.0000      -0.546030       -14.8582
  17   2.0000      -0.532058       -14.4780
  18   2.0000      -0.490385       -13.3440
  19   2.0000      -0.459904       -12.5146
  20   0.0000       0.025631         0.6975
  21   0.0000       0.038214         1.0399
  22   0.0000       0.040728         1.1083
  23   0.0000       0.048335         1.3153
  24   0.0000       0.062641         1.7046

MULLIKEN ATOMIC CHARGES
-----------------------
   0 C :   -0.977741
   1 C :   -0.261278
   2 H :    0.282323
   3 H :    0.294786
   4 C :    0.656703
   5 O :   -0.645652
   6 F :   -0.284951
   7 H :    0.300084
   8 H :    0.320310
   9 H :    0.315415
Sum of atomic charges:   -0.0000000

LOEWDIN ATOMIC CHARGES
----------------------
   0 C :    0.594731
   1 C :    0.242841
   2 H :   -0.162013
   3 H :   -0.164793
   4 C :   -0.926508
   5 O :    0.378162
   6 F :    0.585147
   7 H :   -0.179014
   8 H :   -0.180651
   9 H :   -0.187901

  Mayer bond orders larger than 0.100000
B(  0-C ,  1-C ) :   0.8600 B(  0-C ,  4-C ) :   0.1162 B(  0-C ,  7-H ) :   0.9542
B(  0-C ,  8-H ) :   0.9135 B(  0-C ,  9-H ) :   0.9138 B(  1-C ,  2-H ) :   0.9340
B(  1-C ,  3-H ) :   0.9247 B(  1-C ,  4-C ) :   0.7772 B(  4-C ,  5-O ) :   1.6580
B(  4-C ,  6-F ) :   0.8451

E(0)                                       ...   -290.928029313
E(0)                                       ...   -290.928029313
E(CORR)(strong-pairs)                      ...     -1.024175573
E(CORR)(weak-pairs)                        ...     -0.000873073
E(CORR)(corrected)                         ...     -1.025048645
E(TOT)                                     ...   -291.953077958
E(CCSD(T))                                 ...   -291.993175016
FINAL SINGLE POINT ENERGY      -291.993175016377

DIPOLE MOMENT
-------------
                                X             Y             Z
Electronic contribution:      4.84188      -2.22751       5.71171
Nuclear contribution   :     -4.79499       2.78546      -7.01827
                        -----------------------------------------
Total Dipole Moment    :      0.04689       0.55796      -1.30656
                        -----------------------------------------
Magnitude (a.u.)       :      1.42148
Magnitude (Debye)      :      3.61312

Rotational constants in cm-1:     0.286098     0.133492     0.103343
Rotational constants in MHz :  8577.003657  4001.981591  3098.148068

                             ****ORCA TERMINATED NORMALLY****
TOTAL RUN TIME: 0 days 0 hours 11 minutes 45 seconds 504 msec
