                         Program Version 5.0.0 -  RELEASE  -
|  1> !DLPNO-CCSD(T) aug-cc-pVTZ aug-cc-pVTZ/C TightSCF TightPNO RIJCOSX def2/J
|  2> *xyz 0 1
|  3> C          3.91385       -1.65829        3.01513
|  4> N          5.03927       -0.90115        2.49282
|  5> C          6.21038       -1.41726        2.17824
|  6> C          6.53591       -2.67712        2.55608
|  7> N          7.07675       -0.70082        1.47891
|  8> H          7.95464       -1.12155        1.20755
|  9> H          6.75616        0.10664        0.96028
| 10> H          4.84217        0.01761        2.11519
| 11> H          5.99388       -3.12692        3.28278
| 12> C          3.13916       -2.37657        1.91061
| 13> H          3.26723       -0.93940        3.52069
| 14> H          4.24720       -2.35509        3.79006
| 15> H          7.49844       -2.97548        2.46878
| 16> H          2.82969       -1.66654        1.17238
| 17> H          2.27790       -2.85264        2.33072
| 18> H          3.76754       -3.11338        1.45548
| 19> *
| 20> %MaxCore 64000
| 21> %pal nprocs 8
| 22> end
| 23> %scf
| 24>   MaxIter 150
| 25> end
| 26>
| 27>
| 28>                          ****END OF INPUT****

CARTESIAN COORDINATES (ANGSTROEM)
---------------------------------
  C      3.913850   -1.658290    3.015130
  N      5.039270   -0.901150    2.492820
  C      6.210380   -1.417260    2.178240
  C      6.535910   -2.677120    2.556080
  N      7.076750   -0.700820    1.478910
  H      7.954640   -1.121550    1.207550
  H      6.756160    0.106640    0.960280
  H      4.842170    0.017610    2.115190
  H      5.993880   -3.126920    3.282780
  C      3.139160   -2.376570    1.910610
  H      3.267230   -0.939400    3.520690
  H      4.247200   -2.355090    3.790060
  H      7.498440   -2.975480    2.468780
  H      2.829690   -1.666540    1.172380
  H      2.277900   -2.852640    2.330720
  H      3.767540   -3.113380    1.455480

 Total Charge           Charge          ....    0
 Multiplicity           Mult            ....    1
 Number of Electrons    NEL             ....   48
 Basis Dimension        Dim             ....  506

ORBITAL ENERGIES
----------------

  NO   OCC          E(Eh)            E(eV)
   0   2.0000     -15.564762      -423.5387
   1   2.0000     -15.563831      -423.5134
   2   2.0000     -11.290751      -307.2370
   3   2.0000     -11.260339      -306.4094
   4   2.0000     -11.203229      -304.8554
   5   2.0000     -11.127463      -302.7937
   6   2.0000      -1.293797       -35.2060
   7   2.0000      -1.188531       -32.3416
   8   2.0000      -1.017368       -27.6840
   9   2.0000      -0.963832       -26.2272
  10   2.0000      -0.868080       -23.6217
  11   2.0000      -0.767144       -20.8751
  12   2.0000      -0.734937       -19.9987
  13   2.0000      -0.701429       -19.0869
  14   2.0000      -0.632972       -17.2240
  15   2.0000      -0.605055       -16.4644
  16   2.0000      -0.580133       -15.7862
  17   2.0000      -0.559211       -15.2169
  18   2.0000      -0.535342       -14.5674
  19   2.0000      -0.521096       -14.1798
  20   2.0000      -0.512058       -13.9338
  21   2.0000      -0.491960       -13.3869
  22   2.0000      -0.394330       -10.7303
  23   2.0000      -0.264348        -7.1933
  24   0.0000       0.023937         0.6514
  25   0.0000       0.034082         0.9274
  26   0.0000       0.040732         1.1084
  27   0.0000       0.042851         1.1660
  28   0.0000       0.053094         1.4447

MULLIKEN ATOMIC CHARGES
-----------------------
   0 C :   -0.387593
   1 N :   -0.197645
   2 C :    0.629298
   3 C :   -1.255251
   4 N :   -0.525051
   5 H :    0.077831
   6 H :    0.127125
   7 H :    0.084763
   8 H :    0.602676
   9 C :   -0.984680
  10 H :    0.395919
  11 H :    0.314304
  12 H :    0.201171
  13 H :    0.255459
  14 H :    0.320509
  15 H :    0.341165
Sum of atomic charges:    0.0000000

LOEWDIN ATOMIC CHARGES
----------------------
   0 C :    0.200123
   1 N :    0.560517
   2 C :   -0.456787
   3 C :    0.549005
   4 N :    0.855577
   5 H :   -0.271356
   6 H :   -0.278265
   7 H :   -0.262447
   8 H :   -0.337976
   9 C :    0.615902
  10 H :   -0.143938
  11 H :   -0.159296
  12 H :   -0.315370
  13 H :   -0.184219
  14 H :   -0.185164
  15 H :   -0.186306

  Mayer bond orders larger than 0.100000
B(  0-C ,  1-N ) :   0.9414 B(  0-C ,  2-C ) :  -0.1493 B(  0-C ,  9-C ) :   0.8766
B(  0-C , 10-H ) :   0.8770 B(  0-C , 11-H ) :   0.9048 B(  1-N ,  2-C ) :   0.8086
B(  1-N ,  3-C ) :  -0.1438 B(  1-N ,  4-N ) :  -0.1726 B(  1-N ,  7-H ) :   1.1049
B(  2-C ,  3-C ) :   1.1244 B(  2-C ,  4-N ) :   0.8039 B(  3-C ,  4-N ) :  -0.1007
B(  3-C ,  8-H ) :   0.5748 B(  3-C , 12-H ) :   1.2022 B(  4-N ,  5-H ) :   1.1543
B(  4-N ,  6-H ) :   1.0732 B(  9-C , 13-H ) :   0.9919 B(  9-C , 14-H ) :   0.9206
B(  9-C , 15-H ) :   0.9092

E(0)                                       ...   -266.248151207
E(0)                                       ...   -266.248151207
E(CORR)(strong-pairs)                      ...     -1.163265303
E(CORR)(weak-pairs)                        ...     -0.001264134
E(CORR)(corrected)                         ...     -1.164529437
E(TOT)                                     ...   -267.412680645
E(CCSD(T))                                 ...   -267.460430503
FINAL SINGLE POINT ENERGY      -267.460430503269

DIPOLE MOMENT
-------------
                                X             Y             Z
Electronic contribution:      3.02813       2.86593      -0.22351
Nuclear contribution   :     -3.42552      -1.84584      -0.22295
                        -----------------------------------------
Total Dipole Moment    :     -0.39740       1.02009      -0.44646
                        -----------------------------------------
Magnitude (a.u.)       :      1.18230
Magnitude (Debye)      :      3.00518

Rotational constants in cm-1:     0.233526     0.075277     0.067092
Rotational constants in MHz :  7000.931279  2256.752901  2011.361214

                             ****ORCA TERMINATED NORMALLY****
TOTAL RUN TIME: 0 days 0 hours 26 minutes 20 seconds 879 msec
