                         Program Version 5.0.0 -  RELEASE  -
|  1> !LC-PBE RIJCOSX def2-SVPD def2/J TightSCF
|  2> *xyz -1 1
|  3> C          0.64866        1.00359       -3.64560
|  4> C          0.13297        2.38587       -4.02462
|  5> C         -1.36646        2.47911       -4.31393
|  6> C         -2.35773        2.30686       -3.13675
|  7> H         -1.63680        1.72709       -5.06399
|  8> H         -1.58235        3.44561       -4.76869
|  9> O         -3.44376        2.84652       -3.25274
| 10> O         -1.97092        1.58304       -2.15123
| 11> H          0.41484        3.10285       -3.24517
| 12> H          0.68317        2.68756       -4.91972
| 13> H          0.37534        0.30051       -4.40446
| 14> H          0.21856        0.70606       -2.71212
| 15> H          1.71431        1.03324       -3.55398
| 16> *
| 17> %MaxCore 64000
| 18>
| 19> %pal nprocs 4
| 20> end
| 21>
| 22> %scf
| 23>   MaxIter 150
| 24> end
| 25>
| 26>
| 27>                          ****END OF INPUT****

CARTESIAN COORDINATES (ANGSTROEM)
---------------------------------
  C      0.648660    1.003590   -3.645600
  C      0.132970    2.385870   -4.024620
  C     -1.366460    2.479110   -4.313930
  C     -2.357730    2.306860   -3.136750
  H     -1.636800    1.727090   -5.063990
  H     -1.582350    3.445610   -4.768690
  O     -3.443760    2.846520   -3.252740
  O     -1.970920    1.583040   -2.151230
  H      0.414840    3.102850   -3.245170
  H      0.683170    2.687560   -4.919720
  H      0.375340    0.300510   -4.404460
  H      0.218560    0.706060   -2.712120
  H      1.714310    1.033240   -3.553980

 Total Charge           Charge          ....   -1
 Multiplicity           Mult            ....    1
 Number of Electrons    NEL             ....   48
 Basis Dimension        Dim             ....  182

ORBITAL ENERGIES
----------------

  NO   OCC          E(Eh)            E(eV)
   0   2.0000     -18.737174      -509.8644
   1   2.0000     -18.725284      -509.5409
   2   2.0000     -10.023351      -272.7492
   3   2.0000      -9.979963      -271.5686
   4   2.0000      -9.964149      -271.1383
   5   2.0000      -9.957198      -270.9491
   6   2.0000      -0.991300       -26.9746
   7   2.0000      -0.881979       -23.9999
   8   2.0000      -0.809152       -22.0181
   9   2.0000      -0.705936       -19.2095
  10   2.0000      -0.601489       -16.3674
  11   2.0000      -0.477819       -13.0021
  12   2.0000      -0.441801       -12.0220
  13   2.0000      -0.435339       -11.8462
  14   2.0000      -0.403641       -10.9836
  15   2.0000      -0.376127       -10.2349
  16   2.0000      -0.360566        -9.8115
  17   2.0000      -0.347102        -9.4451
  18   2.0000      -0.323386        -8.7998
  19   2.0000      -0.312097        -8.4926
  20   2.0000      -0.299494        -8.1496
  21   2.0000      -0.183807        -5.0017
  22   2.0000      -0.177099        -4.8191
  23   2.0000      -0.167710        -4.5636
  24   0.0000       0.213661         5.8140
  25   0.0000       0.238505         6.4901
  26   0.0000       0.249807         6.7976
  27   0.0000       0.260576         7.0906
  28   0.0000       0.294190         8.0053

MULLIKEN ATOMIC CHARGES
-----------------------
   0 C :    0.496759
   1 C :   -0.435460
   2 C :   -0.158198
   3 C :    0.310033
   4 H :    0.109366
   5 H :    0.063589
   6 O :   -0.586100
   7 O :   -0.692746
   8 H :   -0.025950
   9 H :    0.011381
  10 H :   -0.019759
  11 H :   -0.083312
  12 H :    0.010397
Sum of atomic charges:   -1.0000000

LOEWDIN ATOMIC CHARGES
----------------------
   0 C :    0.069829
   1 C :   -0.118219
   2 C :   -0.021535
   3 C :   -0.314610
   4 H :    0.028614
   5 H :    0.013308
   6 O :   -0.294813
   7 O :   -0.326806
   8 H :    0.029410
   9 H :    0.008723
  10 H :   -0.015858
  11 H :   -0.031321
  12 H :   -0.026720

  Mayer bond orders larger than 0.100000
B(  0-C ,  1-C ) :   1.2826 B(  0-C , 10-H ) :   0.8335 B(  0-C , 11-H ) :   0.8926
B(  0-C , 12-H ) :   0.7979 B(  1-C ,  2-C ) :   1.1826 B(  1-C ,  4-H ) :   0.1000
B(  1-C ,  5-H ) :   0.1021 B(  1-C ,  8-H ) :   0.9807 B(  1-C ,  9-H ) :   0.9006
B(  1-C , 10-H ) :   0.1620 B(  1-C , 11-H ) :   0.1844 B(  1-C , 12-H ) :   0.1703
B(  2-C ,  3-C ) :   0.9939 B(  2-C ,  4-H ) :   0.8650 B(  2-C ,  5-H ) :   0.9395
B(  2-C ,  8-H ) :   0.1134 B(  3-C ,  5-H ) :   0.1265 B(  3-C ,  6-O ) :   1.6067
B(  3-C ,  7-O ) :   1.5266 B(  6-O ,  7-O ) :   0.1006

FINAL SINGLE POINT ENERGY      -306.022895225567

DIPOLE MOMENT
-------------
                                X             Y             Z
Electronic contribution:     -7.14221       1.47861       3.04961
Nuclear contribution   :      9.31936      -1.53308      -4.48293
                        -----------------------------------------
Total Dipole Moment    :      2.17715      -0.05446      -1.43333
                        -----------------------------------------
Magnitude (a.u.)       :      2.60718
Magnitude (Debye)      :      6.62692

Rotational constants in cm-1:     0.250458     0.077448     0.063252
Rotational constants in MHz :  7508.538874  2321.842942  1896.252250

                             ****ORCA TERMINATED NORMALLY****
TOTAL RUN TIME: 0 days 0 hours 0 minutes 18 seconds 144 msec
