                         Program Version 5.0.0 -  RELEASE  -
|  1> !LC-PBE RIJCOSX def2-SVPD def2/J TightSCF
|  2> *xyz 1 1
|  3> C          0.64866        1.00359       -3.64560
|  4> N          0.28128        0.67645       -2.24018
|  5> C          0.13297        2.38587       -4.02462
|  6> C         -1.36646        2.47911       -4.31393
|  7> H          0.39079       -0.31925       -2.02649
|  8> H         -0.69269        0.99010       -2.13812
|  9> H          0.85421        1.21221       -1.57528
| 10> H          0.19099        0.23965       -4.27575
| 11> H          1.73157        0.93173       -3.75075
| 12> H          0.41484        3.10285       -3.24517
| 13> H          0.68317        2.68756       -4.91972
| 14> H         -1.62719        1.77449       -5.07580
| 15> H         -1.60483        3.46796       -4.64597
| 16> H         -1.91603        2.26007       -3.42236
| 17> *
| 18> %MaxCore 64000
| 19>
| 20> %pal nprocs 4
| 21> end
| 22>
| 23> %scf
| 24>   MaxIter 150
| 25> end
| 26>
| 27>
| 28>                          ****END OF INPUT****

CARTESIAN COORDINATES (ANGSTROEM)
---------------------------------
  C      0.648660    1.003590   -3.645600
  N      0.281280    0.676450   -2.240180
  C      0.132970    2.385870   -4.024620
  C     -1.366460    2.479110   -4.313930
  H      0.390790   -0.319250   -2.026490
  H     -0.692690    0.990100   -2.138120
  H      0.854210    1.212210   -1.575280
  H      0.190990    0.239650   -4.275750
  H      1.731570    0.931730   -3.750750
  H      0.414840    3.102850   -3.245170
  H      0.683170    2.687560   -4.919720
  H     -1.627190    1.774490   -5.075800
  H     -1.604830    3.467960   -4.645970
  H     -1.916030    2.260070   -3.422360

 Total Charge           Charge          ....    1
 Multiplicity           Mult            ....    1
 Number of Electrons    NEL             ....   34
 Basis Dimension        Dim             ....  160

ORBITAL ENERGIES
----------------

  NO   OCC          E(Eh)            E(eV)
   0   2.0000     -14.559639      -396.1879
   1   2.0000     -10.375596      -282.3343
   2   2.0000     -10.308020      -280.4955
   3   2.0000     -10.272505      -279.5291
   4   2.0000      -1.378438       -37.5092
   5   2.0000      -1.144987       -31.1567
   6   2.0000      -1.046349       -28.4726
   7   2.0000      -0.958586       -26.0845
   8   2.0000      -0.946373       -25.7521
   9   2.0000      -0.918668       -24.9982
  10   2.0000      -0.834381       -22.7046
  11   2.0000      -0.771019       -20.9805
  12   2.0000      -0.750877       -20.4324
  13   2.0000      -0.724030       -19.7019
  14   2.0000      -0.660860       -17.9829
  15   2.0000      -0.648521       -17.6472
  16   2.0000      -0.643530       -17.5113
  17   0.0000      -0.103976        -2.8293
  18   0.0000      -0.048082        -1.3084
  19   0.0000      -0.045737        -1.2446
  20   0.0000      -0.038462        -1.0466
  21   0.0000      -0.009123        -0.2483

MULLIKEN ATOMIC CHARGES
-----------------------
   0 C :    0.390375
   1 N :   -0.827818
   2 C :   -0.486655
   3 C :    0.510400
   4 H :    0.357661
   5 H :    0.411421
   6 H :    0.432909
   7 H :    0.066059
   8 H :    0.012800
   9 H :    0.033897
  10 H :    0.078864
  11 H :    0.074390
  12 H :    0.063938
  13 H :   -0.118242
Sum of atomic charges:    1.0000000

LOEWDIN ATOMIC CHARGES
----------------------
   0 C :    0.063305
   1 N :    0.320403
   2 C :   -0.075706
   3 C :    0.120252
   4 H :    0.116470
   5 H :    0.093117
   6 H :    0.118751
   7 H :    0.064515
   8 H :    0.063288
   9 H :    0.045935
  10 H :    0.055098
  11 H :    0.010020
  12 H :    0.017780
  13 H :   -0.013230

  Mayer bond orders larger than 0.100000
B(  0-C ,  1-N ) :   0.7891 B(  0-C ,  2-C ) :   1.1713 B(  0-C ,  7-H ) :   0.9299
B(  0-C ,  8-H ) :   0.9390 B(  1-N ,  4-H ) :   0.7920 B(  1-N ,  5-H ) :   0.7049
B(  1-N ,  6-H ) :   0.7450 B(  2-C ,  3-C ) :   1.2651 B(  2-C ,  9-H ) :   0.9788
B(  2-C , 10-H ) :   0.9402 B(  2-C , 11-H ) :   0.1421 B(  2-C , 12-H ) :   0.1725
B(  2-C , 13-H ) :   0.1457 B(  3-C , 11-H ) :   0.8263 B(  3-C , 12-H ) :   0.8307
B(  3-C , 13-H ) :   0.8705

FINAL SINGLE POINT ENERGY      -174.142679978619

DIPOLE MOMENT
-------------
                                X             Y             Z
Electronic contribution:      1.32330      -1.48583       1.60839
Nuclear contribution   :     -0.74670       0.28200      -0.02386
                        -----------------------------------------
Total Dipole Moment    :      0.57660      -1.20383       1.58453
                        -----------------------------------------
Magnitude (a.u.)       :      2.07182
Magnitude (Debye)      :      5.26614

Rotational constants in cm-1:     0.472563     0.149855     0.132807
Rotational constants in MHz : 14167.078489  4492.544970  3981.441276

                             ****ORCA TERMINATED NORMALLY****
TOTAL RUN TIME: 0 days 0 hours 0 minutes 14 seconds 172 msec
