                         Program Version 5.0.0 -  RELEASE  -
|  1> !LC-PBE RIJCOSX def2-SVPD def2/J TightSCF
|  2> *xyz 0 1
|  3> C          0.64866        1.00359       -3.64560
|  4> C          0.13297        2.38587       -4.02462
|  5> C         -1.36646        2.47911       -4.31393
|  6> C         -2.35773        2.30686       -3.13675
|  7> H         -1.63680        1.72709       -5.06399
|  8> H         -1.58235        3.44561       -4.76869
|  9> F         -3.44376        2.84652       -3.25274
| 10> O         -1.97092        1.58304       -2.15123
| 11> H          0.41484        3.10285       -3.24517
| 12> H          0.68317        2.68756       -4.91972
| 13> H          0.37534        0.30051       -4.40446
| 14> H          0.21856        0.70606       -2.71212
| 15> H          1.71431        1.03324       -3.55398
| 16> *
| 17> %MaxCore 64000
| 18>
| 19> %pal nprocs 4
| 20> end
| 21>
| 22> %scf
| 23>   MaxIter 150
| 24> end
| 25>
| 26>
| 27>                          ****END OF INPUT****

CARTESIAN COORDINATES (ANGSTROEM)
---------------------------------
  C      0.648660    1.003590   -3.645600
  C      0.132970    2.385870   -4.024620
  C     -1.366460    2.479110   -4.313930
  C     -2.357730    2.306860   -3.136750
  H     -1.636800    1.727090   -5.063990
  H     -1.582350    3.445610   -4.768690
  F     -3.443760    2.846520   -3.252740
  O     -1.970920    1.583040   -2.151230
  H      0.414840    3.102850   -3.245170
  H      0.683170    2.687560   -4.919720
  H      0.375340    0.300510   -4.404460
  H      0.218560    0.706060   -2.712120
  H      1.714310    1.033240   -3.553980

 Total Charge           Charge          ....    0
 Multiplicity           Mult            ....    1
 Number of Electrons    NEL             ....   48
 Basis Dimension        Dim             ....  182

ORBITAL ENERGIES
----------------

  NO   OCC          E(Eh)            E(eV)
   0   2.0000     -24.597974      -669.3449
   1   2.0000     -19.000043      -517.0174
   2   2.0000     -10.325023      -280.9582
   3   2.0000     -10.163711      -276.5686
   4   2.0000     -10.140466      -275.9361
   5   2.0000     -10.106076      -275.0003
   6   2.0000      -1.498417       -40.7740
   7   2.0000      -1.178178       -32.0598
   8   2.0000      -0.984273       -26.7834
   9   2.0000      -0.898385       -24.4463
  10   2.0000      -0.831631       -22.6298
  11   2.0000      -0.772727       -21.0270
  12   2.0000      -0.729303       -19.8453
  13   2.0000      -0.701637       -19.0925
  14   2.0000      -0.658030       -17.9059
  15   2.0000      -0.609036       -16.5727
  16   2.0000      -0.599539       -16.3143
  17   2.0000      -0.561969       -15.2919
  18   2.0000      -0.529356       -14.4045
  19   2.0000      -0.497091       -13.5265
  20   2.0000      -0.489440       -13.3183
  21   2.0000      -0.478188       -13.0121
  22   2.0000      -0.472331       -12.8528
  23   2.0000      -0.422261       -11.4903
  24   0.0000       0.063672         1.7326
  25   0.0000       0.084413         2.2970
  26   0.0000       0.106211         2.8902
  27   0.0000       0.119346         3.2476
  28   0.0000       0.123599         3.3633

MULLIKEN ATOMIC CHARGES
-----------------------
   0 C :    0.498310
   1 C :   -0.454482
   2 C :   -0.232606
   3 C :    0.628944
   4 H :    0.196085
   5 H :    0.123824
   6 F :   -0.284472
   7 O :   -0.462785
   8 H :   -0.002074
   9 H :    0.042973
  10 H :   -0.001049
  11 H :   -0.093421
  12 H :    0.040751
Sum of atomic charges:    0.0000000

LOEWDIN ATOMIC CHARGES
----------------------
   0 C :    0.093293
   1 C :   -0.090965
   2 C :    0.017202
   3 C :   -0.016091
   4 H :    0.054623
   5 H :    0.035107
   6 F :    0.006781
   7 O :   -0.142603
   8 H :    0.041611
   9 H :    0.032982
  10 H :   -0.003903
  11 H :   -0.022891
  12 H :   -0.005146

  Mayer bond orders larger than 0.100000
B(  0-C ,  1-C ) :   1.3034 B(  0-C , 10-H ) :   0.8291 B(  0-C , 11-H ) :   0.8966
B(  0-C , 12-H ) :   0.8049 B(  1-C ,  2-C ) :   1.2387 B(  1-C ,  5-H ) :   0.1117
B(  1-C ,  8-H ) :   0.9812 B(  1-C ,  9-H ) :   0.9088 B(  1-C , 10-H ) :   0.1562
B(  1-C , 11-H ) :   0.1725 B(  1-C , 12-H ) :   0.1635 B(  2-C ,  3-C ) :   1.0865
B(  2-C ,  4-H ) :   0.8339 B(  2-C ,  5-H ) :   0.8904 B(  2-C ,  8-H ) :   0.1041
B(  3-C ,  6-F ) :   0.8557 B(  3-C ,  7-O ) :   1.8698

FINAL SINGLE POINT ENERGY      -330.515685025630

DIPOLE MOMENT
-------------
                                X             Y             Z
Electronic contribution:    -11.44871       2.92958       3.56881
Nuclear contribution   :     11.62992      -2.38586      -4.66016
                        -----------------------------------------
Total Dipole Moment    :      0.18122       0.54372      -1.09135
                        -----------------------------------------
Magnitude (a.u.)       :      1.23269
Magnitude (Debye)      :      3.13324

Rotational constants in cm-1:     0.249088     0.072929     0.060128
Rotational constants in MHz :  7467.482637  2186.350475  1802.579568

                             ****ORCA TERMINATED NORMALLY****
TOTAL RUN TIME: 0 days 0 hours 0 minutes 21 seconds 154 msec
