                         Program Version 5.0.0 -  RELEASE  -
|  1> !LC-PBE RIJCOSX def2-SVPD def2/J TightSCF
|  2> *xyz 0 1
|  3> C          0.64866        1.00359       -3.64560
|  4> C          0.28128        0.67645       -2.24018
|  5> C          0.13297        2.38587       -4.02462
|  6> C         -1.36646        2.47911       -4.31393
|  7> H          0.39079       -0.31925       -2.02649
|  8> H         -0.69269        0.99010       -2.13812
|  9> H          0.85421        1.21221       -1.57528
| 10> H          0.19099        0.23965       -4.27575
| 11> H          1.73157        0.93173       -3.75075
| 12> H          0.41484        3.10285       -3.24517
| 13> H          0.68317        2.68756       -4.91972
| 14> H         -1.62719        1.77449       -5.07580
| 15> H         -1.60483        3.46796       -4.64597
| 16> H         -1.91603        2.26007       -3.42236
| 17> *
| 18> %MaxCore 64000
| 19>
| 20> %pal nprocs 4
| 21> end
| 22>
| 23> %scf
| 24>   MaxIter 150
| 25> end
| 26>
| 27>
| 28>                          ****END OF INPUT****

CARTESIAN COORDINATES (ANGSTROEM)
---------------------------------
  C      0.648660    1.003590   -3.645600
  C      0.281280    0.676450   -2.240180
  C      0.132970    2.385870   -4.024620
  C     -1.366460    2.479110   -4.313930
  H      0.390790   -0.319250   -2.026490
  H     -0.692690    0.990100   -2.138120
  H      0.854210    1.212210   -1.575280
  H      0.190990    0.239650   -4.275750
  H      1.731570    0.931730   -3.750750
  H      0.414840    3.102850   -3.245170
  H      0.683170    2.687560   -4.919720
  H     -1.627190    1.774490   -5.075800
  H     -1.604830    3.467960   -4.645970
  H     -1.916030    2.260070   -3.422360

 Total Charge           Charge          ....    0
 Multiplicity           Mult            ....    1
 Number of Electrons    NEL             ....   34
 Basis Dimension        Dim             ....  160

ORBITAL ENERGIES
----------------

  NO   OCC          E(Eh)            E(eV)
   0   2.0000     -10.117186      -275.3026
   1   2.0000     -10.112251      -275.1683
   2   2.0000     -10.107266      -275.0327
   3   2.0000     -10.085857      -274.4501
   4   2.0000      -0.978975       -26.6393
   5   2.0000      -0.897162       -24.4130
   6   2.0000      -0.802330       -21.8325
   7   2.0000      -0.721912       -19.6442
   8   2.0000      -0.618379       -16.8270
   9   2.0000      -0.604879       -16.4596
  10   2.0000      -0.569301       -15.4915
  11   2.0000      -0.530934       -14.4474
  12   2.0000      -0.514013       -13.9870
  13   2.0000      -0.495947       -13.4954
  14   2.0000      -0.454313       -12.3625
  15   2.0000      -0.450820       -12.2674
  16   2.0000      -0.440215       -11.9789
  17   0.0000       0.096335         2.6214
  18   0.0000       0.118517         3.2250
  19   0.0000       0.122133         3.3234
  20   0.0000       0.128199         3.4885
  21   0.0000       0.177289         4.8243

MULLIKEN ATOMIC CHARGES
-----------------------
   0 C :   -0.380181
   1 C :    0.878280
   2 C :   -0.460290
   3 C :    0.497871
   4 H :   -0.129033
   5 H :   -0.345636
   6 H :   -0.015504
   7 H :    0.034746
   8 H :   -0.060207
   9 H :    0.014929
  10 H :   -0.010720
  11 H :    0.059814
  12 H :    0.029463
  13 H :   -0.113530
Sum of atomic charges:    0.0000000

LOEWDIN ATOMIC CHARGES
----------------------
   0 C :   -0.104764
   1 C :    0.093780
   2 C :   -0.109087
   3 C :    0.093734
   4 H :   -0.020436
   5 H :   -0.034999
   6 H :   -0.015838
   7 H :    0.034524
   8 H :    0.032253
   9 H :    0.035830
  10 H :    0.025227
  11 H :   -0.005157
  12 H :   -0.007054
  13 H :   -0.018013

  Mayer bond orders larger than 0.100000
B(  0-C ,  1-C ) :   1.2253 B(  0-C ,  2-C ) :   1.1840 B(  0-C ,  4-H ) :   0.1723
B(  0-C ,  5-H ) :   0.2489 B(  0-C ,  6-H ) :   0.1741 B(  0-C ,  7-H ) :   0.9300
B(  0-C ,  8-H ) :   0.9870 B(  1-C ,  4-H ) :   0.7614 B(  1-C ,  5-H ) :   0.7107
B(  1-C ,  6-H ) :   0.7153 B(  2-C ,  3-C ) :   1.2573 B(  2-C ,  9-H ) :   0.9625
B(  2-C , 10-H ) :   0.9810 B(  2-C , 11-H ) :   0.1610 B(  2-C , 12-H ) :   0.1746
B(  2-C , 13-H ) :   0.1641 B(  3-C , 11-H ) :   0.8167 B(  3-C , 12-H ) :   0.8111
B(  3-C , 13-H ) :   0.8841 B(  5-H ,  6-H ) :   0.1516

FINAL SINGLE POINT ENERGY      -157.760834531002

DIPOLE MOMENT
-------------
                                X             Y             Z
Electronic contribution:      0.65490       0.02346      -0.39040
Nuclear contribution   :     -0.63302      -0.01177       0.37643
                        -----------------------------------------
Total Dipole Moment    :      0.02188       0.01169      -0.01397
                        -----------------------------------------
Magnitude (a.u.)       :      0.02847
Magnitude (Debye)      :      0.07237

Rotational constants in cm-1:     0.480601     0.156500     0.138605
Rotational constants in MHz : 14408.061205  4691.756081  4155.280646

                             ****ORCA TERMINATED NORMALLY****
TOTAL RUN TIME: 0 days 0 hours 0 minutes 13 seconds 181 msec
