                         Program Version 5.0.0 -  RELEASE  -
|  1> !LC-PBE RIJCOSX def2-SVPD def2/J TightSCF
|  2> *xyz 0 1
|  3> C          0.64866        1.00359       -3.64560
|  4> C          0.13297        2.38587       -4.02462
|  5> C         -1.36646        2.47911       -4.31393
|  6> C         -2.35773        2.30686       -3.13675
|  7> H         -1.63680        1.72709       -5.06399
|  8> H         -1.58235        3.44561       -4.76869
|  9> O         -3.44376        2.84652       -3.25274
| 10> F         -1.97092        1.58304       -2.15123
| 11> H          0.41484        3.10285       -3.24517
| 12> H          0.68317        2.68756       -4.91972
| 13> H          0.37534        0.30051       -4.40446
| 14> H          0.21856        0.70606       -2.71212
| 15> H          1.71431        1.03324       -3.55398
| 16> *
| 17> %MaxCore 64000
| 18>
| 19> %pal nprocs 4
| 20> end
| 21>
| 22> %scf
| 23>   MaxIter 150
| 24> end
| 25>
| 26>
| 27>                          ****END OF INPUT****

CARTESIAN COORDINATES (ANGSTROEM)
---------------------------------
  C      0.648660    1.003590   -3.645600
  C      0.132970    2.385870   -4.024620
  C     -1.366460    2.479110   -4.313930
  C     -2.357730    2.306860   -3.136750
  H     -1.636800    1.727090   -5.063990
  H     -1.582350    3.445610   -4.768690
  O     -3.443760    2.846520   -3.252740
  F     -1.970920    1.583040   -2.151230
  H      0.414840    3.102850   -3.245170
  H      0.683170    2.687560   -4.919720
  H      0.375340    0.300510   -4.404460
  H      0.218560    0.706060   -2.712120
  H      1.714310    1.033240   -3.553980

 Total Charge           Charge          ....    0
 Multiplicity           Mult            ....    1
 Number of Electrons    NEL             ....   48
 Basis Dimension        Dim             ....  182

ORBITAL ENERGIES
----------------

  NO   OCC          E(Eh)            E(eV)
   0   2.0000     -24.572974      -668.6646
   1   2.0000     -19.010009      -517.2886
   2   2.0000     -10.318303      -280.7753
   3   2.0000     -10.161576      -276.5105
   4   2.0000     -10.145390      -276.0701
   5   2.0000     -10.120557      -275.3944
   6   2.0000      -1.449467       -39.4420
   7   2.0000      -1.216511       -33.1030
   8   2.0000      -0.990603       -26.9557
   9   2.0000      -0.895926       -24.3794
  10   2.0000      -0.810961       -22.0674
  11   2.0000      -0.775757       -21.1094
  12   2.0000      -0.703797       -19.1513
  13   2.0000      -0.689918       -18.7736
  14   2.0000      -0.650540       -17.7021
  15   2.0000      -0.606966       -16.5164
  16   2.0000      -0.603486       -16.4217
  17   2.0000      -0.571197       -15.5431
  18   2.0000      -0.552752       -15.0411
  19   2.0000      -0.515728       -14.0337
  20   2.0000      -0.504735       -13.7345
  21   2.0000      -0.481039       -13.0897
  22   2.0000      -0.478491       -13.0204
  23   2.0000      -0.434490       -11.8231
  24   0.0000       0.068695         1.8693
  25   0.0000       0.085703         2.3321
  26   0.0000       0.109419         2.9775
  27   0.0000       0.112858         3.0710
  28   0.0000       0.121112         3.2956

MULLIKEN ATOMIC CHARGES
-----------------------
   0 C :    0.500894
   1 C :   -0.422871
   2 C :   -0.234994
   3 C :    0.619084
   4 H :    0.184939
   5 H :    0.120807
   6 O :   -0.368557
   7 F :   -0.377121
   8 H :   -0.010283
   9 H :    0.046947
  10 H :    0.004749
  11 H :   -0.106966
  12 H :    0.043374
Sum of atomic charges:    0.0000000

LOEWDIN ATOMIC CHARGES
----------------------
   0 C :    0.089643
   1 C :   -0.100757
   2 C :    0.026909
   3 C :   -0.016228
   4 H :    0.055656
   5 H :    0.044743
   6 O :   -0.108402
   7 F :   -0.037222
   8 H :    0.039024
   9 H :    0.033770
  10 H :   -0.002842
  11 H :   -0.021009
  12 H :   -0.003284

  Mayer bond orders larger than 0.100000
B(  0-C ,  1-C ) :   1.2901 B(  0-C , 10-H ) :   0.8343 B(  0-C , 11-H ) :   0.8937
B(  0-C , 12-H ) :   0.8130 B(  1-C ,  2-C ) :   1.2118 B(  1-C ,  4-H ) :   0.1029
B(  1-C ,  5-H ) :   0.1004 B(  1-C ,  8-H ) :   0.9840 B(  1-C ,  9-H ) :   0.8998
B(  1-C , 10-H ) :   0.1575 B(  1-C , 11-H ) :   0.1656 B(  1-C , 12-H ) :   0.1642
B(  2-C ,  3-C ) :   1.0606 B(  2-C ,  4-H ) :   0.8326 B(  2-C ,  5-H ) :   0.9318
B(  2-C ,  8-H ) :   0.1063 B(  3-C ,  5-H ) :   0.1021 B(  3-C ,  6-O ) :   1.9471
B(  3-C ,  7-F ) :   0.7781

FINAL SINGLE POINT ENERGY      -330.533951725823

DIPOLE MOMENT
-------------
                                X             Y             Z
Electronic contribution:     -8.84173       0.75027       5.42098
Nuclear contribution   :      9.96624      -0.95867      -5.90440
                        -----------------------------------------
Total Dipole Moment    :      1.12451      -0.20840      -0.48342
                        -----------------------------------------
Magnitude (a.u.)       :      1.24163
Magnitude (Debye)      :      3.15597

Rotational constants in cm-1:     0.233484     0.076940     0.061803
Rotational constants in MHz :  6999.682494  2306.588565  1852.797552

                             ****ORCA TERMINATED NORMALLY****
TOTAL RUN TIME: 0 days 0 hours 0 minutes 19 seconds 617 msec
