                         Program Version 5.0.0 -  RELEASE  -
|  1> !M062X D3Zero RIJCOSX def2-TZVP def2/J TightSCF
|  2> *xyz -1 1
|  3> C          0.61188        1.65763       -4.50029
|  4> C          1.69499        1.54179       -5.57045
|  5> H          2.69733        1.73466       -5.18400
|  6> H          1.50666        2.27224       -6.35808
|  7> S          1.78029       -0.03313       -6.42874
|  8> O          2.56929        0.21366       -7.60736
|  9> O          0.41688       -0.46297       -6.61859
| 10> O          2.50513       -0.93326       -5.48257
| 11> H         -0.34424        1.45871       -4.93752
| 12> H          0.61845        2.64655       -4.09174
| 13> H          0.80247        0.94882       -3.72173
| 14> *
| 15> %MaxCore 64000
| 16>
| 17> %pal nprocs 4
| 18> end
| 19>
| 20> %scf
| 21>   MaxIter 150
| 22> end
| 23>
| 24>
| 25>                          ****END OF INPUT****

CARTESIAN COORDINATES (ANGSTROEM)
---------------------------------
  C      0.611880    1.657630   -4.500290
  C      1.694990    1.541790   -5.570450
  H      2.697330    1.734660   -5.184000
  H      1.506660    2.272240   -6.358080
  S      1.780290   -0.033130   -6.428740
  O      2.569290    0.213660   -7.607360
  O      0.416880   -0.462970   -6.618590
  O      2.505130   -0.933260   -5.482570
  H     -0.344240    1.458710   -4.937520
  H      0.618450    2.646550   -4.091740
  H      0.802470    0.948820   -3.721730

 Total Charge           Charge          ....   -1
 Multiplicity           Mult            ....    1
 Number of Electrons    NEL             ....   58
 Basis Dimension        Dim             ....  222

ORBITAL ENERGIES
----------------

  NO   OCC          E(Eh)            E(eV)
   0   2.0000     -89.883884     -2445.8648
   1   2.0000     -19.402555      -527.9704
   2   2.0000     -19.401445      -527.9402
   3   2.0000     -19.381974      -527.4103
   4   2.0000     -10.393225      -282.8140
   5   2.0000     -10.388613      -282.6885
   6   2.0000      -8.208535      -223.3656
   7   2.0000      -6.131205      -166.8386
   8   2.0000      -6.130090      -166.8082
   9   2.0000      -6.129872      -166.8023
  10   2.0000      -1.042683       -28.3729
  11   2.0000      -0.913748       -24.8644
  12   2.0000      -0.878631       -23.9088
  13   2.0000      -0.728017       -19.8104
  14   2.0000      -0.594234       -16.1699
  15   2.0000      -0.463115       -12.6020
  16   2.0000      -0.390387       -10.6230
  17   2.0000      -0.387263       -10.5380
  18   2.0000      -0.349177        -9.5016
  19   2.0000      -0.336227        -9.1492
  20   2.0000      -0.325887        -8.8678
  21   2.0000      -0.291714        -7.9380
  22   2.0000      -0.276982        -7.5370
  23   2.0000      -0.224366        -6.1053
  24   2.0000      -0.222069        -6.0428
  25   2.0000      -0.188095        -5.1183
  26   2.0000      -0.172924        -4.7055
  27   2.0000      -0.160587        -4.3698
  28   2.0000      -0.131859        -3.5881
  29   0.0000       0.205003         5.5784
  30   0.0000       0.248800         6.7702
  31   0.0000       0.264423         7.1953
  32   0.0000       0.268117         7.2958
  33   0.0000       0.294195         8.0055

MULLIKEN ATOMIC CHARGES
-----------------------
   0 C :   -0.398343
   1 C :   -0.306873
   2 H :    0.119014
   3 H :    0.109891
   4 S :    0.911156
   5 O :   -0.580271
   6 O :   -0.583292
   7 O :   -0.634548
   8 H :    0.138448
   9 H :    0.092503
  10 H :    0.132315
Sum of atomic charges:   -1.0000000

LOEWDIN ATOMIC CHARGES
----------------------
   0 C :   -0.343199
   1 C :   -0.432738
   2 H :    0.121268
   3 H :    0.119006
   4 S :    0.429296
   5 O :   -0.383961
   6 O :   -0.383410
   7 O :   -0.458521
   8 H :    0.115924
   9 H :    0.100875
  10 H :    0.115461

  Mayer bond orders larger than 0.100000
B(  0-C ,  1-C ) :   0.9303 B(  0-C ,  8-H ) :   0.9725 B(  0-C ,  9-H ) :   0.9701
B(  0-C , 10-H ) :   0.9738 B(  1-C ,  2-H ) :   0.9652 B(  1-C ,  3-H ) :   0.9592
B(  1-C ,  4-S ) :   0.8833 B(  4-S ,  5-O ) :   1.7973 B(  4-S ,  6-O ) :   1.7530
B(  4-S ,  7-O ) :   1.7206

Dispersion correction           -0.000147532
FINAL SINGLE POINT ENERGY      -703.154994663777

DIPOLE MOMENT
-------------
                                X             Y             Z
Electronic contribution:      2.23508      -5.61654      -5.00024
Nuclear contribution   :     -2.69163       7.29476       5.86550
                        -----------------------------------------
Total Dipole Moment    :     -0.45655       1.67822       0.86526
                        -----------------------------------------
Magnitude (a.u.)       :      1.94256
Magnitude (Debye)      :      4.93760

Rotational constants in cm-1:     0.163060     0.082831     0.081111
Rotational constants in MHz :  4888.419330  2483.225008  2431.646841

                             ****ORCA TERMINATED NORMALLY****
TOTAL RUN TIME: 0 days 0 hours 0 minutes 20 seconds 716 msec
