                         Program Version 5.0.0 -  RELEASE  -
|  1> !M062X D3Zero RIJCOSX def2-TZVP def2/J TightSCF
|  2> *xyz 1 1
|  3> C          1.96337       -1.74915       -1.89689
|  4> N          2.73849       -2.01517       -3.09711
|  5> C          4.04974       -2.15472       -3.15204
|  6> N          4.65821       -1.98629       -4.31866
|  7> N          4.76423       -2.45444       -2.05049
|  8> H          4.28736       -2.77626       -1.21750
|  9> H          5.75082       -2.65835       -2.12599
| 10> H          2.34518       -1.69027       -3.97145
| 11> H          4.10900       -1.59268       -5.07176
| 12> H          5.64910       -2.15646       -4.42724
| 13> C          2.08852       -0.30091       -1.41520
| 14> H          2.23127       -2.45162       -1.10264
| 15> H          0.93025       -1.97780       -2.15544
| 16> H          1.82118        0.36368       -2.21003
| 17> H          3.09792       -0.11068       -1.11551
| 18> H          1.43391       -0.14382       -0.58352
| 19> *
| 20> %MaxCore 64000
| 21>
| 22> %pal nprocs 4
| 23> end
| 24>
| 25> %scf
| 26>   MaxIter 150
| 27> end
| 28>
| 29>
| 30>                          ****END OF INPUT****

CARTESIAN COORDINATES (ANGSTROEM)
---------------------------------
  C      1.963370   -1.749150   -1.896890
  N      2.738490   -2.015170   -3.097110
  C      4.049740   -2.154720   -3.152040
  N      4.658210   -1.986290   -4.318660
  N      4.764230   -2.454440   -2.050490
  H      4.287360   -2.776260   -1.217500
  H      5.750820   -2.658350   -2.125990
  H      2.345180   -1.690270   -3.971450
  H      4.109000   -1.592680   -5.071760
  H      5.649100   -2.156460   -4.427240
  C      2.088520   -0.300910   -1.415200
  H      2.231270   -2.451620   -1.102640
  H      0.930250   -1.977800   -2.155440
  H      1.821180    0.363680   -2.210030
  H      3.097920   -0.110680   -1.115510
  H      1.433910   -0.143820   -0.583520

 Total Charge           Charge          ....    1
 Multiplicity           Mult            ....    1
 Number of Electrons    NEL             ....   48
 Basis Dimension        Dim             ....  246

ORBITAL ENERGIES
----------------

  NO   OCC          E(Eh)            E(eV)
   0   2.0000     -14.972789      -407.4303
   1   2.0000     -14.971716      -407.4011
   2   2.0000     -14.970806      -407.3763
   3   2.0000     -10.877341      -295.9875
   4   2.0000     -10.743903      -292.3565
   5   2.0000     -10.669712      -290.3376
   6   2.0000      -1.332176       -36.2503
   7   2.0000      -1.212406       -32.9913
   8   2.0000      -1.198703       -32.6184
   9   2.0000      -1.026397       -27.9297
  10   2.0000      -0.929337       -25.2885
  11   2.0000      -0.888723       -24.1834
  12   2.0000      -0.861625       -23.4460
  13   2.0000      -0.822485       -22.3810
  14   2.0000      -0.764841       -20.8124
  15   2.0000      -0.757548       -20.6139
  16   2.0000      -0.730339       -19.8735
  17   2.0000      -0.699362       -19.0306
  18   2.0000      -0.669214       -18.2102
  19   2.0000      -0.630673       -17.1615
  20   2.0000      -0.596367       -16.2280
  21   2.0000      -0.575586       -15.6625
  22   2.0000      -0.543845       -14.7988
  23   2.0000      -0.511388       -13.9156
  24   0.0000      -0.128020        -3.4836
  25   0.0000      -0.123306        -3.3553
  26   0.0000      -0.092792        -2.5250
  27   0.0000      -0.082415        -2.2426
  28   0.0000      -0.056239        -1.5303

MULLIKEN ATOMIC CHARGES
-----------------------
   0 C :   -0.245153
   1 N :   -0.303176
   2 C :    0.584080
   3 N :   -0.475388
   4 N :   -0.485517
   5 H :    0.301420
   6 H :    0.293313
   7 H :    0.259733
   8 H :    0.290786
   9 H :    0.301809
  10 C :   -0.357745
  11 H :    0.160494
  12 H :    0.192097
  13 H :    0.153642
  14 H :    0.151186
  15 H :    0.178419
Sum of atomic charges:    1.0000000

LOEWDIN ATOMIC CHARGES
----------------------
   0 C :   -0.284927
   1 N :    0.164091
   2 C :   -0.402688
   3 N :    0.064176
   4 N :    0.053832
   5 H :    0.198243
   6 H :    0.197849
   7 H :    0.212190
   8 H :    0.200662
   9 H :    0.201230
  10 C :   -0.282526
  11 H :    0.139837
  12 H :    0.152669
  13 H :    0.125659
  14 H :    0.123040
  15 H :    0.136661

  Mayer bond orders larger than 0.100000
B(  0-C ,  1-N ) :   0.8645 B(  0-C , 10-C ) :   0.9374 B(  0-C , 11-H ) :   0.9760
B(  0-C , 12-H ) :   0.9597 B(  1-N ,  2-C ) :   1.3613 B(  1-N ,  7-H ) :   0.9080
B(  2-C ,  3-N ) :   1.2923 B(  2-C ,  4-N ) :   1.2827 B(  3-N ,  8-H ) :   0.9012
B(  3-N ,  9-H ) :   0.8955 B(  4-N ,  5-H ) :   0.8884 B(  4-N ,  6-H ) :   0.9002
B( 10-C , 13-H ) :   0.9647 B( 10-C , 14-H ) :   0.9557 B( 10-C , 15-H ) :   0.9686

Dispersion correction           -0.000320300
FINAL SINGLE POINT ENERGY      -284.369930097942

DIPOLE MOMENT
-------------
                                X             Y             Z
Electronic contribution:      3.02122      -2.71027      -3.09821
Nuclear contribution   :     -2.17768       2.37118       2.44574
                        -----------------------------------------
Total Dipole Moment    :      0.84354      -0.33909      -0.65247
                        -----------------------------------------
Magnitude (a.u.)       :      1.11905
Magnitude (Debye)      :      2.84439

Rotational constants in cm-1:     0.215650     0.075183     0.066454
Rotational constants in MHz :  6465.033740  2253.919004  1992.232519

                             ****ORCA TERMINATED NORMALLY****
TOTAL RUN TIME: 0 days 0 hours 0 minutes 29 seconds 931 msec
