                         Program Version 5.0.0 -  RELEASE  -
|  1> !M062X D3Zero RIJCOSX def2-TZVP def2/J TightSCF xyzfile
|  2>
|  3> *xyzfile 0 1 B.xyz
|  4>
|  5> %MaxCore 64000
|  6>
|  7> %pal nprocs 18
|  8> end
|  9>
| 10> %scf
| 11>   MaxIter 150
| 12> end
| 13>
| 14>
| 15>                          ****END OF INPUT****

CARTESIAN COORDINATES (ANGSTROEM)
---------------------------------
  C      1.963365   -1.749150   -1.896887
  N      2.738490   -2.015170   -3.097113
  C      0.611877    1.657634   -4.500288
  C      1.694991    1.541794   -5.570447
  H      2.697326    1.734659   -5.183996
  H      1.506656    2.272239   -6.358076
  S      1.780287   -0.033128   -6.428739
  C      4.049736   -2.154717   -3.152044
  N      4.658206   -1.986293   -4.318655
  N      4.764231   -2.454435   -2.050491
  H      4.287363   -2.776259   -1.217496
  H      5.750825   -2.658351   -2.125988
  H      2.345176   -1.690274   -3.971447
  H      4.109004   -1.592677   -5.071760
  H      5.649095   -2.156462   -4.427237
  O      2.569287    0.213657   -7.607360
  O      0.416880   -0.462969   -6.618595
  C      2.088520   -0.300912   -1.415204
  H      2.231272   -2.451616   -1.102643
  H      0.930249   -1.977801   -2.155438
  C      0.680356    0.655418   -3.348038
  H     -0.356865    1.549231   -4.991128
  H      0.650228    2.675438   -4.096000
  C      1.968993    0.733582   -2.535654
  H      3.051356   -0.168602   -0.911868
  H      1.316501   -0.136231   -0.657252
  O      2.505129   -0.933263   -5.482570
  H      2.824195    0.624726   -3.208464
  H      2.058919    1.730331   -2.093112
  H      0.542252   -0.344731   -3.766662
  H     -0.174219    0.829692   -2.685182

 Total Charge           Charge          ....    0
 Multiplicity           Mult            ....    1
 Number of Electrons    NEL             ....  120
 Basis Dimension        Dim             ....  542

ORBITAL ENERGIES
----------------

  NO   OCC          E(Eh)            E(eV)
   0   2.0000     -90.035137     -2449.9806
   1   2.0000     -19.565638      -532.4081
   2   2.0000     -19.543700      -531.8111
   3   2.0000     -19.541872      -531.7614
   4   2.0000     -14.835978      -403.7075
   5   2.0000     -14.807140      -402.9228
   6   2.0000     -14.803106      -402.8130
   7   2.0000     -10.725353      -291.8517
   8   2.0000     -10.609565      -288.7009
   9   2.0000     -10.558072      -287.2998
  10   2.0000     -10.538565      -286.7689
  11   2.0000     -10.526761      -286.4477
  12   2.0000     -10.523184      -286.3504
  13   2.0000     -10.522596      -286.3344
  14   2.0000      -8.360040      -227.4883
  15   2.0000      -6.282893      -170.9662
  16   2.0000      -6.281892      -170.9390
  17   2.0000      -6.280780      -170.9087
  18   2.0000      -1.195612       -32.5343
  19   2.0000      -1.179423       -32.0937
  20   2.0000      -1.066331       -29.0164
  21   2.0000      -1.054501       -28.6944
  22   2.0000      -1.053510       -28.6675
  23   2.0000      -1.046328       -28.4720
  24   2.0000      -0.921846       -25.0847
  25   2.0000      -0.880206       -23.9516
  26   2.0000      -0.828469       -22.5438
  27   2.0000      -0.786032       -21.3890
  28   2.0000      -0.755904       -20.5692
  29   2.0000      -0.717142       -19.5144
  30   2.0000      -0.710268       -19.3274
  31   2.0000      -0.675071       -18.3696
  32   2.0000      -0.654848       -17.8193
  33   2.0000      -0.632141       -17.2014
  34   2.0000      -0.614587       -16.7237
  35   2.0000      -0.597311       -16.2537
  36   2.0000      -0.581545       -15.8246
  37   2.0000      -0.552172       -15.0254
  38   2.0000      -0.548579       -14.9276
  39   2.0000      -0.542525       -14.7629
  40   2.0000      -0.527465       -14.3530
  41   2.0000      -0.514329       -13.9956
  42   2.0000      -0.499707       -13.5977
  43   2.0000      -0.489381       -13.3167
  44   2.0000      -0.476459       -12.9651
  45   2.0000      -0.464491       -12.6395
  46   2.0000      -0.442569       -12.0429
  47   2.0000      -0.434590       -11.8258
  48   2.0000      -0.427531       -11.6337
  49   2.0000      -0.402838       -10.9618
  50   2.0000      -0.399934       -10.8828
  51   2.0000      -0.391203       -10.6452
  52   2.0000      -0.378609       -10.3025
  53   2.0000      -0.373718       -10.1694
  54   2.0000      -0.371211       -10.1012
  55   2.0000      -0.357168        -9.7190
  56   2.0000      -0.335838        -9.1386
  57   2.0000      -0.325911        -8.8685
  58   2.0000      -0.309160        -8.4127
  59   2.0000      -0.292455        -7.9581
  60   0.0000       0.000397         0.0108
  61   0.0000       0.020468         0.5570
  62   0.0000       0.033442         0.9100
  63   0.0000       0.065669         1.7869
  64   0.0000       0.073443         1.9985

MULLIKEN ATOMIC CHARGES
-----------------------
   0 C :   -0.355580
   1 N :   -0.288442
   2 C :   -0.265172
   3 C :   -0.375942
   4 H :    0.152008
   5 H :    0.172580
   6 S :    0.962680
   7 C :    0.558111
   8 N :   -0.494014
   9 N :   -0.524692
  10 H :    0.282129
  11 H :    0.268764
  12 H :    0.334597
  13 H :    0.347069
  14 H :    0.257475
  15 O :   -0.544242
  16 O :   -0.532229
  17 C :   -0.228594
  18 H :    0.155860
  19 H :    0.212757
  20 C :   -0.330293
  21 H :    0.172323
  22 H :    0.140127
  23 C :   -0.308072
  24 H :    0.152879
  25 H :    0.157401
  26 O :   -0.711831
  27 H :    0.159290
  28 H :    0.154515
  29 H :    0.175639
  30 H :    0.142899
Sum of atomic charges:    0.0000000

LOEWDIN ATOMIC CHARGES
----------------------
   0 C :   -0.280009
   1 N :    0.171969
   2 C :   -0.290805
   3 C :   -0.390989
   4 H :    0.127106
   5 H :    0.139922
   6 S :    0.473043
   7 C :   -0.415072
   8 N :    0.054889
   9 N :    0.017729
  10 H :    0.186124
  11 H :    0.183831
  12 H :    0.189977
  13 H :    0.185525
  14 H :    0.180996
  15 O :   -0.341797
  16 O :   -0.339529
  17 C :   -0.272369
  18 H :    0.128768
  19 H :    0.149552
  20 C :   -0.276794
  21 H :    0.148393
  22 H :    0.138140
  23 C :   -0.273939
  24 H :    0.136710
  25 H :    0.144789
  26 O :   -0.434956
  27 H :    0.139437
  28 H :    0.141830
  29 H :    0.139018
  30 H :    0.138511

  Mayer bond orders larger than 0.100000
B(  0-C ,  1-N ) :   0.8714 B(  0-C , 17-C ) :   0.8668 B(  0-C , 18-H ) :   1.0004
B(  0-C , 19-H ) :   0.9718 B(  1-N ,  7-C ) :   1.4146 B(  1-N , 12-H ) :   0.8089
B(  2-C ,  3-C ) :   0.9032 B(  2-C , 20-C ) :   0.9417 B(  2-C , 21-H ) :   0.9749
B(  2-C , 22-H ) :   0.9761 B(  3-C ,  4-H ) :   0.9624 B(  3-C ,  5-H ) :   0.9633
B(  3-C ,  6-S ) :   0.9028 B(  6-S , 15-O ) :   1.8650 B(  6-S , 16-O ) :   1.8150
B(  6-S , 26-O ) :   1.3777 B(  7-C ,  8-N ) :   1.3374 B(  7-C ,  9-N ) :   1.2002
B(  8-N , 13-H ) :   0.8067 B(  8-N , 14-H ) :   0.9194 B(  9-N , 10-H ) :   0.8987
B(  9-N , 11-H ) :   0.9160 B( 17-C , 23-C ) :   0.9088 B( 17-C , 24-H ) :   0.9877
B( 17-C , 25-H ) :   0.9831 B( 20-C , 23-C ) :   0.8811 B( 20-C , 29-H ) :   0.9616
B( 20-C , 30-H ) :   0.9791 B( 23-C , 27-H ) :   0.9766 B( 23-C , 28-H ) :   0.9824

Dispersion correction           -0.001931847
FINAL SINGLE POINT ENERGY     -1065.112484818525

DIPOLE MOMENT
-------------
                                X             Y             Z
Electronic contribution:      2.29376      -4.97707     -14.17870
Nuclear contribution   :      0.44641       3.59123      19.13564
                        -----------------------------------------
Total Dipole Moment    :      2.74017      -1.38583       4.95694
                        -----------------------------------------
Magnitude (a.u.)       :      5.83098
Magnitude (Debye)      :     14.82116

Rotational constants in cm-1:     0.029186     0.014646     0.011115
Rotational constants in MHz :   874.975540   439.070287   333.231642

                             ****ORCA TERMINATED NORMALLY****
TOTAL RUN TIME: 0 days 0 hours 1 minutes 8 seconds 137 msec
