                         Program Version 5.0.0 -  RELEASE  -
|  1> !M062X D3Zero RIJCOSX def2-TZVP def2/J TightSCF
|  2> *xyz 0 1
|  3> C          0.61188        1.65763       -4.50029
|  4> C          1.69499        1.54179       -5.57045
|  5> H          2.69733        1.73466       -5.18400
|  6> H          1.50666        2.27224       -6.35808
|  7> S          1.78029       -0.03313       -6.42874
|  8> F          2.56929        0.21366       -7.60736
|  9> O          0.41688       -0.46297       -6.61859
| 10> O          2.50513       -0.93326       -5.48257
| 11> H         -0.34424        1.45871       -4.93752
| 12> H          0.61845        2.64655       -4.09174
| 13> H          0.80247        0.94882       -3.72173
| 14> *
| 15> %MaxCore 64000
| 16>
| 17> %pal nprocs 4
| 18> end
| 19>
| 20> %scf
| 21>   MaxIter 150
| 22> end
| 23>
| 24>
| 25>                          ****END OF INPUT****

CARTESIAN COORDINATES (ANGSTROEM)
---------------------------------
  C      0.611880    1.657630   -4.500290
  C      1.694990    1.541790   -5.570450
  H      2.697330    1.734660   -5.184000
  H      1.506660    2.272240   -6.358080
  S      1.780290   -0.033130   -6.428740
  F      2.569290    0.213660   -7.607360
  O      0.416880   -0.462970   -6.618590
  O      2.505130   -0.933260   -5.482570
  H     -0.344240    1.458710   -4.937520
  H      0.618450    2.646550   -4.091740
  H      0.802470    0.948820   -3.721730

 Total Charge           Charge          ....    0
 Multiplicity           Mult            ....    1
 Number of Electrons    NEL             ....   58
 Basis Dimension        Dim             ....  222

ORBITAL ENERGIES
----------------

  NO   OCC          E(Eh)            E(eV)
   0   2.0000     -90.151999     -2453.1606
   1   2.0000     -25.370566      -690.3682
   2   2.0000     -19.641944      -534.4845
   3   2.0000     -19.621895      -533.9389
   4   2.0000     -10.599075      -288.4155
   5   2.0000     -10.554561      -287.2042
   6   2.0000      -8.477244      -230.6775
   7   2.0000      -6.401982      -174.2068
   8   2.0000      -6.397074      -174.0732
   9   2.0000      -6.396535      -174.0586
  10   2.0000      -1.534380       -41.7526
  11   2.0000      -1.226355       -33.3708
  12   2.0000      -1.118817       -30.4446
  13   2.0000      -0.922773       -25.1099
  14   2.0000      -0.839464       -22.8430
  15   2.0000      -0.769109       -20.9285
  16   2.0000      -0.692409       -18.8414
  17   2.0000      -0.685799       -18.6616
  18   2.0000      -0.642812       -17.4918
  19   2.0000      -0.568906       -15.4807
  20   2.0000      -0.562115       -15.2959
  21   2.0000      -0.519207       -14.1283
  22   2.0000      -0.500968       -13.6320
  23   2.0000      -0.476348       -12.9621
  24   2.0000      -0.458868       -12.4864
  25   2.0000      -0.454605       -12.3704
  26   2.0000      -0.407655       -11.0928
  27   2.0000      -0.387499       -10.5444
  28   2.0000      -0.377693       -10.2776
  29   0.0000       0.054574         1.4850
  30   0.0000       0.071947         1.9578
  31   0.0000       0.096538         2.6269
  32   0.0000       0.103193         2.8080
  33   0.0000       0.113151         3.0790

MULLIKEN ATOMIC CHARGES
-----------------------
   0 C :   -0.400386
   1 C :   -0.305191
   2 H :    0.176520
   3 H :    0.157445
   4 S :    0.926992
   5 F :   -0.105689
   6 O :   -0.439558
   7 O :   -0.488666
   8 H :    0.164224
   9 H :    0.148305
  10 H :    0.166003
Sum of atomic charges:    0.0000000

LOEWDIN ATOMIC CHARGES
----------------------
   0 C :   -0.300598
   1 C :   -0.398865
   2 H :    0.141890
   3 H :    0.135943
   4 S :    0.555287
   5 F :    0.095235
   6 O :   -0.270638
   7 O :   -0.341175
   8 H :    0.127819
   9 H :    0.126038
  10 H :    0.129064

  Mayer bond orders larger than 0.100000
B(  0-C ,  1-C ) :   0.9469 B(  0-C ,  8-H ) :   0.9638 B(  0-C ,  9-H ) :   0.9610
B(  0-C , 10-H ) :   0.9649 B(  1-C ,  2-H ) :   0.9388 B(  1-C ,  3-H ) :   0.9372
B(  1-C ,  4-S ) :   0.9251 B(  4-S ,  5-F ) :   1.1260 B(  4-S ,  6-O ) :   1.9068
B(  4-S ,  7-O ) :   1.8610

Dispersion correction           -0.000142776
FINAL SINGLE POINT ENERGY      -727.667552468850

DIPOLE MOMENT
-------------
                                X             Y             Z
Electronic contribution:      3.87260      -5.60216      -7.54996
Nuclear contribution   :     -3.66946       7.33549       7.42434
                        -----------------------------------------
Total Dipole Moment    :      0.20314       1.73333      -0.12561
                        -----------------------------------------
Magnitude (a.u.)       :      1.74971
Magnitude (Debye)      :      4.44741

Rotational constants in cm-1:     0.158379     0.080294     0.077843
Rotational constants in MHz :  4748.076444  2407.152850  2333.668303

                             ****ORCA TERMINATED NORMALLY****
TOTAL RUN TIME: 0 days 0 hours 0 minutes 23 seconds 514 msec
