                         Program Version 5.0.0 -  RELEASE  -
|  1> !M062X D3Zero RIJCOSX def2-TZVP def2/J TightSCF
|  2> *xyz 0 1
|  3> C          1.96337       -1.74915       -1.89689
|  4> C          2.73849       -2.01517       -3.09711
|  5> C          4.04974       -2.15472       -3.15204
|  6> N          4.65821       -1.98629       -4.31866
|  7> N          4.76423       -2.45444       -2.05049
|  8> H          4.28736       -2.77626       -1.21750
|  9> H          5.75082       -2.65835       -2.12599
| 10> H          2.34518       -1.69027       -3.97145
| 11> H          4.10900       -1.59268       -5.07176
| 12> H          5.64910       -2.15646       -4.42724
| 13> C          2.08852       -0.30091       -1.41520
| 14> H          2.23127       -2.45162       -1.10264
| 15> H          0.93025       -1.97780       -2.15544
| 16> H          1.82118        0.36368       -2.21003
| 17> H          3.09792       -0.11068       -1.11551
| 18> H          1.43391       -0.14382       -0.58352
| 19> *
| 20> %MaxCore 64000
| 21>
| 22> %pal nprocs 4
| 23> end
| 24>
| 25> %scf
| 26>   MaxIter 150
| 27> end
| 28>
| 29>
| 30>                          ****END OF INPUT****

CARTESIAN COORDINATES (ANGSTROEM)
---------------------------------
  C      1.963370   -1.749150   -1.896890
  C      2.738490   -2.015170   -3.097110
  C      4.049740   -2.154720   -3.152040
  N      4.658210   -1.986290   -4.318660
  N      4.764230   -2.454440   -2.050490
  H      4.287360   -2.776260   -1.217500
  H      5.750820   -2.658350   -2.125990
  H      2.345180   -1.690270   -3.971450
  H      4.109000   -1.592680   -5.071760
  H      5.649100   -2.156460   -4.427240
  C      2.088520   -0.300910   -1.415200
  H      2.231270   -2.451620   -1.102640
  H      0.930250   -1.977800   -2.155440
  H      1.821180    0.363680   -2.210030
  H      3.097920   -0.110680   -1.115510
  H      1.433910   -0.143820   -0.583520

 Total Charge           Charge          ....    0
 Multiplicity           Mult            ....    1
 Number of Electrons    NEL             ....   48
 Basis Dimension        Dim             ....  246

ORBITAL ENERGIES
----------------

  NO   OCC          E(Eh)            E(eV)
   0   2.0000     -14.747148      -401.2903
   1   2.0000     -14.744051      -401.2060
   2   2.0000     -10.580099      -287.8991
   3   2.0000     -10.506688      -285.9015
   4   2.0000     -10.495263      -285.5906
   5   2.0000     -10.452615      -284.4301
   6   2.0000      -1.070380       -29.1265
   7   2.0000      -0.974391       -26.5145
   8   2.0000      -0.870419       -23.6853
   9   2.0000      -0.785025       -21.3616
  10   2.0000      -0.701102       -19.0780
  11   2.0000      -0.657077       -17.8800
  12   2.0000      -0.615694       -16.7539
  13   2.0000      -0.583315       -15.8728
  14   2.0000      -0.540360       -14.7039
  15   2.0000      -0.506056       -13.7705
  16   2.0000      -0.488258       -13.2862
  17   2.0000      -0.455274       -12.3886
  18   2.0000      -0.444390       -12.0925
  19   2.0000      -0.415846       -11.3157
  20   2.0000      -0.387201       -10.5363
  21   2.0000      -0.377441       -10.2707
  22   2.0000      -0.331534        -9.0215
  23   2.0000      -0.210112        -5.7174
  24   0.0000       0.048826         1.3286
  25   0.0000       0.081105         2.2070
  26   0.0000       0.089539         2.4365
  27   0.0000       0.110976         3.0198
  28   0.0000       0.118046         3.2122

MULLIKEN ATOMIC CHARGES
-----------------------
   0 C :   -0.327089
   1 C :   -0.321855
   2 C :    0.475458
   3 N :   -0.565063
   4 N :   -0.576022
   5 H :    0.260173
   6 H :    0.232143
   7 H :    0.087520
   8 H :    0.255058
   9 H :    0.234162
  10 C :   -0.357213
  11 H :    0.098362
  12 H :    0.130100
  13 H :    0.123438
  14 H :    0.129576
  15 H :    0.121250
Sum of atomic charges:   -0.0000000

LOEWDIN ATOMIC CHARGES
----------------------
   0 C :   -0.313760
   1 C :   -0.290970
   2 C :   -0.456804
   3 N :   -0.019440
   4 N :   -0.027442
   5 H :    0.176871
   6 H :    0.162598
   7 H :    0.121612
   8 H :    0.181755
   9 H :    0.163620
  10 C :   -0.303036
  11 H :    0.127010
  12 H :    0.140312
  13 H :    0.114316
  14 H :    0.114533
  15 H :    0.108826

  Mayer bond orders larger than 0.100000
B(  0-C ,  1-C ) :   1.0204 B(  0-C , 10-C ) :   0.9123 B(  0-C , 11-H ) :   0.9830
B(  0-C , 12-H ) :   0.9971 B(  1-C ,  2-C ) :   1.6617 B(  1-C ,  7-H ) :   1.0240
B(  2-C ,  3-N ) :   1.0774 B(  2-C ,  4-N ) :   1.0647 B(  3-N ,  8-H ) :   0.9248
B(  3-N ,  9-H ) :   0.9330 B(  4-N ,  5-H ) :   0.9195 B(  4-N ,  6-H ) :   0.9332
B( 10-C , 13-H ) :   0.9776 B( 10-C , 14-H ) :   0.9734 B( 10-C , 15-H ) :   0.9803

Dispersion correction           -0.000318455
FINAL SINGLE POINT ENERGY      -267.886555504232

DIPOLE MOMENT
-------------
                                X             Y             Z
Electronic contribution:      3.34836      -2.44386      -2.53078
Nuclear contribution   :     -2.31778       2.31977       2.35294
                        -----------------------------------------
Total Dipole Moment    :      1.03058      -0.12409      -0.17784
                        -----------------------------------------
Magnitude (a.u.)       :      1.05315
Magnitude (Debye)      :      2.67688

Rotational constants in cm-1:     0.219415     0.075373     0.066689
Rotational constants in MHz :  6577.897266  2259.621393  1999.290981

                             ****ORCA TERMINATED NORMALLY****
TOTAL RUN TIME: 0 days 0 hours 0 minutes 30 seconds 332 msec
