                         Program Version 5.0.0 -  RELEASE  -
|  1> !M062X D3Zero RIJCOSX def2-TZVP def2/J TightSCF
|  2> *xyz 0 1
|  3> C          0.61188        1.65763       -4.50029
|  4> C          1.69499        1.54179       -5.57045
|  5> H          2.69733        1.73466       -5.18400
|  6> H          1.50666        2.27224       -6.35808
|  7> S          1.78029       -0.03313       -6.42874
|  8> O          2.56929        0.21366       -7.60736
|  9> F          0.41688       -0.46297       -6.61859
| 10> O          2.50513       -0.93326       -5.48257
| 11> H         -0.34424        1.45871       -4.93752
| 12> H          0.61845        2.64655       -4.09174
| 13> H          0.80247        0.94882       -3.72173
| 14> *
| 15> %MaxCore 64000
| 16>
| 17> %pal nprocs 4
| 18> end
| 19>
| 20> %scf
| 21>   MaxIter 150
| 22> end
| 23>
| 24>
| 25>                          ****END OF INPUT****

CARTESIAN COORDINATES (ANGSTROEM)
---------------------------------
  C      0.611880    1.657630   -4.500290
  C      1.694990    1.541790   -5.570450
  H      2.697330    1.734660   -5.184000
  H      1.506660    2.272240   -6.358080
  S      1.780290   -0.033130   -6.428740
  O      2.569290    0.213660   -7.607360
  F      0.416880   -0.462970   -6.618590
  O      2.505130   -0.933260   -5.482570
  H     -0.344240    1.458710   -4.937520
  H      0.618450    2.646550   -4.091740
  H      0.802470    0.948820   -3.721730

 Total Charge           Charge          ....    0
 Multiplicity           Mult            ....    1
 Number of Electrons    NEL             ....   58
 Basis Dimension        Dim             ....  222

ORBITAL ENERGIES
----------------

  NO   OCC          E(Eh)            E(eV)
   0   2.0000     -90.151731     -2453.1533
   1   2.0000     -25.370338      -690.3620
   2   2.0000     -19.641310      -534.4672
   3   2.0000     -19.622147      -533.9458
   4   2.0000     -10.599015      -288.4139
   5   2.0000     -10.560158      -287.3565
   6   2.0000      -8.477004      -230.6710
   7   2.0000      -6.401917      -174.2050
   8   2.0000      -6.396676      -174.0624
   9   2.0000      -6.396267      -174.0513
  10   2.0000      -1.533016       -41.7155
  11   2.0000      -1.227387       -33.3989
  12   2.0000      -1.118626       -30.4394
  13   2.0000      -0.926882       -25.2217
  14   2.0000      -0.835915       -22.7464
  15   2.0000      -0.773239       -21.0409
  16   2.0000      -0.697551       -18.9813
  17   2.0000      -0.690676       -18.7943
  18   2.0000      -0.633479       -17.2379
  19   2.0000      -0.569938       -15.5088
  20   2.0000      -0.556285       -15.1373
  21   2.0000      -0.527054       -14.3419
  22   2.0000      -0.510709       -13.8971
  23   2.0000      -0.481487       -13.1019
  24   2.0000      -0.463994       -12.6259
  25   2.0000      -0.453800       -12.3485
  26   2.0000      -0.405498       -11.0342
  27   2.0000      -0.388139       -10.5618
  28   2.0000      -0.377900       -10.2832
  29   0.0000       0.042764         1.1637
  30   0.0000       0.080801         2.1987
  31   0.0000       0.096738         2.6324
  32   0.0000       0.102370         2.7856
  33   0.0000       0.111020         3.0210

MULLIKEN ATOMIC CHARGES
-----------------------
   0 C :   -0.411587
   1 C :   -0.304032
   2 H :    0.189968
   3 H :    0.169677
   4 S :    0.926233
   5 O :   -0.434346
   6 F :   -0.110773
   7 O :   -0.489103
   8 H :    0.144846
   9 H :    0.151467
  10 H :    0.167649
Sum of atomic charges:    0.0000000

LOEWDIN ATOMIC CHARGES
----------------------
   0 C :   -0.315560
   1 C :   -0.391599
   2 H :    0.152253
   3 H :    0.140843
   4 S :    0.556125
   5 O :   -0.269231
   6 F :    0.094135
   7 O :   -0.340646
   8 H :    0.119717
   9 H :    0.126827
  10 H :    0.127136

  Mayer bond orders larger than 0.100000
B(  0-C ,  1-C ) :   0.9358 B(  0-C ,  8-H ) :   0.9671 B(  0-C ,  9-H ) :   0.9635
B(  0-C , 10-H ) :   0.9633 B(  1-C ,  2-H ) :   0.9405 B(  1-C ,  3-H ) :   0.9423
B(  1-C ,  4-S ) :   0.9179 B(  4-S ,  5-O ) :   1.9344 B(  4-S ,  6-F ) :   1.1132
B(  4-S ,  7-O ) :   1.8598

Dispersion correction           -0.000154283
FINAL SINGLE POINT ENERGY      -727.667190551812

DIPOLE MOMENT
-------------
                                X             Y             Z
Electronic contribution:      0.21311      -6.73886      -5.84419
Nuclear contribution   :     -1.42658       8.04056       6.39401
                        -----------------------------------------
Total Dipole Moment    :     -1.21347       1.30170       0.54983
                        -----------------------------------------
Magnitude (a.u.)       :      1.86259
Magnitude (Debye)      :      4.73434

Rotational constants in cm-1:     0.153659     0.082363     0.078978
Rotational constants in MHz :  4606.587369  2469.179541  2367.702074

                             ****ORCA TERMINATED NORMALLY****
TOTAL RUN TIME: 0 days 0 hours 0 minutes 23 seconds 664 msec
