                         Program Version 5.0.0 -  RELEASE  -
|  1> !M062X D3Zero RIJCOSX def2-TZVP def2/J TightSCF
|  2> *xyz 0 1
|  3> C          1.96337       -1.74915       -1.89689
|  4> N          2.73849       -2.01517       -3.09711
|  5> C          4.04974       -2.15472       -3.15204
|  6> C          4.65821       -1.98629       -4.31866
|  7> N          4.76423       -2.45444       -2.05049
|  8> H          4.28736       -2.77626       -1.21750
|  9> H          5.75082       -2.65835       -2.12599
| 10> H          2.34518       -1.69027       -3.97145
| 11> H          4.10900       -1.59268       -5.07176
| 12> H          5.64910       -2.15646       -4.42724
| 13> C          2.08852       -0.30091       -1.41520
| 14> H          2.23127       -2.45162       -1.10264
| 15> H          0.93025       -1.97780       -2.15544
| 16> H          1.82118        0.36368       -2.21003
| 17> H          3.09792       -0.11068       -1.11551
| 18> H          1.43391       -0.14382       -0.58352
| 19> *
| 20> %MaxCore 64000
| 21>
| 22> %pal nprocs 4
| 23> end
| 24>
| 25> %scf
| 26>   MaxIter 150
| 27> end
| 28>
| 29>
| 30>                          ****END OF INPUT****

CARTESIAN COORDINATES (ANGSTROEM)
---------------------------------
  C      1.963370   -1.749150   -1.896890
  N      2.738490   -2.015170   -3.097110
  C      4.049740   -2.154720   -3.152040
  C      4.658210   -1.986290   -4.318660
  N      4.764230   -2.454440   -2.050490
  H      4.287360   -2.776260   -1.217500
  H      5.750820   -2.658350   -2.125990
  H      2.345180   -1.690270   -3.971450
  H      4.109000   -1.592680   -5.071760
  H      5.649100   -2.156460   -4.427240
  C      2.088520   -0.300910   -1.415200
  H      2.231270   -2.451620   -1.102640
  H      0.930250   -1.977800   -2.155440
  H      1.821180    0.363680   -2.210030
  H      3.097920   -0.110680   -1.115510
  H      1.433910   -0.143820   -0.583520

 Total Charge           Charge          ....    0
 Multiplicity           Mult            ....    1
 Number of Electrons    NEL             ....   48
 Basis Dimension        Dim             ....  246

ORBITAL ENERGIES
----------------

  NO   OCC          E(Eh)            E(eV)
   0   2.0000     -14.745946      -401.2576
   1   2.0000     -14.744812      -401.2267
   2   2.0000     -10.581557      -287.9388
   3   2.0000     -10.575111      -287.7634
   4   2.0000     -10.521306      -286.2993
   5   2.0000     -10.446366      -284.2601
   6   2.0000      -1.079524       -29.3753
   7   2.0000      -0.987764       -26.8784
   8   2.0000      -0.867190       -23.5974
   9   2.0000      -0.794344       -21.6152
  10   2.0000      -0.715476       -19.4691
  11   2.0000      -0.678201       -18.4548
  12   2.0000      -0.609903       -16.5963
  13   2.0000      -0.567764       -15.4496
  14   2.0000      -0.548083       -14.9141
  15   2.0000      -0.506457       -13.7814
  16   2.0000      -0.502223       -13.6662
  17   2.0000      -0.467682       -12.7263
  18   2.0000      -0.448935       -12.2162
  19   2.0000      -0.437050       -11.8927
  20   2.0000      -0.425012       -11.5652
  21   2.0000      -0.418689       -11.3931
  22   2.0000      -0.317894        -8.6503
  23   2.0000      -0.215316        -5.8590
  24   0.0000       0.051827         1.4103
  25   0.0000       0.078718         2.1420
  26   0.0000       0.091082         2.4785
  27   0.0000       0.104143         2.8339
  28   0.0000       0.120020         3.2659

MULLIKEN ATOMIC CHARGES
-----------------------
   0 C :   -0.232627
   1 N :   -0.364321
   2 C :    0.491954
   3 C :   -0.565744
   4 N :   -0.577997
   5 H :    0.239367
   6 H :    0.254592
   7 H :    0.232452
   8 H :    0.092743
   9 H :    0.101621
  10 C :   -0.344569
  11 H :    0.126959
  12 H :    0.145642
  13 H :    0.128657
  14 H :    0.143361
  15 H :    0.127911
Sum of atomic charges:    0.0000000

LOEWDIN ATOMIC CHARGES
----------------------
   0 C :   -0.318631
   1 N :    0.110924
   2 C :   -0.465036
   3 C :   -0.337326
   4 N :   -0.025461
   5 H :    0.162749
   6 H :    0.177501
   7 H :    0.197887
   8 H :    0.097184
   9 H :    0.095410
  10 C :   -0.306105
  11 H :    0.125917
  12 H :    0.132956
  13 H :    0.116556
  14 H :    0.119533
  15 H :    0.115942

  Mayer bond orders larger than 0.100000
B(  0-C ,  1-N ) :   0.9455 B(  0-C , 10-C ) :   0.9179 B(  0-C , 11-H ) :   0.9885
B(  0-C , 12-H ) :   0.9818 B(  1-N ,  2-C ) :   1.1586 B(  1-N ,  7-H ) :   0.9308
B(  2-C ,  3-C ) :   1.6150 B(  2-C ,  4-N ) :   1.0541 B(  3-C ,  8-H ) :   1.0141
B(  3-C ,  9-H ) :   1.0096 B(  4-N ,  5-H ) :   0.9223 B(  4-N ,  6-H ) :   0.9284
B( 10-C , 13-H ) :   0.9729 B( 10-C , 14-H ) :   0.9652 B( 10-C , 15-H ) :   0.9734

Dispersion correction           -0.000314216
FINAL SINGLE POINT ENERGY      -267.883242101402

DIPOLE MOMENT
-------------
                                X             Y             Z
Electronic contribution:      1.41228      -2.34632      -1.20537
Nuclear contribution   :     -1.91052       2.32590       2.09379
                        -----------------------------------------
Total Dipole Moment    :     -0.49824      -0.02042       0.88842
                        -----------------------------------------
Magnitude (a.u.)       :      1.01880
Magnitude (Debye)      :      2.58959

Rotational constants in cm-1:     0.219448     0.077923     0.068804
Rotational constants in MHz :  6578.886179  2336.083179  2062.700476

                             ****ORCA TERMINATED NORMALLY****
TOTAL RUN TIME: 0 days 0 hours 0 minutes 31 seconds 610 msec
