                         Program Version 5.0.0 -  RELEASE  -
|  1> !M062X D3Zero RIJCOSX def2-TZVP def2/J TightSCF
|  2> *xyz 0 1
|  3> C          0.61188        1.65763       -4.50029
|  4> C          1.69499        1.54179       -5.57045
|  5> H          2.69733        1.73466       -5.18400
|  6> H          1.50666        2.27224       -6.35808
|  7> S          1.78029       -0.03313       -6.42874
|  8> O          2.56929        0.21366       -7.60736
|  9> O          0.41688       -0.46297       -6.61859
| 10> F          2.50513       -0.93326       -5.48257
| 11> H         -0.34424        1.45871       -4.93752
| 12> H          0.61845        2.64655       -4.09174
| 13> H          0.80247        0.94882       -3.72173
| 14> *
| 15> %MaxCore 64000
| 16>
| 17> %pal nprocs 4
| 18> end
| 19>
| 20> %scf
| 21>   MaxIter 150
| 22> end
| 23>
| 24>
| 25>                          ****END OF INPUT****

CARTESIAN COORDINATES (ANGSTROEM)
---------------------------------
  C      0.611880    1.657630   -4.500290
  C      1.694990    1.541790   -5.570450
  H      2.697330    1.734660   -5.184000
  H      1.506660    2.272240   -6.358080
  S      1.780290   -0.033130   -6.428740
  O      2.569290    0.213660   -7.607360
  O      0.416880   -0.462970   -6.618590
  F      2.505130   -0.933260   -5.482570
  H     -0.344240    1.458710   -4.937520
  H      0.618450    2.646550   -4.091740
  H      0.802470    0.948820   -3.721730

 Total Charge           Charge          ....    0
 Multiplicity           Mult            ....    1
 Number of Electrons    NEL             ....   58
 Basis Dimension        Dim             ....  222

ORBITAL ENERGIES
----------------

  NO   OCC          E(Eh)            E(eV)
   0   2.0000     -90.149607     -2453.0955
   1   2.0000     -25.342589      -689.6069
   2   2.0000     -19.641885      -534.4829
   3   2.0000     -19.640740      -534.4517
   4   2.0000     -10.598022      -288.3868
   5   2.0000     -10.555106      -287.2190
   6   2.0000      -8.474767      -230.6101
   7   2.0000      -6.399666      -174.1438
   8   2.0000      -6.394755      -174.0101
   9   2.0000      -6.393979      -173.9890
  10   2.0000      -1.488456       -40.5029
  11   2.0000      -1.240208       -33.7478
  12   2.0000      -1.147670       -31.2297
  13   2.0000      -0.922970       -25.1153
  14   2.0000      -0.818256       -22.2659
  15   2.0000      -0.761227       -20.7140
  16   2.0000      -0.667805       -18.1719
  17   2.0000      -0.659049       -17.9336
  18   2.0000      -0.636838       -17.3292
  19   2.0000      -0.570773       -15.5315
  20   2.0000      -0.556844       -15.1525
  21   2.0000      -0.539007       -14.6671
  22   2.0000      -0.505000       -13.7418
  23   2.0000      -0.478376       -13.0173
  24   2.0000      -0.471205       -12.8221
  25   2.0000      -0.451619       -12.2892
  26   2.0000      -0.417368       -11.3572
  27   2.0000      -0.401856       -10.9351
  28   2.0000      -0.398492       -10.8435
  29   0.0000       0.048423         1.3177
  30   0.0000       0.082857         2.2547
  31   0.0000       0.093651         2.5484
  32   0.0000       0.106651         2.9021
  33   0.0000       0.115437         3.1412

MULLIKEN ATOMIC CHARGES
-----------------------
   0 C :   -0.398945
   1 C :   -0.316250
   2 H :    0.170802
   3 H :    0.183243
   4 S :    0.939250
   5 O :   -0.447370
   6 O :   -0.450478
   7 F :   -0.146070
   8 H :    0.170182
   9 H :    0.148323
  10 H :    0.147312
Sum of atomic charges:    0.0000000

LOEWDIN ATOMIC CHARGES
----------------------
   0 C :   -0.312263
   1 C :   -0.394948
   2 H :    0.139000
   3 H :    0.151189
   4 S :    0.563049
   5 O :   -0.274991
   6 O :   -0.274367
   7 F :    0.028070
   8 H :    0.127937
   9 H :    0.125199
  10 H :    0.122124

  Mayer bond orders larger than 0.100000
B(  0-C ,  1-C ) :   0.9363 B(  0-C ,  8-H ) :   0.9630 B(  0-C ,  9-H ) :   0.9625
B(  0-C , 10-H ) :   0.9677 B(  1-C ,  2-H ) :   0.9443 B(  1-C ,  3-H ) :   0.9408
B(  1-C ,  4-S ) :   0.9187 B(  4-S ,  5-O ) :   1.9317 B(  4-S ,  6-O ) :   1.9046
B(  4-S ,  7-F ) :   1.0701

Dispersion correction           -0.000152465
FINAL SINGLE POINT ENERGY      -727.691022089459

DIPOLE MOMENT
-------------
                                X             Y             Z
Electronic contribution:      3.78521      -7.57871      -3.89520
Nuclear contribution   :     -3.60260       8.53062       5.21025
                        -----------------------------------------
Total Dipole Moment    :      0.18261       0.95190       1.31505
                        -----------------------------------------
Magnitude (a.u.)       :      1.63365
Magnitude (Debye)      :      4.15242

Rotational constants in cm-1:     0.154011     0.080858     0.079602
Rotational constants in MHz :  4617.134198  2424.070332  2386.404775

                             ****ORCA TERMINATED NORMALLY****
TOTAL RUN TIME: 0 days 0 hours 0 minutes 23 seconds 943 msec
