                         Program Version 5.0.0 -  RELEASE  -
|  1> !M062X D3Zero RIJCOSX def2-TZVP def2/J TightSCF
|  2> *xyz 0 1
|  3> C          1.96337       -1.74915       -1.89689
|  4> N          2.73849       -2.01517       -3.09711
|  5> C          4.04974       -2.15472       -3.15204
|  6> N          4.65821       -1.98629       -4.31866
|  7> C          4.76423       -2.45444       -2.05049
|  8> H          4.28736       -2.77626       -1.21750
|  9> H          5.75082       -2.65835       -2.12599
| 10> H          2.34518       -1.69027       -3.97145
| 11> H          4.10900       -1.59268       -5.07176
| 12> H          5.64910       -2.15646       -4.42724
| 13> C          2.08852       -0.30091       -1.41520
| 14> H          2.23127       -2.45162       -1.10264
| 15> H          0.93025       -1.97780       -2.15544
| 16> H          1.82118        0.36368       -2.21003
| 17> H          3.09792       -0.11068       -1.11551
| 18> H          1.43391       -0.14382       -0.58352
| 19> *
| 20> %MaxCore 64000
| 21>
| 22> %pal nprocs 4
| 23> end
| 24>
| 25> %scf
| 26>   MaxIter 150
| 27> end
| 28>
| 29>
| 30>                          ****END OF INPUT****

CARTESIAN COORDINATES (ANGSTROEM)
---------------------------------
  C      1.963370   -1.749150   -1.896890
  N      2.738490   -2.015170   -3.097110
  C      4.049740   -2.154720   -3.152040
  N      4.658210   -1.986290   -4.318660
  C      4.764230   -2.454440   -2.050490
  H      4.287360   -2.776260   -1.217500
  H      5.750820   -2.658350   -2.125990
  H      2.345180   -1.690270   -3.971450
  H      4.109000   -1.592680   -5.071760
  H      5.649100   -2.156460   -4.427240
  C      2.088520   -0.300910   -1.415200
  H      2.231270   -2.451620   -1.102640
  H      0.930250   -1.977800   -2.155440
  H      1.821180    0.363680   -2.210030
  H      3.097920   -0.110680   -1.115510
  H      1.433910   -0.143820   -0.583520

 Total Charge           Charge          ....    0
 Multiplicity           Mult            ....    1
 Number of Electrons    NEL             ....   48
 Basis Dimension        Dim             ....  246

ORBITAL ENERGIES
----------------

  NO   OCC          E(Eh)            E(eV)
   0   2.0000     -14.748869      -401.3371
   1   2.0000     -14.747464      -401.2989
   2   2.0000     -10.583411      -287.9893
   3   2.0000     -10.568782      -287.5912
   4   2.0000     -10.514738      -286.1206
   5   2.0000     -10.445827      -284.2454
   6   2.0000      -1.085530       -29.5388
   7   2.0000      -0.991947       -26.9922
   8   2.0000      -0.849460       -23.1150
   9   2.0000      -0.799568       -21.7574
  10   2.0000      -0.728706       -19.8291
  11   2.0000      -0.641254       -17.4494
  12   2.0000      -0.620333       -16.8801
  13   2.0000      -0.598856       -16.2957
  14   2.0000      -0.536658       -14.6032
  15   2.0000      -0.507752       -13.8166
  16   2.0000      -0.486296       -13.2328
  17   2.0000      -0.463250       -12.6057
  18   2.0000      -0.445518       -12.1232
  19   2.0000      -0.433307       -11.7909
  20   2.0000      -0.427278       -11.6268
  21   2.0000      -0.408350       -11.1118
  22   2.0000      -0.314730        -8.5642
  23   2.0000      -0.216056        -5.8792
  24   0.0000       0.048992         1.3332
  25   0.0000       0.080211         2.1827
  26   0.0000       0.095625         2.6021
  27   0.0000       0.106506         2.8982
  28   0.0000       0.121353         3.3022

MULLIKEN ATOMIC CHARGES
-----------------------
   0 C :   -0.200601
   1 N :   -0.372398
   2 C :    0.462856
   3 N :   -0.560980
   4 C :   -0.552482
   5 H :    0.104011
   6 H :    0.095647
   7 H :    0.202031
   8 H :    0.225383
   9 H :    0.262111
  10 C :   -0.362324
  11 H :    0.149168
  12 H :    0.139413
  13 H :    0.116145
  14 H :    0.162162
  15 H :    0.129859
Sum of atomic charges:   -0.0000000

LOEWDIN ATOMIC CHARGES
----------------------
   0 C :   -0.300351
   1 N :    0.108868
   2 C :   -0.471378
   3 N :   -0.015486
   4 C :   -0.349995
   5 H :    0.097121
   6 H :    0.093483
   7 H :    0.179467
   8 H :    0.163498
   9 H :    0.180647
  10 C :   -0.305626
  11 H :    0.136442
  12 H :    0.130586
  13 H :    0.112207
  14 H :    0.123843
  15 H :    0.116672

  Mayer bond orders larger than 0.100000
B(  0-C ,  1-N ) :   0.9210 B(  0-C , 10-C ) :   0.9341 B(  0-C , 11-H ) :   0.9754
B(  0-C , 12-H ) :   0.9801 B(  1-N ,  2-C ) :   1.1446 B(  1-N ,  7-H ) :   0.9378
B(  2-C ,  3-N ) :   1.0723 B(  2-C ,  4-C ) :   1.6381 B(  3-N ,  8-H ) :   0.9330
B(  3-N ,  9-H ) :   0.9236 B(  4-C ,  5-H ) :   1.0124 B(  4-C ,  6-H ) :   1.0025
B( 10-C , 13-H ) :   0.9742 B( 10-C , 14-H ) :   0.9639 B( 10-C , 15-H ) :   0.9755

Dispersion correction           -0.000315779
FINAL SINGLE POINT ENERGY      -267.882432266941

DIPOLE MOMENT
-------------
                                X             Y             Z
Electronic contribution:      1.32851      -1.81339      -3.46019
Nuclear contribution   :     -1.88803       2.22658       2.57497
                        -----------------------------------------
Total Dipole Moment    :     -0.55952       0.41319      -0.88521
                        -----------------------------------------
Magnitude (a.u.)       :      1.12579
Magnitude (Debye)      :      2.86152

Rotational constants in cm-1:     0.226509     0.075782     0.067928
Rotational constants in MHz :  6790.555051  2271.890226  2036.439218

                             ****ORCA TERMINATED NORMALLY****
TOTAL RUN TIME: 0 days 0 hours 0 minutes 30 seconds 501 msec
