                         Program Version 5.0.0 -  RELEASE  -
|  1> !M062X D3Zero RIJCOSX def2-TZVP def2/J TightSCF xyzfile
|  2>
|  3> *xyzfile 0 1 D3.xyz
|  4>
|  5> %MaxCore 64000
|  6>
|  7> %pal nprocs 18
|  8> end
|  9>
| 10> %scf
| 11>   MaxIter 150
| 12> end
| 13>
| 14>
| 15>                          ****END OF INPUT****

CARTESIAN COORDINATES (ANGSTROEM)
---------------------------------
  C      1.963365   -1.749150   -1.896887
  N      2.738490   -2.015170   -3.097113
  C      0.611877    1.657634   -4.500288
  C      1.694991    1.541794   -5.570447
  H      2.697326    1.734659   -5.183996
  H      1.506656    2.272239   -6.358076
  S      1.780287   -0.033128   -6.428739
  C      4.049736   -2.154717   -3.152044
  N      4.658206   -1.986293   -4.318655
  C      4.764231   -2.454435   -2.050491
  H      4.287363   -2.776259   -1.217496
  H      5.750825   -2.658351   -2.125988
  H      2.345176   -1.690274   -3.971447
  H      4.109004   -1.592677   -5.071760
  H      5.649095   -2.156462   -4.427237
  F      2.569287    0.213657   -7.607360
  O      0.416880   -0.462969   -6.618595
  C      2.088520   -0.300912   -1.415204
  H      2.231272   -2.451616   -1.102643
  H      0.930249   -1.977801   -2.155438
  C      0.680356    0.655418   -3.348038
  H     -0.356865    1.549231   -4.991128
  H      0.650228    2.675438   -4.096000
  C      1.968993    0.733582   -2.535654
  H      3.051356   -0.168602   -0.911868
  H      1.316501   -0.136231   -0.657252
  O      2.505129   -0.933263   -5.482570
  H      2.824195    0.624726   -3.208464
  H      2.058919    1.730331   -2.093112
  H      0.542252   -0.344731   -3.766662
  H     -0.174219    0.829692   -2.685182

 Total Charge           Charge          ....    0
 Multiplicity           Mult            ....    1
 Number of Electrons    NEL             ....  120
 Basis Dimension        Dim             ....  542

ORBITAL ENERGIES
----------------

  NO   OCC          E(Eh)            E(eV)
   0   2.0000     -90.181679     -2453.9682
   1   2.0000     -25.395248      -691.0398
   2   2.0000     -19.667887      -535.1904
   3   2.0000     -19.659721      -534.9682
   4   2.0000     -14.714068      -400.3902
   5   2.0000     -14.713498      -400.3746
   6   2.0000     -10.614419      -288.8330
   7   2.0000     -10.574380      -287.7435
   8   2.0000     -10.559699      -287.3440
   9   2.0000     -10.551667      -287.1255
  10   2.0000     -10.545318      -286.9527
  11   2.0000     -10.532613      -286.6070
  12   2.0000     -10.521268      -286.2983
  13   2.0000     -10.424449      -283.6637
  14   2.0000      -8.507059      -231.4888
  15   2.0000      -6.431655      -175.0142
  16   2.0000      -6.426839      -174.8832
  17   2.0000      -6.426496      -174.8738
  18   2.0000      -1.559013       -42.4229
  19   2.0000      -1.257481       -34.2178
  20   2.0000      -1.158789       -31.5323
  21   2.0000      -1.057663       -28.7805
  22   2.0000      -0.966964       -26.3124
  23   2.0000      -0.951020       -25.8786
  24   2.0000      -0.896771       -24.4024
  25   2.0000      -0.861050       -23.4304
  26   2.0000      -0.820695       -22.3322
  27   2.0000      -0.782640       -21.2967
  28   2.0000      -0.769837       -20.9483
  29   2.0000      -0.729443       -19.8492
  30   2.0000      -0.718717       -19.5573
  31   2.0000      -0.698931       -19.0189
  32   2.0000      -0.676842       -18.4178
  33   2.0000      -0.654036       -17.7972
  34   2.0000      -0.619754       -16.8644
  35   2.0000      -0.599035       -16.3006
  36   2.0000      -0.593953       -16.1623
  37   2.0000      -0.583195       -15.8696
  38   2.0000      -0.572025       -15.5656
  39   2.0000      -0.553527       -15.0622
  40   2.0000      -0.538397       -14.6505
  41   2.0000      -0.526438       -14.3251
  42   2.0000      -0.510091       -13.8803
  43   2.0000      -0.494007       -13.4426
  44   2.0000      -0.489180       -13.3113
  45   2.0000      -0.487120       -13.2552
  46   2.0000      -0.457142       -12.4395
  47   2.0000      -0.451336       -12.2815
  48   2.0000      -0.443231       -12.0609
  49   2.0000      -0.434966       -11.8360
  50   2.0000      -0.428587       -11.6624
  51   2.0000      -0.419695       -11.4205
  52   2.0000      -0.414764       -11.2863
  53   2.0000      -0.409552       -11.1445
  54   2.0000      -0.404663       -11.0114
  55   2.0000      -0.391211       -10.6454
  56   2.0000      -0.386090       -10.5061
  57   2.0000      -0.373793       -10.1714
  58   2.0000      -0.287108        -7.8126
  59   2.0000      -0.193573        -5.2674
  60   0.0000       0.038383         1.0445
  61   0.0000       0.046676         1.2701
  62   0.0000       0.071693         1.9509
  63   0.0000       0.077533         2.1098
  64   0.0000       0.080058         2.1785

MULLIKEN ATOMIC CHARGES
-----------------------
   0 C :   -0.320615
   1 N :   -0.347655
   2 C :   -0.273821
   3 C :   -0.382812
   4 H :    0.208826
   5 H :    0.192706
   6 S :    0.967763
   7 C :    0.449172
   8 N :   -0.586955
   9 C :   -0.574032
  10 H :    0.099188
  11 H :    0.090406
  12 H :    0.266678
  13 H :    0.267653
  14 H :    0.244215
  15 F :   -0.100253
  16 O :   -0.419916
  17 C :   -0.212230
  18 H :    0.166645
  19 H :    0.175986
  20 C :   -0.364784
  21 H :    0.183711
  22 H :    0.170195
  23 C :   -0.313433
  24 H :    0.167696
  25 H :    0.138105
  26 O :   -0.546854
  27 H :    0.161901
  28 H :    0.147457
  29 H :    0.187754
  30 H :    0.157300
Sum of atomic charges:    0.0000000

LOEWDIN ATOMIC CHARGES
----------------------
   0 C :   -0.285210
   1 N :    0.116341
   2 C :   -0.277401
   3 C :   -0.369246
   4 H :    0.146922
   5 H :    0.143529
   6 S :    0.588103
   7 C :   -0.471433
   8 N :   -0.024895
   9 C :   -0.368520
  10 H :    0.094188
  11 H :    0.090304
  12 H :    0.168818
  13 H :    0.154119
  14 H :    0.171639
  15 F :    0.104199
  16 O :   -0.252001
  17 C :   -0.271039
  18 H :    0.137957
  19 H :    0.132233
  20 C :   -0.272995
  21 H :    0.149889
  22 H :    0.152117
  23 C :   -0.275808
  24 H :    0.145993
  25 H :    0.136696
  26 O :   -0.327134
  27 H :    0.139115
  28 H :    0.138304
  29 H :    0.140365
  30 H :    0.144852

  Mayer bond orders larger than 0.100000
B(  0-C ,  1-N ) :   0.9222 B(  0-C , 17-C ) :   0.8777 B(  0-C , 18-H ) :   0.9892
B(  0-C , 19-H ) :   0.9935 B(  1-N ,  7-C ) :   1.1593 B(  1-N , 12-H ) :   0.8988
B(  2-C ,  3-C ) :   0.9057 B(  2-C , 20-C ) :   0.9298 B(  2-C , 21-H ) :   0.9784
B(  2-C , 22-H ) :   0.9660 B(  3-C ,  4-H ) :   0.9353 B(  3-C ,  5-H ) :   0.9448
B(  3-C ,  6-S ) :   0.9322 B(  6-S , 15-F ) :   1.1413 B(  6-S , 16-O ) :   1.9303
B(  6-S , 26-O ) :   1.6831 B(  7-C ,  8-N ) :   1.0781 B(  7-C ,  9-C ) :   1.6268
B(  8-N , 13-H ) :   0.8942 B(  8-N , 14-H ) :   0.9330 B(  9-C , 10-H ) :   1.0051
B(  9-C , 11-H ) :   1.0030 B( 17-C , 23-C ) :   0.9251 B( 17-C , 24-H ) :   0.9719
B( 17-C , 25-H ) :   0.9887 B( 20-C , 23-C ) :   0.8596 B( 20-C , 29-H ) :   0.9807
B( 20-C , 30-H ) :   0.9787 B( 23-C , 27-H ) :   0.9743 B( 23-C , 28-H ) :   0.9784

Dispersion correction           -0.001905070
FINAL SINGLE POINT ENERGY     -1072.977061808461

DIPOLE MOMENT
-------------
                                X             Y             Z
Electronic contribution:     -1.10946      -0.19259     -24.55389
Nuclear contribution   :      0.44707       2.53104      23.12246
                        -----------------------------------------
Total Dipole Moment    :     -0.66239       2.33845      -1.43143
                        -----------------------------------------
Magnitude (a.u.)       :      2.82066
Magnitude (Debye)      :      7.16954

Rotational constants in cm-1:     0.028906     0.014696     0.011110
Rotational constants in MHz :   866.591909   440.585554   333.081943

                             ****ORCA TERMINATED NORMALLY****
TOTAL RUN TIME: 0 days 0 hours 1 minutes 19 seconds 759 msec
