                         Program Version 5.0.0 -  RELEASE  -
|  1> !M062X D3Zero RIJCOSX def2-TZVP def2/J TightSCF xyzfile
|  2>
|  3> *xyzfile 0 1 D6.xyz
|  4>
|  5> %MaxCore 64000
|  6>
|  7> %pal nprocs 18
|  8> end
|  9>
| 10> %scf
| 11>   MaxIter 150
| 12> end
| 13>
| 14>
| 15>                          ****END OF INPUT****

CARTESIAN COORDINATES (ANGSTROEM)
---------------------------------
  C      1.963365   -1.749150   -1.896887
  N      2.738490   -2.015170   -3.097113
  C      0.611877    1.657634   -4.500288
  C      1.694991    1.541794   -5.570447
  H      2.697326    1.734659   -5.183996
  H      1.506656    2.272239   -6.358076
  S      1.780287   -0.033128   -6.428739
  C      4.049736   -2.154717   -3.152044
  N      4.658206   -1.986293   -4.318655
  C      4.764231   -2.454435   -2.050491
  H      4.287363   -2.776259   -1.217496
  H      5.750825   -2.658351   -2.125988
  H      2.345176   -1.690274   -3.971447
  H      4.109004   -1.592677   -5.071760
  H      5.649095   -2.156462   -4.427237
  O      2.569287    0.213657   -7.607360
  F      0.416880   -0.462969   -6.618595
  C      2.088520   -0.300912   -1.415204
  H      2.231272   -2.451616   -1.102643
  H      0.930249   -1.977801   -2.155438
  C      0.680356    0.655418   -3.348038
  H     -0.356865    1.549231   -4.991128
  H      0.650228    2.675438   -4.096000
  C      1.968993    0.733582   -2.535654
  H      3.051356   -0.168602   -0.911868
  H      1.316501   -0.136231   -0.657252
  O      2.505129   -0.933263   -5.482570
  H      2.824195    0.624726   -3.208464
  H      2.058919    1.730331   -2.093112
  H      0.542252   -0.344731   -3.766662
  H     -0.174219    0.829692   -2.685182

 Total Charge           Charge          ....    0
 Multiplicity           Mult            ....    1
 Number of Electrons    NEL             ....  120
 Basis Dimension        Dim             ....  542

ORBITAL ENERGIES
----------------

  NO   OCC          E(Eh)            E(eV)
   0   2.0000     -90.181331     -2453.9588
   1   2.0000     -25.394623      -691.0228
   2   2.0000     -19.666947      -535.1648
   3   2.0000     -19.659344      -534.9580
   4   2.0000     -14.714813      -400.4104
   5   2.0000     -14.712628      -400.3510
   6   2.0000     -10.614211      -288.8274
   7   2.0000     -10.578938      -287.8675
   8   2.0000     -10.559907      -287.3497
   9   2.0000     -10.554799      -287.2107
  10   2.0000     -10.553869      -287.1854
  11   2.0000     -10.537248      -286.7331
  12   2.0000     -10.524660      -286.3906
  13   2.0000     -10.424774      -283.6725
  14   2.0000      -8.506717      -231.4795
  15   2.0000      -6.431493      -175.0098
  16   2.0000      -6.426567      -174.8758
  17   2.0000      -6.425905      -174.8578
  18   2.0000      -1.557054       -42.3696
  19   2.0000      -1.258166       -34.2364
  20   2.0000      -1.158432       -31.5225
  21   2.0000      -1.058113       -28.7927
  22   2.0000      -0.967889       -26.3376
  23   2.0000      -0.955694       -26.0058
  24   2.0000      -0.897935       -24.4341
  25   2.0000      -0.859527       -23.3889
  26   2.0000      -0.825265       -22.4566
  27   2.0000      -0.784153       -21.3379
  28   2.0000      -0.770851       -20.9759
  29   2.0000      -0.731952       -19.9174
  30   2.0000      -0.717000       -19.5106
  31   2.0000      -0.710818       -19.3424
  32   2.0000      -0.673619       -18.3301
  33   2.0000      -0.657849       -17.9010
  34   2.0000      -0.616247       -16.7689
  35   2.0000      -0.599654       -16.3174
  36   2.0000      -0.587757       -15.9937
  37   2.0000      -0.583254       -15.8712
  38   2.0000      -0.572526       -15.5792
  39   2.0000      -0.561211       -15.2713
  40   2.0000      -0.542025       -14.7493
  41   2.0000      -0.529129       -14.3983
  42   2.0000      -0.511164       -13.9095
  43   2.0000      -0.504357       -13.7242
  44   2.0000      -0.493012       -13.4155
  45   2.0000      -0.482855       -13.1392
  46   2.0000      -0.463218       -12.6048
  47   2.0000      -0.457666       -12.4537
  48   2.0000      -0.444096       -12.0845
  49   2.0000      -0.435190       -11.8421
  50   2.0000      -0.433879       -11.8064
  51   2.0000      -0.426617       -11.6088
  52   2.0000      -0.414739       -11.2856
  53   2.0000      -0.405785       -11.0420
  54   2.0000      -0.404281       -11.0011
  55   2.0000      -0.393912       -10.7189
  56   2.0000      -0.390613       -10.6291
  57   2.0000      -0.377614       -10.2754
  58   2.0000      -0.287480        -7.8227
  59   2.0000      -0.193955        -5.2778
  60   0.0000       0.027339         0.7439
  61   0.0000       0.055871         1.5203
  62   0.0000       0.067732         1.8431
  63   0.0000       0.071957         1.9581
  64   0.0000       0.077212         2.1010

MULLIKEN ATOMIC CHARGES
-----------------------
   0 C :   -0.317358
   1 N :   -0.349379
   2 C :   -0.308372
   3 C :   -0.366187
   4 H :    0.219244
   5 H :    0.201449
   6 S :    0.975640
   7 C :    0.445933
   8 N :   -0.584669
   9 C :   -0.574374
  10 H :    0.098214
  11 H :    0.091448
  12 H :    0.260794
  13 H :    0.278764
  14 H :    0.245824
  15 O :   -0.429412
  16 F :   -0.100374
  17 C :   -0.214980
  18 H :    0.167958
  19 H :    0.170918
  20 C :   -0.350387
  21 H :    0.177382
  22 H :    0.171948
  23 C :   -0.307842
  24 H :    0.169913
  25 H :    0.138378
  26 O :   -0.547851
  27 H :    0.165797
  28 H :    0.150439
  29 H :    0.160542
  30 H :    0.160598
Sum of atomic charges:   -0.0000000

LOEWDIN ATOMIC CHARGES
----------------------
   0 C :   -0.286777
   1 N :    0.113093
   2 C :   -0.290810
   3 C :   -0.360560
   4 H :    0.156606
   5 H :    0.148370
   6 S :    0.590200
   7 C :   -0.471911
   8 N :   -0.020195
   9 C :   -0.368548
  10 H :    0.093842
  11 H :    0.090689
  12 H :    0.164585
  13 H :    0.158927
  14 H :    0.173091
  15 O :   -0.254146
  16 F :    0.105739
  17 C :   -0.270714
  18 H :    0.138299
  19 H :    0.130237
  20 C :   -0.277000
  21 H :    0.142245
  22 H :    0.151995
  23 C :   -0.273941
  24 H :    0.146971
  25 H :    0.136581
  26 O :   -0.325830
  27 H :    0.141073
  28 H :    0.139661
  29 H :    0.133287
  30 H :    0.144940

  Mayer bond orders larger than 0.100000
B(  0-C ,  1-N ) :   0.9237 B(  0-C , 17-C ) :   0.8758 B(  0-C , 18-H ) :   0.9888
B(  0-C , 19-H ) :   0.9962 B(  1-N ,  7-C ) :   1.1562 B(  1-N , 12-H ) :   0.9019
B(  2-C ,  3-C ) :   0.9015 B(  2-C , 20-C ) :   0.9024 B(  2-C , 21-H ) :   0.9895
B(  2-C , 22-H ) :   0.9644 B(  3-C ,  4-H ) :   0.9358 B(  3-C ,  5-H ) :   0.9520
B(  3-C ,  6-S ) :   0.9238 B(  6-S , 15-O ) :   1.9566 B(  6-S , 16-F ) :   1.1316
B(  6-S , 26-O ) :   1.6756 B(  7-C ,  8-N ) :   1.0849 B(  7-C ,  9-C ) :   1.6249
B(  8-N , 13-H ) :   0.8905 B(  8-N , 14-H ) :   0.9326 B(  9-C , 10-H ) :   1.0041
B(  9-C , 11-H ) :   1.0036 B( 17-C , 23-C ) :   0.9227 B( 17-C , 24-H ) :   0.9707
B( 17-C , 25-H ) :   0.9894 B( 20-C , 23-C ) :   0.8555 B( 20-C , 29-H ) :   0.9925
B( 20-C , 30-H ) :   0.9771 B( 23-C , 27-H ) :   0.9742 B( 23-C , 28-H ) :   0.9775

Dispersion correction           -0.001913574
FINAL SINGLE POINT ENERGY     -1072.976778955773

DIPOLE MOMENT
-------------
                                X             Y             Z
Electronic contribution:     -4.87331      -1.36706     -22.74942
Nuclear contribution   :      2.90585       3.30398      21.99296
                        -----------------------------------------
Total Dipole Moment    :     -1.96746       1.93692      -0.75646
                        -----------------------------------------
Magnitude (a.u.)       :      2.86266
Magnitude (Debye)      :      7.27630

Rotational constants in cm-1:     0.029065     0.014689     0.011200
Rotational constants in MHz :   871.338526   440.374927   335.770911

                             ****ORCA TERMINATED NORMALLY****
TOTAL RUN TIME: 0 days 0 hours 1 minutes 16 seconds 866 msec
