                         Program Version 5.0.0 -  RELEASE  -
|  1> !LC-PBE RIJCOSX def2-SVPD def2/J TightSCF
|  2> *xyz -1 1
|  3> C         -7.33044       -2.67899       -3.20681
|  4> S         -6.01966       -2.92697       -4.41913
|  5> O         -5.64583       -1.58838       -4.91931
|  6> O         -4.88196       -3.50370       -3.66724
|  7> O         -6.54927       -3.80515       -5.42507
|  8> C         -6.28692       -0.73588       -1.89353
|  9> C         -7.46900       -1.24615       -2.71383
| 10> H         -7.60191       -0.60135       -3.58533
| 11> H         -8.38979       -1.17344       -2.12692
| 12> H         -7.11825       -3.37982       -2.39805
| 13> H         -8.24184       -3.00474       -3.70651
| 14> H         -5.39124       -0.81034       -2.47415
| 15> H         -6.18709       -1.32597       -1.00655
| 16> H         -6.45393        0.28631       -1.62495
| 17> *
| 18> %MaxCore 64000
| 19>
| 20> %pal nprocs 8
| 21> end
| 22>
| 23> %scf
| 24>   MaxIter 150
| 25> end
| 26>
| 27>
| 28>                          ****END OF INPUT****

CARTESIAN COORDINATES (ANGSTROEM)
---------------------------------
  C     -7.330440   -2.678990   -3.206810
  S     -6.019660   -2.926970   -4.419130
  O     -5.645830   -1.588380   -4.919310
  O     -4.881960   -3.503700   -3.667240
  O     -6.549270   -3.805150   -5.425070
  C     -6.286920   -0.735880   -1.893530
  C     -7.469000   -1.246150   -2.713830
  H     -7.601910   -0.601350   -3.585330
  H     -8.389790   -1.173440   -2.126920
  H     -7.118250   -3.379820   -2.398050
  H     -8.241840   -3.004740   -3.706510
  H     -5.391240   -0.810340   -2.474150
  H     -6.187090   -1.325970   -1.006550
  H     -6.453930    0.286310   -1.624950

 Total Charge           Charge          ....   -1
 Multiplicity           Mult            ....    1
 Number of Electrons    NEL             ....   66
 Basis Dimension        Dim             ....  212

ORBITAL ENERGIES
----------------

  NO   OCC          E(Eh)            E(eV)
   0   2.0000     -88.317228     -2403.2339
   1   2.0000     -18.780027      -511.0305
   2   2.0000     -18.769470      -510.7433
   3   2.0000     -18.765068      -510.6234
   4   2.0000     -10.001046      -272.1423
   5   2.0000      -9.997628      -272.0493
   6   2.0000      -9.981016      -271.5972
   7   2.0000      -7.938953      -216.0299
   8   2.0000      -5.961292      -162.2150
   9   2.0000      -5.961213      -162.2129
  10   2.0000      -5.960855      -162.2031
  11   2.0000      -1.108968       -30.1766
  12   2.0000      -0.953364       -25.9424
  13   2.0000      -0.929976       -25.3059
  14   2.0000      -0.837063       -22.7777
  15   2.0000      -0.738080       -20.0842
  16   2.0000      -0.633000       -17.2248
  17   2.0000      -0.537741       -14.6327
  18   2.0000      -0.485258       -13.2045
  19   2.0000      -0.471922       -12.8416
  20   2.0000      -0.442605       -12.0439
  21   2.0000      -0.428522       -11.6607
  22   2.0000      -0.410801       -11.1785
  23   2.0000      -0.399801       -10.8791
  24   2.0000      -0.359591        -9.7850
  25   2.0000      -0.351781        -9.5725
  26   2.0000      -0.337397        -9.1810
  27   2.0000      -0.293282        -7.9806
  28   2.0000      -0.291564        -7.9339
  29   2.0000      -0.251779        -6.8513
  30   2.0000      -0.242288        -6.5930
  31   2.0000      -0.235777        -6.4158
  32   2.0000      -0.199357        -5.4248
  33   0.0000       0.201264         5.4767
  34   0.0000       0.219768         5.9802
  35   0.0000       0.222270         6.0483
  36   0.0000       0.230864         6.2821
  37   0.0000       0.250588         6.8189

MULLIKEN ATOMIC CHARGES
-----------------------
   0 C :   -0.137825
   1 S :    1.207768
   2 O :   -0.807925
   3 O :   -0.781876
   4 O :   -0.756771
   5 C :    0.525634
   6 C :   -0.330656
   7 H :    0.085546
   8 H :   -0.117680
   9 H :    0.055522
  10 H :    0.059496
  11 H :   -0.033191
  12 H :    0.032448
  13 H :   -0.000491
Sum of atomic charges:   -1.0000000

LOEWDIN ATOMIC CHARGES
----------------------
   0 C :   -0.106278
   1 S :    0.852837
   2 O :   -0.579686
   3 O :   -0.596935
   4 O :   -0.569236
   5 C :    0.092873
   6 C :   -0.125380
   7 H :    0.025465
   8 H :    0.018798
   9 H :    0.018844
  10 H :    0.010740
  11 H :   -0.014079
  12 H :   -0.010057
  13 H :   -0.017908

  Mayer bond orders larger than 0.100000
B(  0-C ,  1-S ) :   0.9091 B(  0-C ,  6-C ) :   1.2093 B(  0-C ,  7-H ) :   0.1226
B(  0-C ,  9-H ) :   0.9499 B(  0-C , 10-H ) :   0.9533 B(  1-S ,  2-O ) :   1.2996
B(  1-S ,  3-O ) :   1.2946 B(  1-S ,  4-O ) :   1.3899 B(  5-C ,  6-C ) :   1.2619
B(  5-C , 11-H ) :   0.8659 B(  5-C , 12-H ) :   0.8110 B(  5-C , 13-H ) :   0.8118
B(  6-C ,  7-H ) :   0.8993 B(  6-C ,  8-H ) :   0.9853 B(  6-C , 11-H ) :   0.1804
B(  6-C , 12-H ) :   0.1711 B(  6-C , 13-H ) :   0.1694

FINAL SINGLE POINT ENERGY      -740.725455565767

DIPOLE MOMENT
-------------
                                X             Y             Z
Electronic contribution:      3.71141      -5.81586      -7.84349
Nuclear contribution   :     -5.28952       6.71955       9.52938
                        -----------------------------------------
Total Dipole Moment    :     -1.57811       0.90369       1.68589
                        -----------------------------------------
Magnitude (a.u.)       :      2.47978
Magnitude (Debye)      :      6.30309

Rotational constants in cm-1:     0.135789     0.055302     0.052251
Rotational constants in MHz :  4070.851802  1657.908940  1566.458563

                             ****ORCA TERMINATED NORMALLY****
TOTAL RUN TIME: 0 days 0 hours 0 minutes 14 seconds 683 msec
