                         Program Version 5.0.0 -  RELEASE  -
|  1> !LC-PBE RIJCOSX def2-SVPD def2/J TightSCF
|  2> *xyz 1 1
|  3> C         -2.16038       -1.36949       -3.46710
|  4> N         -3.03011       -1.91086       -4.54107
|  5> C         -2.04772        0.14658       -3.51177
|  6> H         -3.47744       -2.79151       -4.25710
|  7> H         -2.53801       -2.01786       -5.43808
|  8> H         -3.89159       -1.37604       -4.71437
|  9> H         -1.18444       -1.84400       -3.56639
| 10> H         -2.59819       -1.70838       -2.52848
| 11> C         -3.32876        0.87504       -3.10367
| 12> H         -1.74003        0.45234       -4.51713
| 13> H         -1.23261        0.43494       -2.84221
| 14> H         -4.12483        0.59148       -3.76000
| 15> H         -3.17368        1.93185       -3.16688
| 16> H         -3.58415        0.61151       -2.09857
| 17> *
| 18> %MaxCore 64000
| 19>
| 20> %pal nprocs 8
| 21> end
| 22>
| 23> %scf
| 24>   MaxIter 150
| 25> end
| 26>
| 27>
| 28>                          ****END OF INPUT****

CARTESIAN COORDINATES (ANGSTROEM)
---------------------------------
  C     -2.160380   -1.369490   -3.467100
  N     -3.030110   -1.910860   -4.541070
  C     -2.047720    0.146580   -3.511770
  H     -3.477440   -2.791510   -4.257100
  H     -2.538010   -2.017860   -5.438080
  H     -3.891590   -1.376040   -4.714370
  H     -1.184440   -1.844000   -3.566390
  H     -2.598190   -1.708380   -2.528480
  C     -3.328760    0.875040   -3.103670
  H     -1.740030    0.452340   -4.517130
  H     -1.232610    0.434940   -2.842210
  H     -4.124830    0.591480   -3.760000
  H     -3.173680    1.931850   -3.166880
  H     -3.584150    0.611510   -2.098570

 Total Charge           Charge          ....    1
 Multiplicity           Mult            ....    1
 Number of Electrons    NEL             ....   34
 Basis Dimension        Dim             ....  160

ORBITAL ENERGIES
----------------

  NO   OCC          E(Eh)            E(eV)
   0   2.0000     -14.560957      -396.2238
   1   2.0000     -10.375210      -282.3238
   2   2.0000     -10.305134      -280.4170
   3   2.0000     -10.270149      -279.4650
   4   2.0000      -1.379265       -37.5317
   5   2.0000      -1.146000       -31.1843
   6   2.0000      -1.049297       -28.5528
   7   2.0000      -0.959733       -26.1157
   8   2.0000      -0.938850       -25.5474
   9   2.0000      -0.912782       -24.8381
  10   2.0000      -0.837497       -22.7895
  11   2.0000      -0.772695       -21.0261
  12   2.0000      -0.748150       -20.3582
  13   2.0000      -0.721495       -19.6329
  14   2.0000      -0.656077       -17.8528
  15   2.0000      -0.649726       -17.6799
  16   2.0000      -0.640807       -17.4372
  17   0.0000      -0.106476        -2.8974
  18   0.0000      -0.052135        -1.4187
  19   0.0000      -0.049298        -1.3415
  20   0.0000      -0.035394        -0.9631
  21   0.0000      -0.008462        -0.2303

MULLIKEN ATOMIC CHARGES
-----------------------
   0 C :    0.420797
   1 N :   -0.925872
   2 C :   -0.448806
   3 H :    0.414707
   4 H :    0.464756
   5 H :    0.360224
   6 H :    0.015279
   7 H :    0.076300
   8 C :    0.490537
   9 H :    0.041600
  10 H :    0.084318
  11 H :   -0.140425
  12 H :    0.065602
  13 H :    0.080983
Sum of atomic charges:    1.0000000

LOEWDIN ATOMIC CHARGES
----------------------
   0 C :    0.064174
   1 N :    0.313859
   2 C :   -0.071901
   3 H :    0.115828
   4 H :    0.122797
   5 H :    0.097947
   6 H :    0.064071
   7 H :    0.063704
   8 C :    0.116913
   9 H :    0.046196
  10 H :    0.056774
  11 H :   -0.016813
  12 H :    0.016437
  13 H :    0.010014

  Mayer bond orders larger than 0.100000
B(  0-C ,  1-N ) :   0.7165 B(  0-C ,  2-C ) :   1.1861 B(  0-C ,  6-H ) :   0.9269
B(  0-C ,  7-H ) :   0.9114 B(  1-N ,  3-H ) :   0.7097 B(  1-N ,  4-H ) :   0.6719
B(  1-N ,  5-H ) :   0.7824 B(  2-C ,  8-C ) :   1.2826 B(  2-C ,  9-H ) :   0.9648
B(  2-C , 10-H ) :   0.9407 B(  2-C , 11-H ) :   0.1454 B(  2-C , 12-H ) :   0.1579
B(  2-C , 13-H ) :   0.1410 B(  8-C , 11-H ) :   0.8762 B(  8-C , 12-H ) :   0.8402
B(  8-C , 13-H ) :   0.8209 B( 11-H , 13-H ) :   0.1041

FINAL SINGLE POINT ENERGY      -174.140580025952

DIPOLE MOMENT
-------------
                                X             Y             Z
Electronic contribution:      0.31430      -2.16202      -1.10862
Nuclear contribution   :     -0.76147       0.35838       0.01319
                        -----------------------------------------
Total Dipole Moment    :     -0.44717      -1.80364      -1.09542
                        -----------------------------------------
Magnitude (a.u.)       :      2.15709
Magnitude (Debye)      :      5.48289

Rotational constants in cm-1:     0.457188     0.153451     0.133348
Rotational constants in MHz : 13706.154863  4600.337483  3997.673747

                             ****ORCA TERMINATED NORMALLY****
TOTAL RUN TIME: 0 days 0 hours 0 minutes 8 seconds 298 msec
