                         Program Version 5.0.0 -  RELEASE  -
|  1> !LC-PBE RIJCOSX def2-SVPD def2/J TightSCF
|  2> *xyz 0 1
|  3> C         -7.33044       -2.67899       -3.20681
|  4> S         -6.01966       -2.92697       -4.41913
|  5> F         -5.64583       -1.58838       -4.91931
|  6> O         -4.88196       -3.50370       -3.66724
|  7> O         -6.54927       -3.80515       -5.42507
|  8> C         -6.28692       -0.73588       -1.89353
|  9> C         -7.46900       -1.24615       -2.71383
| 10> H         -7.60191       -0.60135       -3.58533
| 11> H         -8.38979       -1.17344       -2.12692
| 12> H         -7.11825       -3.37982       -2.39805
| 13> H         -8.24184       -3.00474       -3.70651
| 14> H         -5.39124       -0.81034       -2.47415
| 15> H         -6.18709       -1.32597       -1.00655
| 16> H         -6.45393        0.28631       -1.62495
| 17> *
| 18> %MaxCore 64000
| 19>
| 20> %pal nprocs 8
| 21> end
| 22>
| 23> %scf
| 24>   MaxIter 150
| 25> end
| 26>
| 27>
| 28>                          ****END OF INPUT****

CARTESIAN COORDINATES (ANGSTROEM)
---------------------------------
  C     -7.330440   -2.678990   -3.206810
  S     -6.019660   -2.926970   -4.419130
  F     -5.645830   -1.588380   -4.919310
  O     -4.881960   -3.503700   -3.667240
  O     -6.549270   -3.805150   -5.425070
  C     -6.286920   -0.735880   -1.893530
  C     -7.469000   -1.246150   -2.713830
  H     -7.601910   -0.601350   -3.585330
  H     -8.389790   -1.173440   -2.126920
  H     -7.118250   -3.379820   -2.398050
  H     -8.241840   -3.004740   -3.706510
  H     -5.391240   -0.810340   -2.474150
  H     -6.187090   -1.325970   -1.006550
  H     -6.453930    0.286310   -1.624950

 Total Charge           Charge          ....    0
 Multiplicity           Mult            ....    1
 Number of Electrons    NEL             ....   66
 Basis Dimension        Dim             ....  212

ORBITAL ENERGIES
----------------

  NO   OCC          E(Eh)            E(eV)
   0   2.0000     -88.573958     -2410.2199
   1   2.0000     -24.616627      -669.8525
   2   2.0000     -19.012838      -517.3656
   3   2.0000     -18.996808      -516.9294
   4   2.0000     -10.196749      -277.4677
   5   2.0000     -10.167852      -276.6813
   6   2.0000     -10.134167      -275.7647
   7   2.0000      -8.196438      -223.0364
   8   2.0000      -6.223579      -169.3522
   9   2.0000      -6.216362      -169.1558
  10   2.0000      -6.215027      -169.1195
  11   2.0000      -1.515303       -41.2335
  12   2.0000      -1.285097       -34.9693
  13   2.0000      -1.173460       -31.9315
  14   2.0000      -1.020493       -27.7690
  15   2.0000      -0.924131       -25.1469
  16   2.0000      -0.865589       -23.5539
  17   2.0000      -0.802624       -21.8405
  18   2.0000      -0.747144       -20.3308
  19   2.0000      -0.729155       -19.8413
  20   2.0000      -0.694445       -18.8968
  21   2.0000      -0.646070       -17.5805
  22   2.0000      -0.632246       -17.2043
  23   2.0000      -0.615273       -16.7424
  24   2.0000      -0.594484       -16.1767
  25   2.0000      -0.579286       -15.7632
  26   2.0000      -0.538205       -14.6453
  27   2.0000      -0.526103       -14.3160
  28   2.0000      -0.517590       -14.0844
  29   2.0000      -0.502550       -13.6751
  30   2.0000      -0.470472       -12.8022
  31   2.0000      -0.456681       -12.4269
  32   2.0000      -0.447387       -12.1740
  33   0.0000       0.063033         1.7152
  34   0.0000       0.086975         2.3667
  35   0.0000       0.092319         2.5121
  36   0.0000       0.094228         2.5641
  37   0.0000       0.114451         3.1144

MULLIKEN ATOMIC CHARGES
-----------------------
   0 C :   -0.145069
   1 S :    1.349734
   2 F :   -0.390536
   3 O :   -0.650637
   4 O :   -0.619326
   5 C :    0.535470
   6 C :   -0.326227
   7 H :    0.070335
   8 H :   -0.068756
   9 H :    0.107222
  10 H :    0.110047
  11 H :   -0.065385
  12 H :    0.058870
  13 H :    0.034258
Sum of atomic charges:    0.0000000

LOEWDIN ATOMIC CHARGES
----------------------
   0 C :   -0.058746
   1 S :    1.104033
   2 F :   -0.257824
   3 O :   -0.485036
   4 O :   -0.457174
   5 C :    0.110254
   6 C :   -0.109077
   7 H :    0.034412
   8 H :    0.043285
   9 H :    0.046782
  10 H :    0.034051
  11 H :   -0.012887
  12 H :    0.006121
  13 H :    0.001806

  Mayer bond orders larger than 0.100000
B(  0-C ,  1-S ) :   0.9851 B(  0-C ,  6-C ) :   1.1957 B(  0-C ,  7-H ) :   0.1028
B(  0-C ,  9-H ) :   0.9418 B(  0-C , 10-H ) :   0.9478 B(  1-S ,  2-F ) :   0.6805
B(  1-S ,  3-O ) :   1.5188 B(  1-S ,  4-O ) :   1.5995 B(  5-C ,  6-C ) :   1.2791
B(  5-C , 11-H ) :   0.8645 B(  5-C , 12-H ) :   0.8155 B(  5-C , 13-H ) :   0.8172
B(  6-C ,  7-H ) :   0.9149 B(  6-C ,  8-H ) :   0.9844 B(  6-C , 11-H ) :   0.1654
B(  6-C , 12-H ) :   0.1681 B(  6-C , 13-H ) :   0.1629

FINAL SINGLE POINT ENERGY      -765.191040795715

DIPOLE MOMENT
-------------
                                X             Y             Z
Electronic contribution:      4.73005      -4.51602      -9.77430
Nuclear contribution   :     -5.93570       5.78812      10.65621
                        -----------------------------------------
Total Dipole Moment    :     -1.20564       1.27210       0.88190
                        -----------------------------------------
Magnitude (a.u.)       :      1.96203
Magnitude (Debye)      :      4.98709

Rotational constants in cm-1:     0.129417     0.054385     0.051980
Rotational constants in MHz :  3879.823072  1630.427453  1558.324762

                             ****ORCA TERMINATED NORMALLY****
TOTAL RUN TIME: 0 days 0 hours 0 minutes 15 seconds 673 msec
