                         Program Version 5.0.0 -  RELEASE  -
|  1> !LC-PBE RIJCOSX def2-SVPD def2/J TightSCF
|  2> *xyz 0 1
|  3> C         -2.16038       -1.36949       -3.46710
|  4> C         -3.03011       -1.91086       -4.54107
|  5> C         -2.04772        0.14658       -3.51177
|  6> H         -3.47744       -2.79151       -4.25710
|  7> H         -2.53801       -2.01786       -5.43808
|  8> H         -3.89159       -1.37604       -4.71437
|  9> H         -1.18444       -1.84400       -3.56639
| 10> H         -2.59819       -1.70838       -2.52848
| 11> C         -3.32876        0.87504       -3.10367
| 12> H         -1.74003        0.45234       -4.51713
| 13> H         -1.23261        0.43494       -2.84221
| 14> H         -4.12483        0.59148       -3.76000
| 15> H         -3.17368        1.93185       -3.16688
| 16> H         -3.58415        0.61151       -2.09857
| 17> *
| 18> %MaxCore 64000
| 19>
| 20> %pal nprocs 8
| 21> end
| 22>
| 23> %scf
| 24>   MaxIter 150
| 25> end
| 26>
| 27>
| 28>                          ****END OF INPUT****

CARTESIAN COORDINATES (ANGSTROEM)
---------------------------------
  C     -2.160380   -1.369490   -3.467100
  C     -3.030110   -1.910860   -4.541070
  C     -2.047720    0.146580   -3.511770
  H     -3.477440   -2.791510   -4.257100
  H     -2.538010   -2.017860   -5.438080
  H     -3.891590   -1.376040   -4.714370
  H     -1.184440   -1.844000   -3.566390
  H     -2.598190   -1.708380   -2.528480
  C     -3.328760    0.875040   -3.103670
  H     -1.740030    0.452340   -4.517130
  H     -1.232610    0.434940   -2.842210
  H     -4.124830    0.591480   -3.760000
  H     -3.173680    1.931850   -3.166880
  H     -3.584150    0.611510   -2.098570

 Total Charge           Charge          ....    0
 Multiplicity           Mult            ....    1
 Number of Electrons    NEL             ....   34
 Basis Dimension        Dim             ....  160

ORBITAL ENERGIES
----------------

  NO   OCC          E(Eh)            E(eV)
   0   2.0000     -10.116574      -275.2860
   1   2.0000     -10.112630      -275.1786
   2   2.0000     -10.105091      -274.9735
   3   2.0000     -10.086354      -274.4636
   4   2.0000      -0.977233       -26.5919
   5   2.0000      -0.897002       -24.4087
   6   2.0000      -0.805778       -21.9263
   7   2.0000      -0.722542       -19.6614
   8   2.0000      -0.613726       -16.7003
   9   2.0000      -0.607302       -16.5255
  10   2.0000      -0.570104       -15.5133
  11   2.0000      -0.525590       -14.3020
  12   2.0000      -0.512595       -13.9484
  13   2.0000      -0.497292       -13.5320
  14   2.0000      -0.449230       -12.2242
  15   2.0000      -0.448189       -12.1959
  16   2.0000      -0.446192       -12.1415
  17   0.0000       0.096196         2.6176
  18   0.0000       0.119459         3.2506
  19   0.0000       0.120617         3.2822
  20   0.0000       0.128875         3.5069
  21   0.0000       0.174301         4.7430

MULLIKEN ATOMIC CHARGES
-----------------------
   0 C :   -0.336442
   1 C :    0.784647
   2 C :   -0.388846
   3 H :   -0.068396
   4 H :   -0.040313
   5 H :   -0.400832
   6 H :   -0.044643
   7 H :    0.048748
   8 C :    0.491716
   9 H :   -0.017562
  10 H :    0.000965
  11 H :   -0.143796
  12 H :    0.035051
  13 H :    0.079702
Sum of atomic charges:    0.0000000

LOEWDIN ATOMIC CHARGES
----------------------
   0 C :   -0.099928
   1 C :    0.087806
   2 C :   -0.106075
   3 H :   -0.022164
   4 H :   -0.013979
   5 H :   -0.035258
   6 H :    0.033701
   7 H :    0.034220
   8 C :    0.092406
   9 H :    0.034928
  10 H :    0.026849
  11 H :   -0.019720
  12 H :   -0.008025
  13 H :   -0.004761

  Mayer bond orders larger than 0.100000
B(  0-C ,  1-C ) :   1.2600 B(  0-C ,  2-C ) :   1.1925 B(  0-C ,  3-H ) :   0.1682
B(  0-C ,  4-H ) :   0.1734 B(  0-C ,  5-H ) :   0.2015 B(  0-C ,  6-H ) :   0.9656
B(  0-C ,  7-H ) :   0.9118 B(  0-C ,  9-H ) :   0.1186 B(  1-C ,  3-H ) :   0.6765
B(  1-C ,  4-H ) :   0.7654 B(  1-C ,  5-H ) :   0.6829 B(  2-C ,  8-C ) :   1.2709
B(  2-C ,  9-H ) :   0.9664 B(  2-C , 10-H ) :   0.9539 B(  2-C , 11-H ) :   0.1675
B(  2-C , 12-H ) :   0.1612 B(  2-C , 13-H ) :   0.1679 B(  3-H ,  5-H ) :   0.2453
B(  4-H ,  5-H ) :   0.1064 B(  8-C , 11-H ) :   0.8940 B(  8-C , 12-H ) :   0.8172
B(  8-C , 13-H ) :   0.8005

FINAL SINGLE POINT ENERGY      -157.759404473315

DIPOLE MOMENT
-------------
                                X             Y             Z
Electronic contribution:      0.86410       0.02928       0.25410
Nuclear contribution   :     -0.87438      -0.05339      -0.25605
                        -----------------------------------------
Total Dipole Moment    :     -0.01029      -0.02411      -0.00195
                        -----------------------------------------
Magnitude (a.u.)       :      0.02628
Magnitude (Debye)      :      0.06680

Rotational constants in cm-1:     0.464420     0.160323     0.139078
Rotational constants in MHz : 13922.972952  4806.377145  4169.443621

                             ****ORCA TERMINATED NORMALLY****
TOTAL RUN TIME: 0 days 0 hours 0 minutes 7 seconds 825 msec
