                         Program Version 5.0.0 -  RELEASE  -
|  1> !LC-PBE RIJCOSX def2-SVPD def2/J TightSCF
|  2> *xyz 0 1
|  3> C         -7.33044       -2.67899       -3.20681
|  4> S         -6.01966       -2.92697       -4.41913
|  5> O         -5.64583       -1.58838       -4.91931
|  6> F         -4.88196       -3.50370       -3.66724
|  7> O         -6.54927       -3.80515       -5.42507
|  8> C         -6.28692       -0.73588       -1.89353
|  9> C         -7.46900       -1.24615       -2.71383
| 10> H         -7.60191       -0.60135       -3.58533
| 11> H         -8.38979       -1.17344       -2.12692
| 12> H         -7.11825       -3.37982       -2.39805
| 13> H         -8.24184       -3.00474       -3.70651
| 14> H         -5.39124       -0.81034       -2.47415
| 15> H         -6.18709       -1.32597       -1.00655
| 16> H         -6.45393        0.28631       -1.62495
| 17> *
| 18> %MaxCore 64000
| 19>
| 20> %pal nprocs 8
| 21> end
| 22>
| 23> %scf
| 24>   MaxIter 150
| 25> end
| 26>
| 27>
| 28>                          ****END OF INPUT****

CARTESIAN COORDINATES (ANGSTROEM)
---------------------------------
  C     -7.330440   -2.678990   -3.206810
  S     -6.019660   -2.926970   -4.419130
  O     -5.645830   -1.588380   -4.919310
  F     -4.881960   -3.503700   -3.667240
  O     -6.549270   -3.805150   -5.425070
  C     -6.286920   -0.735880   -1.893530
  C     -7.469000   -1.246150   -2.713830
  H     -7.601910   -0.601350   -3.585330
  H     -8.389790   -1.173440   -2.126920
  H     -7.118250   -3.379820   -2.398050
  H     -8.241840   -3.004740   -3.706510
  H     -5.391240   -0.810340   -2.474150
  H     -6.187090   -1.325970   -1.006550
  H     -6.453930    0.286310   -1.624950

 Total Charge           Charge          ....    0
 Multiplicity           Mult            ....    1
 Number of Electrons    NEL             ....   66
 Basis Dimension        Dim             ....  212

ORBITAL ENERGIES
----------------

  NO   OCC          E(Eh)            E(eV)
   0   2.0000     -88.574623     -2410.2380
   1   2.0000     -24.613640      -669.7712
   2   2.0000     -19.013318      -517.3787
   3   2.0000     -19.001144      -517.0474
   4   2.0000     -10.197412      -277.4857
   5   2.0000     -10.158950      -276.4391
   6   2.0000     -10.127618      -275.5865
   7   2.0000      -8.197090      -223.0542
   8   2.0000      -6.224123      -169.3670
   9   2.0000      -6.217028      -169.1739
  10   2.0000      -6.215783      -169.1401
  11   2.0000      -1.511784       -41.1377
  12   2.0000      -1.286514       -35.0078
  13   2.0000      -1.177763       -32.0486
  14   2.0000      -1.014840       -27.6152
  15   2.0000      -0.923398       -25.1269
  16   2.0000      -0.863240       -23.4900
  17   2.0000      -0.796968       -21.6866
  18   2.0000      -0.731453       -19.9039
  19   2.0000      -0.724976       -19.7276
  20   2.0000      -0.706987       -19.2381
  21   2.0000      -0.649806       -17.6821
  22   2.0000      -0.636571       -17.3220
  23   2.0000      -0.601308       -16.3624
  24   2.0000      -0.592454       -16.1215
  25   2.0000      -0.580121       -15.7859
  26   2.0000      -0.538880       -14.6637
  27   2.0000      -0.520036       -14.1509
  28   2.0000      -0.505926       -13.7669
  29   2.0000      -0.497213       -13.5299
  30   2.0000      -0.470461       -12.8019
  31   2.0000      -0.462492       -12.5851
  32   2.0000      -0.451416       -12.2836
  33   0.0000       0.067055         1.8247
  34   0.0000       0.085713         2.3324
  35   0.0000       0.092956         2.5295
  36   0.0000       0.093538         2.5453
  37   0.0000       0.119332         3.2472

MULLIKEN ATOMIC CHARGES
-----------------------
   0 C :   -0.175239
   1 S :    1.364967
   2 O :   -0.680444
   3 F :   -0.369436
   4 O :   -0.619333
   5 C :    0.525179
   6 C :   -0.302618
   7 H :    0.104050
   8 H :   -0.076022
   9 H :    0.108680
  10 H :    0.107841
  11 H :   -0.070307
  12 H :    0.051822
  13 H :    0.030858
Sum of atomic charges:   -0.0000000

LOEWDIN ATOMIC CHARGES
----------------------
   0 C :   -0.064044
   1 S :    1.109513
   2 O :   -0.473071
   3 F :   -0.262723
   4 O :   -0.457328
   5 C :    0.108037
   6 C :   -0.101985
   7 H :    0.038967
   8 H :    0.043244
   9 H :    0.035048
  10 H :    0.038370
  11 H :   -0.015734
  12 H :   -0.000795
  13 H :    0.002501

  Mayer bond orders larger than 0.100000
B(  0-C ,  1-S ) :   0.9722 B(  0-C ,  6-C ) :   1.2395 B(  0-C ,  7-H ) :   0.1175
B(  0-C ,  9-H ) :   0.9266 B(  0-C , 10-H ) :   0.9478 B(  1-S ,  2-O ) :   1.5246
B(  1-S ,  3-F ) :   0.6752 B(  1-S ,  4-O ) :   1.6042 B(  5-C ,  6-C ) :   1.2736
B(  5-C , 11-H ) :   0.8706 B(  5-C , 12-H ) :   0.8167 B(  5-C , 13-H ) :   0.8192
B(  6-C ,  7-H ) :   0.9009 B(  6-C ,  8-H ) :   0.9781 B(  6-C , 11-H ) :   0.1645
B(  6-C , 12-H ) :   0.1649 B(  6-C , 13-H ) :   0.1627

FINAL SINGLE POINT ENERGY      -765.194838120317

DIPOLE MOMENT
-------------
                                X             Y             Z
Electronic contribution:      6.10200      -7.87022      -7.64564
Nuclear contribution   :     -6.75719       7.84793       9.30968
                        -----------------------------------------
Total Dipole Moment    :     -0.65520      -0.02228       1.66404
                        -----------------------------------------
Magnitude (a.u.)       :      1.78852
Magnitude (Debye)      :      4.54606

Rotational constants in cm-1:     0.129104     0.054499     0.051192
Rotational constants in MHz :  3870.429564  1633.827608  1534.709243

                             ****ORCA TERMINATED NORMALLY****
TOTAL RUN TIME: 0 days 0 hours 0 minutes 14 seconds 781 msec
