                         Program Version 5.0.0 -  RELEASE  -
|  1> !LC-PBE RIJCOSX def2-SVPD def2/J TightSCF
|  2> *xyz 0 1
|  3> C         -7.33044       -2.67899       -3.20681
|  4> S         -6.01966       -2.92697       -4.41913
|  5> O         -5.64583       -1.58838       -4.91931
|  6> O         -4.88196       -3.50370       -3.66724
|  7> F         -6.54927       -3.80515       -5.42507
|  8> C         -6.28692       -0.73588       -1.89353
|  9> C         -7.46900       -1.24615       -2.71383
| 10> H         -7.60191       -0.60135       -3.58533
| 11> H         -8.38979       -1.17344       -2.12692
| 12> H         -7.11825       -3.37982       -2.39805
| 13> H         -8.24184       -3.00474       -3.70651
| 14> H         -5.39124       -0.81034       -2.47415
| 15> H         -6.18709       -1.32597       -1.00655
| 16> H         -6.45393        0.28631       -1.62495
| 17> *
| 18> %MaxCore 64000
| 19>
| 20> %pal nprocs 8
| 21> end
| 22>
| 23> %scf
| 24>   MaxIter 150
| 25> end
| 26>
| 27>
| 28>                          ****END OF INPUT****

CARTESIAN COORDINATES (ANGSTROEM)
---------------------------------
  C     -7.330440   -2.678990   -3.206810
  S     -6.019660   -2.926970   -4.419130
  O     -5.645830   -1.588380   -4.919310
  O     -4.881960   -3.503700   -3.667240
  F     -6.549270   -3.805150   -5.425070
  C     -6.286920   -0.735880   -1.893530
  C     -7.469000   -1.246150   -2.713830
  H     -7.601910   -0.601350   -3.585330
  H     -8.389790   -1.173440   -2.126920
  H     -7.118250   -3.379820   -2.398050
  H     -8.241840   -3.004740   -3.706510
  H     -5.391240   -0.810340   -2.474150
  H     -6.187090   -1.325970   -1.006550
  H     -6.453930    0.286310   -1.624950

 Total Charge           Charge          ....    0
 Multiplicity           Mult            ....    1
 Number of Electrons    NEL             ....   66
 Basis Dimension        Dim             ....  212

ORBITAL ENERGIES
----------------

  NO   OCC          E(Eh)            E(eV)
   0   2.0000     -88.576729     -2410.2953
   1   2.0000     -24.636291      -670.3876
   2   2.0000     -19.002137      -517.0744
   3   2.0000     -18.998542      -516.9766
   4   2.0000     -10.198218      -277.5076
   5   2.0000     -10.158497      -276.4268
   6   2.0000     -10.119348      -275.3615
   7   2.0000      -8.199383      -223.1165
   8   2.0000      -6.226538      -169.4327
   9   2.0000      -6.219163      -169.2320
  10   2.0000      -6.217853      -169.1964
  11   2.0000      -1.549005       -42.1506
  12   2.0000      -1.272634       -34.6301
  13   2.0000      -1.160233       -31.5716
  14   2.0000      -1.013309       -27.5735
  15   2.0000      -0.928428       -25.2638
  16   2.0000      -0.873824       -23.7780
  17   2.0000      -0.800343       -21.7784
  18   2.0000      -0.753155       -20.4944
  19   2.0000      -0.744197       -20.2506
  20   2.0000      -0.708732       -19.2856
  21   2.0000      -0.643069       -17.4988
  22   2.0000      -0.636581       -17.3222
  23   2.0000      -0.606384       -16.5006
  24   2.0000      -0.588070       -16.0022
  25   2.0000      -0.564918       -15.3722
  26   2.0000      -0.530361       -14.4319
  27   2.0000      -0.510071       -13.8797
  28   2.0000      -0.506637       -13.7863
  29   2.0000      -0.487648       -13.2696
  30   2.0000      -0.465887       -12.6774
  31   2.0000      -0.455013       -12.3815
  32   2.0000      -0.438399       -11.9295
  33   0.0000       0.062321         1.6958
  34   0.0000       0.084264         2.2929
  35   0.0000       0.089520         2.4360
  36   0.0000       0.097065         2.6413
  37   0.0000       0.114411         3.1133

MULLIKEN ATOMIC CHARGES
-----------------------
   0 C :   -0.171517
   1 S :    1.401743
   2 O :   -0.673429
   3 O :   -0.642403
   4 F :   -0.380241
   5 C :    0.528302
   6 C :   -0.337970
   7 H :    0.101853
   8 H :   -0.075639
   9 H :    0.106213
  10 H :    0.111258
  11 H :   -0.051788
  12 H :    0.051949
  13 H :    0.031669
Sum of atomic charges:    0.0000000

LOEWDIN ATOMIC CHARGES
----------------------
   0 C :   -0.069499
   1 S :    1.115372
   2 O :   -0.474843
   3 O :   -0.483593
   4 F :   -0.242490
   5 C :    0.113546
   6 C :   -0.098554
   7 H :    0.036476
   8 H :    0.043221
   9 H :    0.039801
  10 H :    0.026973
  11 H :   -0.009917
  12 H :    0.002153
  13 H :    0.001355

  Mayer bond orders larger than 0.100000
B(  0-C ,  1-S ) :   0.9516 B(  0-C ,  6-C ) :   1.2482 B(  0-C ,  7-H ) :   0.1154
B(  0-C ,  9-H ) :   0.9587 B(  0-C , 10-H ) :   0.8956 B(  1-S ,  2-O ) :   1.5016
B(  1-S ,  3-O ) :   1.5078 B(  1-S ,  4-F ) :   0.7324 B(  5-C ,  6-C ) :   1.2794
B(  5-C , 11-H ) :   0.8711 B(  5-C , 12-H ) :   0.8114 B(  5-C , 13-H ) :   0.8153
B(  6-C ,  7-H ) :   0.8965 B(  6-C ,  8-H ) :   0.9829 B(  6-C , 10-H ) :   0.1036
B(  6-C , 11-H ) :   0.1662 B(  6-C , 12-H ) :   0.1676 B(  6-C , 13-H ) :   0.1628

FINAL SINGLE POINT ENERGY      -765.175441546029

DIPOLE MOMENT
-------------
                                X             Y             Z
Electronic contribution:      3.19525      -8.40606     -10.74386
Nuclear contribution   :     -4.96410       8.17213      11.20012
                        -----------------------------------------
Total Dipole Moment    :     -1.76885      -0.23393       0.45626
                        -----------------------------------------
Magnitude (a.u.)       :      1.84166
Magnitude (Debye)      :      4.68113

Rotational constants in cm-1:     0.133784     0.053405     0.050278
Rotational constants in MHz :  4010.731548  1601.045142  1507.298018

                             ****ORCA TERMINATED NORMALLY****
TOTAL RUN TIME: 0 days 0 hours 0 minutes 14 seconds 697 msec
