                         Program Version 5.0.0 -  RELEASE  -
|  1> !LC-PBE RIJCOSX def2-SVPD def2/J TightSCF xyzfile
|  2>
|  3> *xyzfile 0 1 D1.xyz
|  4>
|  5> %MaxCore 64000
|  6>
|  7> %pal nprocs 4
|  8> end
|  9>
| 10> %scf
| 11>   MaxIter 150
| 12> end
| 13>
| 14>
| 15>                          ****END OF INPUT****

CARTESIAN COORDINATES (ANGSTROEM)
---------------------------------
  C     -2.160376   -1.369486   -3.467104
  C     -3.030108   -1.910857   -4.541074
  C     -2.047717    0.146583   -3.511774
  C     -7.330440   -2.678991   -3.206811
  S     -6.019659   -2.926965   -4.419128
  H     -3.477443   -2.791513   -4.257096
  H     -2.538013   -2.017860   -5.438075
  H     -3.891589   -1.376039   -4.714365
  F     -5.645830   -1.588384   -4.919307
  O     -4.881961   -3.503697   -3.667235
  H     -1.184438   -1.843997   -3.566393
  H     -2.598195   -1.708376   -2.528477
  O     -6.549267   -3.805150   -5.425071
  C     -3.328755    0.875037   -3.103669
  H     -1.740034    0.452343   -4.517126
  H     -1.232611    0.434938   -2.842208
  C     -3.628487    0.771601   -1.609363
  H     -4.175106    0.490791   -3.682203
  H     -3.237812    1.928663   -3.381480
  C     -4.975718    1.361432   -1.190644
  H     -2.830700    1.276234   -1.054766
  H     -3.594312   -0.275838   -1.294603
  C     -6.184720    0.784347   -1.926464
  H     -4.956292    2.445725   -1.342200
  H     -5.097256    1.205252   -0.114136
  C     -6.286921   -0.735882   -1.893531
  H     -6.163994    1.100199   -2.974250
  H     -7.094530    1.223459   -1.504509
  C     -7.468999   -1.246153   -2.713833
  H     -6.360641   -1.090347   -0.859176
  H     -5.369848   -1.171853   -2.295982
  H     -7.601914   -0.601349   -3.585329
  H     -8.389791   -1.173436   -2.126922
  H     -7.118254   -3.379818   -2.398055
  H     -8.241838   -3.004745   -3.706513

 Total Charge           Charge          ....    0
 Multiplicity           Mult            ....    1
 Number of Electrons    NEL             ....  122
 Basis Dimension        Dim             ....  464

ORBITAL ENERGIES
----------------

  NO   OCC          E(Eh)            E(eV)
   0   2.0000     -88.581868     -2410.4352
   1   2.0000     -24.622256      -670.0056
   2   2.0000     -19.018456      -517.5185
   3   2.0000     -19.002583      -517.0866
   4   2.0000     -10.199375      -277.5391
   5   2.0000     -10.165784      -276.6250
   6   2.0000     -10.142860      -276.0013
   7   2.0000     -10.134295      -275.7682
   8   2.0000     -10.126735      -275.5625
   9   2.0000     -10.119621      -275.3689
  10   2.0000     -10.117106      -275.3005
  11   2.0000     -10.108907      -275.0773
  12   2.0000     -10.099021      -274.8083
  13   2.0000     -10.051007      -273.5018
  14   2.0000      -8.202938      -223.2133
  15   2.0000      -6.230134      -169.5306
  16   2.0000      -6.223065      -169.3382
  17   2.0000      -6.221520      -169.2962
  18   2.0000      -1.522944       -41.4414
  19   2.0000      -1.291753       -35.1504
  20   2.0000      -1.183327       -32.2000
  21   2.0000      -1.029054       -28.0020
  22   2.0000      -0.995003       -27.0754
  23   2.0000      -0.963254       -26.2115
  24   2.0000      -0.932647       -25.3786
  25   2.0000      -0.887371       -24.1466
  26   2.0000      -0.873102       -23.7583
  27   2.0000      -0.836475       -22.7616
  28   2.0000      -0.799404       -21.7529
  29   2.0000      -0.783102       -21.3093
  30   2.0000      -0.753527       -20.5045
  31   2.0000      -0.743216       -20.2239
  32   2.0000      -0.723886       -19.6979
  33   2.0000      -0.706181       -19.2162
  34   2.0000      -0.698478       -19.0066
  35   2.0000      -0.650253       -17.6943
  36   2.0000      -0.642374       -17.4799
  37   2.0000      -0.630595       -17.1594
  38   2.0000      -0.619134       -16.8475
  39   2.0000      -0.612953       -16.6793
  40   2.0000      -0.597686       -16.2639
  41   2.0000      -0.583575       -15.8799
  42   2.0000      -0.576087       -15.6761
  43   2.0000      -0.570613       -15.5272
  44   2.0000      -0.554408       -15.0862
  45   2.0000      -0.538190       -14.6449
  46   2.0000      -0.530457       -14.4345
  47   2.0000      -0.529539       -14.4095
  48   2.0000      -0.511186       -13.9101
  49   2.0000      -0.501700       -13.6520
  50   2.0000      -0.490497       -13.3471
  51   2.0000      -0.487187       -13.2570
  52   2.0000      -0.472927       -12.8690
  53   2.0000      -0.467866       -12.7313
  54   2.0000      -0.460075       -12.5193
  55   2.0000      -0.454248       -12.3607
  56   2.0000      -0.449144       -12.2218
  57   2.0000      -0.440846       -11.9960
  58   2.0000      -0.430051       -11.7023
  59   2.0000      -0.426620       -11.6089
  60   2.0000      -0.404445       -11.0055
  61   0.0000       0.062792         1.7087
  62   0.0000       0.081978         2.2307
  63   0.0000       0.090118         2.4522
  64   0.0000       0.095070         2.5870
  65   0.0000       0.102933         2.8009

MULLIKEN ATOMIC CHARGES
-----------------------
   0 C :   -0.091931
   1 C :    1.655737
   2 C :    0.375327
   3 C :    0.221762
   4 S :    1.303754
   5 H :   -0.415616
   6 H :   -0.199634
   7 H :   -0.907707
   8 F :   -0.419331
   9 O :   -0.690533
  10 H :   -0.167959
  11 H :    0.029933
  12 O :   -0.653662
  13 C :    0.259053
  14 H :   -0.007902
  15 H :   -0.016897
  16 C :   -0.274546
  17 H :   -0.506960
  18 H :    0.007222
  19 C :    0.499419
  20 H :   -0.226255
  21 H :    0.149758
  22 C :   -0.255013
  23 H :    0.057244
  24 H :    0.082349
  25 C :    0.230597
  26 H :    0.254143
  27 H :   -0.305134
  28 C :    0.119334
  29 H :    0.020714
  30 H :   -0.340771
  31 H :    0.122580
  32 H :   -0.080947
  33 H :    0.073108
  34 H :    0.098765
Sum of atomic charges:    0.0000000

LOEWDIN ATOMIC CHARGES
----------------------
   0 C :   -0.059479
   1 C :    0.095522
   2 C :   -0.051825
   3 C :   -0.043652
   4 S :    1.144019
   5 H :   -0.116049
   6 H :   -0.001370
   7 H :   -0.088421
   8 F :   -0.253045
   9 O :   -0.454296
  10 H :    0.036433
  11 H :    0.023577
  12 O :   -0.439322
  13 C :   -0.045534
  14 H :    0.037664
  15 H :    0.030099
  16 C :   -0.057512
  17 H :    0.003889
  18 H :    0.038324
  19 C :   -0.052478
  20 H :    0.037418
  21 H :    0.016500
  22 C :   -0.060877
  23 H :    0.035901
  24 H :    0.034974
  25 C :   -0.044191
  26 H :    0.027934
  27 H :    0.038230
  28 C :   -0.064664
  29 H :    0.053142
  30 H :    0.008485
  31 H :    0.035016
  32 H :    0.049472
  33 H :    0.050016
  34 H :    0.036100

  Mayer bond orders larger than 0.100000
B(  0-C ,  1-C ) :   1.0205 B(  0-C ,  2-C ) :   1.2018 B(  0-C ,  5-H ) :   0.3715
B(  0-C ,  7-H ) :   0.3771 B(  0-C , 10-H ) :   0.9638 B(  0-C , 11-H ) :   0.7971
B(  0-C , 14-H ) :   0.1249 B(  0-C , 15-H ) :   0.1494 B(  1-C ,  6-H ) :   0.6879
B(  1-C ,  7-H ) :  -0.4039 B(  1-C , 11-H ) :   0.1836 B(  2-C ,  7-H ) :  -0.1003
B(  2-C , 13-C ) :   1.2154 B(  2-C , 14-H ) :   0.7641 B(  2-C , 15-H ) :   0.7984
B(  2-C , 17-H ) :   0.1146 B(  3-C ,  4-S ) :   0.9246 B(  3-C , 28-C ) :   1.2336
B(  3-C , 33-H ) :   0.9206 B(  3-C , 34-H ) :   0.7892 B(  4-S ,  8-F ) :   0.6537
B(  4-S ,  9-O ) :   1.4804 B(  4-S , 12-O ) :   1.5837 B(  5-H ,  7-H ) :   0.7421
B(  5-H ,  9-O ) :   0.1621 B(  6-H ,  7-H ) :   0.1661 B(  7-H ,  8-F ) :   0.1121
B(  7-H , 17-H ) :   0.1504 B( 13-C , 14-H ) :   0.1809 B( 13-C , 15-H ) :   0.1317
B( 13-C , 16-C ) :   1.1927 B( 13-C , 17-H ) :   0.8167 B( 13-C , 18-H ) :   0.8037
B( 13-C , 20-H ) :   0.1783 B( 14-H , 15-H ) :  -0.1194 B( 16-C , 17-H ) :   0.1789
B( 16-C , 18-H ) :   0.1705 B( 16-C , 19-C ) :   1.1996 B( 16-C , 20-H ) :   1.0315
B( 16-C , 21-H ) :   0.8815 B( 16-C , 22-C ) :   0.1013 B( 16-C , 23-H ) :   0.1275
B( 16-C , 24-H ) :   0.2254 B( 19-C , 22-C ) :   1.1516 B( 19-C , 23-H ) :   0.7347
B( 19-C , 24-H ) :   0.7391 B( 22-C , 23-H ) :   0.1960 B( 22-C , 25-C ) :   1.2675
B( 22-C , 26-H ) :   0.8009 B( 22-C , 27-H ) :   1.1031 B( 22-C , 28-C ) :   0.1212
B( 22-C , 30-H ) :   0.1262 B( 25-C , 27-H ) :   0.1764 B( 25-C , 28-C ) :   1.1397
B( 25-C , 29-H ) :   0.7699 B( 25-C , 30-H ) :   0.8167 B( 25-C , 32-H ) :   0.1763
B( 28-C , 29-H ) :   0.1138 B( 28-C , 31-H ) :   0.8843 B( 28-C , 32-H ) :   0.8738
B( 28-C , 34-H ) :   0.1897 B( 29-H , 30-H ) :   0.2367

FINAL SINGLE POINT ENERGY     -1039.189527771628

DIPOLE MOMENT
-------------
                                X             Y             Z
Electronic contribution:    -10.93167     -16.12548     -13.10652
Nuclear contribution   :      9.63012      17.20461      14.03552
                        -----------------------------------------
Total Dipole Moment    :     -1.30155       1.07913       0.92900
                        -----------------------------------------
Magnitude (a.u.)       :      1.92914
Magnitude (Debye)      :      4.90349

Rotational constants in cm-1:     0.025899     0.015189     0.010690
Rotational constants in MHz :   776.424978   455.369614   320.488876

                             ****ORCA TERMINATED NORMALLY****
TOTAL RUN TIME: 0 days 0 hours 3 minutes 28 seconds 396 msec
