                         Program Version 5.0.0 -  RELEASE  -
|  1> !LC-PBE RIJCOSX def2-SVPD def2/J TightSCF xyzfile
|  2>
|  3> *xyzfile 0 1 D3.xyz
|  4>
|  5> %MaxCore 64000
|  6>
|  7> %pal nprocs 4
|  8> end
|  9>
| 10> %scf
| 11>   MaxIter 150
| 12> end
| 13>
| 14>
| 15>                          ****END OF INPUT****

CARTESIAN COORDINATES (ANGSTROEM)
---------------------------------
  C     -2.160376   -1.369486   -3.467104
  C     -3.030108   -1.910857   -4.541074
  C     -2.047717    0.146583   -3.511774
  C     -7.330440   -2.678991   -3.206811
  S     -6.019659   -2.926965   -4.419128
  H     -3.477443   -2.791513   -4.257096
  H     -2.538013   -2.017860   -5.438075
  H     -3.891589   -1.376039   -4.714365
  O     -5.645830   -1.588384   -4.919307
  O     -4.881961   -3.503697   -3.667235
  H     -1.184438   -1.843997   -3.566393
  H     -2.598195   -1.708376   -2.528477
  F     -6.549267   -3.805150   -5.425071
  C     -3.328755    0.875037   -3.103669
  H     -1.740034    0.452343   -4.517126
  H     -1.232611    0.434938   -2.842208
  C     -3.628487    0.771601   -1.609363
  H     -4.175106    0.490791   -3.682203
  H     -3.237812    1.928663   -3.381480
  C     -4.975718    1.361432   -1.190644
  H     -2.830700    1.276234   -1.054766
  H     -3.594312   -0.275838   -1.294603
  C     -6.184720    0.784347   -1.926464
  H     -4.956292    2.445725   -1.342200
  H     -5.097256    1.205252   -0.114136
  C     -6.286921   -0.735882   -1.893531
  H     -6.163994    1.100199   -2.974250
  H     -7.094530    1.223459   -1.504509
  C     -7.468999   -1.246153   -2.713833
  H     -6.360641   -1.090347   -0.859176
  H     -5.369848   -1.171853   -2.295982
  H     -7.601914   -0.601349   -3.585329
  H     -8.389791   -1.173436   -2.126922
  H     -7.118254   -3.379818   -2.398055
  H     -8.241838   -3.004745   -3.706513

 Total Charge           Charge          ....    0
 Multiplicity           Mult            ....    1
 Number of Electrons    NEL             ....  122
 Basis Dimension        Dim             ....  464

ORBITAL ENERGIES
----------------

  NO   OCC          E(Eh)            E(eV)
   0   2.0000     -88.588483     -2410.6152
   1   2.0000     -24.644405      -670.6083
   2   2.0000     -19.011464      -517.3282
   3   2.0000     -19.007940      -517.2323
   4   2.0000     -10.202685      -277.6292
   5   2.0000     -10.158843      -276.4362
   6   2.0000     -10.131198      -275.6839
   7   2.0000     -10.122657      -275.4515
   8   2.0000     -10.116417      -275.2817
   9   2.0000     -10.108111      -275.0557
  10   2.0000     -10.101882      -274.8862
  11   2.0000     -10.095553      -274.7140
  12   2.0000     -10.084371      -274.4097
  13   2.0000     -10.027651      -272.8663
  14   2.0000      -8.209467      -223.3909
  15   2.0000      -6.236767      -169.7111
  16   2.0000      -6.229432      -169.5115
  17   2.0000      -6.227960      -169.4714
  18   2.0000      -1.556173       -42.3456
  19   2.0000      -1.285837       -34.9894
  20   2.0000      -1.173423       -31.9305
  21   2.0000      -1.022665       -27.8281
  22   2.0000      -0.985328       -26.8121
  23   2.0000      -0.952692       -25.9241
  24   2.0000      -0.929445       -25.2915
  25   2.0000      -0.890552       -24.2332
  26   2.0000      -0.866089       -23.5675
  27   2.0000      -0.828289       -22.5389
  28   2.0000      -0.791264       -21.5314
  29   2.0000      -0.769530       -20.9400
  30   2.0000      -0.762094       -20.7376
  31   2.0000      -0.750418       -20.4199
  32   2.0000      -0.721297       -19.6275
  33   2.0000      -0.714424       -19.4405
  34   2.0000      -0.684290       -18.6205
  35   2.0000      -0.653779       -17.7902
  36   2.0000      -0.640166       -17.4198
  37   2.0000      -0.624329       -16.9889
  38   2.0000      -0.618631       -16.8338
  39   2.0000      -0.608462       -16.5571
  40   2.0000      -0.592981       -16.1358
  41   2.0000      -0.575619       -15.6634
  42   2.0000      -0.562865       -15.3163
  43   2.0000      -0.559615       -15.2279
  44   2.0000      -0.547938       -14.9102
  45   2.0000      -0.526463       -14.3258
  46   2.0000      -0.522527       -14.2187
  47   2.0000      -0.513900       -13.9839
  48   2.0000      -0.498944       -13.5770
  49   2.0000      -0.490086       -13.3359
  50   2.0000      -0.481131       -13.0922
  51   2.0000      -0.470550       -12.8043
  52   2.0000      -0.468952       -12.7608
  53   2.0000      -0.461737       -12.5645
  54   2.0000      -0.454053       -12.3554
  55   2.0000      -0.442441       -12.0394
  56   2.0000      -0.434836       -11.8325
  57   2.0000      -0.428928       -11.6717
  58   2.0000      -0.413152       -11.2424
  59   2.0000      -0.404586       -11.0094
  60   2.0000      -0.391005       -10.6398
  61   0.0000       0.056614         1.5405
  62   0.0000       0.079311         2.1581
  63   0.0000       0.083043         2.2597
  64   0.0000       0.096453         2.6246
  65   0.0000       0.105682         2.8757

MULLIKEN ATOMIC CHARGES
-----------------------
   0 C :   -0.089185
   1 C :    1.673054
   2 C :    0.377261
   3 C :    0.194864
   4 S :    1.466290
   5 H :   -0.473142
   6 H :   -0.187612
   7 H :   -0.921802
   8 O :   -0.668942
   9 O :   -0.686974
  10 H :   -0.180782
  11 H :    0.034745
  12 F :   -0.493793
  13 C :    0.283539
  14 H :   -0.001358
  15 H :   -0.024941
  16 C :   -0.276748
  17 H :   -0.529525
  18 H :    0.014644
  19 C :    0.499294
  20 H :   -0.229651
  21 H :    0.155656
  22 C :   -0.267545
  23 H :    0.055270
  24 H :    0.077335
  25 C :    0.191832
  26 H :    0.263480
  27 H :   -0.301201
  28 C :    0.093349
  29 H :    0.021204
  30 H :   -0.327930
  31 H :    0.183531
  32 H :   -0.094276
  33 H :    0.082748
  34 H :    0.087311
Sum of atomic charges:    0.0000000

LOEWDIN ATOMIC CHARGES
----------------------
   0 C :   -0.064079
   1 C :    0.093248
   2 C :   -0.052764
   3 C :   -0.054415
   4 S :    1.178675
   5 H :   -0.117321
   6 H :   -0.004684
   7 H :   -0.109527
   8 O :   -0.448418
   9 O :   -0.453841
  10 H :    0.032149
  11 H :    0.021372
  12 F :   -0.229773
  13 C :   -0.042160
  14 H :    0.037005
  15 H :    0.027501
  16 C :   -0.058755
  17 H :    0.008666
  18 H :    0.036928
  19 C :   -0.053999
  20 H :    0.035554
  21 H :    0.015699
  22 C :   -0.058338
  23 H :    0.034871
  24 H :    0.033114
  25 C :   -0.041498
  26 H :    0.031694
  27 H :    0.036273
  28 C :   -0.054523
  29 H :    0.049962
  30 H :    0.012205
  31 H :    0.036771
  32 H :    0.049778
  33 H :    0.043422
  34 H :    0.029206

  Mayer bond orders larger than 0.100000
B(  0-C ,  1-C ) :   1.0254 B(  0-C ,  2-C ) :   1.2021 B(  0-C ,  5-H ) :   0.3685
B(  0-C ,  7-H ) :   0.3674 B(  0-C , 10-H ) :   0.9696 B(  0-C , 11-H ) :   0.7899
B(  0-C , 14-H ) :   0.1305 B(  0-C , 15-H ) :   0.1506 B(  1-C ,  6-H ) :   0.6780
B(  1-C ,  7-H ) :  -0.3168 B(  1-C , 11-H ) :   0.1890 B(  2-C ,  7-H ) :  -0.1015
B(  2-C , 13-C ) :   1.2131 B(  2-C , 14-H ) :   0.7590 B(  2-C , 15-H ) :   0.7962
B(  2-C , 17-H ) :   0.1187 B(  3-C ,  4-S ) :   0.9412 B(  3-C , 28-C ) :   1.2586
B(  3-C , 33-H ) :   0.9345 B(  3-C , 34-H ) :   0.7543 B(  4-S ,  8-O ) :   1.4011
B(  4-S ,  9-O ) :   1.4043 B(  4-S , 12-F ) :   0.6103 B(  5-H ,  6-H ) :  -0.1274
B(  5-H ,  7-H ) :   0.7746 B(  5-H ,  9-O ) :   0.1830 B(  6-H ,  7-H ) :   0.1854
B(  7-H ,  9-O ) :   0.1237 B(  7-H , 17-H ) :   0.1576 B( 13-C , 14-H ) :   0.1787
B( 13-C , 15-H ) :   0.1320 B( 13-C , 16-C ) :   1.1849 B( 13-C , 17-H ) :   0.8037
B( 13-C , 18-H ) :   0.7918 B( 13-C , 20-H ) :   0.1795 B( 14-H , 15-H ) :  -0.1180
B( 16-C , 17-H ) :   0.1855 B( 16-C , 18-H ) :   0.1725 B( 16-C , 19-C ) :   1.1974
B( 16-C , 20-H ) :   1.0323 B( 16-C , 21-H ) :   0.8772 B( 16-C , 22-C ) :   0.1035
B( 16-C , 23-H ) :   0.1289 B( 16-C , 24-H ) :   0.2265 B( 19-C , 22-C ) :   1.1506
B( 19-C , 23-H ) :   0.7357 B( 19-C , 24-H ) :   0.7378 B( 22-C , 23-H ) :   0.1961
B( 22-C , 25-C ) :   1.2833 B( 22-C , 26-H ) :   0.7933 B( 22-C , 27-H ) :   1.0984
B( 22-C , 28-C ) :   0.1295 B( 22-C , 30-H ) :   0.1203 B( 25-C , 27-H ) :   0.1744
B( 25-C , 28-C ) :   1.1577 B( 25-C , 29-H ) :   0.7675 B( 25-C , 30-H ) :   0.8174
B( 25-C , 32-H ) :   0.1820 B( 28-C , 29-H ) :   0.1125 B( 28-C , 31-H ) :   0.8574
B( 28-C , 32-H ) :   0.8816 B( 28-C , 34-H ) :   0.1968 B( 29-H , 30-H ) :   0.2559

FINAL SINGLE POINT ENERGY     -1039.173919947802

DIPOLE MOMENT
-------------
                                X             Y             Z
Electronic contribution:    -12.76440     -20.27822     -14.25312
Nuclear contribution   :     10.70731      19.84772      14.63855
                        -----------------------------------------
Total Dipole Moment    :     -2.05709      -0.43050       0.38543
                        -----------------------------------------
Magnitude (a.u.)       :      2.13671
Magnitude (Debye)      :      5.43107

Rotational constants in cm-1:     0.026014     0.014812     0.010477
Rotational constants in MHz :   779.874765   444.063394   314.081855

                             ****ORCA TERMINATED NORMALLY****
TOTAL RUN TIME: 0 days 0 hours 3 minutes 31 seconds 377 msec
