                         Program Version 5.0.0 -  RELEASE  -
|  1> !CAM-B3LYP RIJCOSX def2-SVPD def2/J TightSCF
|  2> *xyz -1 1
|  3> C          4.93020       -7.37532       -2.64962
|  4> C          3.84189       -6.95161       -3.63283
|  5> H          3.45814       -5.95442       -3.40712
|  6> H          2.98848       -7.64361       -3.56708
|  7> S          4.31812       -6.91593       -5.36869
|  8> O          5.40615       -5.89948       -5.51297
|  9> O          3.11191       -6.44508       -6.04379
| 10> O          4.76340       -8.23942       -5.69863
| 11> H          5.27901       -8.35440       -2.90385
| 12> H          4.53000       -7.38577       -1.65734
| 13> H          5.74437       -6.68276       -2.69856
| 14> *
| 15>
| 16> %MaxCore 64000
| 17>
| 18> %pal nprocs 4
| 19> end
| 20>
| 21> %scf
| 22>   MaxIter 150
| 23> end
| 24>
| 25>
| 26>                          ****END OF INPUT****

CARTESIAN COORDINATES (ANGSTROEM)
---------------------------------
  C      4.930200   -7.375320   -2.649620
  C      3.841890   -6.951610   -3.632830
  H      3.458140   -5.954420   -3.407120
  H      2.988480   -7.643610   -3.567080
  S      4.318120   -6.915930   -5.368690
  O      5.406150   -5.899480   -5.512970
  O      3.111910   -6.445080   -6.043790
  O      4.763400   -8.239420   -5.698630
  H      5.279010   -8.354400   -2.903850
  H      4.530000   -7.385770   -1.657340
  H      5.744370   -6.682760   -2.698560

 Total Charge           Charge          ....   -1
 Multiplicity           Mult            ....    1
 Number of Electrons    NEL             ....   58
 Basis Dimension        Dim             ....  176

ORBITAL ENERGIES
----------------

  NO   OCC          E(Eh)            E(eV)
   0   2.0000     -88.963632     -2420.8235
   1   2.0000     -19.000827      -517.0388
   2   2.0000     -18.991394      -516.7821
   3   2.0000     -18.983981      -516.5804
   4   2.0000     -10.128524      -275.6112
   5   2.0000     -10.121179      -275.4113
   6   2.0000      -8.016690      -218.1452
   7   2.0000      -5.986661      -162.9053
   8   2.0000      -5.986481      -162.9004
   9   2.0000      -5.986060      -162.8890
  10   2.0000      -1.015514       -27.6335
  11   2.0000      -0.874676       -23.8011
  12   2.0000      -0.844016       -22.9668
  13   2.0000      -0.716379       -19.4937
  14   2.0000      -0.587892       -15.9973
  15   2.0000      -0.460361       -12.5271
  16   2.0000      -0.394727       -10.7411
  17   2.0000      -0.391621       -10.6566
  18   2.0000      -0.352060        -9.5800
  19   2.0000      -0.337732        -9.1902
  20   2.0000      -0.329684        -8.9712
  21   2.0000      -0.303528        -8.2594
  22   2.0000      -0.284553        -7.7431
  23   2.0000      -0.222082        -6.0432
  24   2.0000      -0.220365        -5.9964
  25   2.0000      -0.185450        -5.0463
  26   2.0000      -0.174419        -4.7462
  27   2.0000      -0.167915        -4.5692
  28   2.0000      -0.131165        -3.5692
  29   0.0000       0.167483         4.5574
  30   0.0000       0.193737         5.2718
  31   0.0000       0.200467         5.4550
  32   0.0000       0.207019         5.6333
  33   0.0000       0.227567         6.1924

MULLIKEN ATOMIC CHARGES
-----------------------
   0 C :    0.961541
   1 C :   -0.237344
   2 H :   -0.135013
   3 H :   -0.077732
   4 S :    1.326136
   5 O :   -0.837957
   6 O :   -0.801820
   7 O :   -0.782996
   8 H :   -0.121729
   9 H :   -0.167205
  10 H :   -0.125881
Sum of atomic charges:   -1.0000000

LOEWDIN ATOMIC CHARGES
----------------------
   0 C :    0.104507
   1 C :   -0.137677
   2 H :    0.004884
   3 H :    0.009811
   4 S :    0.857766
   5 O :   -0.602444
   6 O :   -0.590962
   7 O :   -0.573969
   8 H :   -0.020015
   9 H :   -0.033141
  10 H :   -0.018761

  Mayer bond orders larger than 0.100000
B(  0-C ,  1-C ) :   1.2508 B(  0-C ,  8-H ) :   0.7742 B(  0-C ,  9-H ) :   0.6833
B(  0-C , 10-H ) :   0.7835 B(  1-C ,  2-H ) :   0.9808 B(  1-C ,  3-H ) :   0.9624
B(  1-C ,  4-S ) :   0.9258 B(  1-C ,  8-H ) :   0.2161 B(  1-C ,  9-H ) :   0.2490
B(  1-C , 10-H ) :   0.2096 B(  4-S ,  5-O ) :   1.2537 B(  4-S ,  6-O ) :   1.3237
B(  4-S ,  7-O ) :   1.3035

FINAL SINGLE POINT ENERGY      -702.671373526074

DIPOLE MOMENT
-------------
                                X             Y             Z
Electronic contribution:     -0.38451       0.78966      -7.68146
Nuclear contribution   :      0.07504      -1.14369       9.75001
                        -----------------------------------------
Total Dipole Moment    :     -0.30947      -0.35403       2.06855
                        -----------------------------------------
Magnitude (a.u.)       :      2.12132
Magnitude (Debye)      :      5.39198

Rotational constants in cm-1:     0.160553     0.082191     0.080550
Rotational constants in MHz :  4813.250478  2464.013016  2414.833054

                             ****ORCA TERMINATED NORMALLY****
TOTAL RUN TIME: 0 days 0 hours 0 minutes 33 seconds 536 msec
