                         Program Version 5.0.0 -  RELEASE  -
|  1> !CAM-B3LYP RIJCOSX def2-SVPD def2/J TightSCF
|  2> *xyz 1 1
|  3> C          5.55821       -1.99291       -6.21505
|  4> C          4.18188       -2.58967       -6.29891
|  5> N          3.14587       -1.76843       -6.48675
|  6> N          4.01910       -3.86431       -6.22743
|  7> H          4.76849       -4.59115       -5.99077
|  8> H          3.12241       -4.33339       -6.31462
|  9> H          3.28164       -0.77779       -6.56655
| 10> H          2.21255       -2.13419       -6.56225
| 11> C          6.41926       -2.54294       -5.07763
| 12> H          6.03683       -2.19819       -7.17685
| 13> H          5.46761       -0.90737       -6.12797
| 14> H          6.50056       -3.60553       -5.17358
| 15> H          5.96544       -2.30329       -4.13874
| 16> H          7.39438       -2.10494       -5.12457
| 17> *
| 18>
| 19> %MaxCore 64000
| 20>
| 21> %pal nprocs 4
| 22> end
| 23>
| 24> %scf
| 25>   MaxIter 150
| 26> end
| 27>
| 28>
| 29>                          ****END OF INPUT****

CARTESIAN COORDINATES (ANGSTROEM)
---------------------------------
  C      5.558210   -1.992910   -6.215050
  C      4.181880   -2.589670   -6.298910
  N      3.145870   -1.768430   -6.486750
  N      4.019100   -3.864310   -6.227430
  H      4.768490   -4.591150   -5.990770
  H      3.122410   -4.333390   -6.314620
  H      3.281640   -0.777790   -6.566550
  H      2.212550   -2.134190   -6.562250
  C      6.419260   -2.542940   -5.077630
  H      6.036830   -2.198190   -7.176850
  H      5.467610   -0.907370   -6.127970
  H      6.500560   -3.605530   -5.173580
  H      5.965440   -2.303290   -4.138740
  H      7.394380   -2.104940   -5.124570

 Total Charge           Charge          ....    1
 Multiplicity           Mult            ....    1
 Number of Electrons    NEL             ....   40
 Basis Dimension        Dim             ....  172

ORBITAL ENERGIES
----------------

  NO   OCC          E(Eh)            E(eV)
   0   2.0000     -14.658685      -398.8831
   1   2.0000     -14.647149      -398.5692
   2   2.0000     -10.587442      -288.0989
   3   2.0000     -10.457707      -284.5687
   4   2.0000     -10.414830      -283.4019
   5   2.0000      -1.281260       -34.8649
   6   2.0000      -1.180538       -32.1241
   7   2.0000      -1.046386       -28.4736
   8   2.0000      -0.941040       -25.6070
   9   2.0000      -0.890823       -24.2405
  10   2.0000      -0.849406       -23.1135
  11   2.0000      -0.818898       -22.2833
  12   2.0000      -0.768926       -20.9235
  13   2.0000      -0.727489       -19.7960
  14   2.0000      -0.693515       -18.8715
  15   2.0000      -0.673649       -18.3309
  16   2.0000      -0.617070       -16.7913
  17   2.0000      -0.606808       -16.5121
  18   2.0000      -0.590399       -16.0656
  19   2.0000      -0.558167       -15.1885
  20   0.0000      -0.162098        -4.4109
  21   0.0000      -0.124469        -3.3870
  22   0.0000      -0.089186        -2.4269
  23   0.0000      -0.078816        -2.1447
  24   0.0000      -0.056033        -1.5247

MULLIKEN ATOMIC CHARGES
-----------------------
   0 C :   -0.223467
   1 C :    0.696136
   2 N :    0.163597
   3 N :    0.213888
   4 H :    0.028214
   5 H :   -0.192333
   6 H :   -0.023208
   7 H :   -0.173377
   8 C :    0.955226
   9 H :   -0.047170
  10 H :   -0.015208
  11 H :   -0.210883
  12 H :   -0.110089
  13 H :   -0.061327
Sum of atomic charges:    1.0000000

LOEWDIN ATOMIC CHARGES
----------------------
   0 C :    0.011756
   1 C :   -0.044585
   2 N :    0.288002
   3 N :    0.265208
   4 H :    0.097459
   5 H :    0.050958
   6 H :    0.039743
   7 H :    0.039446
   8 C :    0.164487
   9 H :    0.056874
  10 H :    0.039216
  11 H :   -0.022285
  12 H :    0.003876
  13 H :    0.009846

  Mayer bond orders larger than 0.100000
B(  0-C ,  1-C ) :   1.0864 B(  0-C ,  8-C ) :   1.2896 B(  0-C ,  9-H ) :   0.8731
B(  0-C , 10-H ) :   0.8748 B(  0-C , 11-H ) :   0.2051 B(  0-C , 12-H ) :   0.2282
B(  0-C , 13-H ) :   0.1943 B(  1-C ,  2-N ) :   1.0441 B(  1-C ,  3-N ) :   1.1525
B(  1-C ,  5-H ) :  -0.2392 B(  1-C ,  7-H ) :  -0.2231 B(  1-C ,  9-H ) :   0.1286
B(  1-C , 10-H ) :   0.1439 B(  2-N ,  3-N ) :   0.1365 B(  2-N ,  6-H ) :   1.1303
B(  2-N ,  7-H ) :   1.3348 B(  3-N ,  4-H ) :   1.1432 B(  3-N ,  5-H ) :   1.3047
B(  4-H ,  5-H ) :  -0.1850 B(  6-H ,  7-H ) :  -0.1888 B(  8-C , 10-H ) :   0.1184
B(  8-C , 11-H ) :   0.7764 B(  8-C , 12-H ) :   0.7060 B(  8-C , 13-H ) :   0.7787

FINAL SINGLE POINT ENERGY      -228.752888695997

DIPOLE MOMENT
-------------
                                X             Y             Z
Electronic contribution:     -3.77924      -0.48168      -1.57032
Nuclear contribution   :      2.76041       0.12669       1.26265
                        -----------------------------------------
Total Dipole Moment    :     -1.01883      -0.35499      -0.30767
                        -----------------------------------------
Magnitude (a.u.)       :      1.12192
Magnitude (Debye)      :      2.85169

Rotational constants in cm-1:     0.280918     0.124524     0.094121
Rotational constants in MHz :  8421.697738  3733.133254  2821.684112

                             ****ORCA TERMINATED NORMALLY****
TOTAL RUN TIME: 0 days 0 hours 0 minutes 31 seconds 692 msec
