                         Program Version 5.0.0 -  RELEASE  -
|  1> !CAM-B3LYP RIJCOSX def2-SVPD def2/J TightSCF
|  2> *xyz 0 1
|  3> C          4.93020       -7.37532       -2.64962
|  4> C          3.84189       -6.95161       -3.63283
|  5> H          3.45814       -5.95442       -3.40712
|  6> H          2.98848       -7.64361       -3.56708
|  7> S          4.31812       -6.91593       -5.36869
|  8> F          5.40615       -5.89948       -5.51297
|  9> O          3.11191       -6.44508       -6.04379
| 10> O          4.76340       -8.23942       -5.69863
| 11> H          5.27901       -8.35440       -2.90385
| 12> H          4.53000       -7.38577       -1.65734
| 13> H          5.74437       -6.68276       -2.69856
| 14> *
| 15>
| 16> %MaxCore 64000
| 17>
| 18> %pal nprocs 4
| 19> end
| 20>
| 21> %scf
| 22>   MaxIter 150
| 23> end
| 24>
| 25>
| 26>                          ****END OF INPUT****

CARTESIAN COORDINATES (ANGSTROEM)
---------------------------------
  C      4.930200   -7.375320   -2.649620
  C      3.841890   -6.951610   -3.632830
  H      3.458140   -5.954420   -3.407120
  H      2.988480   -7.643610   -3.567080
  S      4.318120   -6.915930   -5.368690
  F      5.406150   -5.899480   -5.512970
  O      3.111910   -6.445080   -6.043790
  O      4.763400   -8.239420   -5.698630
  H      5.279010   -8.354400   -2.903850
  H      4.530000   -7.385770   -1.657340
  H      5.744370   -6.682760   -2.698560

 Total Charge           Charge          ....    0
 Multiplicity           Mult            ....    1
 Number of Electrons    NEL             ....   58
 Basis Dimension        Dim             ....  176

ORBITAL ENERGIES
----------------

  NO   OCC          E(Eh)            E(eV)
   0   2.0000     -89.220902     -2427.8242
   1   2.0000     -24.873632      -676.8459
   2   2.0000     -19.235285      -523.4187
   3   2.0000     -19.225195      -523.1442
   4   2.0000     -10.329615      -281.0831
   5   2.0000     -10.285923      -279.8942
   6   2.0000      -8.274736      -225.1670
   7   2.0000      -6.248639      -170.0341
   8   2.0000      -6.242500      -169.8671
   9   2.0000      -6.241232      -169.8325
  10   2.0000      -1.421976       -38.6939
  11   2.0000      -1.203076       -32.7374
  12   2.0000      -1.103879       -30.0381
  13   2.0000      -0.908422       -24.7194
  14   2.0000      -0.802027       -21.8243
  15   2.0000      -0.753492       -20.5036
  16   2.0000      -0.659061       -17.9340
  17   2.0000      -0.639790       -17.4096
  18   2.0000      -0.624075       -16.9819
  19   2.0000      -0.570984       -15.5373
  20   2.0000      -0.556602       -15.1459
  21   2.0000      -0.532143       -14.4804
  22   2.0000      -0.510486       -13.8910
  23   2.0000      -0.481912       -13.1135
  24   2.0000      -0.476595       -12.9688
  25   2.0000      -0.452177       -12.3044
  26   2.0000      -0.412569       -11.2266
  27   2.0000      -0.399608       -10.8739
  28   2.0000      -0.389665       -10.6033
  29   0.0000       0.020789         0.5657
  30   0.0000       0.056910         1.5486
  31   0.0000       0.060287         1.6405
  32   0.0000       0.062874         1.7109
  33   0.0000       0.076475         2.0810

MULLIKEN ATOMIC CHARGES
-----------------------
   0 C :    0.982472
   1 C :   -0.264850
   2 H :   -0.088374
   3 H :   -0.022303
   4 S :    1.476829
   5 F :   -0.420993
   6 O :   -0.662138
   7 O :   -0.650768
   8 H :   -0.094911
   9 H :   -0.129002
  10 H :   -0.125963
Sum of atomic charges:   -0.0000000

LOEWDIN ATOMIC CHARGES
----------------------
   0 C :    0.133757
   1 C :   -0.090117
   2 H :    0.023854
   3 H :    0.042470
   4 S :    1.120287
   5 F :   -0.274954
   6 O :   -0.476633
   7 O :   -0.460480
   8 H :   -0.005140
   9 H :   -0.004618
  10 H :   -0.008426

  Mayer bond orders larger than 0.100000
B(  0-C ,  1-C ) :   1.2757 B(  0-C ,  8-H ) :   0.7801 B(  0-C ,  9-H ) :   0.6901
B(  0-C , 10-H ) :   0.7745 B(  1-C ,  2-H ) :   0.9815 B(  1-C ,  3-H ) :   0.9576
B(  1-C ,  4-S ) :   0.9863 B(  1-C ,  8-H ) :   0.2114 B(  1-C ,  9-H ) :   0.2388
B(  1-C , 10-H ) :   0.2017 B(  4-S ,  5-F ) :   0.6147 B(  4-S ,  6-O ) :   1.5403
B(  4-S ,  7-O ) :   1.5274

FINAL SINGLE POINT ENERGY      -727.174829685864

DIPOLE MOMENT
-------------
                                X             Y             Z
Electronic contribution:      1.29790       2.62932      -8.66365
Nuclear contribution   :     -0.98922      -2.24849      10.35711
                        -----------------------------------------
Total Dipole Moment    :      0.30868       0.38083       1.69345
                        -----------------------------------------
Magnitude (a.u.)       :      1.76298
Magnitude (Debye)      :      4.48114

Rotational constants in cm-1:     0.151436     0.080885     0.078670
Rotational constants in MHz :  4539.936009  2424.868817  2358.476812

                             ****ORCA TERMINATED NORMALLY****
TOTAL RUN TIME: 0 days 0 hours 0 minutes 32 seconds 865 msec
