                         Program Version 5.0.0 -  RELEASE  -
|  1> !CAM-B3LYP RIJCOSX def2-SVPD def2/J TightSCF
|  2> *xyz 0 1
|  3> C          5.55821       -1.99291       -6.21505
|  4> C          4.18188       -2.58967       -6.29891
|  5> C          3.14587       -1.76843       -6.48675
|  6> N          4.01910       -3.86431       -6.22743
|  7> H          4.76849       -4.59115       -5.99077
|  8> H          3.12241       -4.33339       -6.31462
|  9> H          3.28164       -0.77779       -6.56655
| 10> H          2.21255       -2.13419       -6.56225
| 11> C          6.41926       -2.54294       -5.07763
| 12> H          6.03683       -2.19819       -7.17685
| 13> H          5.46761       -0.90737       -6.12797
| 14> H          6.50056       -3.60553       -5.17358
| 15> H          5.96544       -2.30329       -4.13874
| 16> H          7.39438       -2.10494       -5.12457
| 17> *
| 18>
| 19> %MaxCore 64000
| 20>
| 21> %pal nprocs 4
| 22> end
| 23>
| 24> %scf
| 25>   MaxIter 150
| 26> end
| 27>
| 28>
| 29>                          ****END OF INPUT****

CARTESIAN COORDINATES (ANGSTROEM)
---------------------------------
  C      5.558210   -1.992910   -6.215050
  C      4.181880   -2.589670   -6.298910
  C      3.145870   -1.768430   -6.486750
  N      4.019100   -3.864310   -6.227430
  H      4.768490   -4.591150   -5.990770
  H      3.122410   -4.333390   -6.314620
  H      3.281640   -0.777790   -6.566550
  H      2.212550   -2.134190   -6.562250
  C      6.419260   -2.542940   -5.077630
  H      6.036830   -2.198190   -7.176850
  H      5.467610   -0.907370   -6.127970
  H      6.500560   -3.605530   -5.173580
  H      5.965440   -2.303290   -4.138740
  H      7.394380   -2.104940   -5.124570

 Total Charge           Charge          ....    0
 Multiplicity           Mult            ....    1
 Number of Electrons    NEL             ....   40
 Basis Dimension        Dim             ....  172

ORBITAL ENERGIES
----------------

  NO   OCC          E(Eh)            E(eV)
   0   2.0000     -14.413701      -392.2168
   1   2.0000     -10.282109      -279.7904
   2   2.0000     -10.257469      -279.1199
   3   2.0000     -10.248097      -278.8649
   4   2.0000     -10.187148      -277.2064
   5   2.0000      -1.009763       -27.4770
   6   2.0000      -0.854297       -23.2466
   7   2.0000      -0.792897       -21.5758
   8   2.0000      -0.704533       -19.1713
   9   2.0000      -0.655843       -17.8464
  10   2.0000      -0.589133       -16.0311
  11   2.0000      -0.544236       -14.8094
  12   2.0000      -0.513941       -13.9850
  13   2.0000      -0.491823       -13.3832
  14   2.0000      -0.461164       -12.5489
  15   2.0000      -0.450509       -12.2590
  16   2.0000      -0.424740       -11.5578
  17   2.0000      -0.401626       -10.9288
  18   2.0000      -0.394958       -10.7474
  19   2.0000      -0.244260        -6.6467
  20   0.0000       0.044822         1.2197
  21   0.0000       0.074946         2.0394
  22   0.0000       0.080138         2.1807
  23   0.0000       0.092102         2.5062
  24   0.0000       0.105882         2.8812

MULLIKEN ATOMIC CHARGES
-----------------------
   0 C :    0.024556
   1 C :   -0.161822
   2 C :    0.694967
   3 N :    0.327744
   4 H :   -0.133323
   5 H :   -0.275213
   6 H :   -0.294940
   7 H :   -0.557253
   8 C :    0.943248
   9 H :   -0.132034
  10 H :    0.039611
  11 H :   -0.241668
  12 H :   -0.125444
  13 H :   -0.108430
Sum of atomic charges:   -0.0000000

LOEWDIN ATOMIC CHARGES
----------------------
   0 C :   -0.030034
   1 C :   -0.269532
   2 C :    0.178988
   3 N :    0.150337
   4 H :    0.040090
   5 H :    0.009805
   6 H :   -0.095975
   7 H :   -0.094724
   8 C :    0.126140
   9 H :    0.027558
  10 H :    0.024214
  11 H :   -0.038680
  12 H :   -0.010889
  13 H :   -0.017298

  Mayer bond orders larger than 0.100000
B(  0-C ,  1-C ) :   1.1285 B(  0-C ,  2-C ) :   0.1251 B(  0-C ,  6-H ) :  -0.1105
B(  0-C ,  8-C ) :   1.2392 B(  0-C ,  9-H ) :   0.7868 B(  0-C , 10-H ) :   0.8578
B(  0-C , 11-H ) :   0.2199 B(  0-C , 12-H ) :   0.2185 B(  0-C , 13-H ) :   0.2227
B(  1-C ,  2-C ) :   1.6093 B(  1-C ,  3-N ) :   1.2739 B(  1-C ,  5-H ) :  -0.1134
B(  1-C ,  7-H ) :   0.2362 B(  1-C ,  9-H ) :   0.2379 B(  1-C , 10-H ) :   0.1039
B(  2-C ,  3-N ) :   0.2488 B(  2-C ,  6-H ) :   1.0266 B(  2-C ,  7-H ) :   0.5284
B(  3-N ,  4-H ) :   1.1988 B(  3-N ,  5-H ) :   1.2421 B(  4-H ,  5-H ) :  -0.1659
B(  8-C , 10-H ) :   0.1233 B(  8-C , 11-H ) :   0.7643 B(  8-C , 12-H ) :   0.7200
B(  8-C , 13-H ) :   0.7434

FINAL SINGLE POINT ENERGY      -212.289822639943

DIPOLE MOMENT
-------------
                                X             Y             Z
Electronic contribution:     -2.03336      -1.06088      -1.02691
Nuclear contribution   :      2.41345       0.31141       1.16343
                        -----------------------------------------
Total Dipole Moment    :      0.38009      -0.74947       0.13652
                        -----------------------------------------
Magnitude (a.u.)       :      0.85136
Magnitude (Debye)      :      2.16399

Rotational constants in cm-1:     0.287957     0.129204     0.097498
Rotational constants in MHz :  8632.737925  3873.424745  2922.919500

                             ****ORCA TERMINATED NORMALLY****
TOTAL RUN TIME: 0 days 0 hours 0 minutes 32 seconds 505 msec
