                         Program Version 5.0.0 -  RELEASE  -
|  1> !CAM-B3LYP RIJCOSX def2-SVPD def2/J TightSCF
|  2> *xyz 0 1
|  3> C          4.93020       -7.37532       -2.64962
|  4> C          3.84189       -6.95161       -3.63283
|  5> H          3.45814       -5.95442       -3.40712
|  6> H          2.98848       -7.64361       -3.56708
|  7> S          4.31812       -6.91593       -5.36869
|  8> O          5.40615       -5.89948       -5.51297
|  9> F          3.11191       -6.44508       -6.04379
| 10> O          4.76340       -8.23942       -5.69863
| 11> H          5.27901       -8.35440       -2.90385
| 12> H          4.53000       -7.38577       -1.65734
| 13> H          5.74437       -6.68276       -2.69856
| 14> *
| 15>
| 16> %MaxCore 64000
| 17>
| 18> %pal nprocs 4
| 19> end
| 20>
| 21> %scf
| 22>   MaxIter 150
| 23> end
| 24>
| 25>
| 26>                          ****END OF INPUT****

CARTESIAN COORDINATES (ANGSTROEM)
---------------------------------
  C      4.930200   -7.375320   -2.649620
  C      3.841890   -6.951610   -3.632830
  H      3.458140   -5.954420   -3.407120
  H      2.988480   -7.643610   -3.567080
  S      4.318120   -6.915930   -5.368690
  O      5.406150   -5.899480   -5.512970
  F      3.111910   -6.445080   -6.043790
  O      4.763400   -8.239420   -5.698630
  H      5.279010   -8.354400   -2.903850
  H      4.530000   -7.385770   -1.657340
  H      5.744370   -6.682760   -2.698560

 Total Charge           Charge          ....    0
 Multiplicity           Mult            ....    1
 Number of Electrons    NEL             ....   58
 Basis Dimension        Dim             ....  176

ORBITAL ENERGIES
----------------

  NO   OCC          E(Eh)            E(eV)
   0   2.0000     -89.222581     -2427.8699
   1   2.0000     -24.888354      -677.2465
   2   2.0000     -19.234812      -523.4058
   3   2.0000     -19.217382      -522.9315
   4   2.0000     -10.330718      -281.1131
   5   2.0000     -10.284111      -279.8449
   6   2.0000      -8.276492      -225.2148
   7   2.0000      -6.250520      -170.0853
   8   2.0000      -6.244164      -169.9124
   9   2.0000      -6.242797      -169.8751
  10   2.0000      -1.449605       -39.4458
  11   2.0000      -1.196827       -32.5673
  12   2.0000      -1.084830       -29.5197
  13   2.0000      -0.908416       -24.7193
  14   2.0000      -0.816510       -22.2184
  15   2.0000      -0.753772       -20.5112
  16   2.0000      -0.662041       -18.0151
  17   2.0000      -0.659539       -17.9470
  18   2.0000      -0.634016       -17.2524
  19   2.0000      -0.572278       -15.5725
  20   2.0000      -0.560491       -15.2517
  21   2.0000      -0.518811       -14.1176
  22   2.0000      -0.505953       -13.7677
  23   2.0000      -0.484263       -13.1775
  24   2.0000      -0.461015       -12.5448
  25   2.0000      -0.459567       -12.5054
  26   2.0000      -0.408091       -11.1047
  27   2.0000      -0.392971       -10.6933
  28   2.0000      -0.376579       -10.2472
  29   0.0000       0.024986         0.6799
  30   0.0000       0.048530         1.3206
  31   0.0000       0.062496         1.7006
  32   0.0000       0.063163         1.7187
  33   0.0000       0.086924         2.3653

MULLIKEN ATOMIC CHARGES
-----------------------
   0 C :    0.953012
   1 C :   -0.284417
   2 H :   -0.077514
   3 H :   -0.018272
   4 S :    1.498883
   5 O :   -0.692678
   6 F :   -0.410050
   7 O :   -0.639623
   8 H :   -0.098732
   9 H :   -0.127605
  10 H :   -0.103003
Sum of atomic charges:   -0.0000000

LOEWDIN ATOMIC CHARGES
----------------------
   0 C :    0.148683
   1 C :   -0.101713
   2 H :    0.022778
   3 H :    0.028470
   4 S :    1.123058
   5 O :   -0.487875
   6 F :   -0.265481
   7 O :   -0.462243
   8 H :   -0.002266
   9 H :   -0.002478
  10 H :   -0.000934

  Mayer bond orders larger than 0.100000
B(  0-C ,  1-C ) :   1.3196 B(  0-C ,  8-H ) :   0.7725 B(  0-C ,  9-H ) :   0.6992
B(  0-C , 10-H ) :   0.7837 B(  1-C ,  2-H ) :   0.9670 B(  1-C ,  3-H ) :   0.9442
B(  1-C ,  4-S ) :   0.9601 B(  1-C ,  8-H ) :   0.2090 B(  1-C ,  9-H ) :   0.2391
B(  1-C , 10-H ) :   0.2046 B(  4-S ,  5-O ) :   1.4679 B(  4-S ,  6-F ) :   0.6765
B(  4-S ,  7-O ) :   1.5237

FINAL SINGLE POINT ENERGY      -727.163140581001

DIPOLE MOMENT
-------------
                                X             Y             Z
Electronic contribution:     -2.62027       1.69144      -9.58256
Nuclear contribution   :      1.40145      -1.67996      10.91024
                        -----------------------------------------
Total Dipole Moment    :     -1.21882       0.01148       1.32768
                        -----------------------------------------
Magnitude (a.u.)       :      1.80233
Magnitude (Debye)      :      4.58116

Rotational constants in cm-1:     0.155875     0.079864     0.077188
Rotational constants in MHz :  4673.017506  2394.277415  2314.027118

                             ****ORCA TERMINATED NORMALLY****
TOTAL RUN TIME: 0 days 0 hours 0 minutes 32 seconds 352 msec
