                         Program Version 5.0.0 -  RELEASE  -
|  1> !CAM-B3LYP RIJCOSX def2-SVPD def2/J TightSCF
|  2> *xyz 0 1
|  3> C          5.55821       -1.99291       -6.21505
|  4> C          4.18188       -2.58967       -6.29891
|  5> N          3.14587       -1.76843       -6.48675
|  6> C          4.01910       -3.86431       -6.22743
|  7> H          4.76849       -4.59115       -5.99077
|  8> H          3.12241       -4.33339       -6.31462
|  9> H          3.28164       -0.77779       -6.56655
| 10> H          2.21255       -2.13419       -6.56225
| 11> C          6.41926       -2.54294       -5.07763
| 12> H          6.03683       -2.19819       -7.17685
| 13> H          5.46761       -0.90737       -6.12797
| 14> H          6.50056       -3.60553       -5.17358
| 15> H          5.96544       -2.30329       -4.13874
| 16> H          7.39438       -2.10494       -5.12457
| 17> *
| 18>
| 19> %MaxCore 64000
| 20>
| 21> %pal nprocs 4
| 22> end
| 23>
| 24> %scf
| 25>   MaxIter 150
| 26> end
| 27>
| 28>
| 29>                          ****END OF INPUT****

CARTESIAN COORDINATES (ANGSTROEM)
---------------------------------
  C      5.558210   -1.992910   -6.215050
  C      4.181880   -2.589670   -6.298910
  N      3.145870   -1.768430   -6.486750
  C      4.019100   -3.864310   -6.227430
  H      4.768490   -4.591150   -5.990770
  H      3.122410   -4.333390   -6.314620
  H      3.281640   -0.777790   -6.566550
  H      2.212550   -2.134190   -6.562250
  C      6.419260   -2.542940   -5.077630
  H      6.036830   -2.198190   -7.176850
  H      5.467610   -0.907370   -6.127970
  H      6.500560   -3.605530   -5.173580
  H      5.965440   -2.303290   -4.138740
  H      7.394380   -2.104940   -5.124570

 Total Charge           Charge          ....    0
 Multiplicity           Mult            ....    1
 Number of Electrons    NEL             ....   40
 Basis Dimension        Dim             ....  172

ORBITAL ENERGIES
----------------

  NO   OCC          E(Eh)            E(eV)
   0   2.0000     -14.402791      -391.9199
   1   2.0000     -10.279581      -279.7216
   2   2.0000     -10.258553      -279.1494
   3   2.0000     -10.241959      -278.6979
   4   2.0000     -10.194741      -277.4130
   5   2.0000      -0.999297       -27.1923
   6   2.0000      -0.857958       -23.3462
   7   2.0000      -0.788725       -21.4623
   8   2.0000      -0.715216       -19.4620
   9   2.0000      -0.629976       -17.1425
  10   2.0000      -0.594187       -16.1686
  11   2.0000      -0.558462       -15.1965
  12   2.0000      -0.518732       -14.1154
  13   2.0000      -0.488986       -13.3060
  14   2.0000      -0.453298       -12.3349
  15   2.0000      -0.439696       -11.9647
  16   2.0000      -0.417343       -11.3565
  17   2.0000      -0.402527       -10.9533
  18   2.0000      -0.392711       -10.6862
  19   2.0000      -0.253207        -6.8901
  20   0.0000       0.051648         1.4054
  21   0.0000       0.072556         1.9743
  22   0.0000       0.083382         2.2689
  23   0.0000       0.091197         2.4816
  24   0.0000       0.108355         2.9485

MULLIKEN ATOMIC CHARGES
-----------------------
   0 C :    0.073535
   1 C :    0.245061
   2 N :    0.304523
   3 C :    0.259181
   4 H :   -0.106146
   5 H :   -0.601140
   6 H :   -0.197239
   7 H :   -0.227880
   8 C :    0.974742
   9 H :   -0.138511
  10 H :   -0.137772
  11 H :   -0.215231
  12 H :   -0.128921
  13 H :   -0.104204
Sum of atomic charges:   -0.0000000

LOEWDIN ATOMIC CHARGES
----------------------
   0 C :   -0.033239
   1 C :   -0.257491
   2 N :    0.176712
   3 C :    0.153724
   4 H :   -0.047696
   5 H :   -0.086254
   6 H :   -0.015807
   7 H :   -0.000493
   8 C :    0.131240
   9 H :    0.029474
  10 H :    0.011607
  11 H :   -0.031585
  12 H :   -0.011331
  13 H :   -0.018860

  Mayer bond orders larger than 0.100000
B(  0-C ,  1-C ) :   1.0131 B(  0-C ,  2-N ) :   0.1173 B(  0-C ,  8-C ) :   1.2731
B(  0-C ,  9-H ) :   0.8453 B(  0-C , 10-H ) :   0.7727 B(  0-C , 11-H ) :   0.2019
B(  0-C , 12-H ) :   0.2324 B(  0-C , 13-H ) :   0.2004 B(  1-C ,  2-N ) :   1.0694
B(  1-C ,  3-C ) :   1.4838 B(  1-C ,  7-H ) :  -0.1363 B(  1-C ,  9-H ) :   0.1622
B(  1-C , 10-H ) :   0.1722 B(  2-N ,  3-C ) :   0.3022 B(  2-N ,  6-H ) :   1.1257
B(  2-N ,  7-H ) :   1.2836 B(  3-C ,  4-H ) :   0.9166 B(  3-C ,  5-H ) :   0.7518
B(  4-H ,  5-H ) :  -0.1025 B(  6-H ,  7-H ) :  -0.1668 B(  8-C , 11-H ) :   0.7778
B(  8-C , 12-H ) :   0.7259 B(  8-C , 13-H ) :   0.7485

FINAL SINGLE POINT ENERGY      -212.299812875953

DIPOLE MOMENT
-------------
                                X             Y             Z
Electronic contribution:     -2.79842       0.79270      -1.28619
Nuclear contribution   :      2.61570      -0.17401       1.22349
                        -----------------------------------------
Total Dipole Moment    :     -0.18272       0.61868      -0.06270
                        -----------------------------------------
Magnitude (a.u.)       :      0.64814
Magnitude (Debye)      :      1.64745

Rotational constants in cm-1:     0.298189     0.125314     0.096441
Rotational constants in MHz :  8939.495008  3756.825352  2891.223400

                             ****ORCA TERMINATED NORMALLY****
TOTAL RUN TIME: 0 days 0 hours 0 minutes 28 seconds 636 msec
