                         Program Version 5.0.0 -  RELEASE  -
|  1> !CAM-B3LYP RIJCOSX def2-SVPD def2/J TightSCF
|  2> *xyz 0 1
|  3> C          4.93020       -7.37532       -2.64962
|  4> C          3.84189       -6.95161       -3.63283
|  5> H          3.45814       -5.95442       -3.40712
|  6> H          2.98848       -7.64361       -3.56708
|  7> S          4.31812       -6.91593       -5.36869
|  8> O          5.40615       -5.89948       -5.51297
|  9> O          3.11191       -6.44508       -6.04379
| 10> F          4.76340       -8.23942       -5.69863
| 11> H          5.27901       -8.35440       -2.90385
| 12> H          4.53000       -7.38577       -1.65734
| 13> H          5.74437       -6.68276       -2.69856
| 14> *
| 15>
| 16> %MaxCore 64000
| 17>
| 18> %pal nprocs 4
| 19> end
| 20>
| 21> %scf
| 22>   MaxIter 150
| 23> end
| 24>
| 25>
| 26>                          ****END OF INPUT****

CARTESIAN COORDINATES (ANGSTROEM)
---------------------------------
  C      4.930200   -7.375320   -2.649620
  C      3.841890   -6.951610   -3.632830
  H      3.458140   -5.954420   -3.407120
  H      2.988480   -7.643610   -3.567080
  S      4.318120   -6.915930   -5.368690
  O      5.406150   -5.899480   -5.512970
  O      3.111910   -6.445080   -6.043790
  F      4.763400   -8.239420   -5.698630
  H      5.279010   -8.354400   -2.903850
  H      4.530000   -7.385770   -1.657340
  H      5.744370   -6.682760   -2.698560

 Total Charge           Charge          ....    0
 Multiplicity           Mult            ....    1
 Number of Electrons    NEL             ....   58
 Basis Dimension        Dim             ....  176

ORBITAL ENERGIES
----------------

  NO   OCC          E(Eh)            E(eV)
   0   2.0000     -89.223800     -2427.9030
   1   2.0000     -24.901701      -677.6097
   2   2.0000     -19.225618      -523.1557
   3   2.0000     -19.218268      -522.9557
   4   2.0000     -10.330972      -281.1200
   5   2.0000     -10.287090      -279.9260
   6   2.0000      -8.277763      -225.2494
   7   2.0000      -6.252038      -170.1266
   8   2.0000      -6.245195      -169.9404
   9   2.0000      -6.243924      -169.9058
  10   2.0000      -1.472083       -40.0574
  11   2.0000      -1.185520       -32.2596
  12   2.0000      -1.077065       -29.3084
  13   2.0000      -0.911190       -24.7947
  14   2.0000      -0.820499       -22.3269
  15   2.0000      -0.764034       -20.7904
  16   2.0000      -0.683748       -18.6057
  17   2.0000      -0.674070       -18.3424
  18   2.0000      -0.627518       -17.0756
  19   2.0000      -0.570938       -15.5360
  20   2.0000      -0.555662       -15.1203
  21   2.0000      -0.527129       -14.3439
  22   2.0000      -0.506130       -13.7725
  23   2.0000      -0.482246       -13.1226
  24   2.0000      -0.470439       -12.8013
  25   2.0000      -0.447439       -12.1754
  26   2.0000      -0.399049       -10.8587
  27   2.0000      -0.392538       -10.6815
  28   2.0000      -0.370863       -10.0917
  29   0.0000       0.019816         0.5392
  30   0.0000       0.053808         1.4642
  31   0.0000       0.059336         1.6146
  32   0.0000       0.063133         1.7179
  33   0.0000       0.083687         2.2772

MULLIKEN ATOMIC CHARGES
-----------------------
   0 C :    0.979847
   1 C :   -0.263742
   2 H :   -0.081266
   3 H :   -0.028014
   4 S :    1.466972
   5 O :   -0.686761
   6 O :   -0.644953
   7 F :   -0.394001
   8 H :   -0.120395
   9 H :   -0.128355
  10 H :   -0.099331
Sum of atomic charges:   -0.0000000

LOEWDIN ATOMIC CHARGES
----------------------
   0 C :    0.133600
   1 C :   -0.090668
   2 H :    0.036809
   3 H :    0.029565
   4 S :    1.122740
   5 O :   -0.485797
   6 O :   -0.476231
   7 F :   -0.252193
   8 H :   -0.009833
   9 H :   -0.004375
  10 H :   -0.003617

  Mayer bond orders larger than 0.100000
B(  0-C ,  1-C ) :   1.2739 B(  0-C ,  8-H ) :   0.7646 B(  0-C ,  9-H ) :   0.6909
B(  0-C , 10-H ) :   0.7910 B(  1-C ,  2-H ) :   0.9826 B(  1-C ,  3-H ) :   0.9589
B(  1-C ,  4-S ) :   0.9832 B(  1-C ,  8-H ) :   0.2059 B(  1-C ,  9-H ) :   0.2392
B(  1-C , 10-H ) :   0.2059 B(  4-S ,  5-O ) :   1.4804 B(  4-S ,  6-O ) :   1.5458
B(  4-S ,  7-F ) :   0.6825

FINAL SINGLE POINT ENERGY      -727.151343101544

DIPOLE MOMENT
-------------
                                X             Y             Z
Electronic contribution:      0.18920      -1.34371      -8.98104
Nuclear contribution   :     -0.31946       0.18980      10.55057
                        -----------------------------------------
Total Dipole Moment    :     -0.13026      -1.15392       1.56953
                        -----------------------------------------
Magnitude (a.u.)       :      1.95241
Magnitude (Debye)      :      4.96264

Rotational constants in cm-1:     0.151421     0.081183     0.078684
Rotational constants in MHz :  4539.489207  2433.790160  2358.892966

                             ****ORCA TERMINATED NORMALLY****
TOTAL RUN TIME: 0 days 0 hours 0 minutes 32 seconds 896 msec
