                         Program Version 5.0.0 -  RELEASE  -
|  1> !CAM-B3LYP RIJCOSX def2-SVPD def2/J TightSCF xyzfile
|  2>
|  3> *xyzfile 0 1 D1.xyz
|  4>
|  5> %MaxCore 64000
|  6>
|  7> %pal nprocs 4
|  8> end
|  9>
| 10> %scf
| 11>   MaxIter 150
| 12> end
| 13>
| 14>
| 15>                          ****END OF INPUT****

CARTESIAN COORDINATES (ANGSTROEM)
---------------------------------
  C      5.558206   -1.992914   -6.215054
  C      4.930199   -7.375319   -2.649623
  C      3.841892   -6.951611   -3.632829
  H      3.458144   -5.954425   -3.407121
  H      2.988484   -7.643606   -3.567078
  S      4.318115   -6.915930   -5.368692
  C      4.181880   -2.589671   -6.298911
  C      3.145873   -1.768431   -6.486753
  N      4.019102   -3.864307   -6.227427
  H      4.768490   -4.591153   -5.990773
  H      3.122405   -4.333392   -6.314620
  H      3.281635   -0.777786   -6.566549
  H      2.212549   -2.134193   -6.562246
  F      5.406154   -5.899480   -5.512972
  O      3.111910   -6.445079   -6.043792
  C      6.419260   -2.542944   -5.077630
  C      5.872267   -5.002756   -2.427819
  C      6.173994   -6.485522   -2.606315
  H      6.734852   -6.613767   -3.534015
  H      6.821463   -6.831018   -1.793617
  H      4.469612   -7.406168   -1.655876
  H      5.230134   -8.398678   -2.885906
  C      5.896512   -2.169314   -3.694552
  H      7.428880   -2.143665   -5.208078
  H      6.505894   -3.627541   -5.175502
  C      6.807804   -2.623428   -2.551019
  H      4.894708   -2.589732   -3.557501
  H      5.778823   -1.081255   -3.635790
  C      7.111544   -4.122463   -2.520363
  H      7.751615   -2.071393   -2.614406
  H      6.345837   -2.326401   -1.604086
  H      5.362882   -4.828697   -1.471335
  H      5.174429   -4.702577   -3.211298
  H      7.778329   -4.329347   -1.677651
  H      7.673189   -4.402845   -3.417586
  O      4.763396   -8.239424   -5.698629
  H      6.036826   -2.198189   -7.176852
  H      5.467610   -0.907371   -6.127968

 Total Charge           Charge          ....    0
 Multiplicity           Mult            ....    1
 Number of Electrons    NEL             ....  136
 Basis Dimension        Dim             ....  512

ORBITAL ENERGIES
----------------

  NO   OCC          E(Eh)            E(eV)
   0   2.0000     -89.240057     -2428.3454
   1   2.0000     -24.903684      -677.6637
   2   2.0000     -19.251616      -523.8631
   3   2.0000     -19.243748      -523.6490
   4   2.0000     -14.387790      -391.5117
   5   2.0000     -10.336072      -281.2588
   6   2.0000     -10.297341      -280.2049
   7   2.0000     -10.279833      -279.7285
   8   2.0000     -10.270605      -279.4774
   9   2.0000     -10.270055      -279.4624
  10   2.0000     -10.262950      -279.2691
  11   2.0000     -10.257394      -279.1179
  12   2.0000     -10.256242      -279.0865
  13   2.0000     -10.252109      -278.9741
  14   2.0000     -10.250357      -278.9264
  15   2.0000     -10.176841      -276.9259
  16   2.0000      -8.292809      -225.6588
  17   2.0000      -6.267177      -170.5386
  18   2.0000      -6.260497      -170.3568
  19   2.0000      -6.258977      -170.3154
  20   2.0000      -1.456229       -39.6260
  21   2.0000      -1.221796       -33.2468
  22   2.0000      -1.122527       -30.5455
  23   2.0000      -0.995487       -27.0886
  24   2.0000      -0.935275       -25.4501
  25   2.0000      -0.900021       -24.4908
  26   2.0000      -0.871606       -23.7176
  27   2.0000      -0.839505       -22.8441
  28   2.0000      -0.821840       -22.3634
  29   2.0000      -0.790826       -21.5195
  30   2.0000      -0.775948       -21.1146
  31   2.0000      -0.736859       -20.0510
  32   2.0000      -0.703140       -19.1334
  33   2.0000      -0.696523       -18.9534
  34   2.0000      -0.684979       -18.6392
  35   2.0000      -0.665354       -18.1052
  36   2.0000      -0.647616       -17.6225
  37   2.0000      -0.634616       -17.2688
  38   2.0000      -0.631595       -17.1866
  39   2.0000      -0.585406       -15.9297
  40   2.0000      -0.580348       -15.7921
  41   2.0000      -0.564985       -15.3740
  42   2.0000      -0.561092       -15.2681
  43   2.0000      -0.550331       -14.9753
  44   2.0000      -0.538390       -14.6503
  45   2.0000      -0.535364       -14.5680
  46   2.0000      -0.524419       -14.2702
  47   2.0000      -0.506519       -13.7831
  48   2.0000      -0.503709       -13.7066
  49   2.0000      -0.493550       -13.4302
  50   2.0000      -0.481220       -13.0947
  51   2.0000      -0.478937       -13.0325
  52   2.0000      -0.464408       -12.6372
  53   2.0000      -0.448189       -12.1958
  54   2.0000      -0.443412       -12.0659
  55   2.0000      -0.438294       -11.9266
  56   2.0000      -0.436624       -11.8811
  57   2.0000      -0.425257       -11.5718
  58   2.0000      -0.423917       -11.5354
  59   2.0000      -0.412328       -11.2200
  60   2.0000      -0.408880       -11.1262
  61   2.0000      -0.404324       -11.0022
  62   2.0000      -0.403209       -10.9719
  63   2.0000      -0.395884       -10.7726
  64   2.0000      -0.384963       -10.4754
  65   2.0000      -0.378340       -10.2952
  66   2.0000      -0.373876       -10.1737
  67   2.0000      -0.233054        -6.3417
  68   0.0000       0.019240         0.5236
  69   0.0000       0.039804         1.0831
  70   0.0000       0.046780         1.2730
  71   0.0000       0.050836         1.3833
  72   0.0000       0.060667         1.6508

MULLIKEN ATOMIC CHARGES
-----------------------
   0 C :    0.944231
   1 C :    0.646216
   2 C :    0.147804
   3 H :    0.179626
   4 H :   -0.313774
   5 S :    1.466088
   6 C :   -0.435468
   7 C :    0.540251
   8 N :    1.113970
   9 H :   -0.388454
  10 H :   -0.319753
  11 H :   -0.386698
  12 H :   -0.444979
  13 F :   -0.676032
  14 O :   -0.702382
  15 C :    0.545101
  16 C :    0.192934
  17 C :    0.356452
  18 H :   -0.033078
  19 H :   -0.385392
  20 H :    0.020356
  21 H :   -0.087280
  22 C :    0.061943
  23 H :   -0.228075
  24 H :   -0.715216
  25 C :    0.758448
  26 H :    0.052777
  27 H :   -0.394380
  28 C :    0.271226
  29 H :   -0.036215
  30 H :   -0.133288
  31 H :   -0.043926
  32 H :   -0.487234
  33 H :   -0.406607
  34 H :    0.028181
  35 O :   -0.702699
  36 H :   -0.215654
  37 H :    0.210981
Sum of atomic charges:   -0.0000000

LOEWDIN ATOMIC CHARGES
----------------------
   0 C :    0.016665
   1 C :   -0.026855
   2 C :   -0.033344
   3 H :    0.020635
   4 H :    0.046491
   5 S :    1.143191
   6 C :   -0.255442
   7 C :    0.180534
   8 N :    0.188916
   9 H :   -0.068896
  10 H :   -0.020692
  11 H :   -0.099222
  12 H :   -0.093123
  13 F :   -0.274351
  14 O :   -0.450869
  15 C :   -0.028920
  16 C :   -0.034801
  17 C :   -0.028751
  18 H :    0.015582
  19 H :    0.034160
  20 H :    0.038241
  21 H :    0.031607
  22 C :   -0.029631
  23 H :    0.029223
  24 H :   -0.013536
  25 C :   -0.030267
  26 H :    0.014808
  27 H :    0.028404
  28 C :   -0.032921
  29 H :    0.023169
  30 H :    0.022453
  31 H :    0.042023
  32 H :   -0.018377
  33 H :    0.025745
  34 H :    0.016973
  35 O :   -0.434855
  36 H :    0.029713
  37 H :    0.026319

  Mayer bond orders larger than 0.100000
B(  0-C ,  6-C ) :   0.9493 B(  0-C ,  8-N ) :   0.1763 B(  0-C , 15-C ) :   1.1163
B(  0-C , 23-H ) :   0.1053 B(  0-C , 24-H ) :   0.1667 B(  0-C , 36-H ) :   0.4207
B(  0-C , 37-H ) :   0.6451 B(  1-C ,  2-C ) :   1.2233 B(  1-C ,  4-H ) :   0.1778
B(  1-C , 17-C ) :   1.2021 B(  1-C , 20-H ) :   0.6589 B(  1-C , 21-H ) :   0.6266
B(  2-C ,  3-H ) :   0.8466 B(  2-C ,  4-H ) :   0.7483 B(  2-C ,  5-S ) :   1.0017
B(  2-C , 20-H ) :   0.2022 B(  2-C , 21-H ) :   0.1300 B(  4-H ,  5-S ) :   0.1505
B(  5-S , 13-F ) :   0.5578 B(  5-S , 14-O ) :   1.5028 B(  5-S , 35-O ) :   1.5228
B(  6-C ,  7-C ) :   1.6117 B(  6-C ,  8-N ) :   1.3180 B(  6-C , 10-H ) :  -0.2107
B(  6-C , 11-H ) :   0.1305 B(  6-C , 12-H ) :   0.3237 B(  6-C , 15-C ) :   0.1279
B(  6-C , 24-H ) :  -0.1183 B(  6-C , 36-H ) :   0.3224 B(  6-C , 37-H ) :   0.1534
B(  7-C ,  8-N ) :   0.1428 B(  7-C , 10-H ) :  -0.1147 B(  7-C , 11-H ) :   0.8526
B(  7-C , 12-H ) :   0.5350 B(  8-N ,  9-H ) :   0.6265 B(  8-N , 10-H ) :   0.9175
B(  8-N , 13-F ) :  -0.1601 B(  9-H , 10-H ) :  -0.1728 B(  9-H , 13-F ) :   0.1789
B( 10-H , 14-O ) :   0.1627 B( 13-F , 14-O ) :   0.1245 B( 13-F , 24-H ) :   0.1552
B( 15-C , 22-C ) :   1.1675 B( 15-C , 23-H ) :   0.7079 B( 15-C , 24-H ) :   0.4888
B( 15-C , 26-H ) :   0.1353 B( 15-C , 27-H ) :   0.1888 B( 15-C , 36-H ) :   0.2901
B( 15-C , 37-H ) :   0.1648 B( 16-C , 17-C ) :   1.1856 B( 16-C , 18-H ) :   0.1446
B( 16-C , 19-H ) :   0.1931 B( 16-C , 28-C ) :   1.1986 B( 16-C , 31-H ) :   0.7395
B( 16-C , 32-H ) :   0.9117 B( 16-C , 33-H ) :   0.2116 B( 16-C , 34-H ) :   0.1446
B( 17-C , 18-H ) :   0.8323 B( 17-C , 19-H ) :   0.8061 B( 17-C , 20-H ) :   0.1041
B( 17-C , 21-H ) :   0.2760 B( 17-C , 28-C ) :   0.1467 B( 17-C , 31-H ) :   0.1086
B( 18-H , 19-H ) :  -0.1013 B( 20-H , 21-H ) :  -0.1145 B( 22-C , 23-H ) :   0.1536
B( 22-C , 24-H ) :   0.2369 B( 22-C , 25-C ) :   1.0655 B( 22-C , 26-H ) :   0.8469
B( 22-C , 27-H ) :   0.9641 B( 22-C , 28-C ) :   0.1423 B( 22-C , 29-H ) :   0.1455
B( 22-C , 30-H ) :   0.2613 B( 25-C , 28-C ) :   1.1102 B( 25-C , 29-H ) :   0.6440
B( 25-C , 30-H ) :   0.6592 B( 26-H , 32-H ) :   0.1602 B( 28-C , 29-H ) :   0.2504
B( 28-C , 30-H ) :   0.1278 B( 28-C , 31-H ) :   0.1149 B( 28-C , 33-H ) :   0.9023
B( 28-C , 34-H ) :   0.7996 B( 29-H , 30-H ) :  -0.1334

FINAL SINGLE POINT ENERGY     -1134.571224817881

DIPOLE MOMENT
-------------
                                X             Y             Z
Electronic contribution:     -7.00085     -18.75886     -13.13078
Nuclear contribution   :      7.78491      18.17172      15.09294
                        -----------------------------------------
Total Dipole Moment    :      0.78406      -0.58714       1.96215
                        -----------------------------------------
Magnitude (a.u.)       :      2.19306
Magnitude (Debye)      :      5.57433

Rotational constants in cm-1:     0.018190     0.012573     0.008405
Rotational constants in MHz :   545.327178   376.916509   251.974803

                             ****ORCA TERMINATED NORMALLY****
TOTAL RUN TIME: 0 days 0 hours 7 minutes 13 seconds 391 msec
