                         Program Version 5.0.0 -  RELEASE  -
|  1> !CAM-B3LYP RIJCOSX def2-SVPD def2/J TightSCF xyzfile
|  2>
|  3> *xyzfile 0 1 D4.xyz
|  4>
|  5> %MaxCore 64000
|  6>
|  7> %pal nprocs 4
|  8> end
|  9>
| 10> %scf
| 11>   MaxIter 150
| 12> end
| 13>
| 14>
| 15>                          ****END OF INPUT****

CARTESIAN COORDINATES (ANGSTROEM)
---------------------------------
  C      5.558206   -1.992914   -6.215054
  C      4.930199   -7.375319   -2.649623
  C      3.841892   -6.951611   -3.632829
  H      3.458144   -5.954425   -3.407121
  H      2.988484   -7.643606   -3.567078
  S      4.318115   -6.915930   -5.368692
  C      4.181880   -2.589671   -6.298911
  N      3.145873   -1.768431   -6.486753
  C      4.019102   -3.864307   -6.227427
  H      4.768490   -4.591153   -5.990773
  H      3.122405   -4.333392   -6.314620
  H      3.281635   -0.777786   -6.566549
  H      2.212549   -2.134193   -6.562246
  O      5.406154   -5.899480   -5.512972
  F      3.111910   -6.445079   -6.043792
  C      6.419260   -2.542944   -5.077630
  C      5.872267   -5.002756   -2.427819
  C      6.173994   -6.485522   -2.606315
  H      6.734852   -6.613767   -3.534015
  H      6.821463   -6.831018   -1.793617
  H      4.469612   -7.406168   -1.655876
  H      5.230134   -8.398678   -2.885906
  C      5.896512   -2.169314   -3.694552
  H      7.428880   -2.143665   -5.208078
  H      6.505894   -3.627541   -5.175502
  C      6.807804   -2.623428   -2.551019
  H      4.894708   -2.589732   -3.557501
  H      5.778823   -1.081255   -3.635790
  C      7.111544   -4.122463   -2.520363
  H      7.751615   -2.071393   -2.614406
  H      6.345837   -2.326401   -1.604086
  H      5.362882   -4.828697   -1.471335
  H      5.174429   -4.702577   -3.211298
  H      7.778329   -4.329347   -1.677651
  H      7.673189   -4.402845   -3.417586
  O      4.763396   -8.239424   -5.698629
  H      6.036826   -2.198189   -7.176852
  H      5.467610   -0.907371   -6.127968

 Total Charge           Charge          ....    0
 Multiplicity           Mult            ....    1
 Number of Electrons    NEL             ....  136
 Basis Dimension        Dim             ....  512

ORBITAL ENERGIES
----------------

  NO   OCC          E(Eh)            E(eV)
   0   2.0000     -89.226942     -2427.9885
   1   2.0000     -24.887261      -677.2168
   2   2.0000     -19.236407      -523.4492
   3   2.0000     -19.218383      -522.9588
   4   2.0000     -14.392077      -391.6283
   5   2.0000     -10.325126      -280.9610
   6   2.0000     -10.287000      -279.9235
   7   2.0000     -10.263498      -279.2840
   8   2.0000     -10.257222      -279.1132
   9   2.0000     -10.249097      -278.8921
  10   2.0000     -10.245542      -278.7954
  11   2.0000     -10.245272      -278.7880
  12   2.0000     -10.244518      -278.7675
  13   2.0000     -10.239816      -278.6396
  14   2.0000     -10.239614      -278.6341
  15   2.0000     -10.161242      -276.5014
  16   2.0000      -8.279150      -225.2871
  17   2.0000      -6.253136      -170.1565
  18   2.0000      -6.247152      -169.9937
  19   2.0000      -6.245518      -169.9492
  20   2.0000      -1.449299       -39.4374
  21   2.0000      -1.199746       -32.6467
  22   2.0000      -1.094376       -29.7795
  23   2.0000      -0.987496       -26.8711
  24   2.0000      -0.919290       -25.0151
  25   2.0000      -0.886650       -24.1270
  26   2.0000      -0.859071       -23.3765
  27   2.0000      -0.834649       -22.7120
  28   2.0000      -0.801375       -21.8065
  29   2.0000      -0.782158       -21.2836
  30   2.0000      -0.757305       -20.6073
  31   2.0000      -0.727469       -19.7954
  32   2.0000      -0.693961       -18.8837
  33   2.0000      -0.675445       -18.3798
  34   2.0000      -0.664595       -18.0845
  35   2.0000      -0.645955       -17.5773
  36   2.0000      -0.639993       -17.4151
  37   2.0000      -0.624886       -17.0040
  38   2.0000      -0.610801       -16.6207
  39   2.0000      -0.586093       -15.9484
  40   2.0000      -0.570467       -15.5232
  41   2.0000      -0.567488       -15.4421
  42   2.0000      -0.551163       -14.9979
  43   2.0000      -0.540997       -14.7213
  44   2.0000      -0.529755       -14.4154
  45   2.0000      -0.520411       -14.1611
  46   2.0000      -0.515763       -14.0346
  47   2.0000      -0.496343       -13.5062
  48   2.0000      -0.485125       -13.2009
  49   2.0000      -0.479050       -13.0356
  50   2.0000      -0.477242       -12.9864
  51   2.0000      -0.462305       -12.5800
  52   2.0000      -0.456702       -12.4275
  53   2.0000      -0.438717       -11.9381
  54   2.0000      -0.432629       -11.7724
  55   2.0000      -0.424875       -11.5614
  56   2.0000      -0.417724       -11.3669
  57   2.0000      -0.409583       -11.1453
  58   2.0000      -0.406729       -11.0677
  59   2.0000      -0.401869       -10.9354
  60   2.0000      -0.389503       -10.5989
  61   2.0000      -0.388281       -10.5657
  62   2.0000      -0.386090       -10.5060
  63   2.0000      -0.371965       -10.1217
  64   2.0000      -0.367224        -9.9927
  65   2.0000      -0.363565        -9.8931
  66   2.0000      -0.335118        -9.1190
  67   2.0000      -0.237985        -6.4759
  68   0.0000       0.030128         0.8198
  69   0.0000       0.048467         1.3188
  70   0.0000       0.053173         1.4469
  71   0.0000       0.058107         1.5812
  72   0.0000       0.067580         1.8390

MULLIKEN ATOMIC CHARGES
-----------------------
   0 C :    1.004373
   1 C :    0.619023
   2 C :    0.077508
   3 H :    0.181513
   4 H :   -0.268034
   5 S :    1.570849
   6 C :    0.054889
   7 N :    0.284587
   8 C :    1.323157
   9 H :   -0.329192
  10 H :   -1.197198
  11 H :   -0.187238
  12 H :   -0.234150
  13 O :   -0.872114
  14 F :   -0.487174
  15 C :    0.533418
  16 C :    0.142811
  17 C :    0.411320
  18 H :    0.012969
  19 H :   -0.402538
  20 H :    0.003519
  21 H :   -0.077514
  22 C :    0.045492
  23 H :   -0.191232
  24 H :   -0.718710
  25 C :    0.781283
  26 H :    0.103774
  27 H :   -0.414428
  28 C :    0.261026
  29 H :   -0.042681
  30 H :   -0.125844
  31 H :   -0.045270
  32 H :   -0.442611
  33 H :   -0.398023
  34 H :    0.025607
  35 O :   -0.750784
  36 H :   -0.208612
  37 H :   -0.043770
Sum of atomic charges:   -0.0000000

LOEWDIN ATOMIC CHARGES
----------------------
   0 C :    0.016241
   1 C :   -0.015515
   2 C :   -0.044400
   3 H :    0.018395
   4 H :    0.031199
   5 S :    1.170036
   6 C :   -0.236785
   7 N :    0.176594
   8 C :    0.171638
   9 H :   -0.166369
  10 H :   -0.096463
  11 H :   -0.019438
  12 H :   -0.003677
  13 O :   -0.461685
  14 F :   -0.255809
  15 C :   -0.016661
  16 C :   -0.033056
  17 C :   -0.025336
  18 H :    0.016614
  19 H :    0.030482
  20 H :    0.038061
  21 H :    0.032122
  22 C :   -0.032433
  23 H :    0.028425
  24 H :   -0.002357
  25 C :   -0.032317
  26 H :    0.012558
  27 H :    0.021592
  28 C :   -0.030471
  29 H :    0.021045
  30 H :    0.019881
  31 H :    0.036848
  32 H :   -0.014868
  33 H :    0.023274
  34 H :    0.021028
  35 O :   -0.443079
  36 H :    0.032181
  37 H :    0.012509

  Mayer bond orders larger than 0.100000
B(  0-C ,  6-C ) :   0.9588 B(  0-C ,  8-C ) :   0.1712 B(  0-C ,  9-H ) :  -0.1662
B(  0-C , 15-C ) :   1.1787 B(  0-C , 24-H ) :   0.1257 B(  0-C , 36-H ) :   0.4829
B(  0-C , 37-H ) :   0.6296 B(  1-C ,  2-C ) :   1.2479 B(  1-C ,  3-H ) :   0.1077
B(  1-C ,  4-H ) :   0.1787 B(  1-C , 17-C ) :   1.1828 B(  1-C , 20-H ) :   0.6668
B(  1-C , 21-H ) :   0.6184 B(  2-C ,  3-H ) :   0.8031 B(  2-C ,  4-H ) :   0.8073
B(  2-C ,  5-S ) :   0.9864 B(  2-C , 20-H ) :   0.2196 B(  2-C , 21-H ) :   0.1264
B(  2-C , 35-O ) :   0.1167 B(  5-S , 13-O ) :   1.2970 B(  5-S , 14-F ) :   0.6287
B(  5-S , 35-O ) :   1.4983 B(  6-C ,  7-N ) :   0.8838 B(  6-C ,  8-C ) :   2.0216
B(  6-C ,  9-H ) :  -0.2213 B(  6-C , 10-H ) :   0.1866 B(  6-C , 12-H ) :  -0.1506
B(  6-C , 36-H ) :   0.3024 B(  6-C , 37-H ) :   0.1452 B(  7-N ,  8-C ) :   0.4897
B(  7-N ,  9-H ) :   0.1185 B(  7-N , 10-H ) :  -0.1165 B(  7-N , 11-H ) :   1.1349
B(  7-N , 12-H ) :   1.2966 B(  8-C ,  9-H ) :   0.3235 B(  8-C , 10-H ) :  -0.5180
B(  8-C , 14-F ) :  -0.1764 B(  8-C , 24-H ) :   0.1766 B(  9-H , 10-H ) :  -0.2602
B(  9-H , 14-F ) :   0.1035 B(  9-H , 24-H ) :   0.1387 B( 10-H , 14-F ) :   0.2633
B( 10-H , 24-H ) :  -0.1459 B( 11-H , 12-H ) :  -0.1638 B( 13-O , 24-H ) :   0.1934
B( 13-O , 35-O ) :   0.1432 B( 15-C , 22-C ) :   1.1651 B( 15-C , 23-H ) :   0.6772
B( 15-C , 24-H ) :   0.5015 B( 15-C , 26-H ) :   0.1465 B( 15-C , 27-H ) :   0.1962
B( 15-C , 36-H ) :   0.3456 B( 15-C , 37-H ) :   0.1916 B( 16-C , 17-C ) :   1.1786
B( 16-C , 18-H ) :   0.1447 B( 16-C , 19-H ) :   0.1770 B( 16-C , 28-C ) :   1.2062
B( 16-C , 31-H ) :   0.7363 B( 16-C , 32-H ) :   0.9254 B( 16-C , 33-H ) :   0.2210
B( 16-C , 34-H ) :   0.1623 B( 17-C , 18-H ) :   0.8218 B( 17-C , 19-H ) :   0.7851
B( 17-C , 20-H ) :   0.1046 B( 17-C , 21-H ) :   0.2806 B( 17-C , 28-C ) :   0.1618
B( 17-C , 31-H ) :   0.1016 B( 20-H , 21-H ) :  -0.1205 B( 22-C , 23-H ) :   0.1685
B( 22-C , 24-H ) :   0.2239 B( 22-C , 25-C ) :   1.0670 B( 22-C , 26-H ) :   0.8263
B( 22-C , 27-H ) :   1.0130 B( 22-C , 28-C ) :   0.1495 B( 22-C , 29-H ) :   0.1685
B( 22-C , 30-H ) :   0.2784 B( 25-C , 28-C ) :   1.1031 B( 25-C , 29-H ) :   0.6121
B( 25-C , 30-H ) :   0.6350 B( 26-H , 32-H ) :   0.1714 B( 28-C , 29-H ) :   0.2522
B( 28-C , 30-H ) :   0.1241 B( 28-C , 31-H ) :   0.1215 B( 28-C , 33-H ) :   0.8970
B( 28-C , 34-H ) :   0.7953 B( 29-H , 30-H ) :  -0.1274 B( 31-H , 32-H ) :   0.1192
B( 36-H , 37-H ) :  -0.1448

FINAL SINGLE POINT ENERGY     -1134.555653697665

DIPOLE MOMENT
-------------
                                X             Y             Z
Electronic contribution:    -11.71953     -18.15311     -14.57171
Nuclear contribution   :     10.61624      18.49702      15.75668
                        -----------------------------------------
Total Dipole Moment    :     -1.10328       0.34391       1.18497
                        -----------------------------------------
Magnitude (a.u.)       :      1.65519
Magnitude (Debye)      :      4.20717

Rotational constants in cm-1:     0.017796     0.012372     0.008231
Rotational constants in MHz :   533.524905   370.895973   246.762347

                             ****ORCA TERMINATED NORMALLY****
TOTAL RUN TIME: 0 days 0 hours 7 minutes 13 seconds 977 msec
