                         Program Version 5.0.0 -  RELEASE  -
|  1> !CAM-B3LYP RIJCOSX def2-SVPD def2/J TightSCF xyzfile
|  2>
|  3> *xyzfile 0 1 D6.xyz
|  4>
|  5> %MaxCore 64000
|  6>
|  7> %pal nprocs 4
|  8> end
|  9>
| 10> %scf
| 11>   MaxIter 150
| 12> end
| 13>
| 14>
| 15>                          ****END OF INPUT****

CARTESIAN COORDINATES (ANGSTROEM)
---------------------------------
  C      5.558206   -1.992914   -6.215054
  C      4.930199   -7.375319   -2.649623
  C      3.841892   -6.951611   -3.632829
  H      3.458144   -5.954425   -3.407121
  H      2.988484   -7.643606   -3.567078
  S      4.318115   -6.915930   -5.368692
  C      4.181880   -2.589671   -6.298911
  N      3.145873   -1.768431   -6.486753
  C      4.019102   -3.864307   -6.227427
  H      4.768490   -4.591153   -5.990773
  H      3.122405   -4.333392   -6.314620
  H      3.281635   -0.777786   -6.566549
  H      2.212549   -2.134193   -6.562246
  O      5.406154   -5.899480   -5.512972
  O      3.111910   -6.445079   -6.043792
  C      6.419260   -2.542944   -5.077630
  C      5.872267   -5.002756   -2.427819
  C      6.173994   -6.485522   -2.606315
  H      6.734852   -6.613767   -3.534015
  H      6.821463   -6.831018   -1.793617
  H      4.469612   -7.406168   -1.655876
  H      5.230134   -8.398678   -2.885906
  C      5.896512   -2.169314   -3.694552
  H      7.428880   -2.143665   -5.208078
  H      6.505894   -3.627541   -5.175502
  C      6.807804   -2.623428   -2.551019
  H      4.894708   -2.589732   -3.557501
  H      5.778823   -1.081255   -3.635790
  C      7.111544   -4.122463   -2.520363
  H      7.751615   -2.071393   -2.614406
  H      6.345837   -2.326401   -1.604086
  H      5.362882   -4.828697   -1.471335
  H      5.174429   -4.702577   -3.211298
  H      7.778329   -4.329347   -1.677651
  H      7.673189   -4.402845   -3.417586
  F      4.763396   -8.239424   -5.698629
  H      6.036826   -2.198189   -7.176852
  H      5.467610   -0.907371   -6.127968

 Total Charge           Charge          ....    0
 Multiplicity           Mult            ....    1
 Number of Electrons    NEL             ....  136
 Basis Dimension        Dim             ....  512

ORBITAL ENERGIES
----------------

  NO   OCC          E(Eh)            E(eV)
   0   2.0000     -89.229083     -2428.0468
   1   2.0000     -24.903149      -677.6491
   2   2.0000     -19.227270      -523.2006
   3   2.0000     -19.222293      -523.0652
   4   2.0000     -14.379519      -391.2866
   5   2.0000     -10.326166      -280.9893
   6   2.0000     -10.289918      -280.0029
   7   2.0000     -10.261219      -279.2220
   8   2.0000     -10.250087      -278.9191
   9   2.0000     -10.248326      -278.8711
  10   2.0000     -10.245515      -278.7946
  11   2.0000     -10.242633      -278.7162
  12   2.0000     -10.236872      -278.5594
  13   2.0000     -10.235670      -278.5267
  14   2.0000     -10.234533      -278.4958
  15   2.0000     -10.145205      -276.0651
  16   2.0000      -8.281348      -225.3469
  17   2.0000      -6.255687      -170.2259
  18   2.0000      -6.249013      -170.0443
  19   2.0000      -6.247593      -170.0057
  20   2.0000      -1.472745       -40.0754
  21   2.0000      -1.192258       -32.4430
  22   2.0000      -1.086340       -29.5608
  23   2.0000      -0.974795       -26.5255
  24   2.0000      -0.923164       -25.1206
  25   2.0000      -0.884995       -24.0819
  26   2.0000      -0.856367       -23.3029
  27   2.0000      -0.832875       -22.6637
  28   2.0000      -0.804652       -21.8957
  29   2.0000      -0.780433       -21.2367
  30   2.0000      -0.754458       -20.5298
  31   2.0000      -0.723981       -19.7005
  32   2.0000      -0.695396       -18.9227
  33   2.0000      -0.680361       -18.5136
  34   2.0000      -0.678327       -18.4582
  35   2.0000      -0.658463       -17.9177
  36   2.0000      -0.631434       -17.1822
  37   2.0000      -0.621677       -16.9167
  38   2.0000      -0.601369       -16.3641
  39   2.0000      -0.576082       -15.6760
  40   2.0000      -0.571447       -15.5499
  41   2.0000      -0.563944       -15.3457
  42   2.0000      -0.545725       -14.8499
  43   2.0000      -0.540596       -14.7104
  44   2.0000      -0.532665       -14.4946
  45   2.0000      -0.520611       -14.1666
  46   2.0000      -0.515788       -14.0353
  47   2.0000      -0.491199       -13.3662
  48   2.0000      -0.486945       -13.2505
  49   2.0000      -0.480935       -13.0869
  50   2.0000      -0.480371       -13.0716
  51   2.0000      -0.460436       -12.5291
  52   2.0000      -0.442145       -12.0314
  53   2.0000      -0.435151       -11.8411
  54   2.0000      -0.423742       -11.5306
  55   2.0000      -0.416215       -11.3258
  56   2.0000      -0.413811       -11.2604
  57   2.0000      -0.406769       -11.0688
  58   2.0000      -0.398393       -10.8408
  59   2.0000      -0.394123       -10.7246
  60   2.0000      -0.387280       -10.5384
  61   2.0000      -0.384160       -10.4535
  62   2.0000      -0.381607       -10.3841
  63   2.0000      -0.369642       -10.0585
  64   2.0000      -0.364137        -9.9087
  65   2.0000      -0.358105        -9.7445
  66   2.0000      -0.332200        -9.0396
  67   2.0000      -0.223538        -6.0828
  68   0.0000       0.023363         0.6357
  69   0.0000       0.048757         1.3267
  70   0.0000       0.054649         1.4871
  71   0.0000       0.060069         1.6346
  72   0.0000       0.067331         1.8322

MULLIKEN ATOMIC CHARGES
-----------------------
   0 C :    1.009648
   1 C :    0.652582
   2 C :    0.101089
   3 H :    0.174710
   4 H :   -0.285896
   5 S :    1.617706
   6 C :    0.037476
   7 N :    0.287960
   8 C :    1.410599
   9 H :   -0.337756
  10 H :   -1.251341
  11 H :   -0.191214
  12 H :   -0.235176
  13 O :   -0.898236
  14 O :   -0.716805
  15 C :    0.526546
  16 C :    0.145634
  17 C :    0.435416
  18 H :    0.014475
  19 H :   -0.401064
  20 H :   -0.010405
  21 H :   -0.101038
  22 C :    0.045639
  23 H :   -0.187389
  24 H :   -0.714426
  25 C :    0.779371
  26 H :    0.105302
  27 H :   -0.410889
  28 C :    0.254420
  29 H :   -0.044352
  30 H :   -0.126024
  31 H :   -0.038034
  32 H :   -0.459646
  33 H :   -0.394866
  34 H :    0.028546
  35 F :   -0.562888
  36 H :   -0.214282
  37 H :   -0.045390
Sum of atomic charges:    0.0000000

LOEWDIN ATOMIC CHARGES
----------------------
   0 C :    0.013782
   1 C :   -0.030983
   2 C :   -0.034560
   3 H :    0.032223
   4 H :    0.032039
   5 S :    1.183848
   6 C :   -0.240706
   7 N :    0.173588
   8 C :    0.182854
   9 H :   -0.159654
  10 H :   -0.098332
  11 H :   -0.022932
  12 H :   -0.004010
  13 O :   -0.465970
  14 O :   -0.453318
  15 C :   -0.018640
  16 C :   -0.031067
  17 C :   -0.030404
  18 H :    0.010911
  19 H :    0.029679
  20 H :    0.035887
  21 H :    0.025020
  22 C :   -0.031942
  23 H :    0.026979
  24 H :   -0.003850
  25 C :   -0.032688
  26 H :    0.013274
  27 H :    0.021766
  28 C :   -0.030997
  29 H :    0.020784
  30 H :    0.019642
  31 H :    0.037660
  32 H :   -0.012939
  33 H :    0.022657
  34 H :    0.020477
  35 F :   -0.241207
  36 H :    0.030099
  37 H :    0.011031

  Mayer bond orders larger than 0.100000
B(  0-C ,  6-C ) :   0.9447 B(  0-C ,  8-C ) :   0.1761 B(  0-C ,  9-H ) :  -0.1573
B(  0-C , 15-C ) :   1.1772 B(  0-C , 24-H ) :   0.1267 B(  0-C , 36-H ) :   0.4803
B(  0-C , 37-H ) :   0.6310 B(  1-C ,  2-C ) :   1.2020 B(  1-C ,  4-H ) :   0.1681
B(  1-C , 17-C ) :   1.1851 B(  1-C , 20-H ) :   0.6744 B(  1-C , 21-H ) :   0.6039
B(  2-C ,  3-H ) :   0.8317 B(  2-C ,  4-H ) :   0.7929 B(  2-C ,  5-S ) :   0.9951
B(  2-C , 20-H ) :   0.1995 B(  2-C , 21-H ) :   0.1177 B(  2-C , 35-F ) :   0.1287
B(  4-H ,  5-S ) :   0.1277 B(  5-S , 13-O ) :   1.2817 B(  5-S , 14-O ) :   1.4766
B(  5-S , 35-F ) :   0.5314 B(  6-C ,  7-N ) :   0.8831 B(  6-C ,  8-C ) :   2.0151
B(  6-C ,  9-H ) :  -0.2339 B(  6-C , 10-H ) :   0.1813 B(  6-C , 12-H ) :  -0.1480
B(  6-C , 36-H ) :   0.3008 B(  6-C , 37-H ) :   0.1355 B(  7-N ,  8-C ) :   0.4896
B(  7-N ,  9-H ) :   0.1161 B(  7-N , 10-H ) :  -0.1223 B(  7-N , 11-H ) :   1.1332
B(  7-N , 12-H ) :   1.2980 B(  8-C ,  9-H ) :   0.2652 B(  8-C , 10-H ) :  -0.5657
B(  8-C , 14-O ) :  -0.2331 B(  8-C , 24-H ) :   0.1731 B(  9-H , 10-H ) :  -0.2184
B(  9-H , 24-H ) :   0.1376 B( 10-H , 14-O ) :   0.3617 B( 10-H , 24-H ) :  -0.1550
B( 11-H , 12-H ) :  -0.1622 B( 13-O , 14-O ) :   0.1507 B( 13-O , 24-H ) :   0.1821
B( 15-C , 22-C ) :   1.1659 B( 15-C , 23-H ) :   0.6793 B( 15-C , 24-H ) :   0.5036
B( 15-C , 26-H ) :   0.1455 B( 15-C , 27-H ) :   0.1982 B( 15-C , 36-H ) :   0.3457
B( 15-C , 37-H ) :   0.1932 B( 16-C , 17-C ) :   1.1844 B( 16-C , 18-H ) :   0.1473
B( 16-C , 19-H ) :   0.1670 B( 16-C , 28-C ) :   1.2103 B( 16-C , 31-H ) :   0.7276
B( 16-C , 32-H ) :   0.9238 B( 16-C , 33-H ) :   0.2210 B( 16-C , 34-H ) :   0.1613
B( 17-C , 18-H ) :   0.8176 B( 17-C , 19-H ) :   0.7790 B( 17-C , 20-H ) :   0.1068
B( 17-C , 21-H ) :   0.2826 B( 17-C , 28-C ) :   0.1608 B( 17-C , 31-H ) :   0.1036
B( 20-H , 21-H ) :  -0.1249 B( 22-C , 23-H ) :   0.1681 B( 22-C , 24-H ) :   0.2227
B( 22-C , 25-C ) :   1.0665 B( 22-C , 26-H ) :   0.8290 B( 22-C , 27-H ) :   1.0098
B( 22-C , 28-C ) :   0.1484 B( 22-C , 29-H ) :   0.1691 B( 22-C , 30-H ) :   0.2782
B( 25-C , 28-C ) :   1.1036 B( 25-C , 29-H ) :   0.6109 B( 25-C , 30-H ) :   0.6363
B( 26-H , 32-H ) :   0.1733 B( 28-C , 29-H ) :   0.2521 B( 28-C , 30-H ) :   0.1234
B( 28-C , 31-H ) :   0.1202 B( 28-C , 33-H ) :   0.8983 B( 28-C , 34-H ) :   0.7950
B( 29-H , 30-H ) :  -0.1268 B( 31-H , 32-H ) :   0.1243 B( 36-H , 37-H ) :  -0.1458

FINAL SINGLE POINT ENERGY     -1134.542373160644

DIPOLE MOMENT
-------------
                                X             Y             Z
Electronic contribution:     -8.83531     -21.52468     -13.96650
Nuclear contribution   :      8.67311      20.60825      15.35056
                        -----------------------------------------
Total Dipole Moment    :     -0.16220      -0.91643       1.38406
                        -----------------------------------------
Magnitude (a.u.)       :      1.66787
Magnitude (Debye)      :      4.23939

Rotational constants in cm-1:     0.017976     0.012151     0.008188
Rotational constants in MHz :   538.898457   364.286417   245.482451

                             ****ORCA TERMINATED NORMALLY****
TOTAL RUN TIME: 0 days 0 hours 7 minutes 13 seconds 645 msec
