                         Program Version 5.0.0 -  RELEASE  -
|  1> !TPSS D3BJ RIJCOSX def2-TZVP def2/J TightSCF
|  2> *xyz -1 1
|  3> C         -5.57236       -5.80780       -0.81644
|  4> S         -6.90318       -4.61903       -0.52846
|  5> O         -8.11485       -5.25093       -0.95701
|  6> O         -6.53271       -3.42684       -1.31485
|  7> O         -6.86563       -4.29496        0.91412
|  8> C         -4.45780       -5.94187        0.22919
|  9> H         -5.17735       -5.54257       -1.79771
| 10> H         -6.07420       -6.76889       -0.92127
| 11> H         -3.75515       -6.68239       -0.09144
| 12> H         -4.88182       -6.23486        1.16689
| 13> H         -3.95908       -5.00189        0.34143
| 14> *
| 15> %MaxCore 64000
| 16>
| 17> %pal nprocs 4
| 18> end
| 19>
| 20> %scf
| 21>   MaxIter 150
| 22> end
| 23>
| 24>                          ****END OF INPUT****

CARTESIAN COORDINATES (ANGSTROEM)
---------------------------------
  C     -5.572360   -5.807800   -0.816440
  S     -6.903180   -4.619030   -0.528460
  O     -8.114850   -5.250930   -0.957010
  O     -6.532710   -3.426840   -1.314850
  O     -6.865630   -4.294960    0.914120
  C     -4.457800   -5.941870    0.229190
  H     -5.177350   -5.542570   -1.797710
  H     -6.074200   -6.768890   -0.921270
  H     -3.755150   -6.682390   -0.091440
  H     -4.881820   -6.234860    1.166890
  H     -3.959080   -5.001890    0.341430

 Total Charge           Charge          ....   -1
 Multiplicity           Mult            ....    1
 Number of Electrons    NEL             ....   58
 Basis Dimension        Dim             ....  222

ORBITAL ENERGIES
----------------

  NO   OCC          E(Eh)            E(eV)
   0   2.0000     -88.318399     -2403.2658
   1   2.0000     -18.656678      -507.6740
   2   2.0000     -18.643105      -507.3047
   3   2.0000     -18.641829      -507.2699
   4   2.0000      -9.839962      -267.7590
   5   2.0000      -9.839730      -267.7527
   6   2.0000      -7.666830      -208.6250
   7   2.0000      -5.646427      -153.6471
   8   2.0000      -5.645482      -153.6214
   9   2.0000      -5.645308      -153.6167
  10   2.0000      -0.836586       -22.7647
  11   2.0000      -0.713233       -19.4081
  12   2.0000      -0.690829       -18.7984
  13   2.0000      -0.570008       -15.5107
  14   2.0000      -0.452936       -12.3250
  15   2.0000      -0.324530        -8.8309
  16   2.0000      -0.271880        -7.3982
  17   2.0000      -0.259004        -7.0479
  18   2.0000      -0.223985        -6.0949
  19   2.0000      -0.205931        -5.6037
  20   2.0000      -0.202831        -5.5193
  21   2.0000      -0.178894        -4.8679
  22   2.0000      -0.175493        -4.7754
  23   2.0000      -0.095711        -2.6044
  24   2.0000      -0.093247        -2.5374
  25   2.0000      -0.066349        -1.8054
  26   2.0000      -0.055374        -1.5068
  27   2.0000      -0.047561        -1.2942
  28   2.0000      -0.010737        -0.2922
  29   0.0000       0.162199         4.4137
  30   0.0000       0.208932         5.6853
  31   0.0000       0.220034         5.9874
  32   0.0000       0.225278         6.1301
  33   0.0000       0.245920         6.6918

MULLIKEN ATOMIC CHARGES
-----------------------
   0 C :   -0.235950
   1 S :    0.758302
   2 O :   -0.516179
   3 O :   -0.562934
   4 O :   -0.565037
   5 C :   -0.295435
   6 H :    0.080973
   7 H :    0.075893
   8 H :    0.061474
   9 H :    0.102221
  10 H :    0.096673
Sum of atomic charges:   -1.0000000

LOEWDIN ATOMIC CHARGES
----------------------
   0 C :   -0.428378
   1 S :    0.379998
   2 O :   -0.349330
   3 O :   -0.407198
   4 O :   -0.403037
   5 C :   -0.335356
   6 H :    0.114921
   7 H :    0.113029
   8 H :    0.095500
   9 H :    0.109955
  10 H :    0.109898

  Mayer bond orders larger than 0.100000
B(  0-C ,  1-S ) :   0.8656 B(  0-C ,  5-C ) :   0.9939 B(  0-C ,  6-H ) :   0.9530
B(  0-C ,  7-H ) :   0.9474 B(  1-S ,  2-O ) :   1.8279 B(  1-S ,  3-O ) :   1.7747
B(  1-S ,  4-O ) :   1.7571 B(  5-C ,  8-H ) :   0.9525 B(  5-C ,  9-H ) :   0.9686
B(  5-C , 10-H ) :   0.9714

Dispersion correction           -0.011938165
FINAL SINGLE POINT ENERGY      -703.368263897964

DIPOLE MOMENT
-------------
                                X             Y             Z
Electronic contribution:     -6.80545       4.42297      -0.91213
Nuclear contribution   :      8.13140      -5.68016       0.80206
                        -----------------------------------------
Total Dipole Moment    :      1.32595      -1.25719      -0.11007
                        -----------------------------------------
Magnitude (a.u.)       :      1.83052
Magnitude (Debye)      :      4.65280

Rotational constants in cm-1:     0.162101     0.080498     0.079099
Rotational constants in MHz :  4859.669771  2413.267251  2371.338602

                             ****ORCA TERMINATED NORMALLY****
TOTAL RUN TIME: 0 days 0 hours 0 minutes 11 seconds 788 msec
