                         Program Version 5.0.0 -  RELEASE  -
|  1> !TPSS D3BJ RIJCOSX def2-TZVP def2/J TightSCF
|  2> *xyz 1 1
|  3> C         -4.38262       -1.67089        1.21620
|  4> N         -5.76354       -1.91517        0.70501
|  5> C         -3.28173       -2.19127        0.29436
|  6> H         -5.84081       -2.11520       -0.30065
|  7> H         -6.40882       -1.14866        0.93612
|  8> H         -6.17478       -2.79061        1.05143
|  9> H         -4.32862       -2.13922        2.19810
| 10> H         -4.26158       -0.59740        1.35725
| 11> H         -3.36057       -1.71407       -0.66008
| 12> H         -3.38775       -3.24919        0.17403
| 13> H         -2.32559       -1.97514        0.72329
| 14> *
| 15> %MaxCore 64000
| 16>
| 17> %pal nprocs 4
| 18> end
| 19>
| 20> %scf
| 21>   MaxIter 150
| 22> end
| 23>
| 24>                          ****END OF INPUT****

CARTESIAN COORDINATES (ANGSTROEM)
---------------------------------
  C     -4.382620   -1.670890    1.216200
  N     -5.763540   -1.915170    0.705010
  C     -3.281730   -2.191270    0.294360
  H     -5.840810   -2.115200   -0.300650
  H     -6.408820   -1.148660    0.936120
  H     -6.174780   -2.790610    1.051430
  H     -4.328620   -2.139220    2.198100
  H     -4.261580   -0.597400    1.357250
  H     -3.360570   -1.714070   -0.660080
  H     -3.387750   -3.249190    0.174030
  H     -2.325590   -1.975140    0.723290

 Total Charge           Charge          ....    1
 Multiplicity           Mult            ....    1
 Number of Electrons    NEL             ....   26
 Basis Dimension        Dim             ....  141

ORBITAL ENERGIES
----------------

  NO   OCC          E(Eh)            E(eV)
   0   2.0000     -14.435742      -392.8165
   1   2.0000     -10.239448      -278.6296
   2   2.0000     -10.160598      -276.4839
   3   2.0000      -1.155469       -31.4419
   4   2.0000      -0.912942       -24.8424
   5   2.0000      -0.801059       -21.7979
   6   2.0000      -0.752268       -20.4703
   7   2.0000      -0.731416       -19.9028
   8   2.0000      -0.661386       -17.9972
   9   2.0000      -0.601242       -16.3606
  10   2.0000      -0.545882       -14.8542
  11   2.0000      -0.529697       -14.4138
  12   2.0000      -0.513970       -13.9858
  13   0.0000      -0.209238        -5.6936
  14   0.0000      -0.155611        -4.2344
  15   0.0000      -0.150026        -4.0824
  16   0.0000      -0.126290        -3.4365
  17   0.0000      -0.089924        -2.4470

MULLIKEN ATOMIC CHARGES
-----------------------
   0 C :   -0.175797
   1 N :   -0.299684
   2 C :   -0.359991
   3 H :    0.319526
   4 H :    0.335813
   5 H :    0.323478
   6 H :    0.186947
   7 H :    0.185624
   8 H :    0.154071
   9 H :    0.149824
  10 H :    0.180188
Sum of atomic charges:    1.0000000

LOEWDIN ATOMIC CHARGES
----------------------
   0 C :   -0.266315
   1 N :    0.169856
   2 C :   -0.268586
   3 H :    0.217932
   4 H :    0.222569
   5 H :    0.220089
   6 H :    0.150548
   7 H :    0.151310
   8 H :    0.128625
   9 H :    0.127816
  10 H :    0.146158

  Mayer bond orders larger than 0.100000
B(  0-C ,  1-N ) :   0.8631 B(  0-C ,  2-C ) :   1.0347 B(  0-C ,  6-H ) :   0.9480
B(  0-C ,  7-H ) :   0.9479 B(  1-N ,  3-H ) :   0.8754 B(  1-N ,  4-H ) :   0.8734
B(  1-N ,  5-H ) :   0.8809 B(  2-C ,  8-H ) :   0.9542 B(  2-C ,  9-H ) :   0.9585
B(  2-C , 10-H ) :   0.9475

Dispersion correction           -0.007377888
FINAL SINGLE POINT ENERGY      -135.609832148898

DIPOLE MOMENT
-------------
                                X             Y             Z
Electronic contribution:     -1.79409       0.24095       0.30568
Nuclear contribution   :      0.19437      -0.25358      -0.32106
                        -----------------------------------------
Total Dipole Moment    :     -1.59973      -0.01263      -0.01538
                        -----------------------------------------
Magnitude (a.u.)       :      1.59985
Magnitude (Debye)      :      4.06650

Rotational constants in cm-1:     1.030014     0.272489     0.242697
Rotational constants in MHz : 30879.030706  8169.007780  7275.865152

                             ****ORCA TERMINATED NORMALLY****
TOTAL RUN TIME: 0 days 0 hours 0 minutes 9 seconds 9 msec
