                         Program Version 5.0.0 -  RELEASE  -
|  1> !TPSS D3BJ RIJCOSX def2-TZVP def2/J TightSCF
|  2> *xyz 0 1
|  3> C         -5.57236       -5.80780       -0.81644
|  4> S         -6.90318       -4.61903       -0.52846
|  5> F         -8.11485       -5.25093       -0.95701
|  6> O         -6.53271       -3.42684       -1.31485
|  7> O         -6.86563       -4.29496        0.91412
|  8> C         -4.45780       -5.94187        0.22919
|  9> H         -5.17735       -5.54257       -1.79771
| 10> H         -6.07420       -6.76889       -0.92127
| 11> H         -3.75515       -6.68239       -0.09144
| 12> H         -4.88182       -6.23486        1.16689
| 13> H         -3.95908       -5.00189        0.34143
| 14> *
| 15> %MaxCore 64000
| 16>
| 17> %pal nprocs 4
| 18> end
| 19>
| 20> %scf
| 21>   MaxIter 150
| 22> end
| 23>
| 24>                          ****END OF INPUT****

CARTESIAN COORDINATES (ANGSTROEM)
---------------------------------
  C     -5.572360   -5.807800   -0.816440
  S     -6.903180   -4.619030   -0.528460
  F     -8.114850   -5.250930   -0.957010
  O     -6.532710   -3.426840   -1.314850
  O     -6.865630   -4.294960    0.914120
  C     -4.457800   -5.941870    0.229190
  H     -5.177350   -5.542570   -1.797710
  H     -6.074200   -6.768890   -0.921270
  H     -3.755150   -6.682390   -0.091440
  H     -4.881820   -6.234860    1.166890
  H     -3.959080   -5.001890    0.341430

 Total Charge           Charge          ....    0
 Multiplicity           Mult            ....    1
 Number of Electrons    NEL             ....   58
 Basis Dimension        Dim             ....  222

ORBITAL ENERGIES
----------------

  NO   OCC          E(Eh)            E(eV)
   0   2.0000     -88.583084     -2410.4683
   1   2.0000     -24.529100      -667.4707
   2   2.0000     -18.882765      -513.8261
   3   2.0000     -18.882538      -513.8200
   4   2.0000     -10.044965      -273.3374
   5   2.0000     -10.004999      -272.2499
   6   2.0000      -7.932320      -215.8494
   7   2.0000      -5.915567      -160.9708
   8   2.0000      -5.908785      -160.7862
   9   2.0000      -5.908495      -160.7783
  10   2.0000      -1.307059       -35.5669
  11   2.0000      -1.016635       -27.6640
  12   2.0000      -0.925114       -25.1736
  13   2.0000      -0.761548       -20.7228
  14   2.0000      -0.680028       -18.5045
  15   2.0000      -0.624046       -16.9812
  16   2.0000      -0.533953       -14.5296
  17   2.0000      -0.529328       -14.4037
  18   2.0000      -0.502321       -13.6688
  19   2.0000      -0.449449       -12.2301
  20   2.0000      -0.429799       -11.6954
  21   2.0000      -0.396659       -10.7936
  22   2.0000      -0.383916       -10.4469
  23   2.0000      -0.365784        -9.9535
  24   2.0000      -0.353390        -9.6162
  25   2.0000      -0.332044        -9.0354
  26   2.0000      -0.281549        -7.6613
  27   2.0000      -0.277240        -7.5441
  28   2.0000      -0.254278        -6.9193
  29   0.0000      -0.005712        -0.1554
  30   0.0000       0.006274         0.1707
  31   0.0000       0.031319         0.8522
  32   0.0000       0.045507         1.2383
  33   0.0000       0.060010         1.6330

MULLIKEN ATOMIC CHARGES
-----------------------
   0 C :   -0.240854
   1 S :    0.771397
   2 F :   -0.067266
   3 O :   -0.406721
   4 O :   -0.411407
   5 C :   -0.312932
   6 H :    0.150614
   7 H :    0.119089
   8 H :    0.127692
   9 H :    0.133643
  10 H :    0.136745
Sum of atomic charges:   -0.0000000

LOEWDIN ATOMIC CHARGES
----------------------
   0 C :   -0.392930
   1 S :    0.495448
   2 F :    0.118407
   3 O :   -0.283344
   4 O :   -0.282589
   5 C :   -0.293167
   6 H :    0.139645
   7 H :    0.129029
   8 H :    0.122599
   9 H :    0.122645
  10 H :    0.124257

  Mayer bond orders larger than 0.100000
B(  0-C ,  1-S ) :   0.9013 B(  0-C ,  5-C ) :   1.0186 B(  0-C ,  6-H ) :   0.9311
B(  0-C ,  7-H ) :   0.9312 B(  1-S ,  2-F ) :   1.1678 B(  1-S ,  3-O ) :   1.9174
B(  1-S ,  4-O ) :   1.9052 B(  5-C ,  8-H ) :   0.9478 B(  5-C ,  9-H ) :   0.9624
B(  5-C , 10-H ) :   0.9657

Dispersion correction           -0.011411662
FINAL SINGLE POINT ENERGY      -727.890809737067

DIPOLE MOMENT
-------------
                                X             Y             Z
Electronic contribution:     -9.43778       3.65812      -1.83708
Nuclear contribution   :      9.80704      -5.24335       1.35017
                        -----------------------------------------
Total Dipole Moment    :      0.36926      -1.58523      -0.48690
                        -----------------------------------------
Magnitude (a.u.)       :      1.69893
Magnitude (Debye)      :      4.31834

Rotational constants in cm-1:     0.156316     0.078308     0.076228
Rotational constants in MHz :  4686.224999  2347.601204  2285.245115

                             ****ORCA TERMINATED NORMALLY****
TOTAL RUN TIME: 0 days 0 hours 0 minutes 11 seconds 315 msec
