                         Program Version 5.0.0 -  RELEASE  -
|  1> !TPSS D3BJ RIJCOSX def2-TZVP def2/J TightSCF
|  2> *xyz 0 1
|  3> C         -4.38262       -1.67089        1.21620
|  4> C         -5.76354       -1.91517        0.70501
|  5> C         -3.28173       -2.19127        0.29436
|  6> H         -5.84081       -2.11520       -0.30065
|  7> H         -6.40882       -1.14866        0.93612
|  8> H         -6.17478       -2.79061        1.05143
|  9> H         -4.32862       -2.13922        2.19810
| 10> H         -4.26158       -0.59740        1.35725
| 11> H         -3.36057       -1.71407       -0.66008
| 12> H         -3.38775       -3.24919        0.17403
| 13> H         -2.32559       -1.97514        0.72329
| 14> *
| 15> %MaxCore 64000
| 16>
| 17> %pal nprocs 4
| 18> end
| 19>
| 20> %scf
| 21>   MaxIter 150
| 22> end
| 23>
| 24>                          ****END OF INPUT****

CARTESIAN COORDINATES (ANGSTROEM)
---------------------------------
  C     -4.382620   -1.670890    1.216200
  C     -5.763540   -1.915170    0.705010
  C     -3.281730   -2.191270    0.294360
  H     -5.840810   -2.115200   -0.300650
  H     -6.408820   -1.148660    0.936120
  H     -6.174780   -2.790610    1.051430
  H     -4.328620   -2.139220    2.198100
  H     -4.261580   -0.597400    1.357250
  H     -3.360570   -1.714070   -0.660080
  H     -3.387750   -3.249190    0.174030
  H     -2.325590   -1.975140    0.723290

 Total Charge           Charge          ....    0
 Multiplicity           Mult            ....    1
 Number of Electrons    NEL             ....   26
 Basis Dimension        Dim             ....  141

ORBITAL ENERGIES
----------------

  NO   OCC          E(Eh)            E(eV)
   0   2.0000      -9.971803      -271.3466
   1   2.0000      -9.963540      -271.1217
   2   2.0000      -9.944284      -270.5977
   3   2.0000      -0.730625       -19.8813
   4   2.0000      -0.640047       -17.4166
   5   2.0000      -0.542906       -14.7732
   6   2.0000      -0.420577       -11.4445
   7   2.0000      -0.399990       -10.8843
   8   2.0000      -0.369953       -10.0669
   9   2.0000      -0.347325        -9.4512
  10   2.0000      -0.303647        -8.2627
  11   2.0000      -0.296312        -8.0631
  12   2.0000      -0.287066        -7.8115
  13   0.0000       0.031767         0.8644
  14   0.0000       0.073049         1.9878
  15   0.0000       0.076208         2.0737
  16   0.0000       0.082210         2.2370
  17   0.0000       0.108444         2.9509

MULLIKEN ATOMIC CHARGES
-----------------------
   0 C :   -0.124871
   1 C :   -0.360276
   2 C :   -0.335917
   3 H :    0.109969
   4 H :    0.115156
   5 H :    0.110307
   6 H :    0.083931
   7 H :    0.082214
   8 H :    0.107161
   9 H :    0.102884
  10 H :    0.109442
Sum of atomic charges:    0.0000000

LOEWDIN ATOMIC CHARGES
----------------------
   0 C :   -0.311642
   1 C :   -0.304426
   2 C :   -0.299676
   3 H :    0.107161
   4 H :    0.106919
   5 H :    0.107255
   6 H :    0.129506
   7 H :    0.128745
   8 H :    0.112439
   9 H :    0.112091
  10 H :    0.111628

  Mayer bond orders larger than 0.100000
B(  0-C ,  1-C ) :   1.0089 B(  0-C ,  2-C ) :   1.0202 B(  0-C ,  6-H ) :   0.9616
B(  0-C ,  7-H ) :   0.9614 B(  1-C ,  3-H ) :   0.9755 B(  1-C ,  4-H ) :   0.9736
B(  1-C ,  5-H ) :   0.9747 B(  2-C ,  8-H ) :   0.9721 B(  2-C ,  9-H ) :   0.9737
B(  2-C , 10-H ) :   0.9715

Dispersion correction           -0.007403613
FINAL SINGLE POINT ENERGY      -119.194013783255

DIPOLE MOMENT
-------------
                                X             Y             Z
Electronic contribution:      0.18762       0.24051       0.33895
Nuclear contribution   :     -0.21528      -0.24783      -0.32864
                        -----------------------------------------
Total Dipole Moment    :     -0.02766      -0.00731       0.01030
                        -----------------------------------------
Magnitude (a.u.)       :      0.03041
Magnitude (Debye)      :      0.07729

Rotational constants in cm-1:     1.037566     0.286459     0.254172
Rotational constants in MHz : 31105.431429  8587.814531  7619.871198

                             ****ORCA TERMINATED NORMALLY****
TOTAL RUN TIME: 0 days 0 hours 0 minutes 6 seconds 455 msec
