                         Program Version 5.0.0 -  RELEASE  -
|  1> !TPSS D3BJ RIJCOSX def2-TZVP def2/J TightSCF
|  2> *xyz 0 1
|  3> C         -5.57236       -5.80780       -0.81644
|  4> S         -6.90318       -4.61903       -0.52846
|  5> O         -8.11485       -5.25093       -0.95701
|  6> F         -6.53271       -3.42684       -1.31485
|  7> O         -6.86563       -4.29496        0.91412
|  8> C         -4.45780       -5.94187        0.22919
|  9> H         -5.17735       -5.54257       -1.79771
| 10> H         -6.07420       -6.76889       -0.92127
| 11> H         -3.75515       -6.68239       -0.09144
| 12> H         -4.88182       -6.23486        1.16689
| 13> H         -3.95908       -5.00189        0.34143
| 14> *
| 15> %MaxCore 64000
| 16>
| 17> %pal nprocs 4
| 18> end
| 19>
| 20> %scf
| 21>   MaxIter 150
| 22> end
| 23>
| 24>                          ****END OF INPUT****

CARTESIAN COORDINATES (ANGSTROEM)
---------------------------------
  C     -5.572360   -5.807800   -0.816440
  S     -6.903180   -4.619030   -0.528460
  O     -8.114850   -5.250930   -0.957010
  F     -6.532710   -3.426840   -1.314850
  O     -6.865630   -4.294960    0.914120
  C     -4.457800   -5.941870    0.229190
  H     -5.177350   -5.542570   -1.797710
  H     -6.074200   -6.768890   -0.921270
  H     -3.755150   -6.682390   -0.091440
  H     -4.881820   -6.234860    1.166890
  H     -3.959080   -5.001890    0.341430

 Total Charge           Charge          ....    0
 Multiplicity           Mult            ....    1
 Number of Electrons    NEL             ....   58
 Basis Dimension        Dim             ....  222

ORBITAL ENERGIES
----------------

  NO   OCC          E(Eh)            E(eV)
   0   2.0000     -88.580929     -2410.4096
   1   2.0000     -24.507450      -666.8816
   2   2.0000     -18.896728      -514.2061
   3   2.0000     -18.882722      -513.8250
   4   2.0000     -10.044414      -273.3224
   5   2.0000     -10.004374      -272.2329
   6   2.0000      -7.930289      -215.7941
   7   2.0000      -5.913579      -160.9167
   8   2.0000      -5.906811      -160.7325
   9   2.0000      -5.906478      -160.7234
  10   2.0000      -1.271501       -34.5993
  11   2.0000      -1.033674       -28.1277
  12   2.0000      -0.940134       -25.5824
  13   2.0000      -0.761411       -20.7190
  14   2.0000      -0.667952       -18.1759
  15   2.0000      -0.616220       -16.7682
  16   2.0000      -0.520991       -14.1769
  17   2.0000      -0.503988       -13.7142
  18   2.0000      -0.496480       -13.5099
  19   2.0000      -0.447654       -12.1813
  20   2.0000      -0.430638       -11.7183
  21   2.0000      -0.404673       -11.0117
  22   2.0000      -0.387171       -10.5354
  23   2.0000      -0.363635        -9.8950
  24   2.0000      -0.358824        -9.7641
  25   2.0000      -0.338932        -9.2228
  26   2.0000      -0.294573        -8.0157
  27   2.0000      -0.281858        -7.6697
  28   2.0000      -0.266982        -7.2649
  29   0.0000      -0.003894        -0.1060
  30   0.0000       0.008005         0.2178
  31   0.0000       0.034332         0.9342
  32   0.0000       0.047720         1.2985
  33   0.0000       0.061994         1.6870

MULLIKEN ATOMIC CHARGES
-----------------------
   0 C :   -0.248832
   1 S :    0.777510
   2 O :   -0.370173
   3 F :   -0.099864
   4 O :   -0.419039
   5 C :   -0.310747
   6 H :    0.126769
   7 H :    0.154581
   8 H :    0.126455
   9 H :    0.143014
  10 H :    0.120325
Sum of atomic charges:    0.0000000

LOEWDIN ATOMIC CHARGES
----------------------
   0 C :   -0.391022
   1 S :    0.504232
   2 O :   -0.233685
   3 F :    0.064905
   4 O :   -0.285546
   5 C :   -0.299430
   6 H :    0.131085
   7 H :    0.144289
   8 H :    0.121573
   9 H :    0.124298
  10 H :    0.119301

  Mayer bond orders larger than 0.100000
B(  0-C ,  1-S ) :   0.8984 B(  0-C ,  5-C ) :   1.0132 B(  0-C ,  6-H ) :   0.9357
B(  0-C ,  7-H ) :   0.9336 B(  1-S ,  2-O ) :   1.9658 B(  1-S ,  3-F ) :   1.1239
B(  1-S ,  4-O ) :   1.9036 B(  5-C ,  8-H ) :   0.9485 B(  5-C ,  9-H ) :   0.9634
B(  5-C , 10-H ) :   0.9657

Dispersion correction           -0.011392294
FINAL SINGLE POINT ENERGY      -727.908896165870

DIPOLE MOMENT
-------------
                                X             Y             Z
Electronic contribution:     -6.79747       6.71687      -2.45303
Nuclear contribution   :      8.15840      -7.14411       1.72305
                        -----------------------------------------
Total Dipole Moment    :      1.36093      -0.42724      -0.72997
                        -----------------------------------------
Magnitude (a.u.)       :      1.60234
Magnitude (Debye)      :      4.07284

Rotational constants in cm-1:     0.153926     0.078297     0.077402
Rotational constants in MHz :  4614.585804  2347.272644  2320.438903

                             ****ORCA TERMINATED NORMALLY****
TOTAL RUN TIME: 0 days 0 hours 0 minutes 10 seconds 825 msec
