                         Program Version 5.0.0 -  RELEASE  -
|  1> !TPSS D3BJ RIJCOSX def2-TZVP def2/J TightSCF
|  2> *xyz 0 1
|  3> C         -5.57236       -5.80780       -0.81644
|  4> S         -6.90318       -4.61903       -0.52846
|  5> O         -8.11485       -5.25093       -0.95701
|  6> O         -6.53271       -3.42684       -1.31485
|  7> F         -6.86563       -4.29496        0.91412
|  8> C         -4.45780       -5.94187        0.22919
|  9> H         -5.17735       -5.54257       -1.79771
| 10> H         -6.07420       -6.76889       -0.92127
| 11> H         -3.75515       -6.68239       -0.09144
| 12> H         -4.88182       -6.23486        1.16689
| 13> H         -3.95908       -5.00189        0.34143
| 14> *
| 15> %MaxCore 64000
| 16>
| 17> %pal nprocs 4
| 18> end
| 19>
| 20> %scf
| 21>   MaxIter 150
| 22> end
| 23>
| 24>                          ****END OF INPUT****

CARTESIAN COORDINATES (ANGSTROEM)
---------------------------------
  C     -5.572360   -5.807800   -0.816440
  S     -6.903180   -4.619030   -0.528460
  O     -8.114850   -5.250930   -0.957010
  O     -6.532710   -3.426840   -1.314850
  F     -6.865630   -4.294960    0.914120
  C     -4.457800   -5.941870    0.229190
  H     -5.177350   -5.542570   -1.797710
  H     -6.074200   -6.768890   -0.921270
  H     -3.755150   -6.682390   -0.091440
  H     -4.881820   -6.234860    1.166890
  H     -3.959080   -5.001890    0.341430

 Total Charge           Charge          ....    0
 Multiplicity           Mult            ....    1
 Number of Electrons    NEL             ....   58
 Basis Dimension        Dim             ....  222

ORBITAL ENERGIES
----------------

  NO   OCC          E(Eh)            E(eV)
   0   2.0000     -88.580399     -2410.3952
   1   2.0000     -24.506305      -666.8505
   2   2.0000     -18.896402      -514.1972
   3   2.0000     -18.881854      -513.8014
   4   2.0000     -10.043819      -273.3062
   5   2.0000     -10.011049      -272.4145
   6   2.0000      -7.929796      -215.7807
   7   2.0000      -5.913154      -160.9051
   8   2.0000      -5.906181      -160.7153
   9   2.0000      -5.906069      -160.7123
  10   2.0000      -1.268857       -34.5274
  11   2.0000      -1.034140       -28.1404
  12   2.0000      -0.940666       -25.5968
  13   2.0000      -0.764207       -20.7951
  14   2.0000      -0.665369       -18.1056
  15   2.0000      -0.620573       -16.8867
  16   2.0000      -0.525465       -14.2986
  17   2.0000      -0.503382       -13.6977
  18   2.0000      -0.489135       -13.3100
  19   2.0000      -0.452249       -12.3063
  20   2.0000      -0.424392       -11.5483
  21   2.0000      -0.405185       -11.0256
  22   2.0000      -0.396090       -10.7782
  23   2.0000      -0.371734       -10.1154
  24   2.0000      -0.359320        -9.7776
  25   2.0000      -0.340006        -9.2520
  26   2.0000      -0.295128        -8.0309
  27   2.0000      -0.280152        -7.6233
  28   2.0000      -0.266629        -7.2554
  29   0.0000      -0.013905        -0.3784
  30   0.0000       0.025246         0.6870
  31   0.0000       0.038100         1.0368
  32   0.0000       0.044624         1.2143
  33   0.0000       0.057793         1.5726

MULLIKEN ATOMIC CHARGES
-----------------------
   0 C :   -0.237272
   1 S :    0.778231
   2 O :   -0.370427
   3 O :   -0.416524
   4 F :   -0.104278
   5 C :   -0.341065
   6 H :    0.156389
   7 H :    0.144557
   8 H :    0.131959
   9 H :    0.125509
  10 H :    0.132919
Sum of atomic charges:   -0.0000000

LOEWDIN ATOMIC CHARGES
----------------------
   0 C :   -0.385008
   1 S :    0.504719
   2 O :   -0.233806
   3 O :   -0.288212
   4 F :    0.064566
   5 C :   -0.306796
   6 H :    0.145070
   7 H :    0.138005
   8 H :    0.123667
   9 H :    0.117458
  10 H :    0.120336

  Mayer bond orders larger than 0.100000
B(  0-C ,  1-S ) :   0.9037 B(  0-C ,  5-C ) :   1.0101 B(  0-C ,  6-H ) :   0.9322
B(  0-C ,  7-H ) :   0.9328 B(  1-S ,  2-O ) :   1.9651 B(  1-S ,  3-O ) :   1.9147
B(  1-S ,  4-F ) :   1.1174 B(  5-C ,  8-H ) :   0.9533 B(  5-C ,  9-H ) :   0.9649
B(  5-C , 10-H ) :   0.9651

Dispersion correction           -0.011341550
FINAL SINGLE POINT ENERGY      -727.909086402722

DIPOLE MOMENT
-------------
                                X             Y             Z
Electronic contribution:     -7.33368       5.23437       1.27674
Nuclear contribution   :      8.50531      -6.23950      -0.59960
                        -----------------------------------------
Total Dipole Moment    :      1.17163      -1.00513       0.67714
                        -----------------------------------------
Magnitude (a.u.)       :      1.68568
Magnitude (Debye)      :      4.28466

Rotational constants in cm-1:     0.152799     0.080212     0.076962
Rotational constants in MHz :  4580.804531  2404.707790  2307.252710

                             ****ORCA TERMINATED NORMALLY****
TOTAL RUN TIME: 0 days 0 hours 0 minutes 10 seconds 737 msec
