                         Program Version 5.0.0 -  RELEASE  -
|  1> !TPSS D3BJ RIJCOSX def2-TZVP def2/J TightSCF xyzfile
|  2>
|  3> *xyzfile 0 1 D1.xyz
|  4>
|  5> %MaxCore 64000
|  6>
|  7> %pal nprocs 18
|  8> end
|  9>
| 10> %scf
| 11>   MaxIter 150
| 12> end
| 13>
| 14>
| 15>                          ****END OF INPUT****

CARTESIAN COORDINATES (ANGSTROEM)
---------------------------------
  C     -4.382623   -1.670889    1.216201
  C     -5.763539   -1.915170    0.705012
  C     -3.281728   -2.191272    0.294361
  C     -5.572364   -5.807798   -0.816445
  S     -6.903179   -4.619033   -0.528458
  H     -5.840812   -2.115205   -0.300646
  H     -6.408823   -1.148656    0.936124
  H     -6.174781   -2.790606    1.051433
  F     -8.114853   -5.250932   -0.957007
  O     -6.532715   -3.426838   -1.314848
  H     -4.328618   -2.139223    2.198103
  H     -4.261583   -0.597399    1.357248
  O     -6.865632   -4.294957    0.914118
  C     -3.474641   -3.605898   -0.259608
  H     -2.354548   -2.127602    0.871433
  H     -3.166611   -1.499693   -0.545037
  C     -3.827078   -4.661097    0.786174
  H     -2.560559   -3.889391   -0.788050
  H     -4.255932   -3.570040   -1.019300
  C     -4.457800   -5.941875    0.229195
  H     -5.177347   -5.542575   -1.797714
  H     -6.074202   -6.768894   -0.921272
  H     -4.530506   -4.253640    1.511979
  H     -2.933400   -4.932302    1.356825
  H     -3.681064   -6.562236   -0.229885
  H     -4.843942   -6.512728    1.075805

 Total Charge           Charge          ....    0
 Multiplicity           Mult            ....    1
 Number of Electrons    NEL             ....   98
 Basis Dimension        Dim             ....  437

ORBITAL ENERGIES
----------------

  NO   OCC          E(Eh)            E(eV)
   0   2.0000     -88.590513     -2410.6704
   1   2.0000     -24.533938      -667.6024
   2   2.0000     -18.892523      -514.0917
   3   2.0000     -18.891383      -514.0607
   4   2.0000     -10.046300      -273.3737
   5   2.0000     -10.012097      -272.4430
   6   2.0000      -9.980870      -271.5933
   7   2.0000      -9.970593      -271.3136
   8   2.0000      -9.962468      -271.0925
   9   2.0000      -9.948745      -270.7191
  10   2.0000      -9.893478      -269.2152
  11   2.0000      -7.940037      -216.0594
  12   2.0000      -5.923186      -161.1781
  13   2.0000      -5.916576      -160.9982
  14   2.0000      -5.916203      -160.9881
  15   2.0000      -1.312102       -35.7041
  16   2.0000      -1.030721       -28.0473
  17   2.0000      -0.939406       -25.5625
  18   2.0000      -0.774886       -21.0857
  19   2.0000      -0.736177       -20.0324
  20   2.0000      -0.696037       -18.9401
  21   2.0000      -0.670546       -18.2465
  22   2.0000      -0.636581       -17.3222
  23   2.0000      -0.593555       -16.1514
  24   2.0000      -0.559948       -15.2370
  25   2.0000      -0.537687       -14.6312
  26   2.0000      -0.529299       -14.4029
  27   2.0000      -0.505207       -13.7474
  28   2.0000      -0.494504       -13.4561
  29   2.0000      -0.449600       -12.2342
  30   2.0000      -0.448346       -12.2001
  31   2.0000      -0.423016       -11.5108
  32   2.0000      -0.418653       -11.3921
  33   2.0000      -0.399059       -10.8589
  34   2.0000      -0.391454       -10.6520
  35   2.0000      -0.371379       -10.1057
  36   2.0000      -0.369760       -10.0617
  37   2.0000      -0.347114        -9.4454
  38   2.0000      -0.339861        -9.2481
  39   2.0000      -0.335829        -9.1384
  40   2.0000      -0.305954        -8.3254
  41   2.0000      -0.300380        -8.1738
  42   2.0000      -0.295458        -8.0398
  43   2.0000      -0.293316        -7.9815
  44   2.0000      -0.284689        -7.7468
  45   2.0000      -0.272410        -7.4127
  46   2.0000      -0.259469        -7.0605
  47   2.0000      -0.251691        -6.8489
  48   2.0000      -0.230658        -6.2765
  49   0.0000      -0.012282        -0.3342
  50   0.0000       0.000677         0.0184
  51   0.0000       0.024010         0.6533
  52   0.0000       0.035680         0.9709
  53   0.0000       0.041199         1.1211

MULLIKEN ATOMIC CHARGES
-----------------------
   0 C :   -0.154423
   1 C :   -0.410783
   2 C :   -0.129337
   3 C :   -0.314760
   4 S :    0.800942
   5 H :    0.139363
   6 H :    0.089848
   7 H :    0.145926
   8 F :   -0.065619
   9 O :   -0.407391
  10 H :    0.082333
  11 H :    0.075770
  12 O :   -0.406474
  13 C :   -0.185416
  14 H :    0.067691
  15 H :    0.079896
  16 C :   -0.252460
  17 H :    0.074470
  18 H :    0.122515
  19 C :   -0.095208
  20 H :    0.165947
  21 H :    0.138085
  22 H :    0.147171
  23 H :    0.085480
  24 H :    0.100458
  25 H :    0.105977
Sum of atomic charges:   -0.0000000

LOEWDIN ATOMIC CHARGES
----------------------
   0 C :   -0.300573
   1 C :   -0.326154
   2 C :   -0.262701
   3 C :   -0.371153
   4 S :    0.513071
   5 H :    0.104742
   6 H :    0.099533
   7 H :    0.094632
   8 F :    0.121008
   9 O :   -0.255847
  10 H :    0.127359
  11 H :    0.129661
  12 O :   -0.249067
  13 C :   -0.265840
  14 H :    0.129075
  15 H :    0.133569
  16 C :   -0.261804
  17 H :    0.129567
  18 H :    0.135823
  19 C :   -0.267312
  20 H :    0.143410
  21 H :    0.133716
  22 H :    0.144239
  23 H :    0.134819
  24 H :    0.144656
  25 H :    0.141570

  Mayer bond orders larger than 0.100000
B(  0-C ,  1-C ) :   0.9783 B(  0-C ,  2-C ) :   1.0418 B(  0-C , 10-H ) :   0.9639
B(  0-C , 11-H ) :   0.9413 B(  1-C ,  5-H ) :   0.9794 B(  1-C ,  6-H ) :   0.9516
B(  1-C ,  7-H ) :   0.9760 B(  2-C , 13-C ) :   1.0304 B(  2-C , 14-H ) :   0.9511
B(  2-C , 15-H ) :   0.9431 B(  3-C ,  4-S ) :   0.9148 B(  3-C , 19-C ) :   0.9995
B(  3-C , 20-H ) :   0.9321 B(  3-C , 21-H ) :   0.9269 B(  4-S ,  8-F ) :   1.1719
B(  4-S ,  9-O ) :   1.8526 B(  4-S , 12-O ) :   1.8378 B( 13-C , 16-C ) :   1.0130
B( 13-C , 17-H ) :   0.9448 B( 13-C , 18-H ) :   0.9477 B( 16-C , 19-C ) :   1.0136
B( 16-C , 22-H ) :   0.9585 B( 16-C , 23-H ) :   0.9391 B( 19-C , 24-H ) :   0.9299
B( 19-C , 25-H ) :   0.9495

Dispersion correction           -0.038481753
FINAL SINGLE POINT ENERGY      -924.521635748818

DIPOLE MOMENT
-------------
                                X             Y             Z
Electronic contribution:    -18.99644      -8.58186      -6.70334
Nuclear contribution   :     19.08524       6.89775       6.14221
                        -----------------------------------------
Total Dipole Moment    :      0.08880      -1.68411      -0.56113
                        -----------------------------------------
Magnitude (a.u.)       :      1.77735
Magnitude (Debye)      :      4.51766

Rotational constants in cm-1:     0.049343     0.024787     0.019726
Rotational constants in MHz :  1479.262779   743.087234   591.370705

                             ****ORCA TERMINATED NORMALLY****
TOTAL RUN TIME: 0 days 0 hours 0 minutes 15 seconds 572 msec
