                         Program Version 5.0.0 -  RELEASE  -
|  1> !LC-PBE RIJCOSX def2-TZVP def2/J TightSCF
|  2> *xyz -1 1
|  3> C          0.70466        1.44313       -4.50363
|  4> C          1.72854        1.42432       -5.63944
|  5> H          2.64672        1.95379       -5.38105
|  6> H          1.29992        1.93061       -6.50361
|  7> S          2.25263       -0.18811       -6.27184
|  8> O          3.56261       -0.44446       -5.63155
|  9> O          2.34494       -0.03374       -7.69650
| 10> O          1.26606       -1.15918       -5.80536
| 11> H         -0.17385        0.91270       -4.80656
| 12> H          0.44778        2.45562       -4.27173
| 13> H          1.12367        0.97423       -3.63791
| 14> *
| 15>
| 16> %MaxCore 64000
| 17>
| 18> %pal nprocs 4
| 19> end
| 20>
| 21> %scf
| 22>   MaxIter 150
| 23> end
| 24>
| 25>
| 26>                          ****END OF INPUT****

CARTESIAN COORDINATES (ANGSTROEM)
---------------------------------
  C      0.704660    1.443130   -4.503630
  C      1.728540    1.424320   -5.639440
  H      2.646720    1.953790   -5.381050
  H      1.299920    1.930610   -6.503610
  S      2.252630   -0.188110   -6.271840
  O      3.562610   -0.444460   -5.631550
  O      2.344940   -0.033740   -7.696500
  O      1.266060   -1.159180   -5.805360
  H     -0.173850    0.912700   -4.806560
  H      0.447780    2.455620   -4.271730
  H      1.123670    0.974230   -3.637910

 Total Charge           Charge          ....   -1
 Multiplicity           Mult            ....    1
 Number of Electrons    NEL             ....   58
 Basis Dimension        Dim             ....  222

ORBITAL ENERGIES
----------------

  NO   OCC          E(Eh)            E(eV)
   0   2.0000     -88.266328     -2401.8489
   1   2.0000     -18.754081      -510.3245
   2   2.0000     -18.746671      -510.1228
   3   2.0000     -18.736911      -509.8573
   4   2.0000      -9.976925      -271.4859
   5   2.0000      -9.970870      -271.3212
   6   2.0000      -7.876785      -214.3382
   7   2.0000      -5.893808      -160.3787
   8   2.0000      -5.892153      -160.3336
   9   2.0000      -5.891832      -160.3249
  10   2.0000      -1.093994       -29.7691
  11   2.0000      -0.949829       -25.8462
  12   2.0000      -0.926445       -25.2099
  13   2.0000      -0.809937       -22.0395
  14   2.0000      -0.672333       -18.2951
  15   2.0000      -0.530292       -14.4300
  16   2.0000      -0.464305       -12.6344
  17   2.0000      -0.460833       -12.5399
  18   2.0000      -0.417907       -11.3718
  19   2.0000      -0.400559       -10.8998
  20   2.0000      -0.397537       -10.8175
  21   2.0000      -0.360509        -9.8099
  22   2.0000      -0.350131        -9.5275
  23   2.0000      -0.287858        -7.8330
  24   2.0000      -0.286240        -7.7890
  25   2.0000      -0.246710        -6.7133
  26   2.0000      -0.236087        -6.4243
  27   2.0000      -0.228343        -6.2135
  28   2.0000      -0.191535        -5.2119
  29   0.0000       0.252633         6.8745
  30   0.0000       0.301709         8.2099
  31   0.0000       0.313917         8.5421
  32   0.0000       0.319491         8.6938
  33   0.0000       0.342310         9.3147

MULLIKEN ATOMIC CHARGES
-----------------------
   0 C :   -0.423751
   1 C :   -0.318237
   2 H :    0.133993
   3 H :    0.128045
   4 S :    0.736051
   5 O :   -0.575821
   6 O :   -0.523360
   7 O :   -0.550454
   8 H :    0.150330
   9 H :    0.103143
  10 H :    0.140061
Sum of atomic charges:   -1.0000000

LOEWDIN ATOMIC CHARGES
----------------------
   0 C :   -0.363011
   1 C :   -0.439068
   2 H :    0.128030
   3 H :    0.127056
   4 S :    0.390958
   5 O :   -0.431437
   6 O :   -0.369142
   7 O :   -0.395672
   8 H :    0.122911
   9 H :    0.107608
  10 H :    0.121768

  Mayer bond orders larger than 0.100000
B(  0-C ,  1-C ) :   0.9433 B(  0-C ,  8-H ) :   0.9708 B(  0-C ,  9-H ) :   0.9706
B(  0-C , 10-H ) :   0.9750 B(  1-C ,  2-H ) :   0.9651 B(  1-C ,  3-H ) :   0.9615
B(  1-C ,  4-S ) :   0.8947 B(  4-S ,  5-O ) :   1.7805 B(  4-S ,  6-O ) :   1.8414
B(  4-S ,  7-O ) :   1.7919

FINAL SINGLE POINT ENERGY      -702.097589993514

DIPOLE MOMENT
-------------
                                X             Y             Z
Electronic contribution:      3.63085      -5.56426      -4.28856
Nuclear contribution   :     -4.50297       7.24642       5.01775
                        -----------------------------------------
Total Dipole Moment    :     -0.87212       1.68216       0.72920
                        -----------------------------------------
Magnitude (a.u.)       :      2.03027
Magnitude (Debye)      :      5.16053

Rotational constants in cm-1:     0.162459     0.081286     0.079601
Rotational constants in MHz :  4870.394399  2436.893583  2386.374948

                             ****ORCA TERMINATED NORMALLY****
TOTAL RUN TIME: 0 days 0 hours 0 minutes 29 seconds 641 msec
