                         Program Version 5.0.0 -  RELEASE  -
|  1> !LC-PBE RIJCOSX def2-TZVP def2/J TightSCF
|  2> *xyz 1 1
|  3> C          2.91632       -1.24259       -1.54313
|  4> C          3.46659       -1.59097       -2.88908
|  5> N          4.65227       -1.14316       -3.25969
|  6> N          2.75226       -2.29204       -3.72803
|  7> H          1.77836       -2.48960       -3.51274
|  8> H          2.94861       -2.20854       -4.71681
|  9> H          5.14672       -0.51251       -2.63385
| 10> H          4.78303       -1.00720       -4.25350
| 11> C          2.80408        0.29070       -1.35924
| 12> H          1.94047       -1.71653       -1.44116
| 13> H          3.55857       -1.66343       -0.76637
| 14> H          2.17393        0.69633       -2.12297
| 15> H          3.77707        0.73043       -1.42880
| 16> H          2.38369        0.50492       -0.39889
| 17> *
| 18>
| 19> %MaxCore 64000
| 20>
| 21> %pal nprocs 4
| 22> end
| 23>
| 24> %scf
| 25>   MaxIter 150
| 26> end
| 27>
| 28>
| 29>                          ****END OF INPUT****

CARTESIAN COORDINATES (ANGSTROEM)
---------------------------------
  C      2.916320   -1.242590   -1.543130
  C      3.466590   -1.590970   -2.889080
  N      4.652270   -1.143160   -3.259690
  N      2.752260   -2.292040   -3.728030
  H      1.778360   -2.489600   -3.512740
  H      2.948610   -2.208540   -4.716810
  H      5.146720   -0.512510   -2.633850
  H      4.783030   -1.007200   -4.253500
  C      2.804080    0.290700   -1.359240
  H      1.940470   -1.716530   -1.441160
  H      3.558570   -1.663430   -0.766370
  H      2.173930    0.696330   -2.122970
  H      3.777070    0.730430   -1.428800
  H      2.383690    0.504920   -0.398890

 Total Charge           Charge          ....    1
 Multiplicity           Mult            ....    1
 Number of Electrons    NEL             ....   40
 Basis Dimension        Dim             ....  209

ORBITAL ENERGIES
----------------

  NO   OCC          E(Eh)            E(eV)
   0   2.0000     -14.463545      -393.5731
   1   2.0000     -14.457844      -393.4179
   2   2.0000     -10.449515      -284.3457
   3   2.0000     -10.318865      -280.7906
   4   2.0000     -10.275641      -279.6144
   5   2.0000      -1.390775       -37.8449
   6   2.0000      -1.281613       -34.8745
   7   2.0000      -1.150200       -31.2985
   8   2.0000      -1.028245       -27.9800
   9   2.0000      -0.976045       -26.5595
  10   2.0000      -0.918841       -25.0029
  11   2.0000      -0.904388       -24.6097
  12   2.0000      -0.838675       -22.8215
  13   2.0000      -0.816272       -22.2119
  14   2.0000      -0.768837       -20.9211
  15   2.0000      -0.743233       -20.2244
  16   2.0000      -0.687408       -18.7053
  17   2.0000      -0.675930       -18.3930
  18   2.0000      -0.661396       -17.9975
  19   2.0000      -0.630080       -17.1454
  20   0.0000      -0.126354        -3.4383
  21   0.0000      -0.072001        -1.9593
  22   0.0000      -0.028694        -0.7808
  23   0.0000      -0.027463        -0.7473
  24   0.0000       0.011442         0.3113

MULLIKEN ATOMIC CHARGES
-----------------------
   0 C :   -0.344363
   1 C :    0.296546
   2 N :   -0.340148
   3 N :   -0.337599
   4 H :    0.318412
   5 H :    0.295976
   6 H :    0.315844
   7 H :    0.296699
   8 C :   -0.440832
   9 H :    0.177392
  10 H :    0.225201
  11 H :    0.179532
  12 H :    0.150846
  13 H :    0.206493
Sum of atomic charges:    1.0000000

LOEWDIN ATOMIC CHARGES
----------------------
   0 C :   -0.232068
   1 C :   -0.295752
   2 N :    0.098881
   3 N :    0.112091
   4 H :    0.215627
   5 H :    0.206155
   6 H :    0.212779
   7 H :    0.206298
   8 C :   -0.280109
   9 H :    0.165686
  10 H :    0.179756
  11 H :    0.136600
  12 H :    0.127338
  13 H :    0.146718

  Mayer bond orders larger than 0.100000
B(  0-C ,  1-C ) :   0.9666 B(  0-C ,  8-C ) :   0.9354 B(  0-C ,  9-H ) :   0.9704
B(  0-C , 10-H ) :   0.9336 B(  1-C ,  2-N ) :   1.4111 B(  1-C ,  3-N ) :   1.4722
B(  2-N ,  6-H ) :   0.8864 B(  2-N ,  7-H ) :   0.8871 B(  3-N ,  4-H ) :   0.8792
B(  3-N ,  5-H ) :   0.8885 B(  8-C , 11-H ) :   0.9552 B(  8-C , 12-H ) :   0.9658
B(  8-C , 13-H ) :   0.9600

FINAL SINGLE POINT ENERGY      -228.360050871526

DIPOLE MOMENT
-------------
                                X             Y             Z
Electronic contribution:      1.29274      -2.84045      -2.78421
Nuclear contribution   :     -1.30215       2.77761       1.84194
                        -----------------------------------------
Total Dipole Moment    :     -0.00941      -0.06284      -0.94228
                        -----------------------------------------
Magnitude (a.u.)       :      0.94442
Magnitude (Debye)      :      2.40052

Rotational constants in cm-1:     0.267442     0.127541     0.099068
Rotational constants in MHz :  8017.703171  3823.592522  2969.992494

                             ****ORCA TERMINATED NORMALLY****
TOTAL RUN TIME: 0 days 0 hours 0 minutes 29 seconds 790 msec
