                         Program Version 5.0.0 -  RELEASE  -
|  1> !LC-PBE RIJCOSX def2-TZVP def2/J TightSCF
|  2> *xyz 0 1
|  3> C          0.70466        1.44313       -4.50363
|  4> C          1.72854        1.42432       -5.63944
|  5> H          2.64672        1.95379       -5.38105
|  6> H          1.29992        1.93061       -6.50361
|  7> S          2.25263       -0.18811       -6.27184
|  8> F          3.56261       -0.44446       -5.63155
|  9> O          2.34494       -0.03374       -7.69650
| 10> O          1.26606       -1.15918       -5.80536
| 11> H         -0.17385        0.91270       -4.80656
| 12> H          0.44778        2.45562       -4.27173
| 13> H          1.12367        0.97423       -3.63791
| 14> *
| 15>
| 16> %MaxCore 64000
| 17>
| 18> %pal nprocs 4
| 19> end
| 20>
| 21> %scf
| 22>   MaxIter 150
| 23> end
| 24>
| 25>
| 26>                          ****END OF INPUT****

CARTESIAN COORDINATES (ANGSTROEM)
---------------------------------
  C      0.704660    1.443130   -4.503630
  C      1.728540    1.424320   -5.639440
  H      2.646720    1.953790   -5.381050
  H      1.299920    1.930610   -6.503610
  S      2.252630   -0.188110   -6.271840
  F      3.562610   -0.444460   -5.631550
  O      2.344940   -0.033740   -7.696500
  O      1.266060   -1.159180   -5.805360
  H     -0.173850    0.912700   -4.806560
  H      0.447780    2.455620   -4.271730
  H      1.123670    0.974230   -3.637910

 Total Charge           Charge          ....    0
 Multiplicity           Mult            ....    1
 Number of Electrons    NEL             ....   58
 Basis Dimension        Dim             ....  222

ORBITAL ENERGIES
----------------

  NO   OCC          E(Eh)            E(eV)
   0   2.0000     -88.533014     -2409.1058
   1   2.0000     -24.595662      -669.2820
   2   2.0000     -18.994845      -516.8760
   3   2.0000     -18.986980      -516.6620
   4   2.0000     -10.181412      -277.0503
   5   2.0000     -10.133419      -275.7443
   6   2.0000      -8.144044      -221.6107
   7   2.0000      -6.164552      -167.7460
   8   2.0000      -6.157664      -167.5586
   9   2.0000      -6.156679      -167.5317
  10   2.0000      -1.515723       -41.2449
  11   2.0000      -1.284197       -34.9448
  12   2.0000      -1.183733       -32.2110
  13   2.0000      -1.001384       -27.2491
  14   2.0000      -0.889389       -24.2015
  15   2.0000      -0.832784       -22.6612
  16   2.0000      -0.734294       -19.9812
  17   2.0000      -0.720866       -19.6158
  18   2.0000      -0.702246       -19.1091
  19   2.0000      -0.640935       -17.4407
  20   2.0000      -0.628039       -17.0898
  21   2.0000      -0.599561       -16.3149
  22   2.0000      -0.572236       -15.5713
  23   2.0000      -0.542777       -14.7697
  24   2.0000      -0.539807       -14.6889
  25   2.0000      -0.519399       -14.1336
  26   2.0000      -0.474506       -12.9120
  27   2.0000      -0.464663       -12.6441
  28   2.0000      -0.455374       -12.3913
  29   0.0000       0.103559         2.8180
  30   0.0000       0.126578         3.4444
  31   0.0000       0.143269         3.8986
  32   0.0000       0.164903         4.4872
  33   0.0000       0.168076         4.5736

MULLIKEN ATOMIC CHARGES
-----------------------
   0 C :   -0.436460
   1 C :   -0.323036
   2 H :    0.176332
   3 H :    0.198560
   4 S :    0.779291
   5 F :   -0.102045
   6 O :   -0.384436
   7 O :   -0.412772
   8 H :    0.182693
   9 H :    0.161457
  10 H :    0.160416
Sum of atomic charges:    0.0000000

LOEWDIN ATOMIC CHARGES
----------------------
   0 C :   -0.330651
   1 C :   -0.405030
   2 H :    0.143278
   3 H :    0.156242
   4 S :    0.519102
   5 F :    0.062191
   6 O :   -0.257379
   7 O :   -0.284235
   8 H :    0.135066
   9 H :    0.131545
  10 H :    0.129872

  Mayer bond orders larger than 0.100000
B(  0-C ,  1-C ) :   0.9557 B(  0-C ,  8-H ) :   0.9596 B(  0-C ,  9-H ) :   0.9581
B(  0-C , 10-H ) :   0.9669 B(  1-C ,  2-H ) :   0.9440 B(  1-C ,  3-H ) :   0.9369
B(  1-C ,  4-S ) :   0.9134 B(  4-S ,  5-F ) :   1.1469 B(  4-S ,  6-O ) :   1.9701
B(  4-S ,  7-O ) :   1.9280

FINAL SINGLE POINT ENERGY      -726.604033337162

DIPOLE MOMENT
-------------
                                X             Y             Z
Electronic contribution:      6.33106      -6.43772      -3.67768
Nuclear contribution   :     -6.09914       7.80989       4.64238
                        -----------------------------------------
Total Dipole Moment    :      0.23193       1.37217       0.96470
                        -----------------------------------------
Magnitude (a.u.)       :      1.69331
Magnitude (Debye)      :      4.30405

Rotational constants in cm-1:     0.154372     0.078826     0.078033
Rotational constants in MHz :  4627.943144  2363.154585  2339.382767

                             ****ORCA TERMINATED NORMALLY****
TOTAL RUN TIME: 0 days 0 hours 0 minutes 30 seconds 176 msec
