                         Program Version 5.0.0 -  RELEASE  -
|  1> !LC-PBE RIJCOSX def2-TZVP def2/J TightSCF
|  2> *xyz 0 1
|  3> C          2.91632       -1.24259       -1.54313
|  4> C          3.46659       -1.59097       -2.88908
|  5> C          4.65227       -1.14316       -3.25969
|  6> N          2.75226       -2.29204       -3.72803
|  7> H          1.77836       -2.48960       -3.51274
|  8> H          2.94861       -2.20854       -4.71681
|  9> H          5.14672       -0.51251       -2.63385
| 10> H          4.78303       -1.00720       -4.25350
| 11> C          2.80408        0.29070       -1.35924
| 12> H          1.94047       -1.71653       -1.44116
| 13> H          3.55857       -1.66343       -0.76637
| 14> H          2.17393        0.69633       -2.12297
| 15> H          3.77707        0.73043       -1.42880
| 16> H          2.38369        0.50492       -0.39889
| 17> *
| 18>
| 19> %MaxCore 64000
| 20>
| 21> %pal nprocs 4
| 22> end
| 23>
| 24> %scf
| 25>   MaxIter 150
| 26> end
| 27>
| 28>
| 29>                          ****END OF INPUT****

CARTESIAN COORDINATES (ANGSTROEM)
---------------------------------
  C      2.916320   -1.242590   -1.543130
  C      3.466590   -1.590970   -2.889080
  C      4.652270   -1.143160   -3.259690
  N      2.752260   -2.292040   -3.728030
  H      1.778360   -2.489600   -3.512740
  H      2.948610   -2.208540   -4.716810
  H      5.146720   -0.512510   -2.633850
  H      4.783030   -1.007200   -4.253500
  C      2.804080    0.290700   -1.359240
  H      1.940470   -1.716530   -1.441160
  H      3.558570   -1.663430   -0.766370
  H      2.173930    0.696330   -2.122970
  H      3.777070    0.730430   -1.428800
  H      2.383690    0.504920   -0.398890

 Total Charge           Charge          ....    0
 Multiplicity           Mult            ....    1
 Number of Electrons    NEL             ....   40
 Basis Dimension        Dim             ....  209

ORBITAL ENERGIES
----------------

  NO   OCC          E(Eh)            E(eV)
   0   2.0000     -14.214472      -386.7954
   1   2.0000     -10.140488      -275.9367
   2   2.0000     -10.118578      -275.3405
   3   2.0000     -10.100092      -274.8375
   4   2.0000     -10.039136      -273.1788
   5   2.0000      -1.112773       -30.2801
   6   2.0000      -0.959596       -26.1119
   7   2.0000      -0.882131       -24.0040
   8   2.0000      -0.809687       -22.0327
   9   2.0000      -0.716677       -19.5018
  10   2.0000      -0.669615       -18.2212
  11   2.0000      -0.627069       -17.0634
  12   2.0000      -0.595257       -16.1978
  13   2.0000      -0.549303       -14.9473
  14   2.0000      -0.527945       -14.3661
  15   2.0000      -0.512041       -13.9333
  16   2.0000      -0.488974       -13.3056
  17   2.0000      -0.473343       -12.8803
  18   2.0000      -0.459862       -12.5135
  19   2.0000      -0.308815        -8.4033
  20   0.0000       0.111469         3.0332
  21   0.0000       0.121446         3.3047
  22   0.0000       0.153953         4.1893
  23   0.0000       0.157984         4.2990
  24   0.0000       0.175066         4.7638

MULLIKEN ATOMIC CHARGES
-----------------------
   0 C :   -0.292972
   1 C :    0.185921
   2 C :   -0.453565
   3 N :   -0.456073
   4 H :    0.245570
   5 H :    0.251494
   6 H :    0.105912
   7 H :    0.109827
   8 C :   -0.423793
   9 H :    0.121181
  10 H :    0.164922
  11 H :    0.147356
  12 H :    0.149012
  13 H :    0.145207
Sum of atomic charges:    0.0000000

LOEWDIN ATOMIC CHARGES
----------------------
   0 C :   -0.249788
   1 C :   -0.380543
   2 C :   -0.295747
   3 N :   -0.003322
   4 H :    0.173276
   5 H :    0.179882
   6 H :    0.110015
   7 H :    0.106857
   8 C :   -0.307515
   9 H :    0.139754
  10 H :    0.156845
  11 H :    0.124873
  12 H :    0.125030
  13 H :    0.120383

  Mayer bond orders larger than 0.100000
B(  0-C ,  1-C ) :   0.9131 B(  0-C ,  8-C ) :   0.9488 B(  0-C ,  9-H ) :   0.9944
B(  0-C , 10-H ) :   0.9792 B(  1-C ,  2-C ) :   1.7396 B(  1-C ,  3-N ) :   1.1733
B(  2-C ,  6-H ) :   1.0109 B(  2-C ,  7-H ) :   0.9877 B(  3-N ,  4-H ) :   0.9248
B(  3-N ,  5-H ) :   0.9192 B(  8-C , 11-H ) :   0.9725 B(  8-C , 12-H ) :   0.9728
B(  8-C , 13-H ) :   0.9776

FINAL SINGLE POINT ENERGY      -211.902087848111

DIPOLE MOMENT
-------------
                                X             Y             Z
Electronic contribution:      0.04742      -2.71841      -1.80900
Nuclear contribution   :     -0.99366       2.78648       1.68526
                        -----------------------------------------
Total Dipole Moment    :     -0.94623       0.06806      -0.12374
                        -----------------------------------------
Magnitude (a.u.)       :      0.95671
Magnitude (Debye)      :      2.43177

Rotational constants in cm-1:     0.282898     0.128664     0.101801
Rotational constants in MHz :  8481.061354  3857.240210  3051.924245

                             ****ORCA TERMINATED NORMALLY****
TOTAL RUN TIME: 0 days 0 hours 0 minutes 32 seconds 627 msec
