                         Program Version 5.0.0 -  RELEASE  -
|  1> !LC-PBE RIJCOSX def2-TZVP def2/J TightSCF
|  2> *xyz 0 1
|  3> C          0.70466        1.44313       -4.50363
|  4> C          1.72854        1.42432       -5.63944
|  5> H          2.64672        1.95379       -5.38105
|  6> H          1.29992        1.93061       -6.50361
|  7> S          2.25263       -0.18811       -6.27184
|  8> O          3.56261       -0.44446       -5.63155
|  9> F          2.34494       -0.03374       -7.69650
| 10> O          1.26606       -1.15918       -5.80536
| 11> H         -0.17385        0.91270       -4.80656
| 12> H          0.44778        2.45562       -4.27173
| 13> H          1.12367        0.97423       -3.63791
| 14> *
| 15>
| 16> %MaxCore 64000
| 17>
| 18> %pal nprocs 4
| 19> end
| 20>
| 21> %scf
| 22>   MaxIter 150
| 23> end
| 24>
| 25>
| 26>                          ****END OF INPUT****

CARTESIAN COORDINATES (ANGSTROEM)
---------------------------------
  C      0.704660    1.443130   -4.503630
  C      1.728540    1.424320   -5.639440
  H      2.646720    1.953790   -5.381050
  H      1.299920    1.930610   -6.503610
  S      2.252630   -0.188110   -6.271840
  O      3.562610   -0.444460   -5.631550
  F      2.344940   -0.033740   -7.696500
  O      1.266060   -1.159180   -5.805360
  H     -0.173850    0.912700   -4.806560
  H      0.447780    2.455620   -4.271730
  H      1.123670    0.974230   -3.637910

 Total Charge           Charge          ....    0
 Multiplicity           Mult            ....    1
 Number of Electrons    NEL             ....   58
 Basis Dimension        Dim             ....  222

ORBITAL ENERGIES
----------------

  NO   OCC          E(Eh)            E(eV)
   0   2.0000     -88.535262     -2409.1670
   1   2.0000     -24.619924      -669.9422
   2   2.0000     -18.987192      -516.6678
   3   2.0000     -18.978407      -516.4287
   4   2.0000     -10.182455      -277.0787
   5   2.0000     -10.133811      -275.7550
   6   2.0000      -8.146327      -221.6728
   7   2.0000      -6.166641      -167.8028
   8   2.0000      -6.159778      -167.6161
   9   2.0000      -6.159136      -167.5986
  10   2.0000      -1.553407       -42.2703
  11   2.0000      -1.270533       -34.5730
  12   2.0000      -1.163732       -31.6668
  13   2.0000      -1.001965       -27.2649
  14   2.0000      -0.903451       -24.5842
  15   2.0000      -0.842100       -22.9147
  16   2.0000      -0.750256       -20.4155
  17   2.0000      -0.748171       -20.3588
  18   2.0000      -0.706635       -19.2285
  19   2.0000      -0.641214       -17.4483
  20   2.0000      -0.629831       -17.1386
  21   2.0000      -0.585800       -15.9404
  22   2.0000      -0.569372       -15.4934
  23   2.0000      -0.543992       -14.8028
  24   2.0000      -0.527919       -14.3654
  25   2.0000      -0.520935       -14.1754
  26   2.0000      -0.466595       -12.6967
  27   2.0000      -0.454534       -12.3685
  28   2.0000      -0.438959       -11.9447
  29   0.0000       0.104879         2.8539
  30   0.0000       0.122760         3.3405
  31   0.0000       0.142925         3.8892
  32   0.0000       0.161617         4.3978
  33   0.0000       0.166882         4.5411

MULLIKEN ATOMIC CHARGES
-----------------------
   0 C :   -0.437536
   1 C :   -0.317742
   2 H :    0.198105
   3 H :    0.165891
   4 S :    0.777887
   5 O :   -0.426693
   6 F :   -0.066906
   7 O :   -0.404819
   8 H :    0.173835
   9 H :    0.161809
  10 H :    0.176168
Sum of atomic charges:    0.0000000

LOEWDIN ATOMIC CHARGES
----------------------
   0 C :   -0.324780
   1 C :   -0.406806
   2 H :    0.151519
   3 H :    0.141445
   4 S :    0.512135
   5 O :   -0.312048
   6 F :    0.118543
   7 O :   -0.280554
   8 H :    0.133480
   9 H :    0.132084
  10 H :    0.134983

  Mayer bond orders larger than 0.100000
B(  0-C ,  1-C ) :   0.9598 B(  0-C ,  8-H ) :   0.9604 B(  0-C ,  9-H ) :   0.9576
B(  0-C , 10-H ) :   0.9639 B(  1-C ,  2-H ) :   0.9364 B(  1-C ,  3-H ) :   0.9412
B(  1-C ,  4-S ) :   0.9170 B(  4-S ,  5-O ) :   1.9131 B(  4-S ,  6-F ) :   1.1941
B(  4-S ,  7-O ) :   1.9296

FINAL SINGLE POINT ENERGY      -726.583715853664

DIPOLE MOMENT
-------------
                                X             Y             Z
Electronic contribution:      4.19658      -5.72926      -7.25385
Nuclear contribution   :     -4.83029       7.38191       6.79413
                        -----------------------------------------
Total Dipole Moment    :     -0.63371       1.65265      -0.45973
                        -----------------------------------------
Magnitude (a.u.)       :      1.82871
Magnitude (Debye)      :      4.64821

Rotational constants in cm-1:     0.156575     0.079070     0.076729
Rotational constants in MHz :  4694.010604  2370.444114  2300.280155

                             ****ORCA TERMINATED NORMALLY****
TOTAL RUN TIME: 0 days 0 hours 0 minutes 29 seconds 334 msec
