                         Program Version 5.0.0 -  RELEASE  -
|  1> !LC-PBE RIJCOSX def2-TZVP def2/J TightSCF
|  2> *xyz 0 1
|  3> C          2.91632       -1.24259       -1.54313
|  4> C          3.46659       -1.59097       -2.88908
|  5> N          4.65227       -1.14316       -3.25969
|  6> C          2.75226       -2.29204       -3.72803
|  7> H          1.77836       -2.48960       -3.51274
|  8> H          2.94861       -2.20854       -4.71681
|  9> H          5.14672       -0.51251       -2.63385
| 10> H          4.78303       -1.00720       -4.25350
| 11> C          2.80408        0.29070       -1.35924
| 12> H          1.94047       -1.71653       -1.44116
| 13> H          3.55857       -1.66343       -0.76637
| 14> H          2.17393        0.69633       -2.12297
| 15> H          3.77707        0.73043       -1.42880
| 16> H          2.38369        0.50492       -0.39889
| 17> *
| 18>
| 19> %MaxCore 64000
| 20>
| 21> %pal nprocs 4
| 22> end
| 23>
| 24> %scf
| 25>   MaxIter 150
| 26> end
| 27>
| 28>
| 29>                          ****END OF INPUT****

CARTESIAN COORDINATES (ANGSTROEM)
---------------------------------
  C      2.916320   -1.242590   -1.543130
  C      3.466590   -1.590970   -2.889080
  N      4.652270   -1.143160   -3.259690
  C      2.752260   -2.292040   -3.728030
  H      1.778360   -2.489600   -3.512740
  H      2.948610   -2.208540   -4.716810
  H      5.146720   -0.512510   -2.633850
  H      4.783030   -1.007200   -4.253500
  C      2.804080    0.290700   -1.359240
  H      1.940470   -1.716530   -1.441160
  H      3.558570   -1.663430   -0.766370
  H      2.173930    0.696330   -2.122970
  H      3.777070    0.730430   -1.428800
  H      2.383690    0.504920   -0.398890

 Total Charge           Charge          ....    0
 Multiplicity           Mult            ....    1
 Number of Electrons    NEL             ....   40
 Basis Dimension        Dim             ....  209

ORBITAL ENERGIES
----------------

  NO   OCC          E(Eh)            E(eV)
   0   2.0000     -14.210648      -386.6914
   1   2.0000     -10.138709      -275.8883
   2   2.0000     -10.117091      -275.3000
   3   2.0000     -10.105268      -274.9783
   4   2.0000     -10.043509      -273.2978
   5   2.0000      -1.107881       -30.1470
   6   2.0000      -0.956437       -26.0260
   7   2.0000      -0.894903       -24.3515
   8   2.0000      -0.801306       -21.8046
   9   2.0000      -0.717058       -19.5121
  10   2.0000      -0.673944       -18.3390
  11   2.0000      -0.624016       -16.9803
  12   2.0000      -0.579198       -15.7608
  13   2.0000      -0.577518       -15.7151
  14   2.0000      -0.523106       -14.2344
  15   2.0000      -0.518375       -14.1057
  16   2.0000      -0.487644       -13.2695
  17   2.0000      -0.475478       -12.9384
  18   2.0000      -0.453398       -12.3376
  19   2.0000      -0.316474        -8.6117
  20   0.0000       0.109279         2.9736
  21   0.0000       0.125100         3.4041
  22   0.0000       0.158262         4.3065
  23   0.0000       0.162272         4.4156
  24   0.0000       0.171946         4.6789

MULLIKEN ATOMIC CHARGES
-----------------------
   0 C :   -0.290628
   1 C :    0.172598
   2 N :   -0.460020
   3 C :   -0.446046
   4 H :    0.116773
   5 H :    0.105597
   6 H :    0.245779
   7 H :    0.253635
   8 C :   -0.427397
   9 H :    0.146904
  10 H :    0.149990
  11 H :    0.157459
  12 H :    0.121946
  13 H :    0.153411
Sum of atomic charges:    0.0000000

LOEWDIN ATOMIC CHARGES
----------------------
   0 C :   -0.250314
   1 C :   -0.380958
   2 N :   -0.013338
   3 C :   -0.283319
   4 H :    0.112424
   5 H :    0.106548
   6 H :    0.173018
   7 H :    0.181000
   8 C :   -0.313482
   9 H :    0.154167
  10 H :    0.147302
  11 H :    0.127444
  12 H :    0.115746
  13 H :    0.123764

  Mayer bond orders larger than 0.100000
B(  0-C ,  1-C ) :   0.9480 B(  0-C ,  8-C ) :   0.9327 B(  0-C ,  9-H ) :   0.9844
B(  0-C , 10-H ) :   0.9755 B(  1-C ,  2-N ) :   1.1185 B(  1-C ,  3-C ) :   1.8087
B(  2-N ,  6-H ) :   0.9335 B(  2-N ,  7-H ) :   0.9201 B(  3-C ,  4-H ) :   0.9974
B(  3-C ,  5-H ) :   0.9913 B(  8-C , 11-H ) :   0.9699 B(  8-C , 12-H ) :   0.9755
B(  8-C , 13-H ) :   0.9782

FINAL SINGLE POINT ENERGY      -211.906311563567

DIPOLE MOMENT
-------------
                                X             Y             Z
Electronic contribution:      1.72443      -1.70192      -1.39536
Nuclear contribution   :     -1.43372       2.52039       1.57679
                        -----------------------------------------
Total Dipole Moment    :      0.29071       0.81846       0.18143
                        -----------------------------------------
Magnitude (a.u.)       :      0.88730
Magnitude (Debye)      :      2.25535

Rotational constants in cm-1:     0.274962     0.131786     0.102554
Rotational constants in MHz :  8243.150005  3950.846092  3074.493018

                             ****ORCA TERMINATED NORMALLY****
TOTAL RUN TIME: 0 days 0 hours 0 minutes 31 seconds 706 msec
