                         Program Version 5.0.0 -  RELEASE  -
|  1> !LC-PBE RIJCOSX def2-TZVP def2/J TightSCF
|  2> *xyz 0 1
|  3> C          0.70466        1.44313       -4.50363
|  4> C          1.72854        1.42432       -5.63944
|  5> H          2.64672        1.95379       -5.38105
|  6> H          1.29992        1.93061       -6.50361
|  7> S          2.25263       -0.18811       -6.27184
|  8> O          3.56261       -0.44446       -5.63155
|  9> O          2.34494       -0.03374       -7.69650
| 10> F          1.26606       -1.15918       -5.80536
| 11> H         -0.17385        0.91270       -4.80656
| 12> H          0.44778        2.45562       -4.27173
| 13> H          1.12367        0.97423       -3.63791
| 14> *
| 15>
| 16> %MaxCore 64000
| 17>
| 18> %pal nprocs 4
| 19> end
| 20>
| 21> %scf
| 22>   MaxIter 150
| 23> end
| 24>
| 25>
| 26>                          ****END OF INPUT****

CARTESIAN COORDINATES (ANGSTROEM)
---------------------------------
  C      0.704660    1.443130   -4.503630
  C      1.728540    1.424320   -5.639440
  H      2.646720    1.953790   -5.381050
  H      1.299920    1.930610   -6.503610
  S      2.252630   -0.188110   -6.271840
  O      3.562610   -0.444460   -5.631550
  O      2.344940   -0.033740   -7.696500
  F      1.266060   -1.159180   -5.805360
  H     -0.173850    0.912700   -4.806560
  H      0.447780    2.455620   -4.271730
  H      1.123670    0.974230   -3.637910

 Total Charge           Charge          ....    0
 Multiplicity           Mult            ....    1
 Number of Electrons    NEL             ....   58
 Basis Dimension        Dim             ....  222

ORBITAL ENERGIES
----------------

  NO   OCC          E(Eh)            E(eV)
   0   2.0000     -88.533593     -2409.1215
   1   2.0000     -24.606733      -669.5833
   2   2.0000     -18.994762      -516.8738
   3   2.0000     -18.977846      -516.4134
   4   2.0000     -10.181276      -277.0466
   5   2.0000     -10.141652      -275.9684
   6   2.0000      -8.144670      -221.6277
   7   2.0000      -6.165227      -167.7644
   8   2.0000      -6.158021      -167.5683
   9   2.0000      -6.157453      -167.5528
  10   2.0000      -1.531960       -41.6867
  11   2.0000      -1.280100       -34.8333
  12   2.0000      -1.171978       -31.8912
  13   2.0000      -1.005634       -27.3647
  14   2.0000      -0.891727       -24.2651
  15   2.0000      -0.843157       -22.9435
  16   2.0000      -0.750340       -20.4178
  17   2.0000      -0.733565       -19.9613
  18   2.0000      -0.694467       -18.8974
  19   2.0000      -0.645259       -17.5584
  20   2.0000      -0.621393       -16.9090
  21   2.0000      -0.594711       -16.1829
  22   2.0000      -0.585543       -15.9334
  23   2.0000      -0.552504       -15.0344
  24   2.0000      -0.531437       -14.4611
  25   2.0000      -0.526970       -14.3396
  26   2.0000      -0.470681       -12.8079
  27   2.0000      -0.456647       -12.4260
  28   2.0000      -0.445529       -12.1235
  29   0.0000       0.093408         2.5417
  30   0.0000       0.135532         3.6880
  31   0.0000       0.151222         4.1150
  32   0.0000       0.159848         4.3497
  33   0.0000       0.163218         4.4414

MULLIKEN ATOMIC CHARGES
-----------------------
   0 C :   -0.457202
   1 C :   -0.313790
   2 H :    0.201809
   3 H :    0.190268
   4 S :    0.776634
   5 O :   -0.432420
   6 O :   -0.379869
   7 F :   -0.087126
   8 H :    0.162029
   9 H :    0.166229
  10 H :    0.173439
Sum of atomic charges:    0.0000000

LOEWDIN ATOMIC CHARGES
----------------------
   0 C :   -0.337504
   1 C :   -0.398765
   2 H :    0.156287
   3 H :    0.150356
   4 S :    0.516337
   5 O :   -0.315271
   6 O :   -0.255334
   7 F :    0.091129
   8 H :    0.127399
   9 H :    0.133942
  10 H :    0.131424

  Mayer bond orders larger than 0.100000
B(  0-C ,  1-C ) :   0.9535 B(  0-C ,  8-H ) :   0.9634 B(  0-C ,  9-H ) :   0.9612
B(  0-C , 10-H ) :   0.9626 B(  1-C ,  2-H ) :   0.9364 B(  1-C ,  3-H ) :   0.9400
B(  1-C ,  4-S ) :   0.9184 B(  4-S ,  5-O ) :   1.9114 B(  4-S ,  6-O ) :   1.9704
B(  4-S ,  7-F ) :   1.1637

FINAL SINGLE POINT ENERGY      -726.594014522980

DIPOLE MOMENT
-------------
                                X             Y             Z
Electronic contribution:      2.32878      -7.63722      -3.97552
Nuclear contribution   :     -3.70606       8.55465       4.82350
                        -----------------------------------------
Total Dipole Moment    :     -1.37728       0.91743       0.84798
                        -----------------------------------------
Magnitude (a.u.)       :      1.85947
Magnitude (Debye)      :      4.72640

Rotational constants in cm-1:     0.153201     0.080978     0.077494
Rotational constants in MHz :  4592.852844  2427.650814  2323.207507

                             ****ORCA TERMINATED NORMALLY****
TOTAL RUN TIME: 0 days 0 hours 0 minutes 29 seconds 104 msec
