                         Program Version 5.0.0 -  RELEASE  -
|  1> !LC-PBE RIJCOSX def2-TZVP def2/J TightSCF xyzfile
|  2>
|  3> *xyzfile 0 1 D2.xyz
|  4>
|  5> %MaxCore 64000
|  6>
|  7> %pal nprocs 18
|  8> end
|  9>
| 10> %scf
| 11>   MaxIter 150
| 12> end
| 13>
| 14>
| 15>                          ****END OF INPUT****

CARTESIAN COORDINATES (ANGSTROEM)
---------------------------------
  C      2.916324   -1.242589   -1.543125
  C      0.704661    1.443129   -4.503630
  C      1.728539    1.424320   -5.639443
  H      2.646718    1.953794   -5.381054
  H      1.299916    1.930613   -6.503614
  S      2.252625   -0.188115   -6.271840
  C      3.466585   -1.590971   -2.889082
  N      4.652275   -1.143164   -3.259692
  C      2.752264   -2.292043   -3.728029
  H      1.778364   -2.489604   -3.512738
  H      2.948612   -2.208544   -4.716813
  H      5.146723   -0.512508   -2.633852
  H      4.783030   -1.007203   -4.253498
  F      3.562607   -0.444464   -5.631552
  O      2.344944   -0.033742   -7.696501
  C      2.804084    0.290698   -1.359243
  C      1.052550    0.695659   -3.214915
  H     -0.232483    1.032925   -4.884449
  H      0.511700    2.495794   -4.267966
  C      2.388380    1.093669   -2.597108
  H      3.763425    0.674718   -0.999889
  H      2.094788    0.461222   -0.545756
  O      1.266058   -1.159177   -5.805365
  H      3.167316    1.013242   -3.359430
  H      2.357690    2.149375   -2.310997
  H      1.039284   -0.368429   -3.449329
  H      0.250787    0.865605   -2.488283
  H      1.940472   -1.716529   -1.441161
  H      3.558569   -1.663433   -0.766371

 Total Charge           Charge          ....    0
 Multiplicity           Mult            ....    1
 Number of Electrons    NEL             ....  112
 Basis Dimension        Dim             ....  505

ORBITAL ENERGIES
----------------

  NO   OCC          E(Eh)            E(eV)
   0   2.0000     -88.535171     -2409.1645
   1   2.0000     -24.603504      -669.4954
   2   2.0000     -18.997520      -516.9488
   3   2.0000     -18.987617      -516.6793
   4   2.0000     -14.209342      -386.6558
   5   2.0000     -10.179905      -277.0093
   6   2.0000     -10.142330      -275.9868
   7   2.0000     -10.134856      -275.7834
   8   2.0000     -10.124690      -275.5068
   9   2.0000     -10.122264      -275.4408
  10   2.0000     -10.117279      -275.3052
  11   2.0000     -10.116944      -275.2960
  12   2.0000     -10.040385      -273.2128
  13   2.0000      -8.146427      -221.6756
  14   2.0000      -6.167206      -167.8182
  15   2.0000      -6.159787      -167.6163
  16   2.0000      -6.158939      -167.5933
  17   2.0000      -1.525560       -41.5126
  18   2.0000      -1.287369       -35.0311
  19   2.0000      -1.186290       -32.2806
  20   2.0000      -1.109445       -30.1895
  21   2.0000      -1.021426       -27.7944
  22   2.0000      -0.982341       -26.7309
  23   2.0000      -0.935654       -25.4604
  24   2.0000      -0.906095       -24.6561
  25   2.0000      -0.875239       -23.8165
  26   2.0000      -0.849485       -23.1157
  27   2.0000      -0.793143       -21.5825
  28   2.0000      -0.757055       -20.6005
  29   2.0000      -0.733945       -19.9717
  30   2.0000      -0.728242       -19.8165
  31   2.0000      -0.712369       -19.3846
  32   2.0000      -0.700900       -19.0725
  33   2.0000      -0.672238       -18.2925
  34   2.0000      -0.644944       -17.5498
  35   2.0000      -0.641356       -17.4522
  36   2.0000      -0.628642       -17.1062
  37   2.0000      -0.612525       -16.6677
  38   2.0000      -0.596537       -16.2326
  39   2.0000      -0.588000       -16.0003
  40   2.0000      -0.579169       -15.7600
  41   2.0000      -0.558956       -15.2100
  42   2.0000      -0.543826       -14.7983
  43   2.0000      -0.531821       -14.4716
  44   2.0000      -0.522435       -14.2162
  45   2.0000      -0.519464       -14.1353
  46   2.0000      -0.500886       -13.6298
  47   2.0000      -0.492677       -13.4064
  48   2.0000      -0.482365       -13.1258
  49   2.0000      -0.468794       -12.7565
  50   2.0000      -0.466009       -12.6808
  51   2.0000      -0.457307       -12.4440
  52   2.0000      -0.453868       -12.3504
  53   2.0000      -0.443859       -12.0780
  54   2.0000      -0.443275       -12.0621
  55   2.0000      -0.313306        -8.5255
  56   0.0000       0.095322         2.5938
  57   0.0000       0.111369         3.0305
  58   0.0000       0.113168         3.0795
  59   0.0000       0.119064         3.2399
  60   0.0000       0.136403         3.7117

MULLIKEN ATOMIC CHARGES
-----------------------
   0 C :   -0.314895
   1 C :   -0.272450
   2 C :   -0.410972
   3 H :    0.206739
   4 H :    0.226375
   5 S :    0.814327
   6 C :    0.111423
   7 N :   -0.423281
   8 C :   -0.477690
   9 H :    0.143411
  10 H :    0.105142
  11 H :    0.252341
  12 H :    0.242808
  13 F :   -0.121176
  14 O :   -0.385191
  15 C :   -0.352806
  16 C :   -0.327148
  17 H :    0.188419
  18 H :    0.164007
  19 C :   -0.282537
  20 H :    0.169482
  21 H :    0.156000
  22 O :   -0.402954
  23 H :    0.135386
  24 H :    0.157142
  25 H :    0.193083
  26 H :    0.157283
  27 H :    0.177812
  28 H :    0.169917
Sum of atomic charges:    0.0000000

LOEWDIN ATOMIC CHARGES
----------------------
   0 C :   -0.229418
   1 C :   -0.298112
   2 C :   -0.378724
   3 H :    0.145822
   4 H :    0.160237
   5 S :    0.535709
   6 C :   -0.398722
   7 N :   -0.014079
   8 C :   -0.280423
   9 H :    0.112783
  10 H :    0.096768
  11 H :    0.173696
  12 H :    0.165994
  13 F :    0.067893
  14 O :   -0.252601
  15 C :   -0.276977
  16 C :   -0.286193
  17 H :    0.157322
  18 H :    0.154305
  19 C :   -0.287905
  20 H :    0.142004
  21 H :    0.147633
  22 O :   -0.252764
  23 H :    0.136724
  24 H :    0.145700
  25 H :    0.155568
  26 H :    0.148149
  27 H :    0.158333
  28 H :    0.151279

  Mayer bond orders larger than 0.100000
B(  0-C ,  6-C ) :   0.8976 B(  0-C , 15-C ) :   0.8898 B(  0-C , 27-H ) :   0.9869
B(  0-C , 28-H ) :   0.9876 B(  1-C ,  2-C ) :   0.9172 B(  1-C , 16-C ) :   0.9457
B(  1-C , 17-H ) :   0.9740 B(  1-C , 18-H ) :   0.9610 B(  2-C ,  3-H ) :   0.9417
B(  2-C ,  4-H ) :   0.9443 B(  2-C ,  5-S ) :   0.9178 B(  5-S , 13-F ) :   1.0953
B(  5-S , 14-O ) :   2.0118 B(  5-S , 22-O ) :   1.8898 B(  6-C ,  7-N ) :   1.1066
B(  6-C ,  8-C ) :   1.7109 B(  7-N , 11-H ) :   0.9290 B(  7-N , 12-H ) :   0.9236
B(  8-C ,  9-H ) :   1.0222 B(  8-C , 10-H ) :   1.0379 B( 15-C , 19-C ) :   0.9207
B( 15-C , 20-H ) :   1.0007 B( 15-C , 21-H ) :   0.9740 B( 16-C , 19-C ) :   0.8691
B( 16-C , 25-H ) :   0.9739 B( 16-C , 26-H ) :   0.9722 B( 19-C , 23-H ) :   0.9814
B( 19-C , 24-H ) :   0.9759

FINAL SINGLE POINT ENERGY     -1015.682479351584

DIPOLE MOMENT
-------------
                                X             Y             Z
Electronic contribution:      3.46946      -4.17303     -18.20307
Nuclear contribution   :     -3.13969       6.14743      19.30799
                        -----------------------------------------
Total Dipole Moment    :      0.32977       1.97440       1.10492
                        -----------------------------------------
Magnitude (a.u.)       :      2.28645
Magnitude (Debye)      :      5.81170

Rotational constants in cm-1:     0.036460     0.018762     0.015014
Rotational constants in MHz :  1093.039020   562.475626   450.105862

                             ****ORCA TERMINATED NORMALLY****
TOTAL RUN TIME: 0 days 0 hours 1 minutes 2 seconds 171 msec
