                         Program Version 5.0.0 -  RELEASE  -
|  1> !LC-PBE RIJCOSX def2-TZVP def2/J TightSCF xyzfile
|  2>
|  3> *xyzfile 0 1 D3.xyz
|  4>
|  5> %MaxCore 64000
|  6>
|  7> %pal nprocs 18
|  8> end
|  9>
| 10> %scf
| 11>   MaxIter 150
| 12> end
| 13>
| 14>
| 15>                          ****END OF INPUT****

CARTESIAN COORDINATES (ANGSTROEM)
---------------------------------
  C      2.916324   -1.242589   -1.543125
  C      0.704661    1.443129   -4.503630
  C      1.728539    1.424320   -5.639443
  H      2.646718    1.953794   -5.381054
  H      1.299916    1.930613   -6.503614
  S      2.252625   -0.188115   -6.271840
  C      3.466585   -1.590971   -2.889082
  C      4.652275   -1.143164   -3.259692
  N      2.752264   -2.292043   -3.728029
  H      1.778364   -2.489604   -3.512738
  H      2.948612   -2.208544   -4.716813
  H      5.146723   -0.512508   -2.633852
  H      4.783030   -1.007203   -4.253498
  O      3.562607   -0.444464   -5.631552
  F      2.344944   -0.033742   -7.696501
  C      2.804084    0.290698   -1.359243
  C      1.052550    0.695659   -3.214915
  H     -0.232483    1.032925   -4.884449
  H      0.511700    2.495794   -4.267966
  C      2.388380    1.093669   -2.597108
  H      3.763425    0.674718   -0.999889
  H      2.094788    0.461222   -0.545756
  O      1.266058   -1.159177   -5.805365
  H      3.167316    1.013242   -3.359430
  H      2.357690    2.149375   -2.310997
  H      1.039284   -0.368429   -3.449329
  H      0.250787    0.865605   -2.488283
  H      1.940472   -1.716529   -1.441161
  H      3.558569   -1.663433   -0.766371

 Total Charge           Charge          ....    0
 Multiplicity           Mult            ....    1
 Number of Electrons    NEL             ....  112
 Basis Dimension        Dim             ....  505

ORBITAL ENERGIES
----------------

  NO   OCC          E(Eh)            E(eV)
   0   2.0000     -88.548108     -2409.5165
   1   2.0000     -24.630147      -670.2204
   2   2.0000     -19.002916      -517.0956
   3   2.0000     -18.993808      -516.8478
   4   2.0000     -14.182128      -385.9153
   5   2.0000     -10.187185      -277.2074
   6   2.0000     -10.147846      -276.1369
   7   2.0000     -10.116451      -275.2826
   8   2.0000     -10.115321      -275.2519
   9   2.0000     -10.108604      -275.0691
  10   2.0000     -10.106137      -275.0020
  11   2.0000     -10.103480      -274.9297
  12   2.0000     -10.010377      -272.3962
  13   2.0000      -8.159559      -222.0329
  14   2.0000      -6.179796      -168.1608
  15   2.0000      -6.172851      -167.9718
  16   2.0000      -6.172530      -167.9631
  17   2.0000      -1.563843       -42.5543
  18   2.0000      -1.288409       -35.0594
  19   2.0000      -1.181864       -32.1602
  20   2.0000      -1.086054       -29.5530
  21   2.0000      -1.023329       -27.8462
  22   2.0000      -0.975218       -26.5370
  23   2.0000      -0.936512       -25.4838
  24   2.0000      -0.894734       -24.3470
  25   2.0000      -0.866074       -23.5671
  26   2.0000      -0.842387       -22.9225
  27   2.0000      -0.798656       -21.7325
  28   2.0000      -0.762649       -20.7527
  29   2.0000      -0.757568       -20.6145
  30   2.0000      -0.728669       -19.8281
  31   2.0000      -0.717151       -19.5147
  32   2.0000      -0.686783       -18.6883
  33   2.0000      -0.655506       -17.8372
  34   2.0000      -0.644958       -17.5502
  35   2.0000      -0.641924       -17.4676
  36   2.0000      -0.626943       -17.0600
  37   2.0000      -0.614186       -16.7129
  38   2.0000      -0.593654       -16.1542
  39   2.0000      -0.579728       -15.7752
  40   2.0000      -0.567584       -15.4448
  41   2.0000      -0.555717       -15.1218
  42   2.0000      -0.541549       -14.7363
  43   2.0000      -0.521312       -14.1856
  44   2.0000      -0.513843       -13.9824
  45   2.0000      -0.496966       -13.5231
  46   2.0000      -0.490373       -13.3437
  47   2.0000      -0.483692       -13.1619
  48   2.0000      -0.478921       -13.0321
  49   2.0000      -0.467148       -12.7118
  50   2.0000      -0.458109       -12.4658
  51   2.0000      -0.456897       -12.4328
  52   2.0000      -0.440697       -11.9920
  53   2.0000      -0.433035       -11.7835
  54   2.0000      -0.428495       -11.6600
  55   2.0000      -0.281080        -7.6486
  56   0.0000       0.097357         2.6492
  57   0.0000       0.106092         2.8869
  58   0.0000       0.124707         3.3934
  59   0.0000       0.133189         3.6242
  60   0.0000       0.136425         3.7123

MULLIKEN ATOMIC CHARGES
-----------------------
   0 C :   -0.326838
   1 C :   -0.284334
   2 C :   -0.403182
   3 H :    0.228484
   4 H :    0.202291
   5 S :    0.822265
   6 C :    0.080077
   7 C :   -0.439558
   8 N :   -0.406522
   9 H :    0.239636
  10 H :    0.247920
  11 H :    0.108984
  12 H :    0.149137
  13 O :   -0.441331
  14 F :   -0.061916
  15 C :   -0.343249
  16 C :   -0.293226
  17 H :    0.182368
  18 H :    0.170239
  19 C :   -0.286322
  20 H :    0.170942
  21 H :    0.143349
  22 O :   -0.424517
  23 H :    0.186764
  24 H :    0.148677
  25 H :    0.143884
  26 H :    0.158541
  27 H :    0.152445
  28 H :    0.174992
Sum of atomic charges:    0.0000000

LOEWDIN ATOMIC CHARGES
----------------------
   0 C :   -0.231246
   1 C :   -0.295062
   2 C :   -0.379127
   3 H :    0.156770
   4 H :    0.146944
   5 S :    0.529905
   6 C :   -0.396223
   7 C :   -0.302774
   8 N :    0.009545
   9 H :    0.165299
  10 H :    0.167631
  11 H :    0.106672
  12 H :    0.105635
  13 O :   -0.282416
  14 F :    0.123525
  15 C :   -0.270220
  16 C :   -0.284457
  17 H :    0.154773
  18 H :    0.157092
  19 C :   -0.286367
  20 H :    0.147453
  21 H :    0.142027
  22 O :   -0.274749
  23 H :    0.151696
  24 H :    0.142792
  25 H :    0.145507
  26 H :    0.148075
  27 H :    0.142515
  28 H :    0.158785

  Mayer bond orders larger than 0.100000
B(  0-C ,  6-C ) :   0.8831 B(  0-C , 15-C ) :   0.9147 B(  0-C , 27-H ) :   0.9981
B(  0-C , 28-H ) :   0.9824 B(  1-C ,  2-C ) :   0.9264 B(  1-C , 16-C ) :   0.9536
B(  1-C , 17-H ) :   0.9772 B(  1-C , 18-H ) :   0.9611 B(  2-C ,  3-H ) :   0.9329
B(  2-C ,  4-H ) :   0.9470 B(  2-C ,  5-S ) :   0.9232 B(  5-S , 13-O ) :   1.8302
B(  5-S , 14-F ) :   1.2113 B(  5-S , 22-O ) :   1.8782 B(  6-C ,  7-C ) :   1.7114
B(  6-C ,  8-N ) :   1.1774 B(  7-C , 11-H ) :   1.0041 B(  7-C , 12-H ) :   1.0007
B(  8-N ,  9-H ) :   0.9286 B(  8-N , 10-H ) :   0.9148 B( 15-C , 19-C ) :   0.9484
B( 15-C , 20-H ) :   0.9877 B( 15-C , 21-H ) :   0.9817 B( 16-C , 19-C ) :   0.8760
B( 16-C , 25-H ) :   0.9749 B( 16-C , 26-H ) :   0.9745 B( 19-C , 23-H ) :   0.9674
B( 19-C , 24-H ) :   0.9721

FINAL SINGLE POINT ENERGY     -1015.664366371790

DIPOLE MOMENT
-------------
                                X             Y             Z
Electronic contribution:     -0.00035      -4.07732     -22.54987
Nuclear contribution   :     -1.50273       5.82595      21.72909
                        -----------------------------------------
Total Dipole Moment    :     -1.50308       1.74863      -0.82078
                        -----------------------------------------
Magnitude (a.u.)       :      2.44758
Magnitude (Debye)      :      6.22125

Rotational constants in cm-1:     0.036883     0.018294     0.014745
Rotational constants in MHz :  1105.724679   548.429785   442.050481

                             ****ORCA TERMINATED NORMALLY****
TOTAL RUN TIME: 0 days 0 hours 1 minutes 5 seconds 112 msec
