                         Program Version 5.0.0 -  RELEASE  -
|  1> !LC-PBE RIJCOSX def2-TZVP def2/J TightSCF xyzfile
|  2>
|  3> *xyzfile 0 1 D4.xyz
|  4>
|  5> %MaxCore 64000
|  6>
|  7> %pal nprocs 18
|  8> end
|  9>
| 10> %scf
| 11>   MaxIter 150
| 12> end
| 13>
| 14>
| 15>                          ****END OF INPUT****

CARTESIAN COORDINATES (ANGSTROEM)
---------------------------------
  C      2.916324   -1.242589   -1.543125
  C      0.704661    1.443129   -4.503630
  C      1.728539    1.424320   -5.639443
  H      2.646718    1.953794   -5.381054
  H      1.299916    1.930613   -6.503614
  S      2.252625   -0.188115   -6.271840
  C      3.466585   -1.590971   -2.889082
  N      4.652275   -1.143164   -3.259692
  C      2.752264   -2.292043   -3.728029
  H      1.778364   -2.489604   -3.512738
  H      2.948612   -2.208544   -4.716813
  H      5.146723   -0.512508   -2.633852
  H      4.783030   -1.007203   -4.253498
  O      3.562607   -0.444464   -5.631552
  F      2.344944   -0.033742   -7.696501
  C      2.804084    0.290698   -1.359243
  C      1.052550    0.695659   -3.214915
  H     -0.232483    1.032925   -4.884449
  H      0.511700    2.495794   -4.267966
  C      2.388380    1.093669   -2.597108
  H      3.763425    0.674718   -0.999889
  H      2.094788    0.461222   -0.545756
  O      1.266058   -1.159177   -5.805365
  H      3.167316    1.013242   -3.359430
  H      2.357690    2.149375   -2.310997
  H      1.039284   -0.368429   -3.449329
  H      0.250787    0.865605   -2.488283
  H      1.940472   -1.716529   -1.441161
  H      3.558569   -1.663433   -0.766371

 Total Charge           Charge          ....    0
 Multiplicity           Mult            ....    1
 Number of Electrons    NEL             ....  112
 Basis Dimension        Dim             ....  505

ORBITAL ENERGIES
----------------

  NO   OCC          E(Eh)            E(eV)
   0   2.0000     -88.543811     -2409.3996
   1   2.0000     -24.626198      -670.1129
   2   2.0000     -18.993568      -516.8413
   3   2.0000     -18.990521      -516.7584
   4   2.0000     -14.180273      -385.8649
   5   2.0000     -10.183933      -277.1189
   6   2.0000     -10.143881      -276.0290
   7   2.0000     -10.112124      -275.1649
   8   2.0000     -10.111773      -275.1553
   9   2.0000     -10.110279      -275.1147
  10   2.0000     -10.109341      -275.0892
  11   2.0000     -10.101402      -274.8731
  12   2.0000     -10.015431      -272.5337
  13   2.0000      -8.154915      -221.9065
  14   2.0000      -6.175153      -168.0344
  15   2.0000      -6.168153      -167.8440
  16   2.0000      -6.168014      -167.8402
  17   2.0000      -1.559757       -42.4431
  18   2.0000      -1.281301       -34.8660
  19   2.0000      -1.175899       -31.9978
  20   2.0000      -1.082260       -29.4498
  21   2.0000      -1.019604       -27.7448
  22   2.0000      -0.973521       -26.4909
  23   2.0000      -0.930922       -25.3317
  24   2.0000      -0.896838       -24.4042
  25   2.0000      -0.872304       -23.7366
  26   2.0000      -0.839451       -22.8426
  27   2.0000      -0.790426       -21.5086
  28   2.0000      -0.759289       -20.6613
  29   2.0000      -0.753315       -20.4987
  30   2.0000      -0.726317       -19.7641
  31   2.0000      -0.715875       -19.4799
  32   2.0000      -0.684585       -18.6285
  33   2.0000      -0.655033       -17.8243
  34   2.0000      -0.647396       -17.6165
  35   2.0000      -0.641897       -17.4669
  36   2.0000      -0.619647       -16.8615
  37   2.0000      -0.601983       -16.3808
  38   2.0000      -0.592357       -16.1189
  39   2.0000      -0.582296       -15.8451
  40   2.0000      -0.568332       -15.4651
  41   2.0000      -0.548520       -14.9260
  42   2.0000      -0.538698       -14.6587
  43   2.0000      -0.519429       -14.1344
  44   2.0000      -0.514819       -14.0089
  45   2.0000      -0.503058       -13.6889
  46   2.0000      -0.489454       -13.3187
  47   2.0000      -0.483134       -13.1467
  48   2.0000      -0.475152       -12.9295
  49   2.0000      -0.458142       -12.4667
  50   2.0000      -0.453003       -12.3268
  51   2.0000      -0.451107       -12.2753
  52   2.0000      -0.441157       -12.0045
  53   2.0000      -0.433878       -11.8064
  54   2.0000      -0.423261       -11.5175
  55   2.0000      -0.288976        -7.8634
  56   0.0000       0.099342         2.7032
  57   0.0000       0.110419         3.0047
  58   0.0000       0.119223         3.2442
  59   0.0000       0.135161         3.6779
  60   0.0000       0.140074         3.8116

MULLIKEN ATOMIC CHARGES
-----------------------
   0 C :   -0.317376
   1 C :   -0.285731
   2 C :   -0.399792
   3 H :    0.220264
   4 H :    0.201858
   5 S :    0.833964
   6 C :    0.122412
   7 N :   -0.431434
   8 C :   -0.481881
   9 H :    0.130073
  10 H :    0.126845
  11 H :    0.240004
  12 H :    0.267185
  13 O :   -0.466550
  14 F :   -0.063040
  15 C :   -0.351357
  16 C :   -0.303097
  17 H :    0.183039
  18 H :    0.166907
  19 C :   -0.295301
  20 H :    0.165613
  21 H :    0.148883
  22 O :   -0.399755
  23 H :    0.163301
  24 H :    0.149021
  25 H :    0.186575
  26 H :    0.154026
  27 H :    0.171704
  28 H :    0.163641
Sum of atomic charges:    0.0000000

LOEWDIN ATOMIC CHARGES
----------------------
   0 C :   -0.232390
   1 C :   -0.295525
   2 C :   -0.380520
   3 H :    0.153887
   4 H :    0.146580
   5 S :    0.537710
   6 C :   -0.397356
   7 N :   -0.012196
   8 C :   -0.287578
   9 H :    0.107205
  10 H :    0.101795
  11 H :    0.168509
  12 H :    0.171712
  13 O :   -0.300164
  14 F :    0.122670
  15 C :   -0.278449
  16 C :   -0.282846
  17 H :    0.155600
  18 H :    0.155686
  19 C :   -0.287483
  20 H :    0.141441
  21 H :    0.144862
  22 O :   -0.249314
  23 H :    0.144611
  24 H :    0.142725
  25 H :    0.156638
  26 H :    0.147161
  27 H :    0.155904
  28 H :    0.149127

  Mayer bond orders larger than 0.100000
B(  0-C ,  6-C ) :   0.9064 B(  0-C , 15-C ) :   0.8914 B(  0-C , 27-H ) :   0.9885
B(  0-C , 28-H ) :   0.9903 B(  1-C ,  2-C ) :   0.9257 B(  1-C , 16-C ) :   0.9493
B(  1-C , 17-H ) :   0.9766 B(  1-C , 18-H ) :   0.9614 B(  2-C ,  3-H ) :   0.9351
B(  2-C ,  4-H ) :   0.9485 B(  2-C ,  5-S ) :   0.9236 B(  5-S , 13-O ) :   1.8159
B(  5-S , 14-F ) :   1.2084 B(  5-S , 22-O ) :   1.9099 B(  6-C ,  7-N ) :   1.1230
B(  6-C ,  8-C ) :   1.7106 B(  7-N , 11-H ) :   0.9338 B(  7-N , 12-H ) :   0.9080
B(  8-C ,  9-H ) :   1.0270 B(  8-C , 10-H ) :   1.0234 B( 15-C , 19-C ) :   0.9247
B( 15-C , 20-H ) :   0.9997 B( 15-C , 21-H ) :   0.9760 B( 16-C , 19-C ) :   0.8672
B( 16-C , 25-H ) :   0.9726 B( 16-C , 26-H ) :   0.9738 B( 19-C , 23-H ) :   0.9748
B( 19-C , 24-H ) :   0.9757

FINAL SINGLE POINT ENERGY     -1015.668093880676

DIPOLE MOMENT
-------------
                                X             Y             Z
Electronic contribution:      1.30611      -3.36808     -22.22816
Nuclear contribution   :     -1.74760       5.67788      21.66873
                        -----------------------------------------
Total Dipole Moment    :     -0.44149       2.30980      -0.55943
                        -----------------------------------------
Magnitude (a.u.)       :      2.41724
Magnitude (Debye)      :      6.14414

Rotational constants in cm-1:     0.036818     0.018222     0.014682
Rotational constants in MHz :  1103.783048   546.296792   440.157914

                             ****ORCA TERMINATED NORMALLY****
TOTAL RUN TIME: 0 days 0 hours 1 minutes 1 seconds 591 msec
