                         Program Version 5.0.0 -  RELEASE  -
|  1> !LC-BLYP RIJCOSX def2-SVPD def2/J TightSCF
|  2> *xyz -1 1
|  3> C         -0.77455        2.78833       -0.54394
|  4> C          0.69721        3.22791       -0.52513
|  5> O          1.48929        2.37470        0.19919
|  6> H          0.71600        4.26403       -0.13077
|  7> H          1.03615        3.33092       -1.58367
|  8> H         -1.34746        3.48478       -1.11982
|  9> H         -1.15078        2.75876        0.45729
| 10> H         -0.85058        1.81526       -0.98241
| 11> *
| 12>
| 13> %MaxCore 64000
| 14> %pal nprocs 4
| 15> end
| 16>
| 17> %scf
| 18>   MaxIter 150
| 19> end
| 20>
| 21>
| 22>                          ****END OF INPUT****

CARTESIAN COORDINATES (ANGSTROEM)
---------------------------------
  C     -0.774550    2.788330   -0.543940
  C      0.697210    3.227910   -0.525130
  O      1.489290    2.374700    0.199190
  H      0.716000    4.264030   -0.130770
  H      1.036150    3.330920   -1.583670
  H     -1.347460    3.484780   -1.119820
  H     -1.150780    2.758760    0.457290
  H     -0.850580    1.815260   -0.982410

 Total Charge           Charge          ....   -1
 Multiplicity           Mult            ....    1
 Number of Electrons    NEL             ....   26
 Basis Dimension        Dim             ....  103

ORBITAL ENERGIES
----------------

  NO   OCC          E(Eh)            E(eV)
   0   2.0000     -18.622825      -506.7528
   1   2.0000      -9.901144      -269.4238
   2   2.0000      -9.877846      -268.7898
   3   2.0000      -0.766419       -20.8553
   4   2.0000      -0.627818       -17.0838
   5   2.0000      -0.474763       -12.9190
   6   2.0000      -0.357928        -9.7397
   7   2.0000      -0.332320        -9.0429
   8   2.0000      -0.277637        -7.5549
   9   2.0000      -0.256460        -6.9786
  10   2.0000      -0.211205        -5.7472
  11   2.0000      -0.065995        -1.7958
  12   2.0000      -0.063726        -1.7341
  13   0.0000       0.229622         6.2483
  14   0.0000       0.261162         7.1066
  15   0.0000       0.299982         8.1629
  16   0.0000       0.312493         8.5034
  17   0.0000       0.328436         8.9372

MULLIKEN ATOMIC CHARGES
-----------------------
   0 C :    0.539321
   1 C :    0.134115
   2 O :   -0.810844
   3 H :   -0.208436
   4 H :   -0.196337
   5 H :   -0.133852
   6 H :   -0.160967
   7 H :   -0.163001
Sum of atomic charges:   -1.0000000

LOEWDIN ATOMIC CHARGES
----------------------
   0 C :    0.050178
   1 C :   -0.288661
   2 O :   -0.577837
   3 H :   -0.028140
   4 H :   -0.023974
   5 H :   -0.054789
   6 H :   -0.038111
   7 H :   -0.038665

  Mayer bond orders larger than 0.100000
B(  0-C ,  1-C ) :   1.1681 B(  0-C ,  2-O ) :   0.1083 B(  0-C ,  3-H ) :   0.1373
B(  0-C ,  4-H ) :   0.1279 B(  0-C ,  5-H ) :   0.8538 B(  0-C ,  6-H ) :   0.8563
B(  0-C ,  7-H ) :   0.8603 B(  1-C ,  2-O ) :   1.2663 B(  1-C ,  3-H ) :   0.9560
B(  1-C ,  4-H ) :   0.9671 B(  1-C ,  5-H ) :   0.1504 B(  1-C ,  6-H ) :   0.2006
B(  1-C ,  7-H ) :   0.1992

FINAL SINGLE POINT ENERGY      -153.941036486740

DIPOLE MOMENT
-------------
                                X             Y             Z
Electronic contribution:      2.27536      -0.93369       1.08594
Nuclear contribution   :     -3.69910       1.55962      -1.78699
                        -----------------------------------------
Total Dipole Moment    :     -1.42373       0.62593      -0.70105
                        -----------------------------------------
Magnitude (a.u.)       :      1.70596
Magnitude (Debye)      :      4.33620

Rotational constants in cm-1:     1.268893     0.327436     0.287754
Rotational constants in MHz : 38040.440181  9816.269339  8626.646564

                             ****ORCA TERMINATED NORMALLY****
TOTAL RUN TIME: 0 days 0 hours 0 minutes 12 seconds 192 msec
