                         Program Version 5.0.0 -  RELEASE  -
|  1> !LC-BLYP RIJCOSX def2-SVPD def2/J TightSCF
|  2> *xyz 1 1
|  3> C          3.95643        0.50147       -0.37910
|  4> H          3.16840        0.02920        0.20738
|  5> N          3.80389        1.96157       -0.15675
|  6> C          3.84232        0.14849       -1.85406
|  7> H          4.92323        0.17798        0.00937
|  8> H          4.20643        2.24441        0.74536
|  9> H          2.80827        2.21132       -0.09610
| 10> H          4.28076        2.50155       -0.89104
| 11> H          4.62951        0.62800       -2.39748
| 12> H          2.89665        0.48102       -2.22825
| 13> H          3.92053       -0.91187       -1.97413
| 14> *
| 15>
| 16> %MaxCore 64000
| 17> %pal nprocs 4
| 18> end
| 19>
| 20> %scf
| 21>   MaxIter 150
| 22> end
| 23>
| 24>
| 25>                          ****END OF INPUT****

CARTESIAN COORDINATES (ANGSTROEM)
---------------------------------
  C      3.956430    0.501470   -0.379100
  H      3.168400    0.029200    0.207380
  N      3.803890    1.961570   -0.156750
  C      3.842320    0.148490   -1.854060
  H      4.923230    0.177980    0.009370
  H      4.206430    2.244410    0.745360
  H      2.808270    2.211320   -0.096100
  H      4.280760    2.501550   -0.891040
  H      4.629510    0.628000   -2.397480
  H      2.896650    0.481020   -2.228250
  H      3.920530   -0.911870   -1.974130

 Total Charge           Charge          ....    1
 Multiplicity           Mult            ....    1
 Number of Electrons    NEL             ....   26
 Basis Dimension        Dim             ....  124

ORBITAL ENERGIES
----------------

  NO   OCC          E(Eh)            E(eV)
   0   2.0000     -14.522542      -395.1785
   1   2.0000     -10.339030      -281.3393
   2   2.0000     -10.260687      -279.2075
   3   2.0000      -1.310968       -35.6732
   4   2.0000      -1.070394       -29.1269
   5   2.0000      -0.950221       -25.8568
   6   2.0000      -0.909761       -24.7559
   7   2.0000      -0.890432       -24.2299
   8   2.0000      -0.801548       -21.8112
   9   2.0000      -0.747391       -20.3376
  10   2.0000      -0.684414       -18.6239
  11   2.0000      -0.669190       -18.2096
  12   2.0000      -0.649245       -17.6669
  13   0.0000      -0.132834        -3.6146
  14   0.0000      -0.072165        -1.9637
  15   0.0000      -0.070245        -1.9115
  16   0.0000      -0.064863        -1.7650
  17   0.0000      -0.032191        -0.8760

MULLIKEN ATOMIC CHARGES
-----------------------
   0 C :    0.328031
   1 H :   -0.159987
   2 N :   -0.727622
   3 C :    0.856144
   4 H :   -0.136733
   5 H :    0.340954
   6 H :    0.390728
   7 H :    0.389053
   8 H :   -0.108760
   9 H :   -0.067119
  10 H :   -0.104689
Sum of atomic charges:    1.0000000

LOEWDIN ATOMIC CHARGES
----------------------
   0 C :    0.032485
   1 H :    0.058040
   2 N :    0.327824
   3 C :    0.159160
   4 H :    0.059160
   5 H :    0.110048
   6 H :    0.113538
   7 H :    0.109382
   8 H :    0.004718
   9 H :    0.005807
  10 H :    0.019839

  Mayer bond orders larger than 0.100000
B(  0-C ,  1-H ) :   0.8742 B(  0-C ,  2-N ) :   0.8290 B(  0-C ,  3-C ) :   1.3180
B(  0-C ,  4-H ) :   0.8928 B(  0-C ,  8-H ) :   0.1918 B(  0-C ,  9-H ) :   0.1720
B(  0-C , 10-H ) :   0.2170 B(  1-H ,  2-N ) :   0.1360 B(  2-N ,  5-H ) :   0.7895
B(  2-N ,  6-H ) :   0.7342 B(  2-N ,  7-H ) :   0.7194 B(  3-C ,  8-H ) :   0.7842
B(  3-C ,  9-H ) :   0.7761 B(  3-C , 10-H ) :   0.7745

FINAL SINGLE POINT ENERGY      -135.044793916644

DIPOLE MOMENT
-------------
                                X             Y             Z
Electronic contribution:     -0.01283       1.34418       1.25936
Nuclear contribution   :     -0.06214      -0.04120      -0.39947
                        -----------------------------------------
Total Dipole Moment    :     -0.07497       1.30297       0.85989
                        -----------------------------------------
Magnitude (a.u.)       :      1.56294
Magnitude (Debye)      :      3.97267

Rotational constants in cm-1:     1.011771     0.281435     0.249812
Rotational constants in MHz : 30332.138762  8437.210602  7489.166323

                             ****ORCA TERMINATED NORMALLY****
TOTAL RUN TIME: 0 days 0 hours 0 minutes 12 seconds 466 msec
