                         Program Version 5.0.0 -  RELEASE  -
|  1> !LC-BLYP RIJCOSX def2-SVPD def2/J TightSCF
|  2> *xyz 0 1
|  3> C         -0.77455        2.78833       -0.54394
|  4> C          0.69721        3.22791       -0.52513
|  5> F          1.48929        2.37470        0.19919
|  6> H          0.71600        4.26403       -0.13077
|  7> H          1.03615        3.33092       -1.58367
|  8> H         -1.34746        3.48478       -1.11982
|  9> H         -1.15078        2.75876        0.45729
| 10> H         -0.85058        1.81526       -0.98241
| 11> *
| 12>
| 13> %MaxCore 64000
| 14> %pal nprocs 4
| 15> end
| 16>
| 17> %scf
| 18>   MaxIter 150
| 19> end
| 20>
| 21>
| 22>                          ****END OF INPUT****

CARTESIAN COORDINATES (ANGSTROEM)
---------------------------------
  C     -0.774550    2.788330   -0.543940
  C      0.697210    3.227910   -0.525130
  F      1.489290    2.374700    0.199190
  H      0.716000    4.264030   -0.130770
  H      1.036150    3.330920   -1.583670
  H     -1.347460    3.484780   -1.119820
  H     -1.150780    2.758760    0.457290
  H     -0.850580    1.815260   -0.982410

 Total Charge           Charge          ....    0
 Multiplicity           Mult            ....    1
 Number of Electrons    NEL             ....   26
 Basis Dimension        Dim             ....  103

ORBITAL ENERGIES
----------------

  NO   OCC          E(Eh)            E(eV)
   0   2.0000     -24.464553      -665.7143
   1   2.0000     -10.167514      -276.6721
   2   2.0000     -10.083189      -274.3775
   3   2.0000      -1.265398       -34.4332
   4   2.0000      -0.869637       -23.6640
   5   2.0000      -0.735132       -20.0040
   6   2.0000      -0.616848       -16.7853
   7   2.0000      -0.604718       -16.4552
   8   2.0000      -0.564634       -15.3645
   9   2.0000      -0.507917       -13.8211
  10   2.0000      -0.503188       -13.6924
  11   2.0000      -0.438671       -11.9368
  12   2.0000      -0.429986       -11.7005
  13   0.0000       0.073835         2.0092
  14   0.0000       0.104489         2.8433
  15   0.0000       0.134219         3.6523
  16   0.0000       0.139356         3.7921
  17   0.0000       0.168247         4.5782

MULLIKEN ATOMIC CHARGES
-----------------------
   0 C :    0.595709
   1 C :    0.442940
   2 F :   -0.374898
   3 H :   -0.134115
   4 H :   -0.121686
   5 H :   -0.118760
   6 H :   -0.143070
   7 H :   -0.146120
Sum of atomic charges:   -0.0000000

LOEWDIN ATOMIC CHARGES
----------------------
   0 C :    0.123649
   1 C :    0.030693
   2 F :   -0.198480
   3 H :    0.034431
   4 H :    0.039448
   5 H :   -0.009048
   6 H :   -0.010099
   7 H :   -0.010593

  Mayer bond orders larger than 0.100000
B(  0-C ,  1-C ) :   1.3200 B(  0-C ,  5-H ) :   0.8139 B(  0-C ,  6-H ) :   0.8409
B(  0-C ,  7-H ) :   0.8447 B(  1-C ,  2-F ) :   0.8644 B(  1-C ,  3-H ) :   0.9166
B(  1-C ,  4-H ) :   0.9232 B(  1-C ,  5-H ) :   0.1414 B(  1-C ,  6-H ) :   0.1663
B(  1-C ,  7-H ) :   0.1640

FINAL SINGLE POINT ENERGY      -178.539897658284

DIPOLE MOMENT
-------------
                                X             Y             Z
Electronic contribution:      4.38412      -1.62258       1.97411
Nuclear contribution   :     -4.89513       2.05627      -2.36166
                        -----------------------------------------
Total Dipole Moment    :     -0.51101       0.43369      -0.38756
                        -----------------------------------------
Magnitude (a.u.)       :      0.77422
Magnitude (Debye)      :      1.96792

Rotational constants in cm-1:     1.247826     0.304622     0.269019
Rotational constants in MHz : 37408.889506  9132.346906  8064.979146

                             ****ORCA TERMINATED NORMALLY****
TOTAL RUN TIME: 0 days 0 hours 0 minutes 9 seconds 607 msec
