                         Program Version 5.0.0 -  RELEASE  -
|  1> !LC-BLYP RIJCOSX def2-SVPD def2/J TightSCF
|  2> *xyz 0 1
|  3> C          3.95643        0.50147       -0.37910
|  4> H          3.16840        0.02920        0.20738
|  5> C          3.80389        1.96157       -0.15675
|  6> C          3.84232        0.14849       -1.85406
|  7> H          4.92323        0.17798        0.00937
|  8> H          4.20643        2.24441        0.74536
|  9> H          2.80827        2.21132       -0.09610
| 10> H          4.28076        2.50155       -0.89104
| 11> H          4.62951        0.62800       -2.39748
| 12> H          2.89665        0.48102       -2.22825
| 13> H          3.92053       -0.91187       -1.97413
| 14> *
| 15>
| 16> %MaxCore 64000
| 17> %pal nprocs 4
| 18> end
| 19>
| 20> %scf
| 21>   MaxIter 150
| 22> end
| 23>
| 24>
| 25>                          ****END OF INPUT****

CARTESIAN COORDINATES (ANGSTROEM)
---------------------------------
  C      3.956430    0.501470   -0.379100
  H      3.168400    0.029200    0.207380
  C      3.803890    1.961570   -0.156750
  C      3.842320    0.148490   -1.854060
  H      4.923230    0.177980    0.009370
  H      4.206430    2.244410    0.745360
  H      2.808270    2.211320   -0.096100
  H      4.280760    2.501550   -0.891040
  H      4.629510    0.628000   -2.397480
  H      2.896650    0.481020   -2.228250
  H      3.920530   -0.911870   -1.974130

 Total Charge           Charge          ....    0
 Multiplicity           Mult            ....    1
 Number of Electrons    NEL             ....   26
 Basis Dimension        Dim             ....  124

ORBITAL ENERGIES
----------------

  NO   OCC          E(Eh)            E(eV)
   0   2.0000     -10.071704      -274.0650
   1   2.0000     -10.063430      -273.8399
   2   2.0000     -10.047182      -273.3977
   3   2.0000      -0.896766       -24.4023
   4   2.0000      -0.793123       -21.5820
   5   2.0000      -0.688148       -18.7255
   6   2.0000      -0.577174       -15.7057
   7   2.0000      -0.552237       -15.0271
   8   2.0000      -0.504724       -13.7342
   9   2.0000      -0.491679       -13.3793
  10   2.0000      -0.436599       -11.8805
  11   2.0000      -0.433699       -11.8016
  12   2.0000      -0.422252       -11.4901
  13   0.0000       0.079048         2.1510
  14   0.0000       0.105410         2.8683
  15   0.0000       0.112728         3.0675
  16   0.0000       0.143017         3.8917
  17   0.0000       0.162077         4.4103

MULLIKEN ATOMIC CHARGES
-----------------------
   0 C :   -0.384605
   1 H :   -0.172038
   2 C :    1.140648
   3 C :    0.841839
   4 H :   -0.184399
   5 H :   -0.275204
   6 H :   -0.242369
   7 H :   -0.302903
   8 H :   -0.107861
   9 H :   -0.131272
  10 H :   -0.181837
Sum of atomic charges:    0.0000000

LOEWDIN ATOMIC CHARGES
----------------------
   0 C :   -0.130807
   1 H :    0.025945
   2 C :    0.100306
   3 C :    0.102218
   4 H :    0.026112
   5 H :   -0.030680
   6 H :   -0.024583
   7 H :   -0.027167
   8 H :   -0.012836
   9 H :   -0.010664
  10 H :   -0.017844

  Mayer bond orders larger than 0.100000
B(  0-C ,  1-H ) :   0.8897 B(  0-C ,  2-C ) :   1.2961 B(  0-C ,  3-C ) :   1.2800
B(  0-C ,  4-H ) :   0.8948 B(  0-C ,  5-H ) :   0.2449 B(  0-C ,  6-H ) :   0.2882
B(  0-C ,  7-H ) :   0.2064 B(  0-C ,  8-H ) :   0.1793 B(  0-C ,  9-H ) :   0.2062
B(  0-C , 10-H ) :   0.2234 B(  1-H ,  2-C ) :   0.1451 B(  2-C ,  5-H ) :   0.6132
B(  2-C ,  6-H ) :   0.5898 B(  2-C ,  7-H ) :   0.6499 B(  3-C ,  8-H ) :   0.7855
B(  3-C ,  9-H ) :   0.7780 B(  3-C , 10-H ) :   0.7631

FINAL SINGLE POINT ENERGY      -118.652067108878

DIPOLE MOMENT
-------------
                                X             Y             Z
Electronic contribution:      0.08105      -0.29854       0.23751
Nuclear contribution   :     -0.08172       0.30475      -0.19303
                        -----------------------------------------
Total Dipole Moment    :     -0.00066       0.00621       0.04448
                        -----------------------------------------
Magnitude (a.u.)       :      0.04492
Magnitude (Debye)      :      0.11416

Rotational constants in cm-1:     1.020248     0.295755     0.261591
Rotational constants in MHz : 30586.266829  8866.511639  7842.297953

                             ****ORCA TERMINATED NORMALLY****
TOTAL RUN TIME: 0 days 0 hours 0 minutes 12 seconds 615 msec
