                         Program Version 5.0.0 -  RELEASE  -
|  1> !LC-BLYP RIJCOSX def2-SVPD def2/J TightSCF xyzfile
|  2>
|  3> *xyzfile 0 1 D.xyz
|  4>
|  5> %MaxCore 64000
|  6>
|  7> %pal nprocs 4
|  8> end
|  9>
| 10> %scf
| 11>   MaxIter 150
| 12> end
| 13>
| 14>
| 15>                          ****END OF INPUT****

CARTESIAN COORDINATES (ANGSTROEM)
---------------------------------
  C      3.956426    0.501466   -0.379100
  H      3.168398    0.029201    0.207383
  C      3.803893    1.961572   -0.156747
  C      3.842322    0.148490   -1.854058
  H      4.923231    0.177982    0.009371
  H      4.620021    0.694502   -2.402150
  H      4.096015   -0.910930   -1.955103
  C      2.475619    0.412708   -2.485377
  H      2.174689    1.445076   -2.287971
  C      1.383931   -0.532740   -1.995203
  H      2.575613    0.318574   -3.571460
  H      1.264698   -0.412309   -0.915491
  H      1.705223   -1.566885   -2.164984
  C      0.031398   -0.317260   -2.677791
  C     -0.587292    1.060853   -2.436460
  H     -0.662815   -1.089530   -2.329985
  H      0.149465   -0.478040   -3.755648
  H      0.104376    1.828590   -2.793130
  C     -0.951213    1.334978   -0.972500
  H     -1.478832    1.161355   -3.062484
  H     -0.317007    0.741648   -0.311389
  H     -1.980916    1.012842   -0.788958
  C     -0.774550    2.788332   -0.543943
  H     -1.352609    3.459372   -1.192585
  H     -1.171014    2.902331    0.469968
  C      0.697208    3.227911   -0.525126
  F      1.489294    2.374703    0.199189
  H      0.715998    4.264030   -0.130774
  H      1.036148    3.330920   -1.583669
  H      4.206425    2.244406    0.745359
  H      2.808269    2.211323   -0.096097
  H      4.280757    2.501552   -0.891037

 Total Charge           Charge          ....    0
 Multiplicity           Mult            ....    1
 Number of Electrons    NEL             ....   90
 Basis Dimension        Dim             ....  391

ORBITAL ENERGIES
----------------

  NO   OCC          E(Eh)            E(eV)
   0   2.0000     -24.485017      -666.2712
   1   2.0000     -10.174861      -276.8721
   2   2.0000     -10.097057      -274.7549
   3   2.0000     -10.082759      -274.3658
   4   2.0000     -10.079299      -274.2717
   5   2.0000     -10.075857      -274.1780
   6   2.0000     -10.069973      -274.0179
   7   2.0000     -10.068062      -273.9659
   8   2.0000     -10.061799      -273.7955
   9   2.0000     -10.051638      -273.5190
  10   2.0000      -9.999895      -272.1110
  11   2.0000      -1.298589       -35.3364
  12   2.0000      -0.926624       -25.2147
  13   2.0000      -0.906458       -24.6660
  14   2.0000      -0.872761       -23.7490
  15   2.0000      -0.841358       -22.8945
  16   2.0000      -0.793471       -21.5915
  17   2.0000      -0.769041       -20.9267
  18   2.0000      -0.728704       -19.8290
  19   2.0000      -0.705677       -19.2024
  20   2.0000      -0.669496       -18.2179
  21   2.0000      -0.659248       -17.9390
  22   2.0000      -0.633393       -17.2355
  23   2.0000      -0.624200       -16.9853
  24   2.0000      -0.602906       -16.4059
  25   2.0000      -0.577687       -15.7197
  26   2.0000      -0.566267       -15.4089
  27   2.0000      -0.555222       -15.1084
  28   2.0000      -0.535036       -14.5591
  29   2.0000      -0.531017       -14.4497
  30   2.0000      -0.513455       -13.9718
  31   2.0000      -0.496378       -13.5071
  32   2.0000      -0.488336       -13.2883
  33   2.0000      -0.476115       -12.9557
  34   2.0000      -0.466327       -12.6894
  35   2.0000      -0.454661       -12.3719
  36   2.0000      -0.448579       -12.2065
  37   2.0000      -0.441513       -12.0142
  38   2.0000      -0.422243       -11.4898
  39   2.0000      -0.417500       -11.3607
  40   2.0000      -0.411211       -11.1896
  41   2.0000      -0.410056       -11.1582
  42   2.0000      -0.394199       -10.7267
  43   2.0000      -0.392404       -10.6778
  44   2.0000      -0.369387       -10.0515
  45   0.0000       0.071587         1.9480
  46   0.0000       0.080728         2.1967
  47   0.0000       0.086997         2.3673
  48   0.0000       0.091856         2.4995
  49   0.0000       0.105717         2.8767

MULLIKEN ATOMIC CHARGES
-----------------------
   0 C :    0.168879
   1 H :   -0.052850
   2 C :    3.437843
   3 C :    0.451155
   4 H :   -0.451921
   5 H :   -0.096947
   6 H :   -0.138502
   7 C :    0.705993
   8 H :   -0.823098
   9 C :    0.197094
  10 H :   -0.118029
  11 H :   -0.229184
  12 H :   -0.252550
  13 C :    0.737814
  14 C :    0.400712
  15 H :   -0.315211
  16 H :   -0.025071
  17 H :   -0.277175
  18 C :    0.330292
  19 H :   -0.320273
  20 H :   -0.183951
  21 H :   -0.225264
  22 C :    0.405928
  23 H :   -0.198243
  24 H :   -0.051616
  25 C :    0.751778
  26 F :   -0.428638
  27 H :   -0.344683
  28 H :    0.042846
  29 H :    0.053061
  30 H :   -2.947690
  31 H :   -0.202497
Sum of atomic charges:   -0.0000000

LOEWDIN ATOMIC CHARGES
----------------------
   0 C :   -0.063244
   1 H :    0.018926
   2 C :    0.125622
   3 C :   -0.046645
   4 H :    0.024134
   5 H :    0.028592
   6 H :    0.021943
   7 C :   -0.032481
   8 H :   -0.005711
   9 C :   -0.039700
  10 H :    0.032257
  11 H :    0.003468
  12 H :    0.033013
  13 C :   -0.041282
  14 C :   -0.031997
  15 H :    0.028512
  16 H :    0.028328
  17 H :   -0.001133
  18 C :   -0.031289
  19 H :    0.027352
  20 H :    0.005821
  21 H :    0.031460
  22 C :   -0.023819
  23 H :    0.041536
  24 H :    0.032831
  25 C :    0.128963
  26 F :   -0.156039
  27 H :    0.047010
  28 H :    0.036588
  29 H :   -0.019943
  30 H :   -0.182386
  31 H :   -0.020688

  Mayer bond orders larger than 0.100000
B(  0-C ,  1-H ) :   0.7425 B(  0-C ,  2-C ) :   0.4230 B(  0-C ,  3-C ) :   1.1596
B(  0-C ,  4-H ) :   0.8982 B(  0-C ,  5-H ) :   0.1185 B(  0-C ,  6-H ) :   0.1960
B(  0-C , 29-H ) :   0.1879 B(  0-C , 30-H ) :   1.0216 B(  0-C , 31-H ) :   0.3923
B(  1-H ,  2-C ) :   0.3954 B(  1-H ,  3-C ) :   0.1906 B(  1-H ,  4-H ) :  -0.2395
B(  1-H , 30-H ) :  -0.2162 B(  1-H , 31-H ) :  -0.1277 B(  2-C ,  4-H ) :  -0.2724
B(  2-C ,  8-H ) :  -0.1115 B(  2-C , 26-F ) :  -0.3115 B(  2-C , 29-H ) :   0.6778
B(  2-C , 30-H ) :  -6.2465 B(  2-C , 31-H ) :  -0.4413 B(  3-C ,  5-H ) :   0.6305
B(  3-C ,  6-H ) :   0.8121 B(  3-C ,  7-C ) :   1.1894 B(  3-C ,  8-H ) :   0.1335
B(  4-H , 29-H ) :  -0.1880 B(  4-H , 30-H ) :   0.2021 B(  4-H , 31-H ) :   0.3383
B(  5-H ,  6-H ) :  -0.1761 B(  5-H ,  7-C ) :   0.3287 B(  5-H , 29-H ) :  -0.1034
B(  5-H , 31-H ) :   0.1647 B(  6-H , 31-H ) :  -0.2076 B(  7-C ,  8-H ) :   0.4655
B(  7-C ,  9-C ) :   1.1467 B(  7-C , 10-H ) :   0.5868 B(  7-C , 11-H ) :   0.1240
B(  7-C , 12-H ) :   0.1674 B(  8-H ,  9-C ) :   0.2411 B(  8-H , 30-H ) :   0.1320
B(  9-C , 10-H ) :   0.1979 B(  9-C , 11-H ) :   0.8209 B(  9-C , 12-H ) :   0.8160
B(  9-C , 13-C ) :   1.1630 B(  9-C , 14-C ) :   0.1551 B(  9-C , 15-H ) :   0.3466
B(  9-C , 16-H ) :   0.1462 B(  9-C , 17-H ) :  -0.1106 B( 11-H , 20-H ) :   0.1542
B( 13-C , 14-C ) :   1.1958 B( 13-C , 15-H ) :   0.6351 B( 13-C , 16-H ) :   0.6092
B( 13-C , 17-H ) :   0.1264 B( 13-C , 19-H ) :   0.1025 B( 14-C , 16-H ) :   0.2743
B( 14-C , 17-H ) :   0.7654 B( 14-C , 18-C ) :   1.1640 B( 14-C , 19-H ) :   0.7303
B( 14-C , 20-H ) :   0.1221 B( 14-C , 21-H ) :   0.2574 B( 15-H , 16-H ) :  -0.1747
B( 17-H , 18-C ) :   0.1421 B( 18-C , 19-H ) :   0.2173 B( 18-C , 20-H ) :   0.7590
B( 18-C , 21-H ) :   0.7601 B( 18-C , 22-C ) :   1.2207 B( 18-C , 24-H ) :   0.2622
B( 18-C , 25-C ) :   0.1455 B( 20-H , 22-C ) :   0.1468 B( 22-C , 23-H ) :   0.7679
B( 22-C , 24-H ) :   0.6205 B( 22-C , 25-C ) :   1.2647 B( 22-C , 27-H ) :   0.1268
B( 22-C , 28-H ) :   0.1109 B( 23-H , 24-H ) :  -0.1082 B( 23-H , 25-C ) :   0.1815
B( 24-H , 25-C ) :   0.1372 B( 25-C , 26-F ) :   0.6709 B( 25-C , 27-H ) :   0.8978
B( 25-C , 28-H ) :   0.7490 B( 25-C , 30-H ) :   0.2352 B( 26-F , 27-H ) :  -0.1331
B( 26-F , 30-H ) :   0.5741 B( 29-H , 30-H ) :   0.1378 B( 29-H , 31-H ) :  -0.2821
B( 30-H , 31-H ) :   1.0719

FINAL SINGLE POINT ENERGY      -491.824776880658

DIPOLE MOMENT
-------------
                                X             Y             Z
Electronic contribution:     -1.98302       3.30146       4.26085
Nuclear contribution   :      1.09293      -2.80761      -4.51228
                        -----------------------------------------
Total Dipole Moment    :     -0.89009       0.49385      -0.25143
                        -----------------------------------------
Magnitude (a.u.)       :      1.04851
Magnitude (Debye)      :      2.66510

Rotational constants in cm-1:     0.040502     0.027818     0.018259
Rotational constants in MHz :  1214.218058   833.972871   547.398614

                             ****ORCA TERMINATED NORMALLY****
TOTAL RUN TIME: 0 days 0 hours 2 minutes 17 seconds 927 msec
