                         Program Version 5.0.0 -  RELEASE  -
|  1> !LC-BLYP RIJCOSX def2-SVPD def2/J TightSCF
|  2> *xyz -1 1
|  3> C         -5.57236       -5.80780       -0.81644
|  4> S         -6.90318       -4.61903       -0.52846
|  5> O         -8.11485       -5.25093       -0.95701
|  6> O         -6.53271       -3.42684       -1.31485
|  7> O         -6.86563       -4.29496        0.91412
|  8> C         -4.45780       -5.94187        0.22919
|  9> H         -5.17735       -5.54257       -1.79771
| 10> H         -6.07420       -6.76889       -0.92127
| 11> H         -3.75515       -6.68239       -0.09144
| 12> H         -4.88182       -6.23486        1.16689
| 13> H         -3.95908       -5.00189        0.34143
| 14> *
| 15> %MaxCore 64000
| 16>
| 17> %pal nprocs 4
| 18> end
| 19>
| 20> %scf
| 21>   MaxIter 150
| 22> end
| 23>
| 24>                          ****END OF INPUT****

CARTESIAN COORDINATES (ANGSTROEM)
---------------------------------
  C     -5.572360   -5.807800   -0.816440
  S     -6.903180   -4.619030   -0.528460
  O     -8.114850   -5.250930   -0.957010
  O     -6.532710   -3.426840   -1.314850
  O     -6.865630   -4.294960    0.914120
  C     -4.457800   -5.941870    0.229190
  H     -5.177350   -5.542570   -1.797710
  H     -6.074200   -6.768890   -0.921270
  H     -3.755150   -6.682390   -0.091440
  H     -4.881820   -6.234860    1.166890
  H     -3.959080   -5.001890    0.341430

 Total Charge           Charge          ....   -1
 Multiplicity           Mult            ....    1
 Number of Electrons    NEL             ....   58
 Basis Dimension        Dim             ....  176

ORBITAL ENERGIES
----------------

  NO   OCC          E(Eh)            E(eV)
   0   2.0000     -88.310663     -2403.0553
   1   2.0000     -18.744719      -510.0697
   2   2.0000     -18.730697      -509.6882
   3   2.0000     -18.729887      -509.6661
   4   2.0000      -9.953216      -270.8408
   5   2.0000      -9.949289      -270.7339
   6   2.0000      -7.859461      -213.8668
   7   2.0000      -5.893788      -160.3781
   8   2.0000      -5.893689      -160.3754
   9   2.0000      -5.893259      -160.3637
  10   2.0000      -1.030780       -28.0490
  11   2.0000      -0.884781       -24.0761
  12   2.0000      -0.860889       -23.4260
  13   2.0000      -0.742485       -20.2040
  14   2.0000      -0.620283       -16.8788
  15   2.0000      -0.489480       -13.3194
  16   2.0000      -0.430167       -11.7054
  17   2.0000      -0.424496       -11.5511
  18   2.0000      -0.386794       -10.5252
  19   2.0000      -0.368693       -10.0326
  20   2.0000      -0.365301        -9.9404
  21   2.0000      -0.332270        -9.0415
  22   2.0000      -0.323438        -8.8012
  23   2.0000      -0.255249        -6.9457
  24   2.0000      -0.254261        -6.9188
  25   2.0000      -0.217888        -5.9290
  26   2.0000      -0.206388        -5.6161
  27   2.0000      -0.202203        -5.5022
  28   2.0000      -0.163422        -4.4469
  29   0.0000       0.187334         5.0976
  30   0.0000       0.212353         5.7784
  31   0.0000       0.217500         5.9185
  32   0.0000       0.223957         6.0942
  33   0.0000       0.243857         6.6357

MULLIKEN ATOMIC CHARGES
-----------------------
   0 C :   -0.196925
   1 S :    1.081932
   2 O :   -0.691246
   3 O :   -0.754478
   4 O :   -0.766420
   5 C :    1.006730
   6 H :   -0.112605
   7 H :   -0.092268
   8 H :   -0.198172
   9 H :   -0.127352
  10 H :   -0.149196
Sum of atomic charges:   -1.0000000

LOEWDIN ATOMIC CHARGES
----------------------
   0 C :   -0.134154
   1 S :    0.813395
   2 O :   -0.556700
   3 O :   -0.584258
   4 O :   -0.576470
   5 C :    0.094106
   6 H :    0.004182
   7 H :   -0.001640
   8 H :   -0.029443
   9 H :   -0.017823
  10 H :   -0.011196

  Mayer bond orders larger than 0.100000
B(  0-C ,  1-S ) :   0.8894 B(  0-C ,  5-C ) :   1.2807 B(  0-C ,  6-H ) :   0.9395
B(  0-C ,  7-H ) :   0.9464 B(  0-C ,  8-H ) :   0.2544 B(  0-C ,  9-H ) :   0.2347
B(  0-C , 10-H ) :   0.2189 B(  1-S ,  2-O ) :   1.4124 B(  1-S ,  3-O ) :   1.3407
B(  1-S ,  4-O ) :   1.3374 B(  5-C ,  7-H ) :   0.1050 B(  5-C ,  8-H ) :   0.6875
B(  5-C ,  9-H ) :   0.7482 B(  5-C , 10-H ) :   0.7552

FINAL SINGLE POINT ENERGY      -701.941786780026

DIPOLE MOMENT
-------------
                                X             Y             Z
Electronic contribution:     -6.58515       4.22489      -0.93204
Nuclear contribution   :      8.13140      -5.68016       0.80206
                        -----------------------------------------
Total Dipole Moment    :      1.54625      -1.45527      -0.12998
                        -----------------------------------------
Magnitude (a.u.)       :      2.12734
Magnitude (Debye)      :      5.40728

Rotational constants in cm-1:     0.162101     0.080498     0.079099
Rotational constants in MHz :  4859.669771  2413.267251  2371.338602

                             ****ORCA TERMINATED NORMALLY****
TOTAL RUN TIME: 0 days 0 hours 0 minutes 24 seconds 498 msec
