                         Program Version 5.0.0 -  RELEASE  -
|  1> !LC-BLYP RIJCOSX def2-SVPD def2/J TightSCF
|  2> *xyz 1 1
|  3> C         -4.38262       -1.67089        1.21620
|  4> N         -5.76354       -1.91517        0.70501
|  5> C         -3.28173       -2.19127        0.29436
|  6> H         -5.84081       -2.11520       -0.30065
|  7> H         -6.40882       -1.14866        0.93612
|  8> H         -6.17478       -2.79061        1.05143
|  9> H         -4.32862       -2.13922        2.19810
| 10> H         -4.26158       -0.59740        1.35725
| 11> H         -3.36057       -1.71407       -0.66008
| 12> H         -3.38775       -3.24919        0.17403
| 13> H         -2.32559       -1.97514        0.72329
| 14> *
| 15> %MaxCore 64000
| 16>
| 17> %pal nprocs 4
| 18> end
| 19>
| 20> %scf
| 21>   MaxIter 150
| 22> end
| 23>
| 24>                          ****END OF INPUT****

CARTESIAN COORDINATES (ANGSTROEM)
---------------------------------
  C     -4.382620   -1.670890    1.216200
  N     -5.763540   -1.915170    0.705010
  C     -3.281730   -2.191270    0.294360
  H     -5.840810   -2.115200   -0.300650
  H     -6.408820   -1.148660    0.936120
  H     -6.174780   -2.790610    1.051430
  H     -4.328620   -2.139220    2.198100
  H     -4.261580   -0.597400    1.357250
  H     -3.360570   -1.714070   -0.660080
  H     -3.387750   -3.249190    0.174030
  H     -2.325590   -1.975140    0.723290

 Total Charge           Charge          ....    1
 Multiplicity           Mult            ....    1
 Number of Electrons    NEL             ....   26
 Basis Dimension        Dim             ....  124

ORBITAL ENERGIES
----------------

  NO   OCC          E(Eh)            E(eV)
   0   2.0000     -14.522498      -395.1773
   1   2.0000     -10.339524      -281.3527
   2   2.0000     -10.259923      -279.1867
   3   2.0000      -1.309221       -35.6257
   4   2.0000      -1.070798       -29.1379
   5   2.0000      -0.954726       -25.9794
   6   2.0000      -0.902023       -24.5453
   7   2.0000      -0.881270       -23.9806
   8   2.0000      -0.806411       -21.9436
   9   2.0000      -0.744356       -20.2550
  10   2.0000      -0.684571       -18.6281
  11   2.0000      -0.666827       -18.1453
  12   2.0000      -0.646300       -17.5867
  13   0.0000      -0.132826        -3.6144
  14   0.0000      -0.075367        -2.0508
  15   0.0000      -0.071281        -1.9397
  16   0.0000      -0.063049        -1.7157
  17   0.0000      -0.032730        -0.8906

MULLIKEN ATOMIC CHARGES
-----------------------
   0 C :    0.332153
   1 N :   -0.676850
   2 C :    0.834492
   3 H :    0.358203
   4 H :    0.363687
   5 H :    0.349277
   6 H :   -0.144721
   7 H :   -0.109080
   8 H :   -0.123222
   9 H :   -0.083136
  10 H :   -0.100803
Sum of atomic charges:    1.0000000

LOEWDIN ATOMIC CHARGES
----------------------
   0 C :    0.045291
   1 N :    0.328712
   2 C :    0.159784
   3 H :    0.106200
   4 H :    0.112860
   5 H :    0.109362
   6 H :    0.055580
   7 H :    0.054985
   8 H :    0.004201
   9 H :    0.004249
  10 H :    0.018776

  Mayer bond orders larger than 0.100000
B(  0-C ,  1-N ) :   0.7774 B(  0-C ,  2-C ) :   1.3358 B(  0-C ,  6-H ) :   0.8784
B(  0-C ,  7-H ) :   0.8755 B(  0-C ,  8-H ) :   0.2098 B(  0-C ,  9-H ) :   0.1840
B(  0-C , 10-H ) :   0.2079 B(  1-N ,  3-H ) :   0.7674 B(  1-N ,  4-H ) :   0.7711
B(  1-N ,  5-H ) :   0.8120 B(  1-N ,  6-H ) :   0.1085 B(  2-C ,  8-H ) :   0.7788
B(  2-C ,  9-H ) :   0.7721 B(  2-C , 10-H ) :   0.7977

FINAL SINGLE POINT ENERGY      -135.041441082937

DIPOLE MOMENT
-------------
                                X             Y             Z
Electronic contribution:     -1.81723       0.23907       0.30733
Nuclear contribution   :      0.19437      -0.25358      -0.32106
                        -----------------------------------------
Total Dipole Moment    :     -1.62286      -0.01452      -0.01373
                        -----------------------------------------
Magnitude (a.u.)       :      1.62299
Magnitude (Debye)      :      4.12530

Rotational constants in cm-1:     1.030014     0.272489     0.242697
Rotational constants in MHz : 30879.030706  8169.007780  7275.865152

                             ****ORCA TERMINATED NORMALLY****
TOTAL RUN TIME: 0 days 0 hours 0 minutes 15 seconds 13 msec
