                         Program Version 5.0.0 -  RELEASE  -
|  1> !LC-BLYP RIJCOSX def2-SVPD def2/J TightSCF
|  2> *xyz 0 1
|  3> C         -5.57236       -5.80780       -0.81644
|  4> S         -6.90318       -4.61903       -0.52846
|  5> F         -8.11485       -5.25093       -0.95701
|  6> O         -6.53271       -3.42684       -1.31485
|  7> O         -6.86563       -4.29496        0.91412
|  8> C         -4.45780       -5.94187        0.22919
|  9> H         -5.17735       -5.54257       -1.79771
| 10> H         -6.07420       -6.76889       -0.92127
| 11> H         -3.75515       -6.68239       -0.09144
| 12> H         -4.88182       -6.23486        1.16689
| 13> H         -3.95908       -5.00189        0.34143
| 14> *
| 15> %MaxCore 64000
| 16>
| 17> %pal nprocs 4
| 18> end
| 19>
| 20> %scf
| 21>   MaxIter 150
| 22> end
| 23>
| 24>                          ****END OF INPUT****

CARTESIAN COORDINATES (ANGSTROEM)
---------------------------------
  C     -5.572360   -5.807800   -0.816440
  S     -6.903180   -4.619030   -0.528460
  F     -8.114850   -5.250930   -0.957010
  O     -6.532710   -3.426840   -1.314850
  O     -6.865630   -4.294960    0.914120
  C     -4.457800   -5.941870    0.229190
  H     -5.177350   -5.542570   -1.797710
  H     -6.074200   -6.768890   -0.921270
  H     -3.755150   -6.682390   -0.091440
  H     -4.881820   -6.234860    1.166890
  H     -3.959080   -5.001890    0.341430

 Total Charge           Charge          ....    0
 Multiplicity           Mult            ....    1
 Number of Electrons    NEL             ....   58
 Basis Dimension        Dim             ....  176

ORBITAL ENERGIES
----------------

  NO   OCC          E(Eh)            E(eV)
   0   2.0000     -88.568902     -2410.0823
   1   2.0000     -24.602039      -669.4555
   2   2.0000     -18.963694      -516.0284
   3   2.0000     -18.963459      -516.0220
   4   2.0000     -10.155185      -276.3366
   5   2.0000     -10.109979      -275.1065
   6   2.0000      -8.118644      -220.9195
   7   2.0000      -6.157567      -167.5559
   8   2.0000      -6.150482      -167.3631
   9   2.0000      -6.149174      -167.3275
  10   2.0000      -1.471593       -40.0441
  11   2.0000      -1.196893       -32.5691
  12   2.0000      -1.091296       -29.6957
  13   2.0000      -0.933467       -25.4009
  14   2.0000      -0.848981       -23.1020
  15   2.0000      -0.790988       -21.5239
  16   2.0000      -0.703308       -19.1380
  17   2.0000      -0.700810       -19.0700
  18   2.0000      -0.663378       -18.0514
  19   2.0000      -0.604498       -16.4492
  20   2.0000      -0.589390       -16.0381
  21   2.0000      -0.550415       -14.9775
  22   2.0000      -0.535383       -14.5685
  23   2.0000      -0.511728       -13.9248
  24   2.0000      -0.494228       -13.4486
  25   2.0000      -0.486935       -13.2502
  26   2.0000      -0.427993       -11.6463
  27   2.0000      -0.425512       -11.5788
  28   2.0000      -0.402965       -10.9652
  29   0.0000       0.044209         1.2030
  30   0.0000       0.067334         1.8322
  31   0.0000       0.079132         2.1533
  32   0.0000       0.082735         2.2513
  33   0.0000       0.104397         2.8408

MULLIKEN ATOMIC CHARGES
-----------------------
   0 C :   -0.219239
   1 S :    1.254374
   2 F :   -0.326441
   3 O :   -0.602293
   4 O :   -0.615469
   5 C :    1.014823
   6 H :   -0.070563
   7 H :   -0.051856
   8 H :   -0.160586
   9 H :   -0.100373
  10 H :   -0.122378
Sum of atomic charges:   -0.0000000

LOEWDIN ATOMIC CHARGES
----------------------
   0 C :   -0.098793
   1 S :    1.080471
   2 F :   -0.236598
   3 O :   -0.466067
   4 O :   -0.463172
   5 C :    0.136565
   6 H :    0.026363
   7 H :    0.016359
   8 H :    0.000286
   9 H :   -0.001398
  10 H :    0.005983

  Mayer bond orders larger than 0.100000
B(  0-C ,  1-S ) :   0.9359 B(  0-C ,  5-C ) :   1.3354 B(  0-C ,  6-H ) :   0.9454
B(  0-C ,  7-H ) :   0.9140 B(  0-C ,  8-H ) :   0.2486 B(  0-C ,  9-H ) :   0.2313
B(  0-C , 10-H ) :   0.2112 B(  1-S ,  2-F ) :   0.7862 B(  1-S ,  3-O ) :   1.5521
B(  1-S ,  4-O ) :   1.5441 B(  5-C ,  7-H ) :   0.1080 B(  5-C ,  8-H ) :   0.6910
B(  5-C ,  9-H ) :   0.7470 B(  5-C , 10-H ) :   0.7591

FINAL SINGLE POINT ENERGY      -726.406088386641

DIPOLE MOMENT
-------------
                                X             Y             Z
Electronic contribution:     -9.34266       3.50850      -1.87608
Nuclear contribution   :      9.80704      -5.24335       1.35017
                        -----------------------------------------
Total Dipole Moment    :      0.46437      -1.73484      -0.52590
                        -----------------------------------------
Magnitude (a.u.)       :      1.87134
Magnitude (Debye)      :      4.75656

Rotational constants in cm-1:     0.156316     0.078308     0.076228
Rotational constants in MHz :  4686.224999  2347.601204  2285.245115

                             ****ORCA TERMINATED NORMALLY****
TOTAL RUN TIME: 0 days 0 hours 0 minutes 25 seconds 14 msec
