                         Program Version 5.0.0 -  RELEASE  -
|  1> !LC-BLYP RIJCOSX def2-SVPD def2/J TightSCF
|  2> *xyz 0 1
|  3> C         -4.38262       -1.67089        1.21620
|  4> C         -5.76354       -1.91517        0.70501
|  5> C         -3.28173       -2.19127        0.29436
|  6> H         -5.84081       -2.11520       -0.30065
|  7> H         -6.40882       -1.14866        0.93612
|  8> H         -6.17478       -2.79061        1.05143
|  9> H         -4.32862       -2.13922        2.19810
| 10> H         -4.26158       -0.59740        1.35725
| 11> H         -3.36057       -1.71407       -0.66008
| 12> H         -3.38775       -3.24919        0.17403
| 13> H         -2.32559       -1.97514        0.72329
| 14> *
| 15> %MaxCore 64000
| 16>
| 17> %pal nprocs 4
| 18> end
| 19>
| 20> %scf
| 21>   MaxIter 150
| 22> end
| 23>
| 24>                          ****END OF INPUT****

CARTESIAN COORDINATES (ANGSTROEM)
---------------------------------
  C     -4.382620   -1.670890    1.216200
  C     -5.763540   -1.915170    0.705010
  C     -3.281730   -2.191270    0.294360
  H     -5.840810   -2.115200   -0.300650
  H     -6.408820   -1.148660    0.936120
  H     -6.174780   -2.790610    1.051430
  H     -4.328620   -2.139220    2.198100
  H     -4.261580   -0.597400    1.357250
  H     -3.360570   -1.714070   -0.660080
  H     -3.387750   -3.249190    0.174030
  H     -2.325590   -1.975140    0.723290

 Total Charge           Charge          ....    0
 Multiplicity           Mult            ....    1
 Number of Electrons    NEL             ....   26
 Basis Dimension        Dim             ....  124

ORBITAL ENERGIES
----------------

  NO   OCC          E(Eh)            E(eV)
   0   2.0000     -10.073236      -274.1067
   1   2.0000     -10.064360      -273.8652
   2   2.0000     -10.047452      -273.4051
   3   2.0000      -0.892662       -24.2906
   4   2.0000      -0.795023       -21.6337
   5   2.0000      -0.693091       -18.8600
   6   2.0000      -0.570126       -15.5139
   7   2.0000      -0.548056       -14.9134
   8   2.0000      -0.513010       -13.9597
   9   2.0000      -0.486550       -13.2397
  10   2.0000      -0.439843       -11.9687
  11   2.0000      -0.433228       -11.7887
  12   2.0000      -0.417937       -11.3726
  13   0.0000       0.078535         2.1370
  14   0.0000       0.105344         2.8666
  15   0.0000       0.112595         3.0639
  16   0.0000       0.145210         3.9514
  17   0.0000       0.166094         4.5197

MULLIKEN ATOMIC CHARGES
-----------------------
   0 C :   -0.335662
   1 C :    1.143569
   2 C :    0.865133
   3 H :   -0.387538
   4 H :   -0.253908
   5 H :   -0.266895
   6 H :   -0.212656
   7 H :   -0.149844
   8 H :   -0.099890
   9 H :   -0.142983
  10 H :   -0.159326
Sum of atomic charges:   -0.0000000

LOEWDIN ATOMIC CHARGES
----------------------
   0 C :   -0.116178
   1 C :    0.105723
   2 C :    0.104464
   3 H :   -0.034457
   4 H :   -0.028743
   5 H :   -0.031962
   6 H :    0.022980
   7 H :    0.022296
   8 H :   -0.013039
   9 H :   -0.012752
  10 H :   -0.018332

  Mayer bond orders larger than 0.100000
B(  0-C ,  1-C ) :   1.2989 B(  0-C ,  2-C ) :   1.2841 B(  0-C ,  3-H ) :   0.1840
B(  0-C ,  4-H ) :   0.2156 B(  0-C ,  5-H ) :   0.2592 B(  0-C ,  6-H ) :   0.8783
B(  0-C ,  7-H ) :   0.8805 B(  0-C ,  8-H ) :   0.1858 B(  0-C ,  9-H ) :   0.2024
B(  0-C , 10-H ) :   0.2462 B(  1-C ,  3-H ) :   0.5343 B(  1-C ,  4-H ) :   0.6500
B(  1-C ,  5-H ) :   0.5103 B(  1-C ,  6-H ) :   0.1354 B(  2-C ,  8-H ) :   0.7795
B(  2-C ,  9-H ) :   0.7727 B(  2-C , 10-H ) :   0.7343 B(  3-H ,  5-H ) :   0.3465

FINAL SINGLE POINT ENERGY      -118.648966192873

DIPOLE MOMENT
-------------
                                X             Y             Z
Electronic contribution:      0.18378       0.23678       0.34014
Nuclear contribution   :     -0.21528      -0.24783      -0.32864
                        -----------------------------------------
Total Dipole Moment    :     -0.03150      -0.01105       0.01149
                        -----------------------------------------
Magnitude (a.u.)       :      0.03530
Magnitude (Debye)      :      0.08974

Rotational constants in cm-1:     1.037566     0.286459     0.254172
Rotational constants in MHz : 31105.431429  8587.814531  7619.871198

                             ****ORCA TERMINATED NORMALLY****
TOTAL RUN TIME: 0 days 0 hours 0 minutes 14 seconds 404 msec
