                         Program Version 5.0.0 -  RELEASE  -
|  1> !LC-BLYP RIJCOSX def2-SVPD def2/J TightSCF
|  2> *xyz 0 1
|  3> C         -5.57236       -5.80780       -0.81644
|  4> S         -6.90318       -4.61903       -0.52846
|  5> O         -8.11485       -5.25093       -0.95701
|  6> F         -6.53271       -3.42684       -1.31485
|  7> O         -6.86563       -4.29496        0.91412
|  8> C         -4.45780       -5.94187        0.22919
|  9> H         -5.17735       -5.54257       -1.79771
| 10> H         -6.07420       -6.76889       -0.92127
| 11> H         -3.75515       -6.68239       -0.09144
| 12> H         -4.88182       -6.23486        1.16689
| 13> H         -3.95908       -5.00189        0.34143
| 14> *
| 15> %MaxCore 64000
| 16>
| 17> %pal nprocs 4
| 18> end
| 19>
| 20> %scf
| 21>   MaxIter 150
| 22> end
| 23>
| 24>                          ****END OF INPUT****

CARTESIAN COORDINATES (ANGSTROEM)
---------------------------------
  C     -5.572360   -5.807800   -0.816440
  S     -6.903180   -4.619030   -0.528460
  O     -8.114850   -5.250930   -0.957010
  F     -6.532710   -3.426840   -1.314850
  O     -6.865630   -4.294960    0.914120
  C     -4.457800   -5.941870    0.229190
  H     -5.177350   -5.542570   -1.797710
  H     -6.074200   -6.768890   -0.921270
  H     -3.755150   -6.682390   -0.091440
  H     -4.881820   -6.234860    1.166890
  H     -3.959080   -5.001890    0.341430

 Total Charge           Charge          ....    0
 Multiplicity           Mult            ....    1
 Number of Electrons    NEL             ....   58
 Basis Dimension        Dim             ....  176

ORBITAL ENERGIES
----------------

  NO   OCC          E(Eh)            E(eV)
   0   2.0000     -88.566817     -2410.0256
   1   2.0000     -24.580163      -668.8602
   2   2.0000     -18.978143      -516.4215
   3   2.0000     -18.963304      -516.0177
   4   2.0000     -10.154343      -276.3137
   5   2.0000     -10.109659      -275.0978
   6   2.0000      -8.116460      -220.8601
   7   2.0000      -6.155206      -167.4917
   8   2.0000      -6.148515      -167.3096
   9   2.0000      -6.147195      -167.2737
  10   2.0000      -1.435054       -39.0498
  11   2.0000      -1.212503       -32.9939
  12   2.0000      -1.107103       -30.1258
  13   2.0000      -0.933066       -25.3900
  14   2.0000      -0.835753       -22.7420
  15   2.0000      -0.782915       -21.3042
  16   2.0000      -0.689990       -18.7756
  17   2.0000      -0.675347       -18.3771
  18   2.0000      -0.658064       -17.9068
  19   2.0000      -0.602981       -16.4079
  20   2.0000      -0.589363       -16.0374
  21   2.0000      -0.561789       -15.2870
  22   2.0000      -0.538481       -14.6528
  23   2.0000      -0.508564       -13.8387
  24   2.0000      -0.506320       -13.7777
  25   2.0000      -0.487407       -13.2630
  26   2.0000      -0.440547       -11.9879
  27   2.0000      -0.429319       -11.6824
  28   2.0000      -0.415637       -11.3101
  29   0.0000       0.045085         1.2268
  30   0.0000       0.070698         1.9238
  31   0.0000       0.080081         2.1791
  32   0.0000       0.081862         2.2276
  33   0.0000       0.104273         2.8374

MULLIKEN ATOMIC CHARGES
-----------------------
   0 C :   -0.217912
   1 S :    1.247756
   2 O :   -0.552645
   3 F :   -0.362970
   4 O :   -0.624227
   5 C :    1.037441
   6 H :   -0.074954
   7 H :   -0.048635
   8 H :   -0.161236
   9 H :   -0.102079
  10 H :   -0.140538
Sum of atomic charges:   -0.0000000

LOEWDIN ATOMIC CHARGES
----------------------
   0 C :   -0.093519
   1 S :    1.076842
   2 O :   -0.441931
   3 F :   -0.257531
   4 O :   -0.462281
   5 C :    0.129550
   6 H :    0.021726
   7 H :    0.028292
   8 H :   -0.001048
   9 H :    0.000049
  10 H :   -0.000149

  Mayer bond orders larger than 0.100000
B(  0-C ,  1-S ) :   0.9445 B(  0-C ,  5-C ) :   1.3277 B(  0-C ,  6-H ) :   0.9152
B(  0-C ,  7-H ) :   0.9484 B(  0-C ,  8-H ) :   0.2519 B(  0-C ,  9-H ) :   0.2312
B(  0-C , 10-H ) :   0.2162 B(  1-S ,  2-O ) :   1.6231 B(  1-S ,  3-F ) :   0.7178
B(  1-S ,  4-O ) :   1.5520 B(  5-C ,  8-H ) :   0.6883 B(  5-C ,  9-H ) :   0.7496
B(  5-C , 10-H ) :   0.7507

FINAL SINGLE POINT ENERGY      -726.425190468977

DIPOLE MOMENT
-------------
                                X             Y             Z
Electronic contribution:     -6.65296       6.62572      -2.50462
Nuclear contribution   :      8.15840      -7.14411       1.72305
                        -----------------------------------------
Total Dipole Moment    :      1.50544      -0.51839      -0.78157
                        -----------------------------------------
Magnitude (a.u.)       :      1.77367
Magnitude (Debye)      :      4.50832

Rotational constants in cm-1:     0.153926     0.078297     0.077402
Rotational constants in MHz :  4614.585804  2347.272644  2320.438903

                             ****ORCA TERMINATED NORMALLY****
TOTAL RUN TIME: 0 days 0 hours 0 minutes 24 seconds 811 msec
