                         Program Version 5.0.0 -  RELEASE  -
|  1> !LC-BLYP RIJCOSX def2-SVPD def2/J TightSCF
|  2> *xyz 0 1
|  3> C         -5.57236       -5.80780       -0.81644
|  4> S         -6.90318       -4.61903       -0.52846
|  5> O         -8.11485       -5.25093       -0.95701
|  6> O         -6.53271       -3.42684       -1.31485
|  7> F         -6.86563       -4.29496        0.91412
|  8> C         -4.45780       -5.94187        0.22919
|  9> H         -5.17735       -5.54257       -1.79771
| 10> H         -6.07420       -6.76889       -0.92127
| 11> H         -3.75515       -6.68239       -0.09144
| 12> H         -4.88182       -6.23486        1.16689
| 13> H         -3.95908       -5.00189        0.34143
| 14> *
| 15> %MaxCore 64000
| 16>
| 17> %pal nprocs 4
| 18> end
| 19>
| 20> %scf
| 21>   MaxIter 150
| 22> end
| 23>
| 24>                          ****END OF INPUT****

CARTESIAN COORDINATES (ANGSTROEM)
---------------------------------
  C     -5.572360   -5.807800   -0.816440
  S     -6.903180   -4.619030   -0.528460
  O     -8.114850   -5.250930   -0.957010
  O     -6.532710   -3.426840   -1.314850
  F     -6.865630   -4.294960    0.914120
  C     -4.457800   -5.941870    0.229190
  H     -5.177350   -5.542570   -1.797710
  H     -6.074200   -6.768890   -0.921270
  H     -3.755150   -6.682390   -0.091440
  H     -4.881820   -6.234860    1.166890
  H     -3.959080   -5.001890    0.341430

 Total Charge           Charge          ....    0
 Multiplicity           Mult            ....    1
 Number of Electrons    NEL             ....   58
 Basis Dimension        Dim             ....  176

ORBITAL ENERGIES
----------------

  NO   OCC          E(Eh)            E(eV)
   0   2.0000     -88.566319     -2410.0121
   1   2.0000     -24.579115      -668.8317
   2   2.0000     -18.977848      -516.4135
   3   2.0000     -18.962512      -515.9962
   4   2.0000     -10.153514      -276.2912
   5   2.0000     -10.117065      -275.2993
   6   2.0000      -8.115966      -220.8467
   7   2.0000      -6.154777      -167.4800
   8   2.0000      -6.148074      -167.2976
   9   2.0000      -6.146619      -167.2580
  10   2.0000      -1.432245       -38.9734
  11   2.0000      -1.213095       -33.0100
  12   2.0000      -1.107743       -30.1432
  13   2.0000      -0.935850       -25.4658
  14   2.0000      -0.832576       -22.6556
  15   2.0000      -0.787675       -21.4337
  16   2.0000      -0.696340       -18.9484
  17   2.0000      -0.674703       -18.3596
  18   2.0000      -0.649105       -17.6631
  19   2.0000      -0.607432       -16.5291
  20   2.0000      -0.582165       -15.8415
  21   2.0000      -0.560594       -15.2545
  22   2.0000      -0.550624       -14.9833
  23   2.0000      -0.519344       -14.1321
  24   2.0000      -0.501703       -13.6520
  25   2.0000      -0.493004       -13.4153
  26   2.0000      -0.440884       -11.9971
  27   2.0000      -0.427618       -11.6361
  28   2.0000      -0.415043       -11.2939
  29   0.0000       0.042736         1.1629
  30   0.0000       0.075351         2.0504
  31   0.0000       0.078749         2.1429
  32   0.0000       0.082286         2.2391
  33   0.0000       0.108596         2.9551

MULLIKEN ATOMIC CHARGES
-----------------------
   0 C :   -0.199959
   1 S :    1.234614
   2 O :   -0.548660
   3 O :   -0.610200
   4 F :   -0.377300
   5 C :    1.022149
   6 H :   -0.068469
   7 H :   -0.044745
   8 H :   -0.151146
   9 H :   -0.120951
  10 H :   -0.135331
Sum of atomic charges:   -0.0000000

LOEWDIN ATOMIC CHARGES
----------------------
   0 C :   -0.088096
   1 S :    1.075573
   2 O :   -0.441578
   3 O :   -0.467362
   4 F :   -0.255745
   5 C :    0.124860
   6 H :    0.034219
   7 H :    0.023203
   8 H :   -0.000039
   9 H :   -0.005594
  10 H :    0.000558

  Mayer bond orders larger than 0.100000
B(  0-C ,  1-S ) :   0.9522 B(  0-C ,  5-C ) :   1.3001 B(  0-C ,  6-H ) :   0.9374
B(  0-C ,  7-H ) :   0.9481 B(  0-C ,  8-H ) :   0.2515 B(  0-C ,  9-H ) :   0.2206
B(  0-C , 10-H ) :   0.2052 B(  1-S ,  2-O ) :   1.6183 B(  1-S ,  3-O ) :   1.5532
B(  1-S ,  4-F ) :   0.7197 B(  5-C ,  8-H ) :   0.6910 B(  5-C ,  9-H ) :   0.7479
B(  5-C , 10-H ) :   0.7590

FINAL SINGLE POINT ENERGY      -726.425371490835

DIPOLE MOMENT
-------------
                                X             Y             Z
Electronic contribution:     -7.20020       5.11276       1.30062
Nuclear contribution   :      8.50531      -6.23950      -0.59960
                        -----------------------------------------
Total Dipole Moment    :      1.30511      -1.12673       0.70101
                        -----------------------------------------
Magnitude (a.u.)       :      1.86126
Magnitude (Debye)      :      4.73094

Rotational constants in cm-1:     0.152799     0.080212     0.076962
Rotational constants in MHz :  4580.804531  2404.707790  2307.252710

                             ****ORCA TERMINATED NORMALLY****
TOTAL RUN TIME: 0 days 0 hours 0 minutes 25 seconds 139 msec
