                         Program Version 5.0.0 -  RELEASE  -
|  1> !LC-BLYP RIJCOSX def2-SVPD def2/J TightSCF xyzfile
|  2>
|  3> *xyzfile 0 1 D2.xyz
|  4>
|  5> %MaxCore 64000
|  6>
|  7> %pal nprocs 4
|  8> end
|  9>
| 10> %scf
| 11>   MaxIter 150
| 12> end
| 13>
| 14>
| 15>                          ****END OF INPUT****

CARTESIAN COORDINATES (ANGSTROEM)
---------------------------------
  C     -4.382623   -1.670889    1.216201
  C     -5.763539   -1.915170    0.705012
  C     -3.281728   -2.191272    0.294361
  C     -5.572364   -5.807798   -0.816445
  S     -6.903179   -4.619033   -0.528458
  H     -5.840812   -2.115205   -0.300646
  H     -6.408823   -1.148656    0.936124
  H     -6.174781   -2.790606    1.051433
  O     -8.114853   -5.250932   -0.957007
  F     -6.532715   -3.426838   -1.314848
  H     -4.328618   -2.139223    2.198103
  H     -4.261583   -0.597399    1.357248
  O     -6.865632   -4.294957    0.914118
  C     -3.474641   -3.605898   -0.259608
  H     -2.354548   -2.127602    0.871433
  H     -3.166611   -1.499693   -0.545037
  C     -3.827078   -4.661097    0.786174
  H     -2.560559   -3.889391   -0.788050
  H     -4.255932   -3.570040   -1.019300
  C     -4.457800   -5.941875    0.229195
  H     -5.177347   -5.542575   -1.797714
  H     -6.074202   -6.768894   -0.921272
  H     -4.530506   -4.253640    1.511979
  H     -2.933400   -4.932302    1.356825
  H     -3.681064   -6.562236   -0.229885
  H     -4.843942   -6.512728    1.075805

 Total Charge           Charge          ....    0
 Multiplicity           Mult            ....    1
 Number of Electrons    NEL             ....   98
 Basis Dimension        Dim             ....  356

ORBITAL ENERGIES
----------------

  NO   OCC          E(Eh)            E(eV)
   0   2.0000     -88.573321     -2410.2026
   1   2.0000     -24.584380      -668.9750
   2   2.0000     -18.982110      -516.5295
   3   2.0000     -18.967209      -516.1240
   4   2.0000     -10.153251      -276.2840
   5   2.0000     -10.115587      -275.2591
   6   2.0000     -10.089167      -274.5402
   7   2.0000     -10.087726      -274.5010
   8   2.0000     -10.076241      -274.1885
   9   2.0000     -10.063475      -273.8411
  10   2.0000     -10.015522      -272.5362
  11   2.0000      -8.121535      -220.9982
  12   2.0000      -6.160314      -167.6307
  13   2.0000      -6.153767      -167.4525
  14   2.0000      -6.152256      -167.4114
  15   2.0000      -1.442296       -39.2469
  16   2.0000      -1.217807       -33.1382
  17   2.0000      -1.116286       -30.3757
  18   2.0000      -0.948201       -25.8019
  19   2.0000      -0.911989       -24.8165
  20   2.0000      -0.863112       -23.4865
  21   2.0000      -0.837023       -22.7766
  22   2.0000      -0.801746       -21.8166
  23   2.0000      -0.764330       -20.7985
  24   2.0000      -0.727192       -19.7879
  25   2.0000      -0.692406       -18.8413
  26   2.0000      -0.678315       -18.4579
  27   2.0000      -0.662391       -18.0246
  28   2.0000      -0.660286       -17.9673
  29   2.0000      -0.609462       -16.5843
  30   2.0000      -0.600675       -16.3452
  31   2.0000      -0.580097       -15.7852
  32   2.0000      -0.570578       -15.5262
  33   2.0000      -0.563897       -15.3444
  34   2.0000      -0.544641       -14.8204
  35   2.0000      -0.530486       -14.4352
  36   2.0000      -0.510104       -13.8806
  37   2.0000      -0.501249       -13.6397
  38   2.0000      -0.494567       -13.4578
  39   2.0000      -0.490097       -13.3362
  40   2.0000      -0.461746       -12.5648
  41   2.0000      -0.455978       -12.4078
  42   2.0000      -0.453690       -12.3455
  43   2.0000      -0.438149       -11.9227
  44   2.0000      -0.427280       -11.6269
  45   2.0000      -0.420667       -11.4469
  46   2.0000      -0.409491       -11.1428
  47   2.0000      -0.408053       -11.1037
  48   2.0000      -0.373421       -10.1613
  49   0.0000       0.049895         1.3577
  50   0.0000       0.065904         1.7933
  51   0.0000       0.073743         2.0067
  52   0.0000       0.079302         2.1579
  53   0.0000       0.098064         2.6685

MULLIKEN ATOMIC CHARGES
-----------------------
   0 C :    0.142331
   1 C :    2.427721
   2 C :    0.602060
   3 C :    0.395713
   4 S :    1.272315
   5 H :   -0.593098
   6 H :   -0.494393
   7 H :   -1.197231
   8 O :   -0.557456
   9 F :   -0.395635
  10 H :    0.082256
  11 H :   -0.510631
  12 O :   -0.648380
  13 C :    0.345189
  14 H :   -0.127198
  15 H :   -0.023967
  16 C :    0.258869
  17 H :   -0.421739
  18 H :   -0.229278
  19 C :    0.676611
  20 H :    0.055953
  21 H :   -0.399706
  22 H :   -0.142175
  23 H :   -0.318908
  24 H :   -0.104371
  25 H :   -0.094855
Sum of atomic charges:    0.0000000

LOEWDIN ATOMIC CHARGES
----------------------
   0 C :   -0.051614
   1 C :    0.127138
   2 C :   -0.034698
   3 C :   -0.040897
   4 S :    1.121109
   5 H :   -0.077681
   6 H :   -0.011783
   7 H :   -0.141168
   8 O :   -0.422794
   9 F :   -0.258799
  10 H :    0.023946
  11 H :    0.022228
  12 O :   -0.427407
  13 C :   -0.023409
  14 H :    0.024351
  15 H :    0.030732
  16 C :   -0.020247
  17 H :    0.032023
  18 H :   -0.014053
  19 C :   -0.026392
  20 H :    0.024376
  21 H :    0.029081
  22 H :   -0.000321
  23 H :    0.038455
  24 H :    0.038713
  25 H :    0.039113

  Mayer bond orders larger than 0.100000
B(  0-C ,  1-C ) :   0.9260 B(  0-C ,  2-C ) :   1.1336 B(  0-C ,  5-H ) :   0.4163
B(  0-C ,  7-H ) :   0.5282 B(  0-C , 10-H ) :   0.6381 B(  0-C , 11-H ) :   0.9469
B(  0-C , 13-C ) :   0.1088 B(  0-C , 14-H ) :   0.1836 B(  0-C , 15-H ) :   0.1864
B(  0-C , 16-C ) :   0.1116 B(  1-C ,  2-C ) :   0.2142 B(  1-C ,  5-H ) :  -0.5139
B(  1-C ,  6-H ) :   0.3337 B(  1-C ,  7-H ) :  -1.1455 B(  1-C , 10-H ) :   0.2333
B(  1-C , 17-H ) :   0.1451 B(  2-C , 10-H ) :   0.1508 B(  2-C , 13-C ) :   1.2350
B(  2-C , 14-H ) :   0.6983 B(  2-C , 15-H ) :   0.5770 B(  2-C , 18-H ) :   0.1509
B(  3-C ,  4-S ) :   0.9130 B(  3-C , 16-C ) :   0.1358 B(  3-C , 19-C ) :   1.1801
B(  3-C , 20-H ) :   0.8251 B(  3-C , 21-H ) :   0.8103 B(  3-C , 24-H ) :   0.1595
B(  3-C , 25-H ) :   0.1445 B(  4-S ,  8-O ) :   1.7342 B(  4-S ,  9-F ) :   0.6613
B(  4-S , 12-O ) :   1.4763 B(  5-H ,  6-H ) :  -0.1354 B(  5-H ,  7-H ) :   1.1684
B(  5-H ,  9-F ) :   0.2225 B(  5-H , 11-H ) :   0.1832 B(  5-H , 17-H ) :  -0.1279
B(  5-H , 18-H ) :   0.1761 B(  6-H ,  7-H ) :   0.1774 B(  6-H , 11-H ) :  -0.1681
B(  6-H , 17-H ) :   0.1300 B(  6-H , 18-H ) :  -0.1636 B(  7-H , 10-H ) :  -0.1479
B(  7-H , 11-H ) :   0.1110 B(  7-H , 12-O ) :   0.2346 B(  7-H , 17-H ) :  -0.1580
B(  9-F , 12-O ) :   0.1171 B( 10-H , 11-H ) :  -0.2746 B( 10-H , 22-H ) :   0.1722
B( 11-H , 14-H ) :   0.1234 B( 13-C , 14-H ) :   0.1914 B( 13-C , 15-H ) :   0.3043
B( 13-C , 16-C ) :   1.1628 B( 13-C , 17-H ) :   0.7822 B( 13-C , 18-H ) :   0.7114
B( 13-C , 22-H ) :   0.1299 B( 13-C , 23-H ) :   0.1869 B( 14-H , 15-H ) :  -0.1379
B( 16-C , 17-H ) :   0.2121 B( 16-C , 18-H ) :   0.2072 B( 16-C , 19-C ) :   1.2410
B( 16-C , 22-H ) :   0.8395 B( 16-C , 23-H ) :   0.7420 B( 16-C , 24-H ) :   0.1405
B( 16-C , 25-H ) :   0.3015 B( 19-C , 21-H ) :   0.2100 B( 19-C , 24-H ) :   0.6952
B( 19-C , 25-H ) :   0.5808 B( 24-H , 25-H ) :  -0.1222

FINAL SINGLE POINT ENERGY      -922.214142046413

DIPOLE MOMENT
-------------
                                X             Y             Z
Electronic contribution:    -15.90745      -5.40365      -7.22648
Nuclear contribution   :     17.25367       4.78608       6.55647
                        -----------------------------------------
Total Dipole Moment    :      1.34622      -0.61757      -0.67001
                        -----------------------------------------
Magnitude (a.u.)       :      1.62561
Magnitude (Debye)      :      4.13197

Rotational constants in cm-1:     0.048508     0.025517     0.020225
Rotational constants in MHz :  1454.219007   764.979652   606.316599

                             ****ORCA TERMINATED NORMALLY****
TOTAL RUN TIME: 0 days 0 hours 2 minutes 0 seconds 243 msec
