                         Program Version 5.0.0 -  RELEASE  -
|  1> !LC-BLYP RIJCOSX def2-SVPD def2/J TightSCF xyzfile
|  2>
|  3> *xyzfile 0 1 D3.xyz
|  4>
|  5> %MaxCore 64000
|  6>
|  7> %pal nprocs 4
|  8> end
|  9>
| 10> %scf
| 11>   MaxIter 150
| 12> end
| 13>
| 14>
| 15>                          ****END OF INPUT****

CARTESIAN COORDINATES (ANGSTROEM)
---------------------------------
  C     -4.382623   -1.670889    1.216201
  C     -5.763539   -1.915170    0.705012
  C     -3.281728   -2.191272    0.294361
  C     -5.572364   -5.807798   -0.816445
  S     -6.903179   -4.619033   -0.528458
  H     -5.840812   -2.115205   -0.300646
  H     -6.408823   -1.148656    0.936124
  H     -6.174781   -2.790606    1.051433
  O     -8.114853   -5.250932   -0.957007
  O     -6.532715   -3.426838   -1.314848
  H     -4.328618   -2.139223    2.198103
  H     -4.261583   -0.597399    1.357248
  F     -6.865632   -4.294957    0.914118
  C     -3.474641   -3.605898   -0.259608
  H     -2.354548   -2.127602    0.871433
  H     -3.166611   -1.499693   -0.545037
  C     -3.827078   -4.661097    0.786174
  H     -2.560559   -3.889391   -0.788050
  H     -4.255932   -3.570040   -1.019300
  C     -4.457800   -5.941875    0.229195
  H     -5.177347   -5.542575   -1.797714
  H     -6.074202   -6.768894   -0.921272
  H     -4.530506   -4.253640    1.511979
  H     -2.933400   -4.932302    1.356825
  H     -3.681064   -6.562236   -0.229885
  H     -4.843942   -6.512728    1.075805

 Total Charge           Charge          ....    0
 Multiplicity           Mult            ....    1
 Number of Electrons    NEL             ....   98
 Basis Dimension        Dim             ....  356

ORBITAL ENERGIES
----------------

  NO   OCC          E(Eh)            E(eV)
   0   2.0000     -88.572539     -2410.1813
   1   2.0000     -24.584450      -668.9769
   2   2.0000     -18.981720      -516.5189
   3   2.0000     -18.965496      -516.0774
   4   2.0000     -10.152361      -276.2598
   5   2.0000     -10.120574      -275.3948
   6   2.0000     -10.096163      -274.7306
   7   2.0000     -10.080743      -274.3110
   8   2.0000     -10.073343      -274.1096
   9   2.0000     -10.063956      -273.8542
  10   2.0000     -10.017488      -272.5897
  11   2.0000      -8.120780      -220.9777
  12   2.0000      -6.159697      -167.6139
  13   2.0000      -6.152988      -167.4313
  14   2.0000      -6.151401      -167.3881
  15   2.0000      -1.441567       -39.2270
  16   2.0000      -1.218045       -33.1447
  17   2.0000      -1.115138       -30.3444
  18   2.0000      -0.951050       -25.8794
  19   2.0000      -0.910775       -24.7834
  20   2.0000      -0.862756       -23.4768
  21   2.0000      -0.836704       -22.7679
  22   2.0000      -0.802665       -21.8416
  23   2.0000      -0.764275       -20.7970
  24   2.0000      -0.731504       -19.9052
  25   2.0000      -0.694119       -18.8879
  26   2.0000      -0.688513       -18.7354
  27   2.0000      -0.657633       -17.8951
  28   2.0000      -0.650386       -17.6979
  29   2.0000      -0.606698       -16.5091
  30   2.0000      -0.600942       -16.3525
  31   2.0000      -0.584713       -15.9109
  32   2.0000      -0.565687       -15.3931
  33   2.0000      -0.559532       -15.2256
  34   2.0000      -0.554482       -15.0882
  35   2.0000      -0.532837       -14.4992
  36   2.0000      -0.510758       -13.8984
  37   2.0000      -0.498684       -13.5699
  38   2.0000      -0.493460       -13.4277
  39   2.0000      -0.493293       -13.4232
  40   2.0000      -0.463370       -12.6089
  41   2.0000      -0.456376       -12.4186
  42   2.0000      -0.448721       -12.2103
  43   2.0000      -0.433236       -11.7890
  44   2.0000      -0.431904       -11.7527
  45   2.0000      -0.423085       -11.5127
  46   2.0000      -0.404835       -11.0161
  47   2.0000      -0.400681       -10.9031
  48   2.0000      -0.385067       -10.4782
  49   0.0000       0.046019         1.2522
  50   0.0000       0.069633         1.8948
  51   0.0000       0.072873         1.9830
  52   0.0000       0.078629         2.1396
  53   0.0000       0.092988         2.5303

MULLIKEN ATOMIC CHARGES
-----------------------
   0 C :    0.148621
   1 C :    2.476959
   2 C :    0.611368
   3 C :    0.373364
   4 S :    1.232674
   5 H :   -0.590048
   6 H :   -0.487372
   7 H :   -1.237972
   8 O :   -0.559285
   9 O :   -0.556413
  10 H :    0.065413
  11 H :   -0.511236
  12 F :   -0.467006
  13 C :    0.379300
  14 H :   -0.134753
  15 H :   -0.019640
  16 C :    0.279068
  17 H :   -0.430755
  18 H :   -0.216893
  19 C :    0.667226
  20 H :    0.073977
  21 H :   -0.369427
  22 H :   -0.173232
  23 H :   -0.329066
  24 H :   -0.098810
  25 H :   -0.126060
Sum of atomic charges:    0.0000000

LOEWDIN ATOMIC CHARGES
----------------------
   0 C :   -0.054476
   1 C :    0.129299
   2 C :   -0.032099
   3 C :   -0.034291
   4 S :    1.119199
   5 H :   -0.097032
   6 H :   -0.011533
   7 H :   -0.111533
   8 O :   -0.422705
   9 O :   -0.441245
  10 H :    0.019439
  11 H :    0.023241
  12 F :   -0.253471
  13 C :   -0.019124
  14 H :    0.022605
  15 H :    0.033208
  16 C :   -0.023510
  17 H :    0.031953
  18 H :   -0.013783
  19 C :   -0.035031
  20 H :    0.036728
  21 H :    0.024147
  22 H :   -0.002016
  23 H :    0.038643
  24 H :    0.039641
  25 H :    0.033747

  Mayer bond orders larger than 0.100000
B(  0-C ,  1-C ) :   0.9271 B(  0-C ,  2-C ) :   1.1323 B(  0-C ,  5-H ) :   0.4082
B(  0-C ,  7-H ) :   0.5193 B(  0-C , 10-H ) :   0.6464 B(  0-C , 11-H ) :   0.9402
B(  0-C , 13-C ) :   0.1052 B(  0-C , 14-H ) :   0.1865 B(  0-C , 15-H ) :   0.1893
B(  0-C , 16-C ) :   0.1095 B(  1-C ,  2-C ) :   0.2259 B(  1-C ,  5-H ) :  -0.4801
B(  1-C ,  6-H ) :   0.3396 B(  1-C ,  7-H ) :  -1.3795 B(  1-C , 10-H ) :   0.2413
B(  1-C , 17-H ) :   0.1405 B(  2-C ,  7-H ) :  -0.1104 B(  2-C , 10-H ) :   0.1441
B(  2-C , 13-C ) :   1.2487 B(  2-C , 14-H ) :   0.6998 B(  2-C , 15-H ) :   0.5809
B(  2-C , 17-H ) :   0.1011 B(  2-C , 18-H ) :   0.1400 B(  3-C ,  4-S ) :   0.9255
B(  3-C , 16-C ) :   0.1223 B(  3-C , 19-C ) :   1.1706 B(  3-C , 20-H ) :   0.8385
B(  3-C , 21-H ) :   0.8318 B(  3-C , 24-H ) :   0.1534 B(  3-C , 25-H ) :   0.1365
B(  4-S ,  8-O ) :   1.7306 B(  4-S ,  9-O ) :   1.4909 B(  4-S , 12-F ) :   0.6746
B(  5-H ,  6-H ) :  -0.1265 B(  5-H ,  7-H ) :   1.2352 B(  5-H ,  9-O ) :   0.2571
B(  5-H , 11-H ) :   0.1901 B(  5-H , 17-H ) :  -0.1351 B(  5-H , 18-H ) :   0.1880
B(  6-H ,  7-H ) :   0.1312 B(  6-H , 11-H ) :  -0.1691 B(  6-H , 17-H ) :   0.1330
B(  6-H , 18-H ) :  -0.1756 B(  7-H , 10-H ) :  -0.1429 B(  7-H , 11-H ) :   0.1143
B(  7-H , 12-F ) :   0.2573 B(  7-H , 17-H ) :  -0.1418 B(  9-O , 12-F ) :   0.1247
B( 10-H , 11-H ) :  -0.2727 B( 10-H , 22-H ) :   0.1713 B( 11-H , 14-H ) :   0.1193
B( 13-C , 14-H ) :   0.1861 B( 13-C , 15-H ) :   0.3024 B( 13-C , 16-C ) :   1.1506
B( 13-C , 17-H ) :   0.7418 B( 13-C , 18-H ) :   0.7389 B( 13-C , 22-H ) :   0.1277
B( 13-C , 23-H ) :   0.1923 B( 14-H , 15-H ) :  -0.1353 B( 16-C , 17-H ) :   0.2082
B( 16-C , 18-H ) :   0.2167 B( 16-C , 19-C ) :   1.2322 B( 16-C , 22-H ) :   0.8081
B( 16-C , 23-H ) :   0.7510 B( 16-C , 24-H ) :   0.1555 B( 16-C , 25-H ) :   0.3017
B( 19-C , 21-H ) :   0.2323 B( 19-C , 24-H ) :   0.6883 B( 19-C , 25-H ) :   0.5859
B( 24-H , 25-H ) :  -0.1294

FINAL SINGLE POINT ENERGY      -922.213559857751

DIPOLE MOMENT
-------------
                                X             Y             Z
Electronic contribution:    -16.46833      -6.89216      -3.44224
Nuclear contribution   :     17.63907       5.79106       3.97609
                        -----------------------------------------
Total Dipole Moment    :      1.17074      -1.10110       0.53386
                        -----------------------------------------
Magnitude (a.u.)       :      1.69353
Magnitude (Debye)      :      4.30462

Rotational constants in cm-1:     0.048663     0.025472     0.020259
Rotational constants in MHz :  1458.892793   763.621130   607.350055

                             ****ORCA TERMINATED NORMALLY****
TOTAL RUN TIME: 0 days 0 hours 2 minutes 5 seconds 154 msec
