                         Program Version 5.0.0 -  RELEASE  -
|  1> !PBE0 D3BJ RIJCOSX def2-SVPD def2/J TightSCF
|  2> *xyz -1 1
|  3> C         -0.25875        1.00432       -5.40983
|  4> C          0.39596       -0.37070       -5.33994
|  5> O         -0.32633       -1.39040       -5.49128
|  6> O          1.61941       -0.40073       -5.03683
|  7> H         -1.28979        0.89539       -5.67439
|  8> H          0.23798        1.59877       -6.14792
|  9> H         -0.18395        1.48386       -4.45623
| 10> *
| 11> %MaxCore 64000
| 12>
| 13> %pal nprocs 4
| 14> end
| 15>
| 16> %scf
| 17>   MaxIter 150
| 18> end
| 19>
| 20>
| 21>                          ****END OF INPUT****

CARTESIAN COORDINATES (ANGSTROEM)
---------------------------------
  C     -0.258750    1.004320   -5.409830
  C      0.395960   -0.370700   -5.339940
  O     -0.326330   -1.390400   -5.491280
  O      1.619410   -0.400730   -5.036830
  H     -1.289790    0.895390   -5.674390
  H      0.237980    1.598770   -6.147920
  H     -0.183950    1.483860   -4.456230

 Total Charge           Charge          ....   -1
 Multiplicity           Mult            ....    1
 Number of Electrons    NEL             ....   32
 Basis Dimension        Dim             ....  110

ORBITAL ENERGIES
----------------

  NO   OCC          E(Eh)            E(eV)
   0   2.0000     -18.951290      -515.6908
   1   2.0000     -18.948567      -515.6167
   2   2.0000     -10.115185      -275.2482
   3   2.0000     -10.045060      -273.3400
   4   2.0000      -0.834336       -22.7034
   5   2.0000      -0.738757       -20.1026
   6   2.0000      -0.560200       -15.2438
   7   2.0000      -0.318219        -8.6592
   8   2.0000      -0.273673        -7.4470
   9   2.0000      -0.259642        -7.0652
  10   2.0000      -0.239394        -6.5143
  11   2.0000      -0.197272        -5.3680
  12   2.0000      -0.177384        -4.8269
  13   2.0000      -0.058455        -1.5906
  14   2.0000      -0.054191        -1.4746
  15   2.0000      -0.036972        -1.0061
  16   0.0000       0.178692         4.8625
  17   0.0000       0.220145         5.9904
  18   0.0000       0.229446         6.2435
  19   0.0000       0.248631         6.7656
  20   0.0000       0.271753         7.3948

MULLIKEN ATOMIC CHARGES
-----------------------
   0 C :    0.304463
   1 C :    0.180937
   2 O :   -0.716248
   3 O :   -0.743741
   4 H :   -0.020766
   5 H :   -0.001492
   6 H :   -0.003152
Sum of atomic charges:   -1.0000000

LOEWDIN ATOMIC CHARGES
----------------------
   0 C :    0.136540
   1 C :   -0.324449
   2 O :   -0.347598
   3 O :   -0.354070
   4 H :   -0.042193
   5 H :   -0.035629
   6 H :   -0.032601

  Mayer bond orders larger than 0.100000
B(  0-C ,  1-C ) :   1.2354 B(  0-C ,  4-H ) :   0.8937 B(  0-C ,  5-H ) :   0.8409
B(  0-C ,  6-H ) :   0.8542 B(  1-C ,  2-O ) :   1.3971 B(  1-C ,  3-O ) :   1.4000
B(  1-C ,  4-H ) :   0.2147 B(  1-C ,  5-H ) :   0.1515 B(  1-C ,  6-H ) :   0.1369

Dispersion correction           -0.003025608
FINAL SINGLE POINT ENERGY      -228.120322691014

DIPOLE MOMENT
-------------
                                X             Y             Z
Electronic contribution:      1.52563      -3.23431       0.18587
Nuclear contribution   :     -2.15615       4.52621      -0.30445
                        -----------------------------------------
Total Dipole Moment    :     -0.63051       1.29190      -0.11857
                        -----------------------------------------
Magnitude (a.u.)       :      1.44243
Magnitude (Debye)      :      3.66638

Rotational constants in cm-1:     0.393591     0.332639     0.186460
Rotational constants in MHz : 11799.557437  9972.275109  5589.926304

                             ****ORCA TERMINATED NORMALLY****
TOTAL RUN TIME: 0 days 0 hours 0 minutes 7 seconds 988 msec
