                         Program Version 5.0.0 -  RELEASE  -
|  1> !PBE0 D3BJ RIJCOSX def2-SVPD def2/J TightSCF
|  2> *xyz 1 1
|  3> C          0.81607       -2.10149       -2.18655
|  4> N          1.10055       -2.46749       -3.59927
|  5> H          1.70061       -1.75723       -4.07838
|  6> H          0.29386       -2.35977       -4.25632
|  7> H          1.50132       -3.42848       -3.69491
|  8> H          0.40947       -1.11246       -2.14929
|  9> H          1.72290       -2.13590       -1.61965
| 10> H          0.11112       -2.79271       -1.77405
| 11> *
| 12> %MaxCore 64000
| 13>
| 14> %pal nprocs 4
| 15> end
| 16>
| 17> %scf
| 18>   MaxIter 150
| 19> end
| 20>
| 21>
| 22>                          ****END OF INPUT****

CARTESIAN COORDINATES (ANGSTROEM)
---------------------------------
  C      0.816070   -2.101490   -2.186550
  N      1.100550   -2.467490   -3.599270
  H      1.700610   -1.757230   -4.078380
  H      0.293860   -2.359770   -4.256320
  H      1.501320   -3.428480   -3.694910
  H      0.409470   -1.112460   -2.149290
  H      1.722900   -2.135900   -1.619650
  H      0.111120   -2.792710   -1.774050

 Total Charge           Charge          ....    1
 Multiplicity           Mult            ....    1
 Number of Electrons    NEL             ....   18
 Basis Dimension        Dim             ....   88

ORBITAL ENERGIES
----------------

  NO   OCC          E(Eh)            E(eV)
   0   2.0000     -14.748871      -401.3372
   1   2.0000     -10.490851      -285.4706
   2   2.0000      -1.238004       -33.6878
   3   2.0000      -0.957260       -26.0484
   4   2.0000      -0.831965       -22.6389
   5   2.0000      -0.796991       -21.6872
   6   2.0000      -0.733854       -19.9692
   7   2.0000      -0.640832       -17.4379
   8   2.0000      -0.635320       -17.2879
   9   0.0000      -0.198557        -5.4030
  10   0.0000      -0.133128        -3.6226
  11   0.0000      -0.128362        -3.4929
  12   0.0000      -0.122701        -3.3389
  13   0.0000      -0.075189        -2.0460

MULLIKEN ATOMIC CHARGES
-----------------------
   0 C :    0.820583
   1 N :   -0.978312
   2 H :    0.398818
   3 H :    0.384173
   4 H :    0.418287
   5 H :   -0.019855
   6 H :   -0.008687
   7 H :   -0.015007
Sum of atomic charges:    1.0000000

LOEWDIN ATOMIC CHARGES
----------------------
   0 C :    0.279252
   1 N :    0.282828
   2 H :    0.117519
   3 H :    0.118170
   4 H :    0.123952
   5 H :    0.026046
   6 H :    0.026611
   7 H :    0.025622

  Mayer bond orders larger than 0.100000
B(  0-C ,  1-N ) :   0.7266 B(  0-C ,  5-H ) :   0.9127 B(  0-C ,  6-H ) :   0.9065
B(  0-C ,  7-H ) :   0.9167 B(  1-N ,  2-H ) :   0.7482 B(  1-N ,  3-H ) :   0.7669
B(  1-N ,  4-H ) :   0.7027

Dispersion correction           -0.002665090
FINAL SINGLE POINT ENERGY       -96.031015805662

DIPOLE MOMENT
-------------
                                X             Y             Z
Electronic contribution:      0.21360      -0.31214      -0.97223
Nuclear contribution   :     -0.05716       0.15480       0.08012
                        -----------------------------------------
Total Dipole Moment    :      0.15645      -0.15734      -0.89211
                        -----------------------------------------
Magnitude (a.u.)       :      0.91929
Magnitude (Debye)      :      2.33666

Rotational constants in cm-1:     2.875975     0.681325     0.670600
Rotational constants in MHz : 86219.567947 20425.600745 20104.086440

                             ****ORCA TERMINATED NORMALLY****
TOTAL RUN TIME: 0 days 0 hours 0 minutes 4 seconds 727 msec
