                         Program Version 5.0.0 -  RELEASE  -
|  1> !PBE0 D3BJ RIJCOSX def2-SVPD def2/J TightSCF xyzfile
|  2>
|  3> *xyzfile 0 1 B.xyz
|  4>
|  5> %MaxCore 64000
|  6>
|  7> %pal nprocs 4
|  8> end
|  9>
| 10> %scf
| 11>   MaxIter 150
| 12> end
| 13>
| 14>
| 15>                          ****END OF INPUT****

CARTESIAN COORDINATES (ANGSTROEM)
---------------------------------
  C      0.816067   -2.101491   -2.186546
  H      1.696232   -2.368691   -1.600457
  N      1.100552   -2.467492   -3.599269
  C      0.516243   -0.613634   -2.039373
  H     -0.020066   -2.712849   -1.840844
  C     -0.868621   -0.193925   -2.546303
  C     -0.984801    1.284739   -2.928686
  H     -0.764939    1.904116   -2.051568
  H     -2.032613    1.478953   -3.178952
  C     -0.106085    1.769914   -4.089836
  H     -0.347744    2.822196   -4.262942
  H      0.949683    1.745875   -3.808781
  C     -0.258747    1.004323   -5.409829
  C      0.395958   -0.370696   -5.339939
  H      0.239150    1.569393   -6.201253
  H     -1.309360    0.888694   -5.682455
  H      1.700606   -1.757225   -4.078378
  H      0.293855   -2.359766   -4.256324
  H      1.501324   -3.428479   -3.694915
  O     -0.326329   -1.390398   -5.491279
  O      1.619412   -0.400726   -5.036827
  H     -1.607271   -0.412651   -1.768955
  H     -1.157234   -0.796164   -3.409254
  H      1.299044   -0.056805   -2.558982
  H      0.612393   -0.365579   -0.979171

 Total Charge           Charge          ....    0
 Multiplicity           Mult            ....    1
 Number of Electrons    NEL             ....   80
 Basis Dimension        Dim             ....  326

ORBITAL ENERGIES
----------------

  NO   OCC          E(Eh)            E(eV)
   0   2.0000     -19.155686      -521.2527
   1   2.0000     -19.154349      -521.2163
   2   2.0000     -14.483728      -394.1223
   3   2.0000     -10.309490      -280.5355
   4   2.0000     -10.306832      -280.4632
   5   2.0000     -10.248551      -278.8773
   6   2.0000     -10.230552      -278.3875
   7   2.0000     -10.226214      -278.2694
   8   2.0000     -10.219761      -278.0938
   9   2.0000     -10.209645      -277.8186
  10   2.0000      -1.050859       -28.5953
  11   2.0000      -0.996578       -27.1183
  12   2.0000      -0.948708       -25.8157
  13   2.0000      -0.833251       -22.6739
  14   2.0000      -0.789876       -21.4936
  15   2.0000      -0.742221       -20.1969
  16   2.0000      -0.677418       -18.4335
  17   2.0000      -0.643296       -17.5050
  18   2.0000      -0.593047       -16.1376
  19   2.0000      -0.580621       -15.7995
  20   2.0000      -0.556895       -15.1539
  21   2.0000      -0.531675       -14.4676
  22   2.0000      -0.496524       -13.5111
  23   2.0000      -0.483994       -13.1701
  24   2.0000      -0.470997       -12.8165
  25   2.0000      -0.460243       -12.5239
  26   2.0000      -0.440711       -11.9924
  27   2.0000      -0.433562       -11.7978
  28   2.0000      -0.415591       -11.3088
  29   2.0000      -0.404894       -11.0177
  30   2.0000      -0.400259       -10.8916
  31   2.0000      -0.386869       -10.5272
  32   2.0000      -0.365147        -9.9362
  33   2.0000      -0.361988        -9.8502
  34   2.0000      -0.338368        -9.2074
  35   2.0000      -0.323462        -8.8018
  36   2.0000      -0.320394        -8.7184
  37   2.0000      -0.266028        -7.2390
  38   2.0000      -0.252544        -6.8721
  39   2.0000      -0.244726        -6.6593
  40   0.0000      -0.001257        -0.0342
  41   0.0000       0.030228         0.8225
  42   0.0000       0.039725         1.0810
  43   0.0000       0.045751         1.2449
  44   0.0000       0.048254         1.3131

MULLIKEN ATOMIC CHARGES
-----------------------
   0 C :    0.942001
   1 H :   -0.105209
   2 N :   -0.650817
   3 C :   -0.099093
   4 H :   -0.118943
   5 C :    0.022448
   6 C :    0.217726
   7 H :   -0.011930
   8 H :    0.126590
   9 C :   -0.082458
  10 H :   -0.153438
  11 H :    0.145843
  12 C :    0.153237
  13 C :    0.430055
  14 H :    0.070194
  15 H :    0.011626
  16 H :    0.352415
  17 H :    0.296343
  18 H :    0.268615
  19 O :   -0.752632
  20 O :   -0.787229
  21 H :   -0.092479
  22 H :   -0.105216
  23 H :    0.091880
  24 H :   -0.169530
Sum of atomic charges:    0.0000000

LOEWDIN ATOMIC CHARGES
----------------------
   0 C :    0.086025
   1 H :    0.032209
   2 N :    0.304660
   3 C :   -0.003807
   4 H :    0.037220
   5 C :   -0.016142
   6 C :   -0.024931
   7 H :    0.022895
   8 H :    0.025573
   9 C :   -0.026152
  10 H :    0.019698
  11 H :    0.013029
  12 C :    0.043736
  13 C :   -0.195145
  14 H :    0.033427
  15 H :    0.027191
  16 H :   -0.021342
  17 H :   -0.019328
  18 H :    0.102347
  19 O :   -0.258137
  20 O :   -0.248949
  21 H :    0.024727
  22 H :   -0.000972
  23 H :    0.012670
  24 H :    0.029500

  Mayer bond orders larger than 0.100000
B(  0-C ,  1-H ) :   0.7918 B(  0-C ,  2-N ) :   0.6761 B(  0-C ,  3-C ) :   1.1646
B(  0-C ,  4-H ) :   0.8375 B(  1-H ,  2-N ) :   0.1064 B(  1-H ,  3-C ) :   0.1887
B(  2-N ,  4-H ) :   0.1989 B(  2-N , 13-C ) :   0.1219 B(  2-N , 16-H ) :   0.7309
B(  2-N , 17-H ) :   0.8268 B(  2-N , 18-H ) :   0.8034 B(  3-C ,  5-C ) :   1.1874
B(  3-C , 21-H ) :   0.2018 B(  3-C , 22-H ) :   0.1037 B(  3-C , 23-H ) :   0.8905
B(  3-C , 24-H ) :   0.9368 B(  5-C ,  6-C ) :   1.2577 B(  5-C ,  7-H ) :   0.1591
B(  5-C ,  8-H ) :   0.1827 B(  5-C , 21-H ) :   0.8265 B(  5-C , 22-H ) :   0.9055
B(  5-C , 23-H ) :   0.1022 B(  5-C , 24-H ) :   0.1628 B(  6-C ,  7-H ) :   0.8483
B(  6-C ,  8-H ) :   0.6974 B(  6-C ,  9-C ) :   1.2442 B(  6-C , 10-H ) :   0.1294
B(  6-C , 21-H ) :   0.1074 B(  7-H ,  9-C ) :   0.1404 B(  8-H ,  9-C ) :   0.1416
B(  9-C , 10-H ) :   0.9341 B(  9-C , 11-H ) :   0.8140 B(  9-C , 12-C ) :   1.2481
B(  9-C , 14-H ) :   0.1470 B(  9-C , 15-H ) :   0.1184 B( 10-H , 12-C ) :   0.1050
B( 12-C , 13-C ) :   1.1806 B( 12-C , 14-H ) :   0.7405 B( 12-C , 15-H ) :   0.8682
B( 13-C , 14-H ) :   0.1654 B( 13-C , 15-H ) :   0.2282 B( 13-C , 19-O ) :   1.2953
B( 13-C , 20-O ) :   1.2138 B( 16-H , 20-O ) :   0.2076 B( 17-H , 19-O ) :   0.2174

Dispersion correction           -0.023105877
FINAL SINGLE POINT ENERGY      -480.149987786089

DIPOLE MOMENT
-------------
                                X             Y             Z
Electronic contribution:      2.29052      -3.08946      -6.25075
Nuclear contribution   :     -2.02598       1.95876       8.24116
                        -----------------------------------------
Total Dipole Moment    :      0.26454      -1.13070       1.99041
                        -----------------------------------------
Magnitude (a.u.)       :      2.30439
Magnitude (Debye)      :      5.85728

Rotational constants in cm-1:     0.052900     0.041948     0.028766
Rotational constants in MHz :  1585.892512  1257.572595   862.390225

                             ****ORCA TERMINATED NORMALLY****
TOTAL RUN TIME: 0 days 0 hours 1 minutes 31 seconds 664 msec
