                         Program Version 5.0.0 -  RELEASE  -
|  1> !PBE0 D3BJ RIJCOSX def2-SVPD def2/J TightSCF
|  2> *xyz 0 1
|  3> C         -0.25875        1.00432       -5.40983
|  4> C          0.39596       -0.37070       -5.33994
|  5> F         -0.32633       -1.39040       -5.49128
|  6> O          1.61941       -0.40073       -5.03683
|  7> H         -1.28979        0.89539       -5.67439
|  8> H          0.23798        1.59877       -6.14792
|  9> H         -0.18395        1.48386       -4.45623
| 10> *
| 11> %MaxCore 64000
| 12>
| 13> %pal nprocs 4
| 14> end
| 15>
| 16> %scf
| 17>   MaxIter 150
| 18> end
| 19>
| 20>
| 21>                          ****END OF INPUT****

CARTESIAN COORDINATES (ANGSTROEM)
---------------------------------
  C     -0.258750    1.004320   -5.409830
  C      0.395960   -0.370700   -5.339940
  F     -0.326330   -1.390400   -5.491280
  O      1.619410   -0.400730   -5.036830
  H     -1.289790    0.895390   -5.674390
  H      0.237980    1.598770   -6.147920
  H     -0.183950    1.483860   -4.456230

 Total Charge           Charge          ....    0
 Multiplicity           Mult            ....    1
 Number of Electrons    NEL             ....   32
 Basis Dimension        Dim             ....  110

ORBITAL ENERGIES
----------------

  NO   OCC          E(Eh)            E(eV)
   0   2.0000     -24.859311      -676.4562
   1   2.0000     -19.228163      -523.2249
   2   2.0000     -10.421838      -283.5926
   3   2.0000     -10.262479      -279.2563
   4   2.0000      -1.341667       -36.5086
   5   2.0000      -1.053974       -28.6801
   6   2.0000      -0.792841       -21.5743
   7   2.0000      -0.682234       -18.5645
   8   2.0000      -0.570984       -15.5373
   9   2.0000      -0.567173       -15.4336
  10   2.0000      -0.523491       -14.2449
  11   2.0000      -0.463604       -12.6153
  12   2.0000      -0.449765       -12.2387
  13   2.0000      -0.422405       -11.4942
  14   2.0000      -0.370079       -10.0704
  15   2.0000      -0.312454        -8.5023
  16   0.0000      -0.033136        -0.9017
  17   0.0000       0.018948         0.5156
  18   0.0000       0.065321         1.7775
  19   0.0000       0.094424         2.5694
  20   0.0000       0.095530         2.5995

MULLIKEN ATOMIC CHARGES
-----------------------
   0 C :    0.235808
   1 C :    0.514299
   2 F :   -0.378663
   3 O :   -0.547158
   4 H :    0.028135
   5 H :    0.070647
   6 H :    0.076933
Sum of atomic charges:    0.0000000

LOEWDIN ATOMIC CHARGES
----------------------
   0 C :    0.209606
   1 C :   -0.019667
   2 F :   -0.044005
   3 O :   -0.149790
   4 H :   -0.011389
   5 H :    0.006786
   6 H :    0.008460

  Mayer bond orders larger than 0.100000
B(  0-C ,  1-C ) :   1.2680 B(  0-C ,  4-H ) :   0.8972 B(  0-C ,  5-H ) :   0.8234
B(  0-C ,  6-H ) :   0.8337 B(  1-C ,  2-F ) :   0.7461 B(  1-C ,  3-O ) :   1.7283
B(  1-C ,  4-H ) :   0.1309 B(  1-C ,  5-H ) :   0.1316 B(  1-C ,  6-H ) :   0.1151

Dispersion correction           -0.002786748
FINAL SINGLE POINT ENERGY      -252.640856732194

DIPOLE MOMENT
-------------
                                X             Y             Z
Electronic contribution:      0.43908      -5.03861      -0.09662
Nuclear contribution   :     -1.44986       5.66477      -0.12483
                        -----------------------------------------
Total Dipole Moment    :     -1.01078       0.62616      -0.22144
                        -----------------------------------------
Magnitude (a.u.)       :      1.20946
Magnitude (Debye)      :      3.07420

Rotational constants in cm-1:     0.371735     0.317798     0.176902
Rotational constants in MHz : 11144.324945  9527.341239  5303.391856

                             ****ORCA TERMINATED NORMALLY****
TOTAL RUN TIME: 0 days 0 hours 0 minutes 6 seconds 921 msec
