                         Program Version 5.0.0 -  RELEASE  -
|  1> !PBE0 D3BJ RIJCOSX def2-SVPD def2/J TightSCF
|  2> *xyz 0 1
|  3> C          0.81607       -2.10149       -2.18655
|  4> C          1.10055       -2.46749       -3.59927
|  5> H          1.70061       -1.75723       -4.07838
|  6> H          0.29386       -2.35977       -4.25632
|  7> H          1.50132       -3.42848       -3.69491
|  8> H          0.40947       -1.11246       -2.14929
|  9> H          1.72290       -2.13590       -1.61965
| 10> H          0.11112       -2.79271       -1.77405
| 11> *
| 12> %MaxCore 64000
| 13>
| 14> %pal nprocs 4
| 15> end
| 16>
| 17> %scf
| 18>   MaxIter 150
| 19> end
| 20>
| 21>
| 22>                          ****END OF INPUT****

CARTESIAN COORDINATES (ANGSTROEM)
---------------------------------
  C      0.816070   -2.101490   -2.186550
  C      1.100550   -2.467490   -3.599270
  H      1.700610   -1.757230   -4.078380
  H      0.293860   -2.359770   -4.256320
  H      1.501320   -3.428480   -3.694910
  H      0.409470   -1.112460   -2.149290
  H      1.722900   -2.135900   -1.619650
  H      0.111120   -2.792710   -1.774050

 Total Charge           Charge          ....    0
 Multiplicity           Mult            ....    1
 Number of Electrons    NEL             ....   18
 Basis Dimension        Dim             ....   88

ORBITAL ENERGIES
----------------

  NO   OCC          E(Eh)            E(eV)
   0   2.0000     -10.211147      -277.8594
   1   2.0000     -10.201810      -277.6054
   2   2.0000      -0.782995       -21.3064
   3   2.0000      -0.637132       -17.3372
   4   2.0000      -0.467137       -12.7114
   5   2.0000      -0.448438       -12.2026
   6   2.0000      -0.388725       -10.5778
   7   2.0000      -0.363100        -9.8805
   8   2.0000      -0.342086        -9.3086
   9   0.0000       0.035689         0.9712
  10   0.0000       0.066606         1.8125
  11   0.0000       0.108466         2.9515
  12   0.0000       0.113413         3.0861
  13   0.0000       0.130615         3.5542

MULLIKEN ATOMIC CHARGES
-----------------------
   0 C :    0.140122
   1 C :    0.231816
   2 H :   -0.114205
   3 H :   -0.128528
   4 H :   -0.099726
   5 H :   -0.002717
   6 H :   -0.011524
   7 H :   -0.015238
Sum of atomic charges:    0.0000000

LOEWDIN ATOMIC CHARGES
----------------------
   0 C :    0.070975
   1 C :    0.060020
   2 H :   -0.030776
   3 H :   -0.031112
   4 H :   -0.023044
   5 H :   -0.014742
   6 H :   -0.014980
   7 H :   -0.016342

  Mayer bond orders larger than 0.100000
B(  0-C ,  1-C ) :   1.4525 B(  0-C ,  2-H ) :   0.1182 B(  0-C ,  3-H ) :   0.1089
B(  0-C ,  4-H ) :   0.1334 B(  0-C ,  5-H ) :   0.8916 B(  0-C ,  6-H ) :   0.8733
B(  0-C ,  7-H ) :   0.8876 B(  1-C ,  2-H ) :   0.8358 B(  1-C ,  3-H ) :   0.8416
B(  1-C ,  4-H ) :   0.8801 B(  1-C ,  5-H ) :   0.1323 B(  1-C ,  6-H ) :   0.1386
B(  1-C ,  7-H ) :   0.1315 B(  2-H ,  3-H ) :   0.2364

Dispersion correction           -0.002675178
FINAL SINGLE POINT ENERGY       -79.657685299813

DIPOLE MOMENT
-------------
                                X             Y             Z
Electronic contribution:      0.00482      -0.07020       0.12635
Nuclear contribution   :     -0.00793       0.09023      -0.16124
                        -----------------------------------------
Total Dipole Moment    :     -0.00311       0.02003      -0.03489
                        -----------------------------------------
Magnitude (a.u.)       :      0.04035
Magnitude (Debye)      :      0.10256

Rotational constants in cm-1:     2.876169     0.710562     0.698917
Rotational constants in MHz : 86225.370734 21302.115394 20952.991121

                             ****ORCA TERMINATED NORMALLY****
TOTAL RUN TIME: 0 days 0 hours 0 minutes 4 seconds 735 msec
