                         Program Version 5.0.0 -  RELEASE  -
|  1> !PBE0 D3BJ RIJCOSX def2-SVPD def2/J TightSCF
|  2> *xyz 0 1
|  3> C         -0.25875        1.00432       -5.40983
|  4> C          0.39596       -0.37070       -5.33994
|  5> O         -0.32633       -1.39040       -5.49128
|  6> F          1.61941       -0.40073       -5.03683
|  7> H         -1.28979        0.89539       -5.67439
|  8> H          0.23798        1.59877       -6.14792
|  9> H         -0.18395        1.48386       -4.45623
| 10> *
| 11> %MaxCore 64000
| 12>
| 13> %pal nprocs 4
| 14> end
| 15>
| 16> %scf
| 17>   MaxIter 150
| 18> end
| 19>
| 20>
| 21>                          ****END OF INPUT****

CARTESIAN COORDINATES (ANGSTROEM)
---------------------------------
  C     -0.258750    1.004320   -5.409830
  C      0.395960   -0.370700   -5.339940
  O     -0.326330   -1.390400   -5.491280
  F      1.619410   -0.400730   -5.036830
  H     -1.289790    0.895390   -5.674390
  H      0.237980    1.598770   -6.147920
  H     -0.183950    1.483860   -4.456230

 Total Charge           Charge          ....    0
 Multiplicity           Mult            ....    1
 Number of Electrons    NEL             ....   32
 Basis Dimension        Dim             ....  110

ORBITAL ENERGIES
----------------

  NO   OCC          E(Eh)            E(eV)
   0   2.0000     -24.857203      -676.3989
   1   2.0000     -19.230034      -523.2758
   2   2.0000     -10.421614      -283.5865
   3   2.0000     -10.262346      -279.2526
   4   2.0000      -1.339326       -36.4449
   5   2.0000      -1.055596       -28.7242
   6   2.0000      -0.793910       -21.6034
   7   2.0000      -0.680222       -18.5098
   8   2.0000      -0.570277       -15.5180
   9   2.0000      -0.565712       -15.3938
  10   2.0000      -0.523223       -14.2376
  11   2.0000      -0.462367       -12.5816
  12   2.0000      -0.450012       -12.2455
  13   2.0000      -0.422613       -11.4999
  14   2.0000      -0.374450       -10.1893
  15   2.0000      -0.313426        -8.5287
  16   0.0000      -0.029893        -0.8134
  17   0.0000       0.019289         0.5249
  18   0.0000       0.065304         1.7770
  19   0.0000       0.091672         2.4945
  20   0.0000       0.099768         2.7148

MULLIKEN ATOMIC CHARGES
-----------------------
   0 C :    0.245211
   1 C :    0.529969
   2 O :   -0.527974
   3 F :   -0.399141
   4 H :    0.003976
   5 H :    0.072004
   6 H :    0.075954
Sum of atomic charges:   -0.0000000

LOEWDIN ATOMIC CHARGES
----------------------
   0 C :    0.209626
   1 C :   -0.022152
   2 O :   -0.145132
   3 F :   -0.047247
   4 H :    0.001870
   5 H :   -0.000215
   6 H :    0.003251

  Mayer bond orders larger than 0.100000
B(  0-C ,  1-C ) :   1.2519 B(  0-C ,  4-H ) :   0.9101 B(  0-C ,  5-H ) :   0.8234
B(  0-C ,  6-H ) :   0.8303 B(  1-C ,  2-O ) :   1.7513 B(  1-C ,  3-F ) :   0.7065
B(  1-C ,  4-H ) :   0.1814 B(  1-C ,  5-H ) :   0.1140 B(  1-C ,  6-H ) :   0.1055

Dispersion correction           -0.002785697
FINAL SINGLE POINT ENERGY      -252.643409734534

DIPOLE MOMENT
-------------
                                X             Y             Z
Electronic contribution:      3.59896      -3.43006       0.64228
Nuclear contribution   :     -3.46039       4.64214      -0.59441
                        -----------------------------------------
Total Dipole Moment    :      0.13857       1.21208       0.04787
                        -----------------------------------------
Magnitude (a.u.)       :      1.22091
Magnitude (Debye)      :      3.10332

Rotational constants in cm-1:     0.366844     0.321935     0.177045
Rotational constants in MHz : 10997.709774  9651.373819  5307.687677

                             ****ORCA TERMINATED NORMALLY****
TOTAL RUN TIME: 0 days 0 hours 0 minutes 7 seconds 136 msec
