                         Program Version 5.0.0 -  RELEASE  -
|  1> !wB97X-D3 RIJCOSX def2-SVP def2/J TightSCF
|  2> *xyz -1 1
|  3> C          1.69499        1.54179       -5.57045
|  4> S          1.78029       -0.03313       -6.42874
|  5> O          2.56929        0.21366       -7.60736
|  6> O          0.41688       -0.46297       -6.61859
|  7> O          2.50513       -0.93326       -5.48257
|  8> H          1.18489        2.25500       -6.18367
|  9> H          2.68564        1.89081       -5.36624
| 10> H          1.16361        1.41804       -4.65000
| 11> *
| 12> %MaxCore 64000
| 13>
| 14> %pal nprocs 8
| 15> end
| 16>
| 17> %scf
| 18>   MaxIter 150
| 19> end
| 20>
| 21>
| 22>                          ****END OF INPUT****

CARTESIAN COORDINATES (ANGSTROEM)
---------------------------------
  C      1.694990    1.541790   -5.570450
  S      1.780290   -0.033130   -6.428740
  O      2.569290    0.213660   -7.607360
  O      0.416880   -0.462970   -6.618590
  O      2.505130   -0.933260   -5.482570
  H      1.184890    2.255000   -6.183670
  H      2.685640    1.890810   -5.366240
  H      1.163610    1.418040   -4.650000

 Total Charge           Charge          ....   -1
 Multiplicity           Mult            ....    1
 Number of Electrons    NEL             ....   50
 Basis Dimension        Dim             ....   89

ORBITAL ENERGIES
----------------

  NO   OCC          E(Eh)            E(eV)
   0   2.0000     -88.936120     -2420.0749
   1   2.0000     -18.987578      -516.6783
   2   2.0000     -18.986332      -516.6443
   3   2.0000     -18.965679      -516.0824
   4   2.0000     -10.125558      -275.5304
   5   2.0000      -8.016492      -218.1398
   6   2.0000      -5.975576      -162.6037
   7   2.0000      -5.975375      -162.5982
   8   2.0000      -5.975187      -162.5931
   9   2.0000      -1.016667       -27.6649
  10   2.0000      -0.877136       -23.8681
  11   2.0000      -0.841190       -22.8899
  12   2.0000      -0.680294       -18.5117
  13   2.0000      -0.470121       -12.7926
  14   2.0000      -0.379714       -10.3325
  15   2.0000      -0.375361       -10.2141
  16   2.0000      -0.374246       -10.1837
  17   2.0000      -0.322096        -8.7647
  18   2.0000      -0.319306        -8.6887
  19   2.0000      -0.217512        -5.9188
  20   2.0000      -0.214777        -5.8444
  21   2.0000      -0.181717        -4.9448
  22   2.0000      -0.176372        -4.7993
  23   2.0000      -0.158348        -4.3089
  24   2.0000      -0.123469        -3.3598
  25   0.0000       0.311903         8.4873
  26   0.0000       0.361343         9.8326
  27   0.0000       0.363823         9.9001
  28   0.0000       0.400283        10.8922
  29   0.0000       0.470832        12.8120

MULLIKEN ATOMIC CHARGES
-----------------------
   0 C :   -0.074385
   1 S :    0.863347
   2 O :   -0.588662
   3 O :   -0.589003
   4 O :   -0.647170
   5 H :    0.006623
   6 H :    0.015257
   7 H :    0.013992
Sum of atomic charges:   -1.0000000

LOEWDIN ATOMIC CHARGES
----------------------
   0 C :   -0.212792
   1 S :    1.102462
   2 O :   -0.617436
   3 O :   -0.618082
   4 O :   -0.677497
   5 H :    0.004681
   6 H :    0.009737
   7 H :    0.008927

  Mayer bond orders larger than 0.100000
B(  0-C ,  1-S ) :   0.9105 B(  0-C ,  5-H ) :   0.9626 B(  0-C ,  6-H ) :   0.9664
B(  0-C ,  7-H ) :   0.9662 B(  1-S ,  2-O ) :   1.6403 B(  1-S ,  3-O ) :   1.6384
B(  1-S ,  4-O ) :   1.5791

Dispersion correction           -0.001521635
FINAL SINGLE POINT ENERGY      -663.356073844623

DIPOLE MOMENT
-------------
                                X             Y             Z
Electronic contribution:      0.12060      -3.76362      -2.22131
Nuclear contribution   :     -0.31747       5.08000       2.69095
                        -----------------------------------------
Total Dipole Moment    :     -0.19687       1.31638       0.46964
                        -----------------------------------------
Magnitude (a.u.)       :      1.41144
Magnitude (Debye)      :      3.58761

Rotational constants in cm-1:     0.172246     0.157831     0.154490
Rotational constants in MHz :  5163.797750  4731.657963  4631.481993

                             ****ORCA TERMINATED NORMALLY****
TOTAL RUN TIME: 0 days 0 hours 0 minutes 5 seconds 834 msec
