                         Program Version 5.0.0 -  RELEASE  -
|  1> !wB97X-D3 RIJCOSX def2-SVP def2/J TightSCF
|  2> *xyz 1 1
|  3> C          1.96337       -1.74915       -1.89689
|  4> N          2.73849       -2.01517       -3.09711
|  5> C          4.04974       -2.15472       -3.15204
|  6> N          4.65821       -1.98629       -4.31866
|  7> N          4.76423       -2.45444       -2.05049
|  8> H          4.28736       -2.77626       -1.21750
|  9> H          5.75082       -2.65835       -2.12599
| 10> H          2.34518       -1.69027       -3.97145
| 11> H          4.10900       -1.59268       -5.07176
| 12> H          5.64910       -2.15646       -4.42724
| 13> H          0.92556       -1.68522       -2.14942
| 14> H          2.28268       -0.82430       -1.46378
| 15> H          2.11118       -2.54207       -1.19381
| 16> *
| 17> %MaxCore 64000
| 18>
| 19> %pal nprocs 8
| 20> end
| 21>
| 22> %scf
| 23>   MaxIter 150
| 24> end
| 25>
| 26>
| 27>                          ****END OF INPUT****

CARTESIAN COORDINATES (ANGSTROEM)
---------------------------------
  C      1.963370   -1.749150   -1.896890
  N      2.738490   -2.015170   -3.097110
  C      4.049740   -2.154720   -3.152040
  N      4.658210   -1.986290   -4.318660
  N      4.764230   -2.454440   -2.050490
  H      4.287360   -2.776260   -1.217500
  H      5.750820   -2.658350   -2.125990
  H      2.345180   -1.690270   -3.971450
  H      4.109000   -1.592680   -5.071760
  H      5.649100   -2.156460   -4.427240
  H      0.925560   -1.685220   -2.149420
  H      2.282680   -0.824300   -1.463780
  H      2.111180   -2.542070   -1.193810

 Total Charge           Charge          ....    1
 Multiplicity           Mult            ....    1
 Number of Electrons    NEL             ....   40
 Basis Dimension        Dim             ....  110

ORBITAL ENERGIES
----------------

  NO   OCC          E(Eh)            E(eV)
   0   2.0000     -14.663926      -399.0257
   1   2.0000     -14.663861      -399.0239
   2   2.0000     -14.661990      -398.9730
   3   2.0000     -10.630447      -289.2692
   4   2.0000     -10.493925      -285.5542
   5   2.0000      -1.332264       -36.2527
   6   2.0000      -1.216603       -33.1054
   7   2.0000      -1.203003       -32.7354
   8   2.0000      -1.016825       -27.6692
   9   2.0000      -0.934088       -25.4178
  10   2.0000      -0.891197       -24.2507
  11   2.0000      -0.862058       -23.4578
  12   2.0000      -0.797510       -21.7013
  13   2.0000      -0.789782       -21.4910
  14   2.0000      -0.759806       -20.6754
  15   2.0000      -0.745505       -20.2862
  16   2.0000      -0.691574       -18.8187
  17   2.0000      -0.675437       -18.3796
  18   2.0000      -0.574688       -15.6380
  19   2.0000      -0.550278       -14.9738
  20   0.0000      -0.078671        -2.1407
  21   0.0000      -0.054845        -1.4924
  22   0.0000      -0.015201        -0.4136
  23   0.0000      -0.007495        -0.2039
  24   0.0000       0.016700         0.4544

MULLIKEN ATOMIC CHARGES
-----------------------
   0 C :    0.062754
   1 N :   -0.184200
   2 C :    0.101697
   3 N :   -0.062687
   4 N :   -0.091479
   5 H :    0.182494
   6 H :    0.183566
   7 H :    0.174335
   8 H :    0.183373
   9 H :    0.189031
  10 H :    0.097890
  11 H :    0.087038
  12 H :    0.076189
Sum of atomic charges:    1.0000000

LOEWDIN ATOMIC CHARGES
----------------------
   0 C :    0.051996
   1 N :    0.015050
   2 C :    0.160082
   3 N :    0.043701
   4 N :    0.033365
   5 H :    0.111638
   6 H :    0.113112
   7 H :    0.106613
   8 H :    0.112657
   9 H :    0.116174
  10 H :    0.057205
  11 H :    0.040449
  12 H :    0.037959

  Mayer bond orders larger than 0.100000
B(  0-C ,  1-N ) :   0.9294 B(  0-C , 10-H ) :   0.9711 B(  0-C , 11-H ) :   0.9787
B(  0-C , 12-H ) :   0.9734 B(  1-N ,  2-C ) :   1.3787 B(  1-N ,  7-H ) :   0.9113
B(  2-C ,  3-N ) :   1.4037 B(  2-C ,  4-N ) :   1.3901 B(  3-N ,  8-H ) :   0.9221
B(  3-N ,  9-H ) :   0.9237 B(  4-N ,  5-H ) :   0.9237 B(  4-N ,  6-H ) :   0.9256

Dispersion correction           -0.002387251
FINAL SINGLE POINT ENERGY      -244.837562469624

DIPOLE MOMENT
-------------
                                X             Y             Z
Electronic contribution:      2.09618      -0.55525      -1.83095
Nuclear contribution   :     -1.59972       0.59064       1.48941
                        -----------------------------------------
Total Dipole Moment    :      0.49646       0.03539      -0.34154
                        -----------------------------------------
Magnitude (a.u.)       :      0.60363
Magnitude (Debye)      :      1.53430

Rotational constants in cm-1:     0.309236     0.134358     0.096189
Rotational constants in MHz :  9270.657746  4027.948155  2883.671905

                             ****ORCA TERMINATED NORMALLY****
TOTAL RUN TIME: 0 days 0 hours 0 minutes 8 seconds 482 msec
