                         Program Version 5.0.0 -  RELEASE  -
|  1> !wB97X-D3 RIJCOSX def2-SVP def2/J TightSCF
|  2> *xyz 0 1
|  3> C          1.69499        1.54179       -5.57045
|  4> S          1.78029       -0.03313       -6.42874
|  5> F          2.56929        0.21366       -7.60736
|  6> O          0.41688       -0.46297       -6.61859
|  7> O          2.50513       -0.93326       -5.48257
|  8> H          1.18489        2.25500       -6.18367
|  9> H          2.68564        1.89081       -5.36624
| 10> H          1.16361        1.41804       -4.65000
| 11> *
| 12> %MaxCore 64000
| 13>
| 14> %pal nprocs 8
| 15> end
| 16>
| 17> %scf
| 18>   MaxIter 150
| 19> end
| 20>
| 21>
| 22>                          ****END OF INPUT****

CARTESIAN COORDINATES (ANGSTROEM)
---------------------------------
  C      1.694990    1.541790   -5.570450
  S      1.780290   -0.033130   -6.428740
  F      2.569290    0.213660   -7.607360
  O      0.416880   -0.462970   -6.618590
  O      2.505130   -0.933260   -5.482570
  H      1.184890    2.255000   -6.183670
  H      2.685640    1.890810   -5.366240
  H      1.163610    1.418040   -4.650000

 Total Charge           Charge          ....    0
 Multiplicity           Mult            ....    1
 Number of Electrons    NEL             ....   50
 Basis Dimension        Dim             ....   89

ORBITAL ENERGIES
----------------

  NO   OCC          E(Eh)            E(eV)
   0   2.0000     -89.218900     -2427.7697
   1   2.0000     -24.911765      -677.8836
   2   2.0000     -19.246670      -523.7285
   3   2.0000     -19.225671      -523.1571
   4   2.0000     -10.345699      -281.5208
   5   2.0000      -8.301489      -225.8950
   6   2.0000      -6.264686      -170.4708
   7   2.0000      -6.257847      -170.2847
   8   2.0000      -6.257062      -170.2633
   9   2.0000      -1.493468       -40.6393
  10   2.0000      -1.216445       -33.1011
  11   2.0000      -1.103621       -30.0310
  12   2.0000      -0.914122       -24.8745
  13   2.0000      -0.823691       -22.4138
  14   2.0000      -0.710616       -19.3369
  15   2.0000      -0.693192       -18.8627
  16   2.0000      -0.654403       -17.8072
  17   2.0000      -0.578099       -15.7309
  18   2.0000      -0.573012       -15.5924
  19   2.0000      -0.564393       -15.3579
  20   2.0000      -0.525763       -14.3068
  21   2.0000      -0.476917       -12.9776
  22   2.0000      -0.426832       -11.6147
  23   2.0000      -0.407411       -11.0862
  24   2.0000      -0.389105       -10.5881
  25   0.0000       0.116426         3.1681
  26   0.0000       0.149865         4.0780
  27   0.0000       0.159299         4.3347
  28   0.0000       0.171657         4.6710
  29   0.0000       0.187369         5.0986

MULLIKEN ATOMIC CHARGES
-----------------------
   0 C :   -0.096193
   1 S :    0.930367
   2 F :   -0.172309
   3 O :   -0.441655
   4 O :   -0.500270
   5 H :    0.080973
   6 H :    0.085466
   7 H :    0.113620
Sum of atomic charges:   -0.0000000

LOEWDIN ATOMIC CHARGES
----------------------
   0 C :   -0.156164
   1 S :    1.162488
   2 F :   -0.115964
   3 O :   -0.482761
   4 O :   -0.542596
   5 H :    0.037001
   6 H :    0.040350
   7 H :    0.057647

  Mayer bond orders larger than 0.100000
B(  0-C ,  1-S ) :   0.9397 B(  0-C ,  5-H ) :   0.9534 B(  0-C ,  6-H ) :   0.9547
B(  0-C ,  7-H ) :   0.9584 B(  1-S ,  2-F ) :   1.0270 B(  1-S ,  3-O ) :   1.7898
B(  1-S ,  4-O ) :   1.7310

Dispersion correction           -0.001531723
FINAL SINGLE POINT ENERGY      -687.854723779801

DIPOLE MOMENT
-------------
                                X             Y             Z
Electronic contribution:      1.41264      -3.23313      -4.18661
Nuclear contribution   :     -1.09446       4.91008       3.93848
                        -----------------------------------------
Total Dipole Moment    :      0.31818       1.67695      -0.24814
                        -----------------------------------------
Magnitude (a.u.)       :      1.72481
Magnitude (Debye)      :      4.38413

Rotational constants in cm-1:     0.163326     0.155515     0.146672
Rotational constants in MHz :  4896.387829  4662.220576  4397.127261

                             ****ORCA TERMINATED NORMALLY****
TOTAL RUN TIME: 0 days 0 hours 0 minutes 6 seconds 32 msec
