                         Program Version 5.0.0 -  RELEASE  -
|  1> !wB97X-D3 RIJCOSX def2-SVP def2/J TightSCF
|  2> *xyz 0 1
|  3> C          1.96337       -1.74915       -1.89689
|  4> C          2.73849       -2.01517       -3.09711
|  5> C          4.04974       -2.15472       -3.15204
|  6> N          4.65821       -1.98629       -4.31866
|  7> N          4.76423       -2.45444       -2.05049
|  8> H          4.28736       -2.77626       -1.21750
|  9> H          5.75082       -2.65835       -2.12599
| 10> H          2.34518       -1.69027       -3.97145
| 11> H          4.10900       -1.59268       -5.07176
| 12> H          5.64910       -2.15646       -4.42724
| 13> H          0.92556       -1.68522       -2.14942
| 14> H          2.28268       -0.82430       -1.46378
| 15> H          2.11118       -2.54207       -1.19381
| 16> *
| 17> %MaxCore 64000
| 18>
| 19> %pal nprocs 8
| 20> end
| 21>
| 22> %scf
| 23>   MaxIter 150
| 24> end
| 25>
| 26>
| 27>                          ****END OF INPUT****

CARTESIAN COORDINATES (ANGSTROEM)
---------------------------------
  C      1.963370   -1.749150   -1.896890
  C      2.738490   -2.015170   -3.097110
  C      4.049740   -2.154720   -3.152040
  N      4.658210   -1.986290   -4.318660
  N      4.764230   -2.454440   -2.050490
  H      4.287360   -2.776260   -1.217500
  H      5.750820   -2.658350   -2.125990
  H      2.345180   -1.690270   -3.971450
  H      4.109000   -1.592680   -5.071760
  H      5.649100   -2.156460   -4.427240
  H      0.925560   -1.685220   -2.149420
  H      2.282680   -0.824300   -1.463780
  H      2.111180   -2.542070   -1.193810

 Total Charge           Charge          ....    0
 Multiplicity           Mult            ....    1
 Number of Electrons    NEL             ....   40
 Basis Dimension        Dim             ....  110

ORBITAL ENERGIES
----------------

  NO   OCC          E(Eh)            E(eV)
   0   2.0000     -14.429174      -392.6378
   1   2.0000     -14.425100      -392.5269
   2   2.0000     -10.323350      -280.9126
   3   2.0000     -10.246318      -278.8165
   4   2.0000     -10.195744      -277.4403
   5   2.0000      -1.059775       -28.8379
   6   2.0000      -0.967962       -26.3396
   7   2.0000      -0.853228       -23.2175
   8   2.0000      -0.755428       -20.5562
   9   2.0000      -0.680979       -18.5304
  10   2.0000      -0.636629       -17.3236
  11   2.0000      -0.603323       -16.4173
  12   2.0000      -0.563738       -15.3401
  13   2.0000      -0.514916       -14.0116
  14   2.0000      -0.504425       -13.7261
  15   2.0000      -0.469030       -12.7630
  16   2.0000      -0.446118       -12.1395
  17   2.0000      -0.422640       -11.5006
  18   2.0000      -0.351291        -9.5591
  19   2.0000      -0.232938        -6.3386
  20   0.0000       0.134042         3.6475
  21   0.0000       0.166372         4.5272
  22   0.0000       0.181674         4.9436
  23   0.0000       0.189633         5.1602
  24   0.0000       0.206773         5.6266

MULLIKEN ATOMIC CHARGES
-----------------------
   0 C :    0.049515
   1 C :   -0.224202
   2 C :   -0.021505
   3 N :   -0.105300
   4 N :   -0.133173
   5 H :    0.131056
   6 H :    0.112980
   7 H :   -0.081400
   8 H :    0.134375
   9 H :    0.112290
  10 H :    0.013055
  11 H :    0.014395
  12 H :   -0.002086
Sum of atomic charges:    0.0000000

LOEWDIN ATOMIC CHARGES
----------------------
   0 C :   -0.056907
   1 C :   -0.245866
   2 C :    0.035045
   3 N :   -0.030644
   4 N :   -0.038095
   5 H :    0.081551
   6 H :    0.066527
   7 H :   -0.012729
   8 H :    0.085028
   9 H :    0.066831
  10 H :    0.026490
  11 H :    0.013120
  12 H :    0.009649

  Mayer bond orders larger than 0.100000
B(  0-C ,  1-C ) :   1.0630 B(  0-C , 10-H ) :   0.9598 B(  0-C , 11-H ) :   0.9761
B(  0-C , 12-H ) :   0.9622 B(  1-C ,  2-C ) :   1.7245 B(  1-C ,  7-H ) :   0.9367
B(  2-C ,  3-N ) :   1.2317 B(  2-C ,  4-N ) :   1.2378 B(  3-N ,  8-H ) :   0.9367
B(  3-N ,  9-H ) :   0.9531 B(  4-N ,  5-H ) :   0.9443 B(  4-N ,  6-H ) :   0.9522

Dispersion correction           -0.002389699
FINAL SINGLE POINT ENERGY      -228.364792573016

DIPOLE MOMENT
-------------
                                X             Y             Z
Electronic contribution:      2.90907      -0.69616      -1.59176
Nuclear contribution   :     -1.78367       0.60166       1.44982
                        -----------------------------------------
Total Dipole Moment    :      1.12541      -0.09450      -0.14194
                        -----------------------------------------
Magnitude (a.u.)       :      1.13825
Magnitude (Debye)      :      2.89321

Rotational constants in cm-1:     0.313991     0.135452     0.097139
Rotational constants in MHz :  9413.212964  4060.745953  2912.144668

                             ****ORCA TERMINATED NORMALLY****
TOTAL RUN TIME: 0 days 0 hours 0 minutes 8 seconds 651 msec
