                         Program Version 5.0.0 -  RELEASE  -
|  1> !wB97X-D3 RIJCOSX def2-SVP def2/J TightSCF
|  2> *xyz 0 1
|  3> C          1.69499        1.54179       -5.57045
|  4> S          1.78029       -0.03313       -6.42874
|  5> O          2.56929        0.21366       -7.60736
|  6> F          0.41688       -0.46297       -6.61859
|  7> O          2.50513       -0.93326       -5.48257
|  8> H          1.18489        2.25500       -6.18367
|  9> H          2.68564        1.89081       -5.36624
| 10> H          1.16361        1.41804       -4.65000
| 11> *
| 12> %MaxCore 64000
| 13>
| 14> %pal nprocs 8
| 15> end
| 16>
| 17> %scf
| 18>   MaxIter 150
| 19> end
| 20>
| 21>
| 22>                          ****END OF INPUT****

CARTESIAN COORDINATES (ANGSTROEM)
---------------------------------
  C      1.694990    1.541790   -5.570450
  S      1.780290   -0.033130   -6.428740
  O      2.569290    0.213660   -7.607360
  F      0.416880   -0.462970   -6.618590
  O      2.505130   -0.933260   -5.482570
  H      1.184890    2.255000   -6.183670
  H      2.685640    1.890810   -5.366240
  H      1.163610    1.418040   -4.650000

 Total Charge           Charge          ....    0
 Multiplicity           Mult            ....    1
 Number of Electrons    NEL             ....   50
 Basis Dimension        Dim             ....   89

ORBITAL ENERGIES
----------------

  NO   OCC          E(Eh)            E(eV)
   0   2.0000     -89.218596     -2427.7614
   1   2.0000     -24.912011      -677.8903
   2   2.0000     -19.245488      -523.6963
   3   2.0000     -19.225720      -523.1585
   4   2.0000     -10.345740      -281.5219
   5   2.0000      -8.301236      -225.8881
   6   2.0000      -6.264406      -170.4631
   7   2.0000      -6.257600      -170.2780
   8   2.0000      -6.256811      -170.2565
   9   2.0000      -1.492248       -40.6061
  10   2.0000      -1.217392       -33.1269
  11   2.0000      -1.103270       -30.0215
  12   2.0000      -0.913685       -24.8626
  13   2.0000      -0.823705       -22.4142
  14   2.0000      -0.710181       -19.3250
  15   2.0000      -0.692585       -18.8462
  16   2.0000      -0.653955       -17.7950
  17   2.0000      -0.578115       -15.7313
  18   2.0000      -0.572818       -15.5872
  19   2.0000      -0.564904       -15.3718
  20   2.0000      -0.525614       -14.3027
  21   2.0000      -0.477091       -12.9823
  22   2.0000      -0.426109       -11.5950
  23   2.0000      -0.407379       -11.0854
  24   2.0000      -0.388569       -10.5735
  25   0.0000       0.114267         3.1094
  26   0.0000       0.149599         4.0708
  27   0.0000       0.159166         4.3311
  28   0.0000       0.171503         4.6668
  29   0.0000       0.188272         5.1231

MULLIKEN ATOMIC CHARGES
-----------------------
   0 C :   -0.095184
   1 S :    0.929772
   2 O :   -0.441508
   3 F :   -0.173556
   4 O :   -0.499505
   5 H :    0.080899
   6 H :    0.114308
   7 H :    0.084775
Sum of atomic charges:   -0.0000000

LOEWDIN ATOMIC CHARGES
----------------------
   0 C :   -0.155346
   1 S :    1.162065
   2 O :   -0.482217
   3 F :   -0.117578
   4 O :   -0.541827
   5 H :    0.036983
   6 H :    0.058151
   7 H :    0.039770

  Mayer bond orders larger than 0.100000
B(  0-C ,  1-S ) :   0.9401 B(  0-C ,  5-H ) :   0.9534 B(  0-C ,  6-H ) :   0.9581
B(  0-C ,  7-H ) :   0.9550 B(  1-S ,  2-O ) :   1.7912 B(  1-S ,  3-F ) :   1.0250
B(  1-S ,  4-O ) :   1.7310

Dispersion correction           -0.001531061
FINAL SINGLE POINT ENERGY      -687.853990554780

DIPOLE MOMENT
-------------
                                X             Y             Z
Electronic contribution:     -2.19903      -4.36862      -2.52335
Nuclear contribution   :      1.05593       5.58608       2.95063
                        -----------------------------------------
Total Dipole Moment    :     -1.14309       1.21746       0.42728
                        -----------------------------------------
Magnitude (a.u.)       :      1.72378
Magnitude (Debye)      :      4.38151

Rotational constants in cm-1:     0.163930     0.155251     0.146268
Rotational constants in MHz :  4914.487830  4654.318941  4385.000376

                             ****ORCA TERMINATED NORMALLY****
TOTAL RUN TIME: 0 days 0 hours 0 minutes 5 seconds 996 msec
