                         Program Version 5.0.0 -  RELEASE  -
|  1> !wB97X-D3 RIJCOSX def2-SVP def2/J TightSCF
|  2> *xyz 0 1
|  3> C          1.96337       -1.74915       -1.89689
|  4> N          2.73849       -2.01517       -3.09711
|  5> C          4.04974       -2.15472       -3.15204
|  6> C          4.65821       -1.98629       -4.31866
|  7> N          4.76423       -2.45444       -2.05049
|  8> H          4.28736       -2.77626       -1.21750
|  9> H          5.75082       -2.65835       -2.12599
| 10> H          2.34518       -1.69027       -3.97145
| 11> H          4.10900       -1.59268       -5.07176
| 12> H          5.64910       -2.15646       -4.42724
| 13> H          0.92556       -1.68522       -2.14942
| 14> H          2.28268       -0.82430       -1.46378
| 15> H          2.11118       -2.54207       -1.19381
| 16> *
| 17> %MaxCore 64000
| 18>
| 19> %pal nprocs 8
| 20> end
| 21>
| 22> %scf
| 23>   MaxIter 150
| 24> end
| 25>
| 26>
| 27>                          ****END OF INPUT****

CARTESIAN COORDINATES (ANGSTROEM)
---------------------------------
  C      1.963370   -1.749150   -1.896890
  N      2.738490   -2.015170   -3.097110
  C      4.049740   -2.154720   -3.152040
  C      4.658210   -1.986290   -4.318660
  N      4.764230   -2.454440   -2.050490
  H      4.287360   -2.776260   -1.217500
  H      5.750820   -2.658350   -2.125990
  H      2.345180   -1.690270   -3.971450
  H      4.109000   -1.592680   -5.071760
  H      5.649100   -2.156460   -4.427240
  H      0.925560   -1.685220   -2.149420
  H      2.282680   -0.824300   -1.463780
  H      2.111180   -2.542070   -1.193810

 Total Charge           Charge          ....    0
 Multiplicity           Mult            ....    1
 Number of Electrons    NEL             ....   40
 Basis Dimension        Dim             ....  110

ORBITAL ENERGIES
----------------

  NO   OCC          E(Eh)            E(eV)
   0   2.0000     -14.428144      -392.6097
   1   2.0000     -14.427821      -392.6010
   2   2.0000     -10.327636      -281.0293
   3   2.0000     -10.319117      -280.7974
   4   2.0000     -10.192378      -277.3487
   5   2.0000      -1.070695       -29.1351
   6   2.0000      -0.981728       -26.7142
   7   2.0000      -0.848918       -23.1002
   8   2.0000      -0.767016       -20.8716
   9   2.0000      -0.697589       -18.9824
  10   2.0000      -0.630341       -17.1525
  11   2.0000      -0.588277       -16.0078
  12   2.0000      -0.569437       -15.4952
  13   2.0000      -0.553880       -15.0718
  14   2.0000      -0.498193       -13.5565
  15   2.0000      -0.480035       -13.0624
  16   2.0000      -0.477727       -12.9996
  17   2.0000      -0.452706       -12.3188
  18   2.0000      -0.341776        -9.3002
  19   2.0000      -0.240892        -6.5550
  20   0.0000       0.132860         3.6153
  21   0.0000       0.167676         4.5627
  22   0.0000       0.177400         4.8273
  23   0.0000       0.182388         4.9630
  24   0.0000       0.218550         5.9471

MULLIKEN ATOMIC CHARGES
-----------------------
   0 C :    0.095252
   1 N :   -0.204275
   2 C :   -0.010094
   3 C :   -0.115212
   4 N :   -0.138543
   5 H :    0.111615
   6 H :    0.133873
   7 H :    0.131289
   8 H :   -0.049712
   9 H :   -0.047899
  10 H :    0.036489
  11 H :    0.030286
  12 H :    0.026932
Sum of atomic charges:    0.0000000

LOEWDIN ATOMIC CHARGES
----------------------
   0 C :    0.028233
   1 N :   -0.046453
   2 C :    0.044004
   3 C :   -0.262885
   4 N :   -0.036918
   5 H :    0.065418
   6 H :    0.084267
   7 H :    0.084362
   8 H :   -0.009429
   9 H :   -0.008661
  10 H :    0.029147
  11 H :    0.013313
  12 H :    0.015601

  Mayer bond orders larger than 0.100000
B(  0-C ,  1-N ) :   0.9969 B(  0-C , 10-H ) :   0.9800 B(  0-C , 11-H ) :   0.9759
B(  0-C , 12-H ) :   0.9759 B(  1-N ,  2-C ) :   1.2049 B(  1-N ,  7-H ) :   0.9292
B(  2-C ,  3-C ) :   1.7495 B(  2-C ,  4-N ) :   1.2135 B(  3-C ,  8-H ) :   0.9400
B(  3-C ,  9-H ) :   0.9531 B(  4-N ,  5-H ) :   0.9533 B(  4-N ,  6-H ) :   0.9459

Dispersion correction           -0.002400261
FINAL SINGLE POINT ENERGY      -228.358808734480

DIPOLE MOMENT
-------------
                                X             Y             Z
Electronic contribution:      0.84889      -0.66738      -0.24878
Nuclear contribution   :     -1.39484       0.60751       1.20240
                        -----------------------------------------
Total Dipole Moment    :     -0.54595      -0.05987       0.95362
                        -----------------------------------------
Magnitude (a.u.)       :      1.10047
Magnitude (Debye)      :      2.79718

Rotational constants in cm-1:     0.316419     0.139940     0.099730
Rotational constants in MHz :  9485.991536  4195.289338  2989.818216

                             ****ORCA TERMINATED NORMALLY****
TOTAL RUN TIME: 0 days 0 hours 0 minutes 8 seconds 568 msec
