                         Program Version 5.0.0 -  RELEASE  -
|  1> !wB97X-D3 RIJCOSX def2-SVP def2/J TightSCF
|  2> *xyz 0 1
|  3> C          1.69499        1.54179       -5.57045
|  4> S          1.78029       -0.03313       -6.42874
|  5> O          2.56929        0.21366       -7.60736
|  6> O          0.41688       -0.46297       -6.61859
|  7> F          2.50513       -0.93326       -5.48257
|  8> H          1.18489        2.25500       -6.18367
|  9> H          2.68564        1.89081       -5.36624
| 10> H          1.16361        1.41804       -4.65000
| 11> *
| 12> %MaxCore 64000
| 13>
| 14> %pal nprocs 8
| 15> end
| 16>
| 17> %scf
| 18>   MaxIter 150
| 19> end
| 20>
| 21>
| 22>                          ****END OF INPUT****

CARTESIAN COORDINATES (ANGSTROEM)
---------------------------------
  C      1.694990    1.541790   -5.570450
  S      1.780290   -0.033130   -6.428740
  O      2.569290    0.213660   -7.607360
  O      0.416880   -0.462970   -6.618590
  F      2.505130   -0.933260   -5.482570
  H      1.184890    2.255000   -6.183670
  H      2.685640    1.890810   -5.366240
  H      1.163610    1.418040   -4.650000

 Total Charge           Charge          ....    0
 Multiplicity           Mult            ....    1
 Number of Electrons    NEL             ....   50
 Basis Dimension        Dim             ....   89

ORBITAL ENERGIES
----------------

  NO   OCC          E(Eh)            E(eV)
   0   2.0000     -89.217295     -2427.7260
   1   2.0000     -24.884214      -677.1339
   2   2.0000     -19.246765      -523.7311
   3   2.0000     -19.245549      -523.6980
   4   2.0000     -10.344730      -281.4944
   5   2.0000      -8.299618      -225.8441
   6   2.0000      -6.262514      -170.4117
   7   2.0000      -6.256259      -170.2415
   8   2.0000      -6.255542      -170.2219
   9   2.0000      -1.447430       -39.3866
  10   2.0000      -1.229331       -33.4518
  11   2.0000      -1.132949       -30.8291
  12   2.0000      -0.911605       -24.8060
  13   2.0000      -0.800468       -21.7818
  14   2.0000      -0.690406       -18.7869
  15   2.0000      -0.661176       -17.9915
  16   2.0000      -0.648834       -17.6557
  17   2.0000      -0.577428       -15.7126
  18   2.0000      -0.575727       -15.6663
  19   2.0000      -0.562685       -15.3114
  20   2.0000      -0.535263       -14.5652
  21   2.0000      -0.485079       -13.1997
  22   2.0000      -0.432333       -11.7644
  23   2.0000      -0.428144       -11.6504
  24   2.0000      -0.410548       -11.1716
  25   0.0000       0.118587         3.2269
  26   0.0000       0.147779         4.0213
  27   0.0000       0.162349         4.4177
  28   0.0000       0.179093         4.8734
  29   0.0000       0.185157         5.0384

MULLIKEN ATOMIC CHARGES
-----------------------
   0 C :   -0.099713
   1 S :    0.943833
   2 O :   -0.449514
   3 O :   -0.448950
   4 F :   -0.225658
   5 H :    0.110314
   6 H :    0.085342
   7 H :    0.084347
Sum of atomic charges:   -0.0000000

LOEWDIN ATOMIC CHARGES
----------------------
   0 C :   -0.157708
   1 S :    1.169719
   2 O :   -0.488378
   3 O :   -0.488244
   4 F :   -0.170518
   5 H :    0.055274
   6 H :    0.040300
   7 H :    0.039555

  Mayer bond orders larger than 0.100000
B(  0-C ,  1-S ) :   0.9416 B(  0-C ,  5-H ) :   0.9582 B(  0-C ,  6-H ) :   0.9549
B(  0-C ,  7-H ) :   0.9551 B(  1-S ,  2-O ) :   1.7954 B(  1-S ,  3-O ) :   1.7941
B(  1-S ,  4-F ) :   0.9664

Dispersion correction           -0.001529323
FINAL SINGLE POINT ENERGY      -687.879124945902

DIPOLE MOMENT
-------------
                                X             Y             Z
Electronic contribution:      1.31598      -5.16863      -0.59501
Nuclear contribution   :     -1.03036       6.05593       1.81567
                        -----------------------------------------
Total Dipole Moment    :      0.28561       0.88730       1.22066
                        -----------------------------------------
Magnitude (a.u.)       :      1.53587
Magnitude (Debye)      :      3.90387

Rotational constants in cm-1:     0.164224     0.152173     0.148737
Rotational constants in MHz :  4923.310232  4562.031098  4459.033187

                             ****ORCA TERMINATED NORMALLY****
TOTAL RUN TIME: 0 days 0 hours 0 minutes 6 seconds 19 msec
