                         Program Version 5.0.0 -  RELEASE  -
|  1> !wB97X-D3 RIJCOSX def2-SVP def2/J TightSCF
|  2> *xyz 0 1
|  3> C          1.96337       -1.74915       -1.89689
|  4> N          2.73849       -2.01517       -3.09711
|  5> C          4.04974       -2.15472       -3.15204
|  6> N          4.65821       -1.98629       -4.31866
|  7> C          4.76423       -2.45444       -2.05049
|  8> H          4.28736       -2.77626       -1.21750
|  9> H          5.75082       -2.65835       -2.12599
| 10> H          2.34518       -1.69027       -3.97145
| 11> H          4.10900       -1.59268       -5.07176
| 12> H          5.64910       -2.15646       -4.42724
| 13> H          0.92556       -1.68522       -2.14942
| 14> H          2.28268       -0.82430       -1.46378
| 15> H          2.11118       -2.54207       -1.19381
| 16> *
| 17> %MaxCore 64000
| 18>
| 19> %pal nprocs 8
| 20> end
| 21>
| 22> %scf
| 23>   MaxIter 150
| 24> end
| 25>
| 26>
| 27>                          ****END OF INPUT****

CARTESIAN COORDINATES (ANGSTROEM)
---------------------------------
  C      1.963370   -1.749150   -1.896890
  N      2.738490   -2.015170   -3.097110
  C      4.049740   -2.154720   -3.152040
  N      4.658210   -1.986290   -4.318660
  C      4.764230   -2.454440   -2.050490
  H      4.287360   -2.776260   -1.217500
  H      5.750820   -2.658350   -2.125990
  H      2.345180   -1.690270   -3.971450
  H      4.109000   -1.592680   -5.071760
  H      5.649100   -2.156460   -4.427240
  H      0.925560   -1.685220   -2.149420
  H      2.282680   -0.824300   -1.463780
  H      2.111180   -2.542070   -1.193810

 Total Charge           Charge          ....    0
 Multiplicity           Mult            ....    1
 Number of Electrons    NEL             ....   40
 Basis Dimension        Dim             ....  110

ORBITAL ENERGIES
----------------

  NO   OCC          E(Eh)            E(eV)
   0   2.0000     -14.432482      -392.7278
   1   2.0000     -14.429937      -392.6585
   2   2.0000     -10.329018      -281.0669
   3   2.0000     -10.311459      -280.5891
   4   2.0000     -10.192170      -277.3431
   5   2.0000      -1.076460       -29.2920
   6   2.0000      -0.985551       -26.8182
   7   2.0000      -0.821702       -22.3597
   8   2.0000      -0.797000       -21.6875
   9   2.0000      -0.665686       -18.1142
  10   2.0000      -0.642806       -17.4916
  11   2.0000      -0.620233       -16.8774
  12   2.0000      -0.548297       -14.9199
  13   2.0000      -0.543005       -14.7759
  14   2.0000      -0.509200       -13.8560
  15   2.0000      -0.473739       -12.8911
  16   2.0000      -0.462934       -12.5971
  17   2.0000      -0.455900       -12.4057
  18   2.0000      -0.338066        -9.1992
  19   2.0000      -0.242401        -6.5961
  20   0.0000       0.131621         3.5816
  21   0.0000       0.168826         4.5940
  22   0.0000       0.178932         4.8690
  23   0.0000       0.189834         5.1657
  24   0.0000       0.208271         5.6673

MULLIKEN ATOMIC CHARGES
-----------------------
   0 C :    0.118953
   1 N :   -0.219756
   2 C :    0.004740
   3 N :   -0.118852
   4 C :   -0.148911
   5 H :   -0.040870
   6 H :   -0.050573
   7 H :    0.105353
   8 H :    0.110098
   9 H :    0.139130
  10 H :    0.027203
  11 H :    0.028358
  12 H :    0.045128
Sum of atomic charges:    0.0000000

LOEWDIN ATOMIC CHARGES
----------------------
   0 C :    0.042208
   1 N :   -0.042970
   2 C :    0.039688
   3 N :   -0.027499
   4 C :   -0.273976
   5 H :   -0.008379
   6 H :   -0.010299
   7 H :    0.063259
   8 H :    0.064705
   9 H :    0.087273
  10 H :    0.024006
  11 H :    0.016075
  12 H :    0.025910

  Mayer bond orders larger than 0.100000
B(  0-C ,  1-N ) :   0.9973 B(  0-C , 10-H ) :   0.9792 B(  0-C , 11-H ) :   0.9758
B(  0-C , 12-H ) :   0.9732 B(  1-N ,  2-C ) :   1.1853 B(  1-N ,  7-H ) :   0.9419
B(  2-C ,  3-N ) :   1.2267 B(  2-C ,  4-C ) :   1.7474 B(  3-N ,  8-H ) :   0.9526
B(  3-N ,  9-H ) :   0.9433 B(  4-C ,  5-H ) :   0.9497 B(  4-C ,  6-H ) :   0.9492

Dispersion correction           -0.002385497
FINAL SINGLE POINT ENERGY      -228.358676463659

DIPOLE MOMENT
-------------
                                X             Y             Z
Electronic contribution:      0.75015      -0.08433      -2.65690
Nuclear contribution   :     -1.37336       0.51269       1.66180
                        -----------------------------------------
Total Dipole Moment    :     -0.62321       0.42835      -0.99510
                        -----------------------------------------
Magnitude (a.u.)       :      1.24984
Magnitude (Debye)      :      3.17685

Rotational constants in cm-1:     0.331915     0.135033     0.098638
Rotational constants in MHz :  9950.555862  4048.179255  2957.099162

                             ****ORCA TERMINATED NORMALLY****
TOTAL RUN TIME: 0 days 0 hours 0 minutes 8 seconds 780 msec
