                         Program Version 5.0.0 -  RELEASE  -
|  1> !wB97X-D3 RIJCOSX def2-SVP def2/J TightSCF xyzfile
|  2>
|  3> *xyzfile 0 1 D1.xyz
|  4>
|  5> %MaxCore 64000
|  6>
|  7> %pal nprocs 18
|  8> end
|  9>
| 10> %scf
| 11>   MaxIter 150
| 12> end
| 13>
| 14>
| 15>                          ****END OF INPUT****

CARTESIAN COORDINATES (ANGSTROEM)
---------------------------------
  C      1.963365   -1.749150   -1.896887
  C      2.738490   -2.015170   -3.097113
  C      0.611877    1.657634   -4.500288
  C      1.694991    1.541794   -5.570447
  H      2.697326    1.734659   -5.183996
  H      1.506656    2.272239   -6.358076
  S      1.780287   -0.033128   -6.428739
  C      4.049736   -2.154717   -3.152044
  N      4.658206   -1.986293   -4.318655
  N      4.764231   -2.454435   -2.050491
  H      4.287363   -2.776259   -1.217496
  H      5.750825   -2.658351   -2.125988
  H      2.345176   -1.690274   -3.971447
  H      4.109004   -1.592677   -5.071760
  H      5.649095   -2.156462   -4.427237
  F      2.569287    0.213657   -7.607360
  O      0.416880   -0.462969   -6.618595
  C      2.088520   -0.300912   -1.415204
  H      2.231272   -2.451616   -1.102643
  H      0.930249   -1.977801   -2.155438
  C      0.680356    0.655418   -3.348038
  H     -0.356865    1.549231   -4.991128
  H      0.650228    2.675438   -4.096000
  C      1.968993    0.733582   -2.535654
  H      3.051356   -0.168602   -0.911868
  H      1.316501   -0.136231   -0.657252
  O      2.505129   -0.933263   -5.482570
  H      2.824195    0.624726   -3.208464
  H      2.058919    1.730331   -2.093112
  H      0.542252   -0.344731   -3.766662
  H     -0.174219    0.829692   -2.685182

 Total Charge           Charge          ....    0
 Multiplicity           Mult            ....    1
 Number of Electrons    NEL             ....  120
 Basis Dimension        Dim             ....  285

ORBITAL ENERGIES
----------------

  NO   OCC          E(Eh)            E(eV)
   0   2.0000     -89.226328     -2427.9718
   1   2.0000     -24.920779      -678.1289
   2   2.0000     -19.256768      -524.0033
   3   2.0000     -19.243503      -523.6423
   4   2.0000     -14.410243      -392.1226
   5   2.0000     -14.393032      -391.6543
   6   2.0000     -10.351350      -281.6745
   7   2.0000     -10.313203      -280.6365
   8   2.0000     -10.301275      -280.3119
   9   2.0000     -10.279740      -279.7259
  10   2.0000     -10.267519      -279.3934
  11   2.0000     -10.255917      -279.0777
  12   2.0000     -10.242490      -278.7123
  13   2.0000     -10.161745      -276.5151
  14   2.0000      -8.309327      -226.1083
  15   2.0000      -6.272435      -170.6816
  16   2.0000      -6.265987      -170.5062
  17   2.0000      -6.264510      -170.4660
  18   2.0000      -1.502353       -40.8811
  19   2.0000      -1.229099       -33.4455
  20   2.0000      -1.122878       -30.5551
  21   2.0000      -1.036667       -28.2091
  22   2.0000      -0.949431       -25.8353
  23   2.0000      -0.944420       -25.6990
  24   2.0000      -0.898682       -24.4544
  25   2.0000      -0.861047       -23.4303
  26   2.0000      -0.829329       -22.5672
  27   2.0000      -0.794445       -21.6180
  28   2.0000      -0.755004       -20.5447
  29   2.0000      -0.723249       -19.6806
  30   2.0000      -0.706811       -19.2333
  31   2.0000      -0.689246       -18.7553
  32   2.0000      -0.686203       -18.6725
  33   2.0000      -0.650403       -17.6984
  34   2.0000      -0.645883       -17.5754
  35   2.0000      -0.619665       -16.8619
  36   2.0000      -0.597313       -16.2537
  37   2.0000      -0.593634       -16.1536
  38   2.0000      -0.579923       -15.7805
  39   2.0000      -0.561327       -15.2745
  40   2.0000      -0.559128       -15.2147
  41   2.0000      -0.536369       -14.5953
  42   2.0000      -0.528295       -14.3756
  43   2.0000      -0.519973       -14.1492
  44   2.0000      -0.508563       -13.8387
  45   2.0000      -0.492887       -13.4121
  46   2.0000      -0.476256       -12.9596
  47   2.0000      -0.468712       -12.7543
  48   2.0000      -0.460483       -12.5304
  49   2.0000      -0.451326       -12.2812
  50   2.0000      -0.438670       -11.9368
  51   2.0000      -0.425010       -11.5651
  52   2.0000      -0.417023       -11.3478
  53   2.0000      -0.411828       -11.2064
  54   2.0000      -0.407421       -11.0865
  55   2.0000      -0.399781       -10.8786
  56   2.0000      -0.384515       -10.4632
  57   2.0000      -0.367305        -9.9949
  58   2.0000      -0.328246        -8.9320
  59   2.0000      -0.210231        -5.7207
  60   0.0000       0.112689         3.0664
  61   0.0000       0.122551         3.3348
  62   0.0000       0.149220         4.0605
  63   0.0000       0.154319         4.1992
  64   0.0000       0.158971         4.3258

MULLIKEN ATOMIC CHARGES
-----------------------
   0 C :    0.031690
   1 C :   -0.178954
   2 C :   -0.023101
   3 C :   -0.128789
   4 H :    0.092316
   5 H :    0.077337
   6 S :    0.983456
   7 C :   -0.061017
   8 N :   -0.093864
   9 N :   -0.125418
  10 H :    0.123383
  11 H :    0.104790
  12 H :   -0.064250
  13 H :    0.117729
  14 H :    0.095879
  15 F :   -0.167333
  16 O :   -0.426412
  17 C :    0.033602
  18 H :   -0.020581
  19 H :    0.001210
  20 C :   -0.055245
  21 H :    0.054617
  22 H :    0.046060
  23 C :   -0.043270
  24 H :    0.004784
  25 H :   -0.003481
  26 O :   -0.475908
  27 H :    0.021006
  28 H :    0.000979
  29 H :    0.053340
  30 H :    0.025447
Sum of atomic charges:    0.0000000

LOEWDIN ATOMIC CHARGES
----------------------
   0 C :   -0.043466
   1 C :   -0.243376
   2 C :   -0.038182
   3 C :   -0.147439
   4 H :    0.040022
   5 H :    0.035229
   6 S :    1.180025
   7 C :    0.034537
   8 N :   -0.039525
   9 N :   -0.044569
  10 H :    0.076533
  11 H :    0.061926
  12 H :   -0.024155
  13 H :    0.050840
  14 H :    0.057119
  15 F :   -0.112168
  16 O :   -0.468830
  17 C :   -0.038122
  18 H :    0.006749
  19 H :    0.019455
  20 C :   -0.041347
  21 H :    0.035128
  22 H :    0.037580
  23 C :   -0.043102
  24 H :    0.017650
  25 H :    0.010728
  26 O :   -0.467598
  27 H :    0.017452
  28 H :    0.015027
  29 H :    0.028092
  30 H :    0.027788

  Mayer bond orders larger than 0.100000
B(  0-C ,  1-C ) :   1.0879 B(  0-C , 17-C ) :   1.0541 B(  0-C , 18-H ) :   0.9379
B(  0-C , 19-H ) :   0.9260 B(  1-C ,  7-C ) :   1.7071 B(  1-C , 12-H ) :   0.9072
B(  2-C ,  3-C ) :   1.0429 B(  2-C , 20-C ) :   1.0846 B(  2-C , 21-H ) :   0.9457
B(  2-C , 22-H ) :   0.9418 B(  3-C ,  4-H ) :   0.9250 B(  3-C ,  5-H ) :   0.9329
B(  3-C ,  6-S ) :   0.9218 B(  6-S , 15-F ) :   1.0345 B(  6-S , 16-O ) :   1.7966
B(  6-S , 26-O ) :   1.6090 B(  7-C ,  8-N ) :   1.2601 B(  7-C ,  9-N ) :   1.2287
B(  8-N , 13-H ) :   0.8981 B(  8-N , 14-H ) :   0.9532 B(  9-N , 10-H ) :   0.9433
B(  9-N , 11-H ) :   0.9520 B( 12-H , 26-O ) :   0.1000 B( 17-C , 23-C ) :   1.0899
B( 17-C , 24-H ) :   0.9433 B( 17-C , 25-H ) :   0.9462 B( 20-C , 23-C ) :   1.0511
B( 20-C , 29-H ) :   0.9397 B( 20-C , 30-H ) :   0.9445 B( 23-C , 27-H ) :   0.9324
B( 23-C , 28-H ) :   0.9468

Dispersion correction           -0.016380103
FINAL SINGLE POINT ENERGY     -1072.131013319226

DIPOLE MOMENT
-------------
                                X             Y             Z
Electronic contribution:      0.91381      -1.01247     -23.67725
Nuclear contribution   :      0.18720       2.58739      22.98820
                        -----------------------------------------
Total Dipole Moment    :      1.10101       1.57493      -0.68905
                        -----------------------------------------
Magnitude (a.u.)       :      2.04142
Magnitude (Debye)      :      5.18889

Rotational constants in cm-1:     0.028798     0.014448     0.010940
Rotational constants in MHz :   863.355869   433.126694   327.985023

                             ****ORCA TERMINATED NORMALLY****
TOTAL RUN TIME: 0 days 0 hours 0 minutes 35 seconds 417 msec
