                         Program Version 5.0.0 -  RELEASE  -
|  1> !wB97X-D3 RIJCOSX def2-SVP def2/J TightSCF xyzfile
|  2>
|  3> *xyzfile 0 1 D2.xyz
|  4>
|  5> %MaxCore 64000
|  6>
|  7> %pal nprocs 18
|  8> end
|  9>
| 10> %scf
| 11>   MaxIter 150
| 12> end
| 13>
| 14>
| 15>                          ****END OF INPUT****

CARTESIAN COORDINATES (ANGSTROEM)
---------------------------------
  C      1.963365   -1.749150   -1.896887
  N      2.738490   -2.015170   -3.097113
  C      0.611877    1.657634   -4.500288
  C      1.694991    1.541794   -5.570447
  H      2.697326    1.734659   -5.183996
  H      1.506656    2.272239   -6.358076
  S      1.780287   -0.033128   -6.428739
  C      4.049736   -2.154717   -3.152044
  C      4.658206   -1.986293   -4.318655
  N      4.764231   -2.454435   -2.050491
  H      4.287363   -2.776259   -1.217496
  H      5.750825   -2.658351   -2.125988
  H      2.345176   -1.690274   -3.971447
  H      4.109004   -1.592677   -5.071760
  H      5.649095   -2.156462   -4.427237
  F      2.569287    0.213657   -7.607360
  O      0.416880   -0.462969   -6.618595
  C      2.088520   -0.300912   -1.415204
  H      2.231272   -2.451616   -1.102643
  H      0.930249   -1.977801   -2.155438
  C      0.680356    0.655418   -3.348038
  H     -0.356865    1.549231   -4.991128
  H      0.650228    2.675438   -4.096000
  C      1.968993    0.733582   -2.535654
  H      3.051356   -0.168602   -0.911868
  H      1.316501   -0.136231   -0.657252
  O      2.505129   -0.933263   -5.482570
  H      2.824195    0.624726   -3.208464
  H      2.058919    1.730331   -2.093112
  H      0.542252   -0.344731   -3.766662
  H     -0.174219    0.829692   -2.685182

 Total Charge           Charge          ....    0
 Multiplicity           Mult            ....    1
 Number of Electrons    NEL             ....  120
 Basis Dimension        Dim             ....  285

ORBITAL ENERGIES
----------------

  NO   OCC          E(Eh)            E(eV)
   0   2.0000     -89.230168     -2428.0763
   1   2.0000     -24.922741      -678.1823
   2   2.0000     -19.259661      -524.0820
   3   2.0000     -19.244202      -523.6614
   4   2.0000     -14.408138      -392.0654
   5   2.0000     -14.391751      -391.6194
   6   2.0000     -10.355480      -281.7869
   7   2.0000     -10.322255      -280.8828
   8   2.0000     -10.308860      -280.5183
   9   2.0000     -10.301900      -280.3290
  10   2.0000     -10.295637      -280.1585
  11   2.0000     -10.285044      -279.8703
  12   2.0000     -10.279147      -279.7098
  13   2.0000     -10.159972      -276.4669
  14   2.0000      -8.312925      -226.2062
  15   2.0000      -6.275880      -170.7754
  16   2.0000      -6.269690      -170.6069
  17   2.0000      -6.268197      -170.5663
  18   2.0000      -1.503866       -40.9223
  19   2.0000      -1.231965       -33.5235
  20   2.0000      -1.124863       -30.6091
  21   2.0000      -1.046850       -28.4862
  22   2.0000      -0.964133       -26.2354
  23   2.0000      -0.955370       -25.9969
  24   2.0000      -0.902924       -24.5698
  25   2.0000      -0.867902       -23.6168
  26   2.0000      -0.828761       -22.5517
  27   2.0000      -0.801954       -21.8223
  28   2.0000      -0.763143       -20.7662
  29   2.0000      -0.731949       -19.9173
  30   2.0000      -0.709060       -19.2945
  31   2.0000      -0.697662       -18.9844
  32   2.0000      -0.688898       -18.7459
  33   2.0000      -0.665796       -18.1172
  34   2.0000      -0.657619       -17.8947
  35   2.0000      -0.612348       -16.6628
  36   2.0000      -0.603041       -16.4096
  37   2.0000      -0.601971       -16.3805
  38   2.0000      -0.575030       -15.6473
  39   2.0000      -0.572089       -15.5673
  40   2.0000      -0.560352       -15.2480
  41   2.0000      -0.552786       -15.0421
  42   2.0000      -0.538377       -14.6500
  43   2.0000      -0.528168       -14.3722
  44   2.0000      -0.511697       -13.9240
  45   2.0000      -0.495444       -13.4817
  46   2.0000      -0.481827       -13.1112
  47   2.0000      -0.477035       -12.9808
  48   2.0000      -0.464751       -12.6465
  49   2.0000      -0.454787       -12.3754
  50   2.0000      -0.445887       -12.1332
  51   2.0000      -0.443561       -12.0699
  52   2.0000      -0.436625       -11.8812
  53   2.0000      -0.422612       -11.4999
  54   2.0000      -0.420361       -11.4386
  55   2.0000      -0.411814       -11.2060
  56   2.0000      -0.410160       -11.1610
  57   2.0000      -0.388236       -10.5644
  58   2.0000      -0.316483        -8.6119
  59   2.0000      -0.215658        -5.8683
  60   0.0000       0.108154         2.9430
  61   0.0000       0.117609         3.2003
  62   0.0000       0.142138         3.8678
  63   0.0000       0.149715         4.0739
  64   0.0000       0.155229         4.2240

MULLIKEN ATOMIC CHARGES
-----------------------
   0 C :    0.060591
   1 N :   -0.171837
   2 C :   -0.023664
   3 C :   -0.132946
   4 H :    0.101024
   5 H :    0.080031
   6 S :    0.993799
   7 C :   -0.027180
   8 C :   -0.119422
   9 N :   -0.133488
  10 H :    0.104961
  11 H :    0.125448
  12 H :    0.135416
  13 H :   -0.036755
  14 H :   -0.072922
  15 F :   -0.161869
  16 O :   -0.430439
  17 C :    0.004512
  18 H :    0.016857
  19 H :    0.027712
  20 C :   -0.063379
  21 H :    0.057739
  22 H :    0.049970
  23 C :   -0.060828
  24 H :    0.021933
  25 H :    0.011336
  26 O :   -0.477873
  27 H :    0.036114
  28 H :    0.015342
  29 H :    0.040144
  30 H :    0.029672
Sum of atomic charges:    0.0000000

LOEWDIN ATOMIC CHARGES
----------------------
   0 C :    0.026268
   1 N :   -0.038719
   2 C :   -0.037404
   3 C :   -0.147830
   4 H :    0.043218
   5 H :    0.036615
   6 S :    1.185539
   7 C :    0.039715
   8 C :   -0.275429
   9 N :   -0.043624
  10 H :    0.060076
  11 H :    0.079870
  12 H :    0.048303
  13 H :   -0.022667
  14 H :   -0.019188
  15 F :   -0.104700
  16 O :   -0.473328
  17 C :   -0.051710
  18 H :    0.015143
  19 H :    0.021914
  20 C :   -0.044182
  21 H :    0.036506
  22 H :    0.039301
  23 C :   -0.045844
  24 H :    0.024670
  25 H :    0.018768
  26 O :   -0.466542
  27 H :    0.023378
  28 H :    0.021697
  29 H :    0.021214
  30 H :    0.028972

  Mayer bond orders larger than 0.100000
B(  0-C ,  1-N ) :   1.0431 B(  0-C , 17-C ) :   1.0393 B(  0-C , 18-H ) :   0.9585
B(  0-C , 19-H ) :   0.9542 B(  1-N ,  7-C ) :   1.2057 B(  1-N , 12-H ) :   0.8905
B(  2-C ,  3-C ) :   1.0451 B(  2-C , 20-C ) :   1.0861 B(  2-C , 21-H ) :   0.9456
B(  2-C , 22-H ) :   0.9428 B(  3-C ,  4-H ) :   0.9250 B(  3-C ,  5-H ) :   0.9327
B(  3-C ,  6-S ) :   0.9239 B(  6-S , 15-F ) :   1.0459 B(  6-S , 16-O ) :   1.7882
B(  6-S , 26-O ) :   1.6084 B(  7-C ,  8-C ) :   1.7639 B(  7-C ,  9-N ) :   1.1992
B(  8-C , 13-H ) :   0.9070 B(  8-C , 14-H ) :   0.9456 B(  9-N , 10-H ) :   0.9519
B(  9-N , 11-H ) :   0.9464 B( 17-C , 23-C ) :   1.0858 B( 17-C , 24-H ) :   0.9387
B( 17-C , 25-H ) :   0.9454 B( 20-C , 23-C ) :   1.0457 B( 20-C , 29-H ) :   0.9411
B( 20-C , 30-H ) :   0.9443 B( 23-C , 27-H ) :   0.9382 B( 23-C , 28-H ) :   0.9485

Dispersion correction           -0.016478967
FINAL SINGLE POINT ENERGY     -1072.129731867323

DIPOLE MOMENT
-------------
                                X             Y             Z
Electronic contribution:     -0.88383      -0.81418     -22.55711
Nuclear contribution   :      0.43347       2.59110      22.83150
                        -----------------------------------------
Total Dipole Moment    :     -0.45037       1.77692       0.27439
                        -----------------------------------------
Magnitude (a.u.)       :      1.85352
Magnitude (Debye)      :      4.71128

Rotational constants in cm-1:     0.029257     0.014415     0.010996
Rotational constants in MHz :   877.098782   432.159206   329.643335

                             ****ORCA TERMINATED NORMALLY****
TOTAL RUN TIME: 0 days 0 hours 0 minutes 30 seconds 767 msec
