                         Program Version 5.0.0 -  RELEASE  -
|  1> !wB97X-D3 RIJCOSX def2-SVP def2/J TightSCF xyzfile
|  2>
|  3> *xyzfile 0 1 D4.xyz
|  4>
|  5> %MaxCore 64000
|  6>
|  7> %pal nprocs 18
|  8> end
|  9>
| 10> %scf
| 11>   MaxIter 150
| 12> end
| 13>
| 14>
| 15>                          ****END OF INPUT****

CARTESIAN COORDINATES (ANGSTROEM)
---------------------------------
  C      1.963365   -1.749150   -1.896887
  C      2.738490   -2.015170   -3.097113
  C      0.611877    1.657634   -4.500288
  C      1.694991    1.541794   -5.570447
  H      2.697326    1.734659   -5.183996
  H      1.506656    2.272239   -6.358076
  S      1.780287   -0.033128   -6.428739
  C      4.049736   -2.154717   -3.152044
  N      4.658206   -1.986293   -4.318655
  N      4.764231   -2.454435   -2.050491
  H      4.287363   -2.776259   -1.217496
  H      5.750825   -2.658351   -2.125988
  H      2.345176   -1.690274   -3.971447
  H      4.109004   -1.592677   -5.071760
  H      5.649095   -2.156462   -4.427237
  O      2.569287    0.213657   -7.607360
  F      0.416880   -0.462969   -6.618595
  C      2.088520   -0.300912   -1.415204
  H      2.231272   -2.451616   -1.102643
  H      0.930249   -1.977801   -2.155438
  C      0.680356    0.655418   -3.348038
  H     -0.356865    1.549231   -4.991128
  H      0.650228    2.675438   -4.096000
  C      1.968993    0.733582   -2.535654
  H      3.051356   -0.168602   -0.911868
  H      1.316501   -0.136231   -0.657252
  O      2.505129   -0.933263   -5.482570
  H      2.824195    0.624726   -3.208464
  H      2.058919    1.730331   -2.093112
  H      0.542252   -0.344731   -3.766662
  H     -0.174219    0.829692   -2.685182

 Total Charge           Charge          ....    0
 Multiplicity           Mult            ....    1
 Number of Electrons    NEL             ....  120
 Basis Dimension        Dim             ....  285

ORBITAL ENERGIES
----------------

  NO   OCC          E(Eh)            E(eV)
   0   2.0000     -89.226772     -2427.9839
   1   2.0000     -24.920257      -678.1147
   2   2.0000     -19.256021      -523.9830
   3   2.0000     -19.241886      -523.5983
   4   2.0000     -14.410847      -392.1391
   5   2.0000     -14.392352      -391.6358
   6   2.0000     -10.351240      -281.6715
   7   2.0000     -10.318369      -280.7771
   8   2.0000     -10.301999      -280.3316
   9   2.0000     -10.288887      -279.9748
  10   2.0000     -10.272188      -279.5204
  11   2.0000     -10.259174      -279.1663
  12   2.0000     -10.245469      -278.7934
  13   2.0000     -10.161740      -276.5150
  14   2.0000      -8.309675      -226.1177
  15   2.0000      -6.272867      -170.6934
  16   2.0000      -6.266398      -170.5173
  17   2.0000      -6.264715      -170.4715
  18   2.0000      -1.499929       -40.8152
  19   2.0000      -1.230299       -33.4782
  20   2.0000      -1.122262       -30.5383
  21   2.0000      -1.036741       -28.2111
  22   2.0000      -0.954621       -25.9766
  23   2.0000      -0.944551       -25.7025
  24   2.0000      -0.900790       -24.5117
  25   2.0000      -0.859658       -23.3925
  26   2.0000      -0.831092       -22.6152
  27   2.0000      -0.798799       -21.7364
  28   2.0000      -0.756250       -20.5786
  29   2.0000      -0.726907       -19.7801
  30   2.0000      -0.705340       -19.1933
  31   2.0000      -0.701697       -19.0941
  32   2.0000      -0.682143       -18.5620
  33   2.0000      -0.652742       -17.7620
  34   2.0000      -0.641573       -17.4581
  35   2.0000      -0.617550       -16.8044
  36   2.0000      -0.597459       -16.2577
  37   2.0000      -0.594469       -16.1763
  38   2.0000      -0.573546       -15.6070
  39   2.0000      -0.571742       -15.5579
  40   2.0000      -0.560890       -15.2626
  41   2.0000      -0.536909       -14.6100
  42   2.0000      -0.533451       -14.5159
  43   2.0000      -0.527231       -14.3467
  44   2.0000      -0.514698       -14.0056
  45   2.0000      -0.487445       -13.2641
  46   2.0000      -0.479013       -13.0346
  47   2.0000      -0.471742       -12.8368
  48   2.0000      -0.465452       -12.6656
  49   2.0000      -0.456124       -12.4118
  50   2.0000      -0.441959       -12.0263
  51   2.0000      -0.428458       -11.6589
  52   2.0000      -0.426302       -11.6003
  53   2.0000      -0.417067       -11.3490
  54   2.0000      -0.407138       -11.0788
  55   2.0000      -0.401966       -10.9381
  56   2.0000      -0.388116       -10.5612
  57   2.0000      -0.362537        -9.8651
  58   2.0000      -0.328051        -8.9267
  59   2.0000      -0.211014        -5.7420
  60   0.0000       0.102267         2.7828
  61   0.0000       0.131479         3.5777
  62   0.0000       0.147895         4.0244
  63   0.0000       0.152880         4.1601
  64   0.0000       0.157383         4.2826

MULLIKEN ATOMIC CHARGES
-----------------------
   0 C :    0.033900
   1 C :   -0.176768
   2 C :   -0.049750
   3 C :   -0.125703
   4 H :    0.115867
   5 H :    0.088637
   6 S :    0.986500
   7 C :   -0.061630
   8 N :   -0.093347
   9 N :   -0.125315
  10 H :    0.122795
  11 H :    0.105854
  12 H :   -0.077849
  13 H :    0.129525
  14 H :    0.098466
  15 O :   -0.428159
  16 F :   -0.166400
  17 C :    0.033762
  18 H :   -0.019908
  19 H :   -0.004972
  20 C :   -0.047145
  21 H :    0.038175
  22 H :    0.048644
  23 C :   -0.042733
  24 H :    0.007512
  25 H :   -0.003740
  26 O :   -0.476146
  27 H :    0.026878
  28 H :    0.004671
  29 H :    0.030443
  30 H :    0.027935
Sum of atomic charges:   -0.0000000

LOEWDIN ATOMIC CHARGES
----------------------
   0 C :   -0.043788
   1 C :   -0.249679
   2 C :   -0.053085
   3 C :   -0.141609
   4 H :    0.055109
   5 H :    0.040814
   6 S :    1.184305
   7 C :    0.035956
   8 N :   -0.036015
   9 N :   -0.044287
  10 H :    0.076223
  11 H :    0.062553
  12 H :   -0.029486
  13 H :    0.058061
  14 H :    0.059051
  15 O :   -0.474758
  16 F :   -0.107367
  17 C :   -0.038153
  18 H :    0.006928
  19 H :    0.016635
  20 C :   -0.043158
  21 H :    0.025458
  22 H :    0.037852
  23 C :   -0.041906
  24 H :    0.018967
  25 H :    0.010423
  26 O :   -0.468949
  27 H :    0.020036
  28 H :    0.016868
  29 H :    0.018902
  30 H :    0.028101

  Mayer bond orders larger than 0.100000
B(  0-C ,  1-C ) :   1.0872 B(  0-C , 17-C ) :   1.0536 B(  0-C , 18-H ) :   0.9376
B(  0-C , 19-H ) :   0.9262 B(  1-C ,  7-C ) :   1.7051 B(  1-C , 12-H ) :   0.9010
B(  2-C ,  3-C ) :   1.0257 B(  2-C , 20-C ) :   1.0750 B(  2-C , 21-H ) :   0.9535
B(  2-C , 22-H ) :   0.9393 B(  3-C ,  4-H ) :   0.9271 B(  3-C ,  5-H ) :   0.9370
B(  3-C ,  6-S ) :   0.9296 B(  6-S , 15-O ) :   1.8023 B(  6-S , 16-F ) :   1.0314
B(  6-S , 26-O ) :   1.6091 B(  7-C ,  8-N ) :   1.2673 B(  7-C ,  9-N ) :   1.2296
B(  8-N , 13-H ) :   0.8997 B(  8-N , 14-H ) :   0.9527 B(  9-N , 10-H ) :   0.9434
B(  9-N , 11-H ) :   0.9516 B( 12-H , 26-O ) :   0.1123 B( 17-C , 23-C ) :   1.0893
B( 17-C , 24-H ) :   0.9432 B( 17-C , 25-H ) :   0.9463 B( 20-C , 23-C ) :   1.0510
B( 20-C , 29-H ) :   0.9406 B( 20-C , 30-H ) :   0.9445 B( 23-C , 27-H ) :   0.9329
B( 23-C , 28-H ) :   0.9471

Dispersion correction           -0.016327615
FINAL SINGLE POINT ENERGY     -1072.131217670847

DIPOLE MOMENT
-------------
                                X             Y             Z
Electronic contribution:     -2.84163      -2.18527     -21.87570
Nuclear contribution   :      2.64598       3.36033      21.85869
                        -----------------------------------------
Total Dipole Moment    :     -0.19565       1.17506      -0.01701
                        -----------------------------------------
Magnitude (a.u.)       :      1.19136
Magnitude (Debye)      :      3.02819

Rotational constants in cm-1:     0.028973     0.014435     0.011026
Rotational constants in MHz :   868.588266   432.748309   330.548534

                             ****ORCA TERMINATED NORMALLY****
TOTAL RUN TIME: 0 days 0 hours 0 minutes 39 seconds 230 msec
