                         Program Version 5.0.0 -  RELEASE  -
|  1> !wB97X-D3 RIJCOSX def2-SVP def2/J TightSCF xyzfile
|  2>
|  3> *xyzfile 0 1 D6.xyz
|  4>
|  5> %MaxCore 64000
|  6>
|  7> %pal nprocs 18
|  8> end
|  9>
| 10> %scf
| 11>   MaxIter 150
| 12> end
| 13>
| 14>
| 15>                          ****END OF INPUT****

CARTESIAN COORDINATES (ANGSTROEM)
---------------------------------
  C      1.963365   -1.749150   -1.896887
  N      2.738490   -2.015170   -3.097113
  C      0.611877    1.657634   -4.500288
  C      1.694991    1.541794   -5.570447
  H      2.697326    1.734659   -5.183996
  H      1.506656    2.272239   -6.358076
  S      1.780287   -0.033128   -6.428739
  C      4.049736   -2.154717   -3.152044
  N      4.658206   -1.986293   -4.318655
  C      4.764231   -2.454435   -2.050491
  H      4.287363   -2.776259   -1.217496
  H      5.750825   -2.658351   -2.125988
  H      2.345176   -1.690274   -3.971447
  H      4.109004   -1.592677   -5.071760
  H      5.649095   -2.156462   -4.427237
  O      2.569287    0.213657   -7.607360
  F      0.416880   -0.462969   -6.618595
  C      2.088520   -0.300912   -1.415204
  H      2.231272   -2.451616   -1.102643
  H      0.930249   -1.977801   -2.155438
  C      0.680356    0.655418   -3.348038
  H     -0.356865    1.549231   -4.991128
  H      0.650228    2.675438   -4.096000
  C      1.968993    0.733582   -2.535654
  H      3.051356   -0.168602   -0.911868
  H      1.316501   -0.136231   -0.657252
  O      2.505129   -0.933263   -5.482570
  H      2.824195    0.624726   -3.208464
  H      2.058919    1.730331   -2.093112
  H      0.542252   -0.344731   -3.766662
  H     -0.174219    0.829692   -2.685182

 Total Charge           Charge          ....    0
 Multiplicity           Mult            ....    1
 Number of Electrons    NEL             ....  120
 Basis Dimension        Dim             ....  285

ORBITAL ENERGIES
----------------

  NO   OCC          E(Eh)            E(eV)
   0   2.0000     -89.247566     -2428.5497
   1   2.0000     -24.938323      -678.6063
   2   2.0000     -19.274646      -524.4898
   3   2.0000     -19.268140      -524.3128
   4   2.0000     -14.394659      -391.6986
   5   2.0000     -14.392789      -391.6477
   6   2.0000     -10.367149      -282.1045
   7   2.0000     -10.334014      -281.2028
   8   2.0000     -10.308176      -280.4997
   9   2.0000     -10.304457      -280.3985
  10   2.0000     -10.304393      -280.3968
  11   2.0000     -10.290774      -280.0262
  12   2.0000     -10.276391      -279.6348
  13   2.0000     -10.168840      -276.7082
  14   2.0000      -8.330365      -226.6807
  15   2.0000      -6.293563      -171.2566
  16   2.0000      -6.287213      -171.0838
  17   2.0000      -6.285329      -171.0325
  18   2.0000      -1.518211       -41.3126
  19   2.0000      -1.250565       -34.0296
  20   2.0000      -1.145229       -31.1633
  21   2.0000      -1.048186       -28.5226
  22   2.0000      -0.972576       -26.4651
  23   2.0000      -0.959983       -26.1225
  24   2.0000      -0.908736       -24.7280
  25   2.0000      -0.867324       -23.6011
  26   2.0000      -0.837278       -22.7835
  27   2.0000      -0.794500       -21.6194
  28   2.0000      -0.782106       -21.2822
  29   2.0000      -0.749136       -20.3850
  30   2.0000      -0.722814       -19.6688
  31   2.0000      -0.720140       -19.5960
  32   2.0000      -0.689181       -18.7536
  33   2.0000      -0.675916       -18.3926
  34   2.0000      -0.634162       -17.2564
  35   2.0000      -0.621003       -16.8984
  36   2.0000      -0.613742       -16.7008
  37   2.0000      -0.606475       -16.5030
  38   2.0000      -0.598895       -16.2968
  39   2.0000      -0.585893       -15.9430
  40   2.0000      -0.563159       -15.3243
  41   2.0000      -0.554866       -15.0987
  42   2.0000      -0.540996       -14.7212
  43   2.0000      -0.529192       -14.4000
  44   2.0000      -0.522033       -14.2052
  45   2.0000      -0.506105       -13.7718
  46   2.0000      -0.490413       -13.3448
  47   2.0000      -0.487276       -13.2595
  48   2.0000      -0.468375       -12.7451
  49   2.0000      -0.462340       -12.5809
  50   2.0000      -0.453047       -12.3280
  51   2.0000      -0.450136       -12.2488
  52   2.0000      -0.437786       -11.9128
  53   2.0000      -0.432360       -11.7651
  54   2.0000      -0.424908       -11.5623
  55   2.0000      -0.422051       -11.4846
  56   2.0000      -0.419184       -11.4066
  57   2.0000      -0.406836       -11.0706
  58   2.0000      -0.308631        -8.3983
  59   2.0000      -0.218023        -5.9327
  60   0.0000       0.085874         2.3368
  61   0.0000       0.116739         3.1766
  62   0.0000       0.132860         3.6153
  63   0.0000       0.141905         3.8614
  64   0.0000       0.145871         3.9693

MULLIKEN ATOMIC CHARGES
-----------------------
   0 C :    0.090033
   1 N :   -0.194209
   2 C :   -0.050380
   3 C :   -0.130154
   4 H :    0.123294
   5 H :    0.096277
   6 S :    0.996938
   7 C :   -0.001676
   8 N :   -0.118677
   9 C :   -0.151058
  10 H :   -0.053858
  11 H :   -0.063987
  12 H :    0.113725
  13 H :    0.116202
  14 H :    0.123516
  15 O :   -0.415080
  16 F :   -0.162794
  17 C :    0.005815
  18 H :    0.040500
  19 H :    0.014032
  20 C :   -0.055829
  21 H :    0.043186
  22 H :    0.056349
  23 C :   -0.063903
  24 H :    0.037132
  25 H :    0.012162
  26 O :   -0.507044
  27 H :    0.028131
  28 H :    0.019772
  29 H :    0.015386
  30 H :    0.036200
Sum of atomic charges:   -0.0000000

LOEWDIN ATOMIC CHARGES
----------------------
   0 C :    0.040190
   1 N :   -0.040267
   2 C :   -0.052323
   3 C :   -0.139984
   4 H :    0.057753
   5 H :    0.044525
   6 S :    1.191519
   7 C :    0.047047
   8 N :   -0.033670
   9 C :   -0.296819
  10 H :   -0.014277
  11 H :   -0.015153
  12 H :    0.027340
  13 H :    0.043479
  14 H :    0.078208
  15 O :   -0.462079
  16 F :   -0.104297
  17 C :   -0.046914
  18 H :    0.028427
  19 H :    0.015292
  20 C :   -0.046339
  21 H :    0.027417
  22 H :    0.041467
  23 C :   -0.045276
  24 H :    0.032890
  25 H :    0.019415
  26 O :   -0.483586
  27 H :    0.019838
  28 H :    0.023824
  29 H :    0.010968
  30 H :    0.031385

  Mayer bond orders larger than 0.100000
B(  0-C ,  1-N ) :   1.0326 B(  0-C , 17-C ) :   1.0577 B(  0-C , 18-H ) :   0.9508
B(  0-C , 19-H ) :   0.9562 B(  1-N ,  7-C ) :   1.1810 B(  1-N , 12-H ) :   0.9020
B(  2-C ,  3-C ) :   1.0248 B(  2-C , 20-C ) :   1.0751 B(  2-C , 21-H ) :   0.9536
B(  2-C , 22-H ) :   0.9392 B(  3-C ,  4-H ) :   0.9260 B(  3-C ,  5-H ) :   0.9361
B(  3-C ,  6-S ) :   0.9307 B(  6-S , 15-O ) :   1.8224 B(  6-S , 16-F ) :   1.0369
B(  6-S , 26-O ) :   1.5756 B(  7-C ,  8-N ) :   1.2490 B(  7-C ,  9-C ) :   1.7313
B(  8-N , 13-H ) :   0.9203 B(  8-N , 14-H ) :   0.9464 B(  9-C , 10-H ) :   0.9411
B(  9-C , 11-H ) :   0.9465 B( 17-C , 23-C ) :   1.0845 B( 17-C , 24-H ) :   0.9349
B( 17-C , 25-H ) :   0.9489 B( 20-C , 23-C ) :   1.0426 B( 20-C , 29-H ) :   0.9417
B( 20-C , 30-H ) :   0.9439 B( 23-C , 27-H ) :   0.9398 B( 23-C , 28-H ) :   0.9486

Dispersion correction           -0.016353093
FINAL SINGLE POINT ENERGY     -1072.141934411153

DIPOLE MOMENT
-------------
                                X             Y             Z
Electronic contribution:     -4.88478      -1.35020     -22.95154
Nuclear contribution   :      2.90585       3.30398      21.99296
                        -----------------------------------------
Total Dipole Moment    :     -1.97892       1.95379      -0.95858
                        -----------------------------------------
Magnitude (a.u.)       :      2.94148
Magnitude (Debye)      :      7.47664

Rotational constants in cm-1:     0.029065     0.014689     0.011200
Rotational constants in MHz :   871.338526   440.374927   335.770911

                             ****ORCA TERMINATED NORMALLY****
TOTAL RUN TIME: 0 days 0 hours 0 minutes 33 seconds 537 msec
