                         Program Version 5.0.0 -  RELEASE  -
|  1> !wB97X-D3 RIJCOSX def2-SVP def2/J TightSCF xyzfile
|  2>
|  3> *xyzfile 0 1 D9.xyz
|  4>
|  5> %MaxCore 64000
|  6>
|  7> %pal nprocs 18
|  8> end
|  9>
| 10> %scf
| 11>   MaxIter 150
| 12> end
| 13>
| 14>
| 15>                          ****END OF INPUT****

CARTESIAN COORDINATES (ANGSTROEM)
---------------------------------
  C      1.963365   -1.749150   -1.896887
  N      2.738490   -2.015170   -3.097113
  C      0.611877    1.657634   -4.500288
  C      1.694991    1.541794   -5.570447
  H      2.697326    1.734659   -5.183996
  H      1.506656    2.272239   -6.358076
  S      1.780287   -0.033128   -6.428739
  C      4.049736   -2.154717   -3.152044
  N      4.658206   -1.986293   -4.318655
  C      4.764231   -2.454435   -2.050491
  H      4.287363   -2.776259   -1.217496
  H      5.750825   -2.658351   -2.125988
  H      2.345176   -1.690274   -3.971447
  H      4.109004   -1.592677   -5.071760
  H      5.649095   -2.156462   -4.427237
  O      2.569287    0.213657   -7.607360
  O      0.416880   -0.462969   -6.618595
  C      2.088520   -0.300912   -1.415204
  H      2.231272   -2.451616   -1.102643
  H      0.930249   -1.977801   -2.155438
  C      0.680356    0.655418   -3.348038
  H     -0.356865    1.549231   -4.991128
  H      0.650228    2.675438   -4.096000
  C      1.968993    0.733582   -2.535654
  H      3.051356   -0.168602   -0.911868
  H      1.316501   -0.136231   -0.657252
  F      2.505129   -0.933263   -5.482570
  H      2.824195    0.624726   -3.208464
  H      2.058919    1.730331   -2.093112
  H      0.542252   -0.344731   -3.766662
  H     -0.174219    0.829692   -2.685182

 Total Charge           Charge          ....    0
 Multiplicity           Mult            ....    1
 Number of Electrons    NEL             ....  120
 Basis Dimension        Dim             ....  285

ORBITAL ENERGIES
----------------

  NO   OCC          E(Eh)            E(eV)
   0   2.0000     -89.233030     -2428.1542
   1   2.0000     -24.922722      -678.1817
   2   2.0000     -19.266810      -524.2765
   3   2.0000     -19.265411      -524.2385
   4   2.0000     -14.425741      -392.5444
   5   2.0000     -14.425236      -392.5306
   6   2.0000     -10.359977      -281.9093
   7   2.0000     -10.328542      -281.0539
   8   2.0000     -10.325957      -280.9836
   9   2.0000     -10.320443      -280.8335
  10   2.0000     -10.309719      -280.5417
  11   2.0000     -10.299885      -280.2741
  12   2.0000     -10.287631      -279.9407
  13   2.0000     -10.191031      -277.3121
  14   2.0000      -8.316035      -226.2908
  15   2.0000      -6.279433      -170.8721
  16   2.0000      -6.272509      -170.6837
  17   2.0000      -6.271213      -170.6484
  18   2.0000      -1.486745       -40.4564
  19   2.0000      -1.250949       -34.0401
  20   2.0000      -1.152210       -31.3532
  21   2.0000      -1.077384       -29.3171
  22   2.0000      -0.989270       -26.9194
  23   2.0000      -0.964316       -26.2404
  24   2.0000      -0.912507       -24.8306
  25   2.0000      -0.873126       -23.7590
  26   2.0000      -0.842978       -22.9386
  27   2.0000      -0.802911       -21.8483
  28   2.0000      -0.799167       -21.7464
  29   2.0000      -0.747660       -20.3449
  30   2.0000      -0.714102       -19.4317
  31   2.0000      -0.707564       -19.2538
  32   2.0000      -0.690204       -18.7814
  33   2.0000      -0.668746       -18.1975
  34   2.0000      -0.647659       -17.6237
  35   2.0000      -0.638925       -17.3860
  36   2.0000      -0.617936       -16.8149
  37   2.0000      -0.610473       -16.6118
  38   2.0000      -0.602891       -16.4055
  39   2.0000      -0.586630       -15.9630
  40   2.0000      -0.571415       -15.5490
  41   2.0000      -0.560738       -15.2585
  42   2.0000      -0.546392       -14.8681
  43   2.0000      -0.536824       -14.6077
  44   2.0000      -0.526403       -14.3242
  45   2.0000      -0.508333       -13.8325
  46   2.0000      -0.497709       -13.5433
  47   2.0000      -0.495068       -13.4715
  48   2.0000      -0.476678       -12.9711
  49   2.0000      -0.466509       -12.6943
  50   2.0000      -0.464716       -12.6456
  51   2.0000      -0.456206       -12.4140
  52   2.0000      -0.449750       -12.2383
  53   2.0000      -0.440248       -11.9798
  54   2.0000      -0.434948       -11.8355
  55   2.0000      -0.430317       -11.7095
  56   2.0000      -0.427871       -11.6430
  57   2.0000      -0.419749       -11.4219
  58   2.0000      -0.336297        -9.1511
  59   2.0000      -0.241089        -6.5604
  60   0.0000       0.092528         2.5178
  61   0.0000       0.117681         3.2023
  62   0.0000       0.137847         3.7510
  63   0.0000       0.143231         3.8975
  64   0.0000       0.154701         4.2096

MULLIKEN ATOMIC CHARGES
-----------------------
   0 C :    0.082015
   1 N :   -0.200229
   2 C :   -0.018295
   3 C :   -0.142367
   4 H :    0.092525
   5 H :    0.113510
   6 S :    0.968255
   7 C :   -0.004910
   8 N :   -0.125317
   9 C :   -0.136400
  10 H :   -0.043058
  11 H :   -0.054074
  12 H :    0.106451
  13 H :    0.105981
  14 H :    0.137008
  15 O :   -0.427120
  16 O :   -0.427855
  17 C :    0.006058
  18 H :    0.048676
  19 H :    0.028456
  20 C :   -0.082580
  21 H :    0.062521
  22 H :    0.048735
  23 C :   -0.065484
  24 H :    0.039003
  25 H :    0.020871
  26 F :   -0.231059
  27 H :    0.007453
  28 H :    0.027171
  29 H :    0.023494
  30 H :    0.040565
Sum of atomic charges:   -0.0000000

LOEWDIN ATOMIC CHARGES
----------------------
   0 C :    0.041638
   1 N :   -0.039121
   2 C :   -0.046643
   3 C :   -0.147460
   4 H :    0.038029
   5 H :    0.057865
   6 S :    1.174974
   7 C :    0.041113
   8 N :   -0.034051
   9 C :   -0.278259
  10 H :   -0.009631
  11 H :   -0.010870
  12 H :    0.030541
  13 H :    0.040920
  14 H :    0.085861
  15 O :   -0.474662
  16 O :   -0.472927
  17 C :   -0.046800
  18 H :    0.032088
  19 H :    0.021007
  20 C :   -0.048712
  21 H :    0.037572
  22 H :    0.038480
  23 C :   -0.047321
  24 H :    0.032996
  25 H :    0.023600
  26 F :   -0.124978
  27 H :    0.011349
  28 H :    0.027238
  29 H :    0.011868
  30 H :    0.034298

  Mayer bond orders larger than 0.100000
B(  0-C ,  1-N ) :   1.0132 B(  0-C , 17-C ) :   1.0592 B(  0-C , 18-H ) :   0.9515
B(  0-C , 19-H ) :   0.9563 B(  1-N ,  7-C ) :   1.1701 B(  1-N , 12-H ) :   0.9235
B(  2-C ,  3-C ) :   1.0280 B(  2-C , 20-C ) :   1.0810 B(  2-C , 21-H ) :   0.9452
B(  2-C , 22-H ) :   0.9401 B(  3-C ,  4-H ) :   0.9287 B(  3-C ,  5-H ) :   0.9342
B(  3-C ,  6-S ) :   0.9195 B(  6-S , 15-O ) :   1.8110 B(  6-S , 16-O ) :   1.7922
B(  6-S , 26-F ) :   0.8720 B(  7-C ,  8-N ) :   1.2304 B(  7-C ,  9-C ) :   1.7547
B(  8-N , 13-H ) :   0.9398 B(  8-N , 14-H ) :   0.9432 B(  9-C , 10-H ) :   0.9430
B(  9-C , 11-H ) :   0.9482 B( 17-C , 23-C ) :   1.0823 B( 17-C , 24-H ) :   0.9366
B( 17-C , 25-H ) :   0.9491 B( 20-C , 23-C ) :   1.0403 B( 20-C , 29-H ) :   0.9435
B( 20-C , 30-H ) :   0.9433 B( 23-C , 27-H ) :   0.9405 B( 23-C , 28-H ) :   0.9483

Dispersion correction           -0.016329189
FINAL SINGLE POINT ENERGY     -1072.151145250457

DIPOLE MOMENT
-------------
                                X             Y             Z
Electronic contribution:     -1.04481      -2.36173     -20.52506
Nuclear contribution   :      0.52036       3.84122      20.69523
                        -----------------------------------------
Total Dipole Moment    :     -0.52445       1.47949       0.17017
                        -----------------------------------------
Magnitude (a.u.)       :      1.57890
Magnitude (Debye)      :      4.01323

Rotational constants in cm-1:     0.029184     0.014996     0.011314
Rotational constants in MHz :   874.907122   449.569665   339.178205

                             ****ORCA TERMINATED NORMALLY****
TOTAL RUN TIME: 0 days 0 hours 0 minutes 37 seconds 597 msec
