                         Program Version 5.0.0 -  RELEASE  -
|  1> !PBE D3BJ RIJCOSX def2-SVPD def2/J TightSCF
|  2> *xyz -1 1
|  3> C         -2.45380        0.05510        6.94145
|  4> C         -2.07842        1.48042        6.56410
|  5> O         -0.90125        1.85816        6.82810
|  6> O         -2.93658        2.17731        5.96415
|  7> H         -3.47026       -0.13135        6.66407
|  8> H         -2.34265       -0.07527        7.99765
|  9> H         -1.81248       -0.63046        6.42801
| 10> *
| 11> %MaxCore 64000
| 12>
| 13> %pal nprocs 4
| 14> end
| 15>
| 16> %scf
| 17>   MaxIter 150
| 18> end
| 19>
| 20>
| 21>                          ****END OF INPUT****

CARTESIAN COORDINATES (ANGSTROEM)
---------------------------------
  C     -2.453800    0.055100    6.941450
  C     -2.078420    1.480420    6.564100
  O     -0.901250    1.858160    6.828100
  O     -2.936580    2.177310    5.964150
  H     -3.470260   -0.131350    6.664070
  H     -2.342650   -0.075270    7.997650
  H     -1.812480   -0.630460    6.428010

 Total Charge           Charge          ....   -1
 Multiplicity           Mult            ....    1
 Number of Electrons    NEL             ....   32
 Basis Dimension        Dim             ....  110

ORBITAL ENERGIES
----------------

  NO   OCC          E(Eh)            E(eV)
   0   2.0000     -18.502911      -503.4898
   1   2.0000     -18.500620      -503.4275
   2   2.0000      -9.771579      -265.8982
   3   2.0000      -9.707758      -264.1615
   4   2.0000      -0.719489       -19.5783
   5   2.0000      -0.630181       -17.1481
   6   2.0000      -0.469845       -12.7851
   7   2.0000      -0.246914        -6.7189
   8   2.0000      -0.212968        -5.7952
   9   2.0000      -0.197198        -5.3660
  10   2.0000      -0.169873        -4.6225
  11   2.0000      -0.132880        -3.6159
  12   2.0000      -0.120232        -3.2717
  13   2.0000      -0.010099        -0.2748
  14   2.0000       0.002013         0.0548
  15   2.0000       0.022299         0.6068
  16   0.0000       0.156261         4.2521
  17   0.0000       0.196262         5.3406
  18   0.0000       0.199761         5.4358
  19   0.0000       0.224612         6.1120
  20   0.0000       0.241440         6.5699

MULLIKEN ATOMIC CHARGES
-----------------------
   0 C :    0.472926
   1 C :   -0.033596
   2 O :   -0.643158
   3 O :   -0.605804
   4 H :   -0.075556
   5 H :   -0.056435
   6 H :   -0.058377
Sum of atomic charges:   -1.0000000

LOEWDIN ATOMIC CHARGES
----------------------
   0 C :    0.138424
   1 C :   -0.354858
   2 O :   -0.332540
   3 O :   -0.324349
   4 H :   -0.047463
   5 H :   -0.040549
   6 H :   -0.038666

  Mayer bond orders larger than 0.100000
B(  0-C ,  1-C ) :   1.2775 B(  0-C ,  4-H ) :   0.8704 B(  0-C ,  5-H ) :   0.8156
B(  0-C ,  6-H ) :   0.8235 B(  1-C ,  2-O ) :   1.4887 B(  1-C ,  3-O ) :   1.4746
B(  1-C ,  4-H ) :   0.2550 B(  1-C ,  5-H ) :   0.1800 B(  1-C ,  6-H ) :   0.1719

Dispersion correction           -0.003678658
FINAL SINGLE POINT ENERGY      -228.123609246997

DIPOLE MOMENT
-------------
                                X             Y             Z
Electronic contribution:      0.89133       3.42359      -0.92986
Nuclear contribution   :     -1.26064      -4.68337       1.27880
                        -----------------------------------------
Total Dipole Moment    :     -0.36931      -1.25979       0.34894
                        -----------------------------------------
Magnitude (a.u.)       :      1.35839
Magnitude (Debye)      :      3.45274

Rotational constants in cm-1:     0.391994     0.333933     0.186475
Rotational constants in MHz : 11751.676689 10011.065304  5590.392476

                             ****ORCA TERMINATED NORMALLY****
TOTAL RUN TIME: 0 days 0 hours 0 minutes 3 seconds 376 msec
