                         Program Version 5.0.0 -  RELEASE  -
|  1> !PBE D3BJ RIJCOSX def2-SVPD def2/J TightSCF
|  2> *xyz 1 1
|  3> C         -0.69912        3.48945        3.75516
|  4> N         -1.08067        3.79296        5.15686
|  5> H         -0.87449        4.76274        5.42734
|  6> H         -0.68079        3.13476        5.83900
|  7> H         -2.05755        3.53169        5.34620
|  8> H         -1.14600        4.20803        3.10030
|  9> H         -1.04188        2.50941        3.49644
| 10> H          0.36562        3.53208        3.65813
| 11> *
| 12> %MaxCore 64000
| 13>
| 14> %pal nprocs 4
| 15> end
| 16>
| 17> %scf
| 18>   MaxIter 150
| 19> end
| 20>
| 21>
| 22>                          ****END OF INPUT****

CARTESIAN COORDINATES (ANGSTROEM)
---------------------------------
  C     -0.699120    3.489450    3.755160
  N     -1.080670    3.792960    5.156860
  H     -0.874490    4.762740    5.427340
  H     -0.680790    3.134760    5.839000
  H     -2.057550    3.531690    5.346200
  H     -1.146000    4.208030    3.100300
  H     -1.041880    2.509410    3.496440
  H      0.365620    3.532080    3.658130

 Total Charge           Charge          ....    1
 Multiplicity           Mult            ....    1
 Number of Electrons    NEL             ....   18
 Basis Dimension        Dim             ....   88

ORBITAL ENERGIES
----------------

  NO   OCC          E(Eh)            E(eV)
   0   2.0000     -14.349314      -390.4647
   1   2.0000     -10.153849      -276.3003
   2   2.0000      -1.141876       -31.0720
   3   2.0000      -0.874307       -23.7911
   4   2.0000      -0.774603       -21.0780
   5   2.0000      -0.737414       -20.0661
   6   2.0000      -0.674316       -18.3491
   7   2.0000      -0.584068       -15.8933
   8   2.0000      -0.578377       -15.7384
   9   0.0000      -0.229066        -6.2332
  10   0.0000      -0.167389        -4.5549
  11   0.0000      -0.160574        -4.3694
  12   0.0000      -0.152799        -4.1579
  13   0.0000      -0.107605        -2.9281

MULLIKEN ATOMIC CHARGES
-----------------------
   0 C :    1.007767
   1 N :   -0.810730
   2 H :    0.357656
   3 H :    0.335417
   4 H :    0.349688
   5 H :   -0.083297
   6 H :   -0.081827
   7 H :   -0.074676
Sum of atomic charges:    1.0000000

LOEWDIN ATOMIC CHARGES
----------------------
   0 C :    0.283572
   1 N :    0.312435
   2 H :    0.112664
   3 H :    0.106569
   4 H :    0.106191
   5 H :    0.026364
   6 H :    0.026465
   7 H :    0.025740

  Mayer bond orders larger than 0.100000
B(  0-C ,  1-N ) :   0.7981 B(  0-C ,  5-H ) :   0.8788 B(  0-C ,  6-H ) :   0.8758
B(  0-C ,  7-H ) :   0.8833 B(  1-N ,  2-H ) :   0.7564 B(  1-N ,  3-H ) :   0.8098
B(  1-N ,  4-H ) :   0.7856 B(  1-N ,  5-H ) :   0.1074 B(  1-N ,  6-H ) :   0.1071

Dispersion correction           -0.003359796
FINAL SINGLE POINT ENERGY       -96.014544187974

DIPOLE MOMENT
-------------
                                X             Y             Z
Electronic contribution:     -0.24790       0.28435       0.98931
Nuclear contribution   :     -0.00699      -0.18064      -0.14199
                        -----------------------------------------
Total Dipole Moment    :     -0.25488       0.10371       0.84732
                        -----------------------------------------
Magnitude (a.u.)       :      0.89089
Magnitude (Debye)      :      2.26446

Rotational constants in cm-1:     2.906310     0.688008     0.676648
Rotational constants in MHz : 87128.982229 20625.947414 20285.402367

                             ****ORCA TERMINATED NORMALLY****
TOTAL RUN TIME: 0 days 0 hours 0 minutes 2 seconds 639 msec
