                         Program Version 5.0.0 -  RELEASE  -
|  1> !PBE D3BJ RIJCOSX def2-SVPD def2/J TightSCF
|  2> *xyz 0 1
|  3> C         -2.45380        0.05510        6.94145
|  4> C         -2.07842        1.48042        6.56410
|  5> F         -0.90125        1.85816        6.82810
|  6> O         -2.93658        2.17731        5.96415
|  7> H         -3.47026       -0.13135        6.66407
|  8> H         -2.34265       -0.07527        7.99765
|  9> H         -1.81248       -0.63046        6.42801
| 10> *
| 11> %MaxCore 64000
| 12>
| 13> %pal nprocs 4
| 14> end
| 15>
| 16> %scf
| 17>   MaxIter 150
| 18> end
| 19>
| 20>
| 21>                          ****END OF INPUT****

CARTESIAN COORDINATES (ANGSTROEM)
---------------------------------
  C     -2.453800    0.055100    6.941450
  C     -2.078420    1.480420    6.564100
  F     -0.901250    1.858160    6.828100
  O     -2.936580    2.177310    5.964150
  H     -3.470260   -0.131350    6.664070
  H     -2.342650   -0.075270    7.997650
  H     -1.812480   -0.630460    6.428010

 Total Charge           Charge          ....    0
 Multiplicity           Mult            ....    1
 Number of Electrons    NEL             ....   32
 Basis Dimension        Dim             ....  110

ORBITAL ENERGIES
----------------

  NO   OCC          E(Eh)            E(eV)
   0   2.0000     -24.345259      -662.4682
   1   2.0000     -18.775334      -510.9028
   2   2.0000     -10.072628      -274.0901
   3   2.0000      -9.923680      -270.0371
   4   2.0000      -1.201699       -32.6999
   5   2.0000      -0.940463       -25.5913
   6   2.0000      -0.700087       -19.0503
   7   2.0000      -0.593606       -16.1528
   8   2.0000      -0.491389       -13.3714
   9   2.0000      -0.484877       -13.1942
  10   2.0000      -0.447075       -12.1655
  11   2.0000      -0.400027       -10.8853
  12   2.0000      -0.388361       -10.5678
  13   2.0000      -0.354131        -9.6364
  14   2.0000      -0.320255        -8.7146
  15   2.0000      -0.248786        -6.7698
  16   0.0000      -0.072594        -1.9754
  17   0.0000      -0.005587        -0.1520
  18   0.0000       0.043273         1.1775
  19   0.0000       0.066114         1.7991
  20   0.0000       0.072939         1.9848

MULLIKEN ATOMIC CHARGES
-----------------------
   0 C :    0.446106
   1 C :    0.355422
   2 F :   -0.331250
   3 O :   -0.430145
   4 H :   -0.060303
   5 H :    0.009142
   6 H :    0.011029
Sum of atomic charges:   -0.0000000

LOEWDIN ATOMIC CHARGES
----------------------
   0 C :    0.211535
   1 C :   -0.061543
   2 F :   -0.024730
   3 O :   -0.121585
   4 H :   -0.000794
   5 H :   -0.002505
   6 H :   -0.000378

  Mayer bond orders larger than 0.100000
B(  0-C ,  1-C ) :   1.2728 B(  0-C ,  4-H ) :   0.8768 B(  0-C ,  5-H ) :   0.7969
B(  0-C ,  6-H ) :   0.8015 B(  1-C ,  2-F ) :   0.7879 B(  1-C ,  3-O ) :   1.8218
B(  1-C ,  4-H ) :   0.2190 B(  1-C ,  5-H ) :   0.1411 B(  1-C ,  6-H ) :   0.1360

Dispersion correction           -0.003399542
FINAL SINGLE POINT ENERGY      -252.643467286532

DIPOLE MOMENT
-------------
                                X             Y             Z
Electronic contribution:      2.82162       4.16697      -0.50982
Nuclear contribution   :     -2.49112      -5.16552       1.01592
                        -----------------------------------------
Total Dipole Moment    :      0.33050      -0.99854       0.50610
                        -----------------------------------------
Magnitude (a.u.)       :      1.16724
Magnitude (Debye)      :      2.96689

Rotational constants in cm-1:     0.367635     0.321184     0.176974
Rotational constants in MHz : 11021.414238  9628.842971  5305.560130

                             ****ORCA TERMINATED NORMALLY****
TOTAL RUN TIME: 0 days 0 hours 0 minutes 3 seconds 363 msec
