                         Program Version 5.0.0 -  RELEASE  -
|  1> !PBE D3BJ RIJCOSX def2-SVPD def2/J TightSCF
|  2> *xyz 0 1
|  3> C         -0.69912        3.48945        3.75516
|  4> C         -1.08067        3.79296        5.15686
|  5> H         -0.87449        4.76274        5.42734
|  6> H         -0.68079        3.13476        5.83900
|  7> H         -2.05755        3.53169        5.34620
|  8> H         -1.14600        4.20803        3.10030
|  9> H         -1.04188        2.50941        3.49644
| 10> H          0.36562        3.53208        3.65813
| 11> *
| 12> %MaxCore 64000
| 13>
| 14> %pal nprocs 4
| 15> end
| 16>
| 17> %scf
| 18>   MaxIter 150
| 19> end
| 20>
| 21>
| 22>                          ****END OF INPUT****

CARTESIAN COORDINATES (ANGSTROEM)
---------------------------------
  C     -0.699120    3.489450    3.755160
  C     -1.080670    3.792960    5.156860
  H     -0.874490    4.762740    5.427340
  H     -0.680790    3.134760    5.839000
  H     -2.057550    3.531690    5.346200
  H     -1.146000    4.208030    3.100300
  H     -1.041880    2.509410    3.496440
  H      0.365620    3.532080    3.658130

 Total Charge           Charge          ....    0
 Multiplicity           Mult            ....    1
 Number of Electrons    NEL             ....   18
 Basis Dimension        Dim             ....   88

ORBITAL ENERGIES
----------------

  NO   OCC          E(Eh)            E(eV)
   0   2.0000      -9.874523      -268.6994
   1   2.0000      -9.861162      -268.3359
   2   2.0000      -0.692162       -18.8347
   3   2.0000      -0.557395       -15.1675
   4   2.0000      -0.408483       -11.1154
   5   2.0000      -0.388595       -10.5742
   6   2.0000      -0.331766        -9.0278
   7   2.0000      -0.310039        -8.4366
   8   2.0000      -0.288786        -7.8583
   9   0.0000       0.011822         0.3217
  10   0.0000       0.044353         1.2069
  11   0.0000       0.079904         2.1743
  12   0.0000       0.085067         2.3148
  13   0.0000       0.103102         2.8056

MULLIKEN ATOMIC CHARGES
-----------------------
   0 C :    0.295331
   1 C :    0.557397
   2 H :   -0.215718
   3 H :   -0.222638
   4 H :   -0.216003
   5 H :   -0.072778
   6 H :   -0.055959
   7 H :   -0.069632
Sum of atomic charges:    0.0000000

LOEWDIN ATOMIC CHARGES
----------------------
   0 C :    0.079643
   1 C :    0.075298
   2 H :   -0.029849
   3 H :   -0.037856
   4 H :   -0.037792
   5 H :   -0.016615
   6 H :   -0.015353
   7 H :   -0.017478

  Mayer bond orders larger than 0.100000
B(  0-C ,  1-C ) :   1.4870 B(  0-C ,  2-H ) :   0.1725 B(  0-C ,  3-H ) :   0.1565
B(  0-C ,  4-H ) :   0.1616 B(  0-C ,  5-H ) :   0.8456 B(  0-C ,  6-H ) :   0.8525
B(  0-C ,  7-H ) :   0.8488 B(  1-C ,  2-H ) :   0.7982 B(  1-C ,  3-H ) :   0.7222
B(  1-C ,  4-H ) :   0.7245 B(  1-C ,  5-H ) :   0.1662 B(  1-C ,  6-H ) :   0.1722
B(  1-C ,  7-H ) :   0.1624 B(  3-H ,  4-H ) :   0.2978

Dispersion correction           -0.003351152
FINAL SINGLE POINT ENERGY       -79.629240841976

DIPOLE MOMENT
-------------
                                X             Y             Z
Electronic contribution:      0.05262       0.10227      -0.06102
Nuclear contribution   :     -0.07174      -0.12630       0.09844
                        -----------------------------------------
Total Dipole Moment    :     -0.01912      -0.02403       0.03742
                        -----------------------------------------
Magnitude (a.u.)       :      0.04841
Magnitude (Debye)      :      0.12305

Rotational constants in cm-1:     2.906543     0.717882     0.705537
Rotational constants in MHz : 87135.978289 21521.550473 21151.459355

                             ****ORCA TERMINATED NORMALLY****
TOTAL RUN TIME: 0 days 0 hours 0 minutes 2 seconds 684 msec
