                         Program Version 5.0.0 -  RELEASE  -
|  1> !PBE D3BJ RIJCOSX def2-SVPD def2/J TightSCF
|  2> *xyz 0 1
|  3> C         -2.45380        0.05510        6.94145
|  4> C         -2.07842        1.48042        6.56410
|  5> O         -0.90125        1.85816        6.82810
|  6> F         -2.93658        2.17731        5.96415
|  7> H         -3.47026       -0.13135        6.66407
|  8> H         -2.34265       -0.07527        7.99765
|  9> H         -1.81248       -0.63046        6.42801
| 10> *
| 11> %MaxCore 64000
| 12>
| 13> %pal nprocs 4
| 14> end
| 15>
| 16> %scf
| 17>   MaxIter 150
| 18> end
| 19>
| 20>
| 21>                          ****END OF INPUT****

CARTESIAN COORDINATES (ANGSTROEM)
---------------------------------
  C     -2.453800    0.055100    6.941450
  C     -2.078420    1.480420    6.564100
  O     -0.901250    1.858160    6.828100
  F     -2.936580    2.177310    5.964150
  H     -3.470260   -0.131350    6.664070
  H     -2.342650   -0.075270    7.997650
  H     -1.812480   -0.630460    6.428010

 Total Charge           Charge          ....    0
 Multiplicity           Mult            ....    1
 Number of Electrons    NEL             ....   32
 Basis Dimension        Dim             ....  110

ORBITAL ENERGIES
----------------

  NO   OCC          E(Eh)            E(eV)
   0   2.0000     -24.347942      -662.5412
   1   2.0000     -18.773929      -510.8646
   2   2.0000     -10.073261      -274.1074
   3   2.0000      -9.923880      -270.0425
   4   2.0000      -1.206672       -32.8352
   5   2.0000      -0.936568       -25.4853
   6   2.0000      -0.699886       -19.0449
   7   2.0000      -0.596511       -16.2319
   8   2.0000      -0.493500       -13.4288
   9   2.0000      -0.487051       -13.2533
  10   2.0000      -0.447945       -12.1892
  11   2.0000      -0.401307       -10.9201
  12   2.0000      -0.387805       -10.5527
  13   2.0000      -0.353481        -9.6187
  14   2.0000      -0.315066        -8.5734
  15   2.0000      -0.248530        -6.7628
  16   0.0000      -0.075703        -2.0600
  17   0.0000      -0.005828        -0.1586
  18   0.0000       0.043196         1.1754
  19   0.0000       0.066173         1.8007
  20   0.0000       0.070723         1.9245

MULLIKEN ATOMIC CHARGES
-----------------------
   0 C :    0.434568
   1 C :    0.339733
   2 O :   -0.456990
   3 F :   -0.302097
   4 H :   -0.041443
   5 H :    0.011722
   6 H :    0.014508
Sum of atomic charges:    0.0000000

LOEWDIN ATOMIC CHARGES
----------------------
   0 C :    0.211616
   1 C :   -0.059982
   2 O :   -0.126943
   3 F :   -0.020323
   4 H :   -0.014524
   5 H :    0.004572
   6 H :    0.005585

  Mayer bond orders larger than 0.100000
B(  0-C ,  1-C ) :   1.2896 B(  0-C ,  4-H ) :   0.8739 B(  0-C ,  5-H ) :   0.7937
B(  0-C ,  6-H ) :   0.8015 B(  1-C ,  2-O ) :   1.7965 B(  1-C ,  3-F ) :   0.8350
B(  1-C ,  4-H ) :   0.1669 B(  1-C ,  5-H ) :   0.1566 B(  1-C ,  6-H ) :   0.1465

Dispersion correction           -0.003400287
FINAL SINGLE POINT ENERGY      -252.640822890014

DIPOLE MOMENT
-------------
                                X             Y             Z
Electronic contribution:     -0.44947       4.68305      -1.89899
Nuclear contribution   :     -0.38801      -5.49530       1.90863
                        -----------------------------------------
Total Dipole Moment    :     -0.83748      -0.81225       0.00964
                        -----------------------------------------
Magnitude (a.u.)       :      1.16671
Magnitude (Debye)      :      2.96554

Rotational constants in cm-1:     0.368583     0.320435     0.176966
Rotational constants in MHz : 11049.843408  9606.394840  5305.299921

                             ****ORCA TERMINATED NORMALLY****
TOTAL RUN TIME: 0 days 0 hours 0 minutes 3 seconds 459 msec
