                         Program Version 5.0.0 -  RELEASE  -
|  1> !PBE D3BJ RIJCOSX def2-SVPD def2/J TightSCF xyzfile
|  2>
|  3> *xyzfile 0 1 D2.xyz
|  4>
|  5> %MaxCore 64000
|  6>
|  7> %pal nprocs 4
|  8> end
|  9>
| 10> %scf
| 11>   MaxIter 150
| 12> end
| 13>
| 14>
| 15>                          ****END OF INPUT****

CARTESIAN COORDINATES (ANGSTROEM)
---------------------------------
  C     -0.699123    3.489451    3.755163
  H     -0.966716    4.349013    3.140491
  C     -1.080669    3.792957    5.156857
  C      0.776956    3.138391    3.617408
  H     -1.331455    2.656510    3.446323
  H      1.371398    3.888342    4.149744
  H      1.046926    3.232057    2.561331
  C      1.118917    1.731170    4.115155
  H      2.200573    1.654226    4.254882
  C      0.659466    0.635182    3.153306
  H      0.677024    1.576674    5.103150
  H      1.312288    0.638870    2.274207
  H     -0.339563    0.868049    2.772876
  C      0.639957   -0.771175    3.755619
  C     -0.341821   -0.965537    4.915046
  H      1.648266   -1.028665    4.097015
  H      0.398568   -1.482386    2.958453
  H     -0.279892   -2.005646    5.252547
  C     -1.789164   -0.639231    4.557496
  H     -0.032380   -0.352918    5.765118
  H     -2.107151   -1.270102    3.719619
  H     -1.856352    0.391636    4.197604
  C     -2.790700   -0.785275    5.702812
  H     -2.867308   -1.835651    6.001675
  H     -3.774554   -0.486577    5.334807
  C     -2.453797    0.055101    6.941445
  C     -2.078419    1.480421    6.564098
  H     -1.625584   -0.382163    7.498914
  H     -3.325274    0.087746    7.599175
  H     -0.874488    4.762737    5.427344
  H     -0.680793    3.134762    5.839000
  H     -2.057550    3.531691    5.346197
  O     -0.901252    1.858156    6.828104
  F     -2.936582    2.177309    5.964151

 Total Charge           Charge          ....    0
 Multiplicity           Mult            ....    1
 Number of Electrons    NEL             ....  104
 Basis Dimension        Dim             ....  434

ORBITAL ENERGIES
----------------

  NO   OCC          E(Eh)            E(eV)
   0   2.0000     -24.356703      -662.7796
   1   2.0000     -18.780250      -511.0366
   2   2.0000     -10.078137      -274.2401
   3   2.0000      -9.930515      -270.2230
   4   2.0000      -9.917510      -269.8692
   5   2.0000      -9.902097      -269.4498
   6   2.0000      -9.891806      -269.1697
   7   2.0000      -9.887864      -269.0625
   8   2.0000      -9.881062      -268.8774
   9   2.0000      -9.874593      -268.7013
  10   2.0000      -9.871722      -268.6232
  11   2.0000      -9.865905      -268.4649
  12   2.0000      -9.813016      -267.0257
  13   2.0000      -1.218295       -33.1515
  14   2.0000      -0.951303       -25.8863
  15   2.0000      -0.753906       -20.5148
  16   2.0000      -0.726326       -19.7643
  17   2.0000      -0.699019       -19.0213
  18   2.0000      -0.673150       -18.3174
  19   2.0000      -0.632554       -17.2127
  20   2.0000      -0.614137       -16.7115
  21   2.0000      -0.593062       -16.1380
  22   2.0000      -0.555521       -15.1165
  23   2.0000      -0.545140       -14.8340
  24   2.0000      -0.506495       -13.7824
  25   2.0000      -0.502407       -13.6712
  26   2.0000      -0.495201       -13.4751
  27   2.0000      -0.476075       -12.9547
  28   2.0000      -0.459312       -12.4985
  29   2.0000      -0.432671       -11.7736
  30   2.0000      -0.428708       -11.6657
  31   2.0000      -0.409891       -11.1537
  32   2.0000      -0.404540       -11.0081
  33   2.0000      -0.386944       -10.5293
  34   2.0000      -0.376375       -10.2417
  35   2.0000      -0.367828       -10.0091
  36   2.0000      -0.363622        -9.8947
  37   2.0000      -0.357511        -9.7284
  38   2.0000      -0.345277        -9.3955
  39   2.0000      -0.333672        -9.0797
  40   2.0000      -0.328325        -8.9342
  41   2.0000      -0.324236        -8.8229
  42   2.0000      -0.309381        -8.4187
  43   2.0000      -0.305078        -8.3016
  44   2.0000      -0.295943        -8.0530
  45   2.0000      -0.285153        -7.7594
  46   2.0000      -0.281253        -7.6533
  47   2.0000      -0.272037        -7.4025
  48   2.0000      -0.266424        -7.2498
  49   2.0000      -0.257290        -7.0012
  50   2.0000      -0.253338        -6.8937
  51   2.0000      -0.215413        -5.8617
  52   0.0000      -0.084052        -2.2872
  53   0.0000      -0.008431        -0.2294
  54   0.0000       0.011834         0.3220
  55   0.0000       0.013954         0.3797
  56   0.0000       0.020811         0.5663

MULLIKEN ATOMIC CHARGES
-----------------------
   0 C :   -0.025928
   1 H :   -0.313876
   2 C :    1.890602
   3 C :    0.539935
   4 H :   -0.199108
   5 H :   -0.087973
   6 H :   -0.124068
   7 C :    0.655219
   8 H :    0.018033
   9 C :    0.002360
  10 H :   -0.750757
  11 H :   -0.265547
  12 H :   -0.084457
  13 C :    0.722762
  14 C :   -0.022056
  15 H :   -0.139161
  16 H :    0.031929
  17 H :   -0.294765
  18 C :    0.294963
  19 H :    0.020620
  20 H :   -0.089499
  21 H :   -0.506909
  22 C :    0.465734
  23 H :   -0.188754
  24 H :    0.053872
  25 C :    0.321330
  26 C :    0.594515
  27 H :    0.119396
  28 H :   -0.168865
  29 H :   -0.296994
  30 H :   -0.658802
  31 H :   -0.402928
  32 O :   -0.646141
  33 F :   -0.464680
Sum of atomic charges:   -0.0000000

LOEWDIN ATOMIC CHARGES
----------------------
   0 C :   -0.044898
   1 H :    0.019701
   2 C :    0.133316
   3 C :   -0.025902
   4 H :    0.000621
   5 H :    0.026224
   6 H :    0.016765
   7 C :   -0.011269
   8 H :    0.026347
   9 C :   -0.034015
  10 H :   -0.012888
  11 H :    0.024809
  12 H :   -0.000153
  13 C :   -0.029108
  14 C :   -0.024805
  15 H :    0.024585
  16 H :    0.021594
  17 H :    0.027431
  18 C :   -0.026571
  19 H :    0.000139
  20 H :    0.034202
  21 H :    0.000573
  22 C :   -0.017430
  23 H :    0.028618
  24 H :    0.026295
  25 C :    0.057923
  26 C :    0.020878
  27 H :    0.034830
  28 H :    0.037553
  29 H :   -0.017199
  30 H :   -0.125464
  31 H :   -0.076604
  32 O :   -0.108140
  33 F :   -0.007958

  Mayer bond orders larger than 0.100000
B(  0-C ,  1-H ) :   0.8750 B(  0-C ,  2-C ) :   0.8594 B(  0-C ,  3-C ) :   1.2029
B(  0-C ,  4-H ) :   0.7198 B(  0-C ,  5-H ) :   0.1798 B(  0-C ,  6-H ) :   0.1795
B(  0-C ,  7-C ) :   0.2053 B(  0-C , 10-H ) :  -0.1463 B(  0-C , 29-H ) :   0.1428
B(  0-C , 30-H ) :   0.5820 B(  0-C , 31-H ) :   0.3809 B(  1-H ,  3-C ) :   0.1016
B(  1-H ,  5-H ) :   0.1091 B(  1-H ,  8-H ) :   0.1031 B(  1-H , 30-H ) :   0.1157
B(  2-C ,  4-H ) :   0.2237 B(  2-C , 29-H ) :   0.4892 B(  2-C , 30-H ) :  -0.1787
B(  2-C , 31-H ) :   0.1491 B(  3-C ,  4-H ) :   0.1408 B(  3-C ,  5-H ) :   0.6627
B(  3-C ,  6-H ) :   0.6945 B(  3-C ,  7-C ) :   1.1812 B(  3-C , 10-H ) :   0.2503
B(  3-C , 30-H ) :  -0.1481 B(  4-H , 12-H ) :   0.1150 B(  4-H , 21-H ) :   0.1669
B(  5-H ,  6-H ) :  -0.1453 B(  5-H ,  7-C ) :   0.1639 B(  5-H , 10-H ) :   0.1171
B(  6-H ,  7-C ) :   0.1658 B(  7-C ,  8-H ) :   0.6353 B(  7-C ,  9-C ) :   1.1233
B(  7-C , 10-H ) :   0.4021 B(  7-C , 11-H ) :   0.1981 B(  7-C , 12-H ) :   0.1245
B(  8-H ,  9-C ) :   0.2102 B(  9-C , 10-H ) :   0.2791 B(  9-C , 11-H ) :   0.8639
B(  9-C , 12-H ) :   0.8726 B(  9-C , 13-C ) :   1.2035 B(  9-C , 14-C ) :   0.1401
B(  9-C , 15-H ) :   0.1532 B(  9-C , 16-H ) :   0.2418 B( 10-H , 19-H ) :   0.1259
B( 10-H , 30-H ) :   0.1129 B( 13-C , 14-C ) :   1.1498 B( 13-C , 15-H ) :   0.6415
B( 13-C , 16-H ) :   0.6454 B( 14-C , 15-H ) :   0.3046 B( 14-C , 17-H ) :   0.8972
B( 14-C , 18-C ) :   1.1817 B( 14-C , 19-H ) :   0.8364 B( 14-C , 20-H ) :   0.1758
B( 14-C , 21-H ) :   0.2660 B( 15-H , 16-H ) :  -0.1372 B( 17-H , 18-C ) :   0.1652
B( 18-C , 19-H ) :   0.1215 B( 18-C , 20-H ) :   0.6835 B( 18-C , 21-H ) :   0.6927
B( 18-C , 22-C ) :   1.2397 B( 18-C , 23-H ) :   0.1696 B( 18-C , 24-H ) :   0.2614
B( 18-C , 25-C ) :   0.1366 B( 20-H , 21-H ) :   0.1161 B( 21-H , 22-C ) :   0.1555
B( 22-C , 23-H ) :   0.7808 B( 22-C , 24-H ) :   0.6403 B( 22-C , 25-C ) :   1.1556
B( 22-C , 28-H ) :   0.1798 B( 23-H , 24-H ) :  -0.1524 B( 23-H , 25-C ) :   0.1441
B( 25-C , 26-C ) :   1.1862 B( 25-C , 27-H ) :   0.7950 B( 25-C , 28-H ) :   0.6285
B( 26-C , 27-H ) :   0.1448 B( 26-C , 28-H ) :   0.2903 B( 26-C , 32-O ) :   1.6513
B( 26-C , 33-F ) :   0.5501 B( 29-H , 30-H ) :   0.2144 B( 30-H , 31-H ) :   0.4558
B( 30-H , 32-O ) :   0.2078 B( 31-H , 33-F ) :   0.2288 B( 32-O , 33-F ) :   0.1321

Dispersion correction           -0.037796633
FINAL SINGLE POINT ENERGY      -605.685050042486

DIPOLE MOMENT
-------------
                                X             Y             Z
Electronic contribution:     -8.92092       3.04942       9.45422
Nuclear contribution   :      8.07181      -4.09641      -9.21610
                        -----------------------------------------
Total Dipole Moment    :     -0.84911      -1.04699       0.23811
                        -----------------------------------------
Magnitude (a.u.)       :      1.36890
Magnitude (Debye)      :      3.47947

Rotational constants in cm-1:     0.028400     0.023377     0.015073
Rotational constants in MHz :   851.414727   700.831775   451.871218

                             ****ORCA TERMINATED NORMALLY****
TOTAL RUN TIME: 0 days 0 hours 0 minutes 46 seconds 65 msec
