                         Program Version 5.0.0 -  RELEASE  -
|  1> !PBE D3BJ RIJCOSX def2-SVPD def2/J TightSCF
|  2> *xyz -1 1
|  3> C          0.13297        2.38587       -4.02462
|  4> C         -1.36646        2.47911       -4.31393
|  5> C         -2.35773        2.30686       -3.13675
|  6> H         -1.63680        1.72709       -5.06399
|  7> H         -1.58235        3.44561       -4.76869
|  8> O         -3.44376        2.84652       -3.25274
|  9> O         -1.97092        1.58304       -2.15123
| 10> H          0.68084        2.52514       -4.93310
| 11> H          0.35823        1.42282       -3.61633
| 12> H          0.40851        3.14443       -3.32208
| 13> *
| 14> %MaxCore 64000
| 15>
| 16> %pal nprocs 4
| 17> end
| 18>
| 19> %scf
| 20>   MaxIter 150
| 21> end
| 22>
| 23>
| 24>                          ****END OF INPUT****

CARTESIAN COORDINATES (ANGSTROEM)
---------------------------------
  C      0.132970    2.385870   -4.024620
  C     -1.366460    2.479110   -4.313930
  C     -2.357730    2.306860   -3.136750
  H     -1.636800    1.727090   -5.063990
  H     -1.582350    3.445610   -4.768690
  O     -3.443760    2.846520   -3.252740
  O     -1.970920    1.583040   -2.151230
  H      0.680840    2.525140   -4.933100
  H      0.358230    1.422820   -3.616330
  H      0.408510    3.144430   -3.322080

 Total Charge           Charge          ....   -1
 Multiplicity           Mult            ....    1
 Number of Electrons    NEL             ....   40
 Basis Dimension        Dim             ....  146

ORBITAL ENERGIES
----------------

  NO   OCC          E(Eh)            E(eV)
   0   2.0000     -18.511101      -503.7127
   1   2.0000     -18.502429      -503.4767
   2   2.0000      -9.773399      -265.9477
   3   2.0000      -9.730545      -264.7816
   4   2.0000      -9.721608      -264.5384
   5   2.0000      -0.732791       -19.9403
   6   2.0000      -0.637049       -17.3350
   7   2.0000      -0.525238       -14.2925
   8   2.0000      -0.403771       -10.9872
   9   2.0000      -0.260330        -7.0839
  10   2.0000      -0.244733        -6.6595
  11   2.0000      -0.208038        -5.6610
  12   2.0000      -0.181633        -4.9425
  13   2.0000      -0.170215        -4.6318
  14   2.0000      -0.160281        -4.3615
  15   2.0000      -0.134080        -3.6485
  16   2.0000      -0.120383        -3.2758
  17   2.0000      -0.015340        -0.4174
  18   2.0000      -0.000779        -0.0212
  19   2.0000       0.015196         0.4135
  20   0.0000       0.138289         3.7630
  21   0.0000       0.174421         4.7462
  22   0.0000       0.188333         5.1248
  23   0.0000       0.192069         5.2265
  24   0.0000       0.218273         5.9395

MULLIKEN ATOMIC CHARGES
-----------------------
   0 C :    0.659663
   1 C :   -0.464521
   2 C :    0.374372
   3 H :   -0.019847
   4 H :   -0.022514
   5 O :   -0.593317
   6 O :   -0.720491
   7 H :   -0.086154
   8 H :   -0.052948
   9 H :   -0.074244
Sum of atomic charges:   -1.0000000

LOEWDIN ATOMIC CHARGES
----------------------
   0 C :    0.086984
   1 C :   -0.044493
   2 C :   -0.326180
   3 H :    0.008092
   4 H :   -0.006619
   5 O :   -0.287971
   6 O :   -0.322723
   7 H :   -0.047560
   8 H :   -0.032202
   9 H :   -0.027329

  Mayer bond orders larger than 0.100000
B(  0-C ,  1-C ) :   1.3248 B(  0-C ,  4-H ) :   0.1086 B(  0-C ,  7-H ) :   0.7641
B(  0-C ,  8-H ) :   0.8139 B(  0-C ,  9-H ) :   0.8231 B(  1-C ,  2-C ) :   1.0714
B(  1-C ,  3-H ) :   0.9124 B(  1-C ,  4-H ) :   0.9323 B(  1-C ,  7-H ) :   0.2498
B(  1-C ,  8-H ) :   0.2298 B(  1-C ,  9-H ) :   0.2063 B(  2-C ,  4-H ) :   0.1667
B(  2-C ,  5-O ) :   1.5206 B(  2-C ,  6-O ) :   1.4322

Dispersion correction           -0.006464762
FINAL SINGLE POINT ENERGY      -267.355974306366

DIPOLE MOMENT
-------------
                                X             Y             Z
Electronic contribution:     -5.31911      -0.38060       3.25390
Nuclear contribution   :      6.75610       0.63068      -4.53972
                        -----------------------------------------
Total Dipole Moment    :      1.43699       0.25008      -1.28582
                        -----------------------------------------
Magnitude (a.u.)       :      1.94443
Magnitude (Debye)      :      4.94236

Rotational constants in cm-1:     0.335096     0.130241     0.099025
Rotational constants in MHz : 10045.924902  3904.536250  2968.708333

                             ****ORCA TERMINATED NORMALLY****
TOTAL RUN TIME: 0 days 0 hours 0 minutes 9 seconds 233 msec
