                         Program Version 5.0.0 -  RELEASE  -
|  1> !PBE D3BJ RIJCOSX def2-SVPD def2/J TightSCF
|  2> *xyz 1 1
|  3> C          0.64866        1.00359       -3.64560
|  4> N          0.28128        0.67645       -2.24018
|  5> C          0.13297        2.38587       -4.02462
|  6> H          0.39079       -0.31925       -2.02649
|  7> H         -0.69269        0.99010       -2.13812
|  8> H          0.85421        1.21221       -1.57528
|  9> H          0.19099        0.23965       -4.27575
| 10> H          1.73157        0.93173       -3.75075
| 11> H          0.40589        2.60338       -5.03610
| 12> H          0.56342        3.11797       -3.37374
| 13> H         -0.93265        2.40724       -3.93025
| 14> *
| 15> %MaxCore 64000
| 16>
| 17> %pal nprocs 4
| 18> end
| 19>
| 20> %scf
| 21>   MaxIter 150
| 22> end
| 23>
| 24>
| 25>                          ****END OF INPUT****

CARTESIAN COORDINATES (ANGSTROEM)
---------------------------------
  C      0.648660    1.003590   -3.645600
  N      0.281280    0.676450   -2.240180
  C      0.132970    2.385870   -4.024620
  H      0.390790   -0.319250   -2.026490
  H     -0.692690    0.990100   -2.138120
  H      0.854210    1.212210   -1.575280
  H      0.190990    0.239650   -4.275750
  H      1.731570    0.931730   -3.750750
  H      0.405890    2.603380   -5.036100
  H      0.563420    3.117970   -3.373740
  H     -0.932650    2.407240   -3.930250

 Total Charge           Charge          ....    1
 Multiplicity           Mult            ....    1
 Number of Electrons    NEL             ....   26
 Basis Dimension        Dim             ....  124

ORBITAL ENERGIES
----------------

  NO   OCC          E(Eh)            E(eV)
   0   2.0000     -14.334531      -390.0624
   1   2.0000     -10.150477      -276.2085
   2   2.0000     -10.075801      -274.1765
   3   2.0000      -1.130932       -30.7742
   4   2.0000      -0.893276       -24.3073
   5   2.0000      -0.783450       -21.3187
   6   2.0000      -0.750404       -20.4195
   7   2.0000      -0.742587       -20.2068
   8   2.0000      -0.649661       -17.6782
   9   2.0000      -0.596422       -16.2295
  10   2.0000      -0.543508       -14.7896
  11   2.0000      -0.529860       -14.4182
  12   2.0000      -0.511369       -13.9151
  13   0.0000      -0.216830        -5.9003
  14   0.0000      -0.159983        -4.3534
  15   0.0000      -0.157804        -4.2941
  16   0.0000      -0.144785        -3.9398
  17   0.0000      -0.111755        -3.0410

MULLIKEN ATOMIC CHARGES
-----------------------
   0 C :    0.237282
   1 N :   -0.756600
   2 C :    0.625631
   3 H :    0.323860
   4 H :    0.437531
   5 H :    0.375527
   6 H :   -0.076219
   7 H :   -0.112644
   8 H :   -0.048343
   9 H :    0.016230
  10 H :   -0.022256
Sum of atomic charges:    1.0000000

LOEWDIN ATOMIC CHARGES
----------------------
   0 C :    0.045704
   1 N :    0.336480
   2 C :    0.174407
   3 H :    0.105773
   4 H :    0.098246
   5 H :    0.107987
   6 H :    0.054978
   7 H :    0.054338
   8 H :    0.017671
   9 H :    0.003336
  10 H :    0.001080

  Mayer bond orders larger than 0.100000
B(  0-C ,  1-N ) :   0.8126 B(  0-C ,  2-C ) :   1.3475 B(  0-C ,  6-H ) :   0.9055
B(  0-C ,  7-H ) :   0.9265 B(  0-C ,  8-H ) :   0.1959 B(  0-C ,  9-H ) :   0.1430
B(  0-C , 10-H ) :   0.1576 B(  1-N ,  3-H ) :   0.7836 B(  1-N ,  4-H ) :   0.6411
B(  1-N ,  5-H ) :   0.7535 B(  1-N ,  7-H ) :   0.1052 B(  2-C ,  8-H ) :   0.8233
B(  2-C ,  9-H ) :   0.8163 B(  2-C , 10-H ) :   0.8356

Dispersion correction           -0.006192585
FINAL SINGLE POINT ENERGY      -135.258106231119

DIPOLE MOMENT
-------------
                                X             Y             Z
Electronic contribution:      0.16997      -1.29234       1.30898
Nuclear contribution   :     -0.22655       0.48066      -0.09136
                        -----------------------------------------
Total Dipole Moment    :     -0.05658      -0.81168       1.21762
                        -----------------------------------------
Magnitude (a.u.)       :      1.46446
Magnitude (Debye)      :      3.72235

Rotational constants in cm-1:     0.998155     0.284845     0.251232
Rotational constants in MHz : 29923.943568  8539.431565  7531.732866

                             ****ORCA TERMINATED NORMALLY****
TOTAL RUN TIME: 0 days 0 hours 0 minutes 7 seconds 24 msec
