                         Program Version 5.0.0 -  RELEASE  -
|  1> !PBE D3BJ RIJCOSX def2-SVPD def2/J TightSCF
|  2> *xyz 0 1
|  3> C          0.13297        2.38587       -4.02462
|  4> C         -1.36646        2.47911       -4.31393
|  5> C         -2.35773        2.30686       -3.13675
|  6> H         -1.63680        1.72709       -5.06399
|  7> H         -1.58235        3.44561       -4.76869
|  8> F         -3.44376        2.84652       -3.25274
|  9> O         -1.97092        1.58304       -2.15123
| 10> H          0.68084        2.52514       -4.93310
| 11> H          0.35823        1.42282       -3.61633
| 12> H          0.40851        3.14443       -3.32208
| 13> *
| 14> %MaxCore 64000
| 15>
| 16> %pal nprocs 4
| 17> end
| 18>
| 19> %scf
| 20>   MaxIter 150
| 21> end
| 22>
| 23>
| 24>                          ****END OF INPUT****

CARTESIAN COORDINATES (ANGSTROEM)
---------------------------------
  C      0.132970    2.385870   -4.024620
  C     -1.366460    2.479110   -4.313930
  C     -2.357730    2.306860   -3.136750
  H     -1.636800    1.727090   -5.063990
  H     -1.582350    3.445610   -4.768690
  F     -3.443760    2.846520   -3.252740
  O     -1.970920    1.583040   -2.151230
  H      0.680840    2.525140   -4.933100
  H      0.358230    1.422820   -3.616330
  H      0.408510    3.144430   -3.322080

 Total Charge           Charge          ....    0
 Multiplicity           Mult            ....    1
 Number of Electrons    NEL             ....   40
 Basis Dimension        Dim             ....  146

ORBITAL ENERGIES
----------------

  NO   OCC          E(Eh)            E(eV)
   0   2.0000     -24.359510      -662.8560
   1   2.0000     -18.769146      -510.7344
   2   2.0000     -10.070861      -274.0421
   3   2.0000      -9.929947      -270.2076
   4   2.0000      -9.897902      -269.3356
   5   2.0000      -1.233690       -33.5704
   6   2.0000      -0.923253       -25.1230
   7   2.0000      -0.719820       -19.5873
   8   2.0000      -0.629854       -17.1392
   9   2.0000      -0.582339       -15.8463
  10   2.0000      -0.508760       -13.8441
  11   2.0000      -0.487539       -13.2666
  12   2.0000      -0.449886       -12.2420
  13   2.0000      -0.419158       -11.4059
  14   2.0000      -0.382015       -10.3952
  15   2.0000      -0.351188        -9.5563
  16   2.0000      -0.331428        -9.0186
  17   2.0000      -0.327568        -8.9136
  18   2.0000      -0.306161        -8.3311
  19   2.0000      -0.240672        -6.5490
  20   0.0000      -0.070745        -1.9251
  21   0.0000      -0.004874        -0.1326
  22   0.0000       0.025823         0.7027
  23   0.0000       0.042167         1.1474
  24   0.0000       0.053072         1.4442

MULLIKEN ATOMIC CHARGES
-----------------------
   0 C :    0.688340
   1 C :   -0.499270
   2 C :    0.692282
   3 H :    0.047354
   4 H :    0.014840
   5 F :   -0.282963
   6 O :   -0.503260
   7 H :   -0.063824
   8 H :   -0.041935
   9 H :   -0.051563
Sum of atomic charges:    0.0000000

LOEWDIN ATOMIC CHARGES
----------------------
   0 C :    0.136455
   1 C :   -0.004836
   2 C :   -0.039130
   3 H :    0.039963
   4 H :    0.020144
   5 F :    0.010309
   6 O :   -0.130474
   7 H :   -0.013487
   8 H :   -0.010820
   9 H :   -0.008125

  Mayer bond orders larger than 0.100000
B(  0-C ,  1-C ) :   1.4036 B(  0-C ,  4-H ) :   0.1033 B(  0-C ,  7-H ) :   0.7586
B(  0-C ,  8-H ) :   0.8025 B(  0-C ,  9-H ) :   0.8187 B(  1-C ,  2-C ) :   1.0992
B(  1-C ,  3-H ) :   0.8761 B(  1-C ,  4-H ) :   0.9042 B(  1-C ,  5-F ) :   0.1021
B(  1-C ,  7-H ) :   0.2342 B(  1-C ,  8-H ) :   0.2158 B(  1-C ,  9-H ) :   0.2010
B(  2-C ,  4-H ) :   0.1123 B(  2-C ,  5-F ) :   0.8200 B(  2-C ,  6-O ) :   1.7786
B(  5-F ,  6-O ) :   0.1071

Dispersion correction           -0.006151643
FINAL SINGLE POINT ENERGY      -291.863076170878

DIPOLE MOMENT
-------------
                                X             Y             Z
Electronic contribution:     -8.38977       0.46116       3.60553
Nuclear contribution   :      8.54799       0.05434      -4.66633
                        -----------------------------------------
Total Dipole Moment    :      0.15821       0.51550      -1.06080
                        -----------------------------------------
Magnitude (a.u.)       :      1.18998
Magnitude (Debye)      :      3.02470

Rotational constants in cm-1:     0.325803     0.123345     0.094275
Rotational constants in MHz :  9767.324172  3697.779805  2826.305733

                             ****ORCA TERMINATED NORMALLY****
TOTAL RUN TIME: 0 days 0 hours 0 minutes 8 seconds 108 msec
