                         Program Version 5.0.0 -  RELEASE  -
|  1> !PBE D3BJ RIJCOSX def2-SVPD def2/J TightSCF
|  2> *xyz 0 1
|  3> C          0.64866        1.00359       -3.64560
|  4> C          0.28128        0.67645       -2.24018
|  5> C          0.13297        2.38587       -4.02462
|  6> H          0.39079       -0.31925       -2.02649
|  7> H         -0.69269        0.99010       -2.13812
|  8> H          0.85421        1.21221       -1.57528
|  9> H          0.19099        0.23965       -4.27575
| 10> H          1.73157        0.93173       -3.75075
| 11> H          0.40589        2.60338       -5.03610
| 12> H          0.56342        3.11797       -3.37374
| 13> H         -0.93265        2.40724       -3.93025
| 14> *
| 15> %MaxCore 64000
| 16>
| 17> %pal nprocs 4
| 18> end
| 19>
| 20> %scf
| 21>   MaxIter 150
| 22> end
| 23>
| 24>
| 25>                          ****END OF INPUT****

CARTESIAN COORDINATES (ANGSTROEM)
---------------------------------
  C      0.648660    1.003590   -3.645600
  C      0.281280    0.676450   -2.240180
  C      0.132970    2.385870   -4.024620
  H      0.390790   -0.319250   -2.026490
  H     -0.692690    0.990100   -2.138120
  H      0.854210    1.212210   -1.575280
  H      0.190990    0.239650   -4.275750
  H      1.731570    0.931730   -3.750750
  H      0.405890    2.603380   -5.036100
  H      0.563420    3.117970   -3.373740
  H     -0.932650    2.407240   -3.930250

 Total Charge           Charge          ....    0
 Multiplicity           Mult            ....    1
 Number of Electrons    NEL             ....   26
 Basis Dimension        Dim             ....  124

ORBITAL ENERGIES
----------------

  NO   OCC          E(Eh)            E(eV)
   0   2.0000      -9.884116      -268.9605
   1   2.0000      -9.875854      -268.7357
   2   2.0000      -9.858287      -268.2576
   3   2.0000      -0.715040       -19.4572
   4   2.0000      -0.616512       -16.7761
   5   2.0000      -0.521049       -14.1785
   6   2.0000      -0.419242       -11.4081
   7   2.0000      -0.402013       -10.9393
   8   2.0000      -0.357840        -9.7373
   9   2.0000      -0.341693        -9.2980
  10   2.0000      -0.298168        -8.1136
  11   2.0000      -0.294016        -8.0006
  12   2.0000      -0.285211        -7.7610
  13   0.0000       0.009610         0.2615
  14   0.0000       0.040231         1.0947
  15   0.0000       0.045939         1.2501
  16   0.0000       0.063656         1.7322
  17   0.0000       0.083182         2.2635

MULLIKEN ATOMIC CHARGES
-----------------------
   0 C :   -0.614682
   1 C :    0.987785
   2 C :    0.623708
   3 H :   -0.259191
   4 H :   -0.173201
   5 H :   -0.166455
   6 H :   -0.072615
   7 H :   -0.128033
   8 H :   -0.122526
   9 H :   -0.040558
  10 H :   -0.034232
Sum of atomic charges:   -0.0000000

LOEWDIN ATOMIC CHARGES
----------------------
   0 C :   -0.125010
   1 C :    0.115503
   2 C :    0.115114
   3 H :   -0.033165
   4 H :   -0.033986
   5 H :   -0.028423
   6 H :    0.022305
   7 H :    0.020902
   8 H :   -0.021918
   9 H :   -0.014196
  10 H :   -0.017126

  Mayer bond orders larger than 0.100000
B(  0-C ,  1-C ) :   1.2974 B(  0-C ,  2-C ) :   1.2983 B(  0-C ,  3-H ) :   0.2104
B(  0-C ,  4-H ) :   0.2606 B(  0-C ,  5-H ) :   0.2393 B(  0-C ,  6-H ) :   0.9175
B(  0-C ,  7-H ) :   0.9634 B(  0-C ,  8-H ) :   0.1893 B(  0-C ,  9-H ) :   0.1832
B(  0-C , 10-H ) :   0.1697 B(  1-C ,  3-H ) :   0.7254 B(  1-C ,  4-H ) :   0.7195
B(  1-C ,  5-H ) :   0.6936 B(  1-C ,  7-H ) :   0.1052 B(  2-C ,  8-H ) :   0.8360
B(  2-C ,  9-H ) :   0.8212 B(  2-C , 10-H ) :   0.8322 B(  4-H ,  5-H ) :   0.1140

Dispersion correction           -0.006189810
FINAL SINGLE POINT ENERGY      -118.863925017112

DIPOLE MOMENT
-------------
                                X             Y             Z
Electronic contribution:      0.26107      -0.28248      -0.24642
Nuclear contribution   :     -0.24754       0.26111       0.24628
                        -----------------------------------------
Total Dipole Moment    :      0.01353      -0.02137      -0.00014
                        -----------------------------------------
Magnitude (a.u.)       :      0.02529
Magnitude (Debye)      :      0.06429

Rotational constants in cm-1:     1.006509     0.299509     0.263145
Rotational constants in MHz : 30174.379724  8979.049324  7888.875355

                             ****ORCA TERMINATED NORMALLY****
TOTAL RUN TIME: 0 days 0 hours 0 minutes 7 seconds 763 msec
