                         Program Version 5.0.0 -  RELEASE  -
|  1> !PBE D3BJ RIJCOSX def2-SVPD def2/J TightSCF
|  2> *xyz 0 1
|  3> C          0.13297        2.38587       -4.02462
|  4> C         -1.36646        2.47911       -4.31393
|  5> C         -2.35773        2.30686       -3.13675
|  6> H         -1.63680        1.72709       -5.06399
|  7> H         -1.58235        3.44561       -4.76869
|  8> O         -3.44376        2.84652       -3.25274
|  9> F         -1.97092        1.58304       -2.15123
| 10> H          0.68084        2.52514       -4.93310
| 11> H          0.35823        1.42282       -3.61633
| 12> H          0.40851        3.14443       -3.32208
| 13> *
| 14> %MaxCore 64000
| 15>
| 16> %pal nprocs 4
| 17> end
| 18>
| 19> %scf
| 20>   MaxIter 150
| 21> end
| 22>
| 23>
| 24>                          ****END OF INPUT****

CARTESIAN COORDINATES (ANGSTROEM)
---------------------------------
  C      0.132970    2.385870   -4.024620
  C     -1.366460    2.479110   -4.313930
  C     -2.357730    2.306860   -3.136750
  H     -1.636800    1.727090   -5.063990
  H     -1.582350    3.445610   -4.768690
  O     -3.443760    2.846520   -3.252740
  F     -1.970920    1.583040   -2.151230
  H      0.680840    2.525140   -4.933100
  H      0.358230    1.422820   -3.616330
  H      0.408510    3.144430   -3.322080

 Total Charge           Charge          ....    0
 Multiplicity           Mult            ....    1
 Number of Electrons    NEL             ....   40
 Basis Dimension        Dim             ....  146

ORBITAL ENERGIES
----------------

  NO   OCC          E(Eh)            E(eV)
   0   2.0000     -24.336764      -662.2370
   1   2.0000     -18.777762      -510.9689
   2   2.0000     -10.065765      -273.9034
   3   2.0000      -9.928438      -270.1665
   4   2.0000      -9.902625      -269.4641
   5   2.0000      -1.186355       -32.2824
   6   2.0000      -0.961624       -26.1671
   7   2.0000      -0.722071       -19.6486
   8   2.0000      -0.611963       -16.6523
   9   2.0000      -0.575081       -15.6488
  10   2.0000      -0.484585       -13.1862
  11   2.0000      -0.478123       -13.0104
  12   2.0000      -0.438740       -11.9387
  13   2.0000      -0.418077       -11.3765
  14   2.0000      -0.385002       -10.4764
  15   2.0000      -0.360790        -9.8176
  16   2.0000      -0.346925        -9.4403
  17   2.0000      -0.332114        -9.0373
  18   2.0000      -0.316585        -8.6147
  19   2.0000      -0.252926        -6.8825
  20   0.0000      -0.065884        -1.7928
  21   0.0000      -0.008473        -0.2306
  22   0.0000       0.031225         0.8497
  23   0.0000       0.038602         1.0504
  24   0.0000       0.054012         1.4697

MULLIKEN ATOMIC CHARGES
-----------------------
   0 C :    0.704559
   1 C :   -0.497834
   2 C :    0.684857
   3 H :    0.048038
   4 H :    0.007864
   5 O :   -0.408289
   6 F :   -0.374130
   7 H :   -0.064992
   8 H :   -0.049178
   9 H :   -0.050896
Sum of atomic charges:   -0.0000000

LOEWDIN ATOMIC CHARGES
----------------------
   0 C :    0.125351
   1 C :    0.006181
   2 C :   -0.034892
   3 H :    0.041245
   4 H :    0.031126
   5 O :   -0.097482
   6 F :   -0.030069
   7 H :   -0.013912
   8 H :   -0.015987
   9 H :   -0.011561

  Mayer bond orders larger than 0.100000
B(  0-C ,  1-C ) :   1.3727 B(  0-C ,  7-H ) :   0.7552 B(  0-C ,  8-H ) :   0.8070
B(  0-C ,  9-H ) :   0.8206 B(  1-C ,  2-C ) :   1.0601 B(  1-C ,  3-H ) :   0.8766
B(  1-C ,  4-H ) :   0.9330 B(  1-C ,  7-H ) :   0.2456 B(  1-C ,  8-H ) :   0.2014
B(  1-C ,  9-H ) :   0.1918 B(  2-C ,  4-H ) :   0.1236 B(  2-C ,  5-O ) :   1.8334
B(  2-C ,  6-F ) :   0.7459 B(  5-O ,  6-F ) :   0.1161

Dispersion correction           -0.006104705
FINAL SINGLE POINT ENERGY      -291.879417975602

DIPOLE MOMENT
-------------
                                X             Y             Z
Electronic contribution:     -5.93187      -1.62520       5.40879
Nuclear contribution   :      6.94213       1.43193      -5.86732
                        -----------------------------------------
Total Dipole Moment    :      1.01026      -0.19327      -0.45853
                        -----------------------------------------
Magnitude (a.u.)       :      1.12615
Magnitude (Debye)      :      2.86245

Rotational constants in cm-1:     0.306336     0.129048     0.095707
Rotational constants in MHz :  9183.725605  3868.769583  2869.236577

                             ****ORCA TERMINATED NORMALLY****
TOTAL RUN TIME: 0 days 0 hours 0 minutes 9 seconds 52 msec
