                         Program Version 5.0.0 -  RELEASE  -
|  1> !DLPNO-CCSD(T) aug-cc-pVTZ aug-cc-pVTZ/C TightSCF TightPNO RIJCOSX def2/J
|  2> *xyz -1 1
|  3> C         -0.15102        0.25496       -4.09426
|  4> C         -0.72184       -0.99951       -3.43931
|  5> H         -1.08340       -1.69755       -4.20566
|  6> H         -1.58106       -0.72385       -2.82049
|  7> C          0.28725       -1.71177       -2.52740
|  8> H          1.13178       -2.06738       -3.15940
|  9> H         -0.20414       -2.63733       -2.17048
| 10> O          0.71050       -0.92751       -1.48177
| 11> H         -0.89787        0.70479       -4.71455
| 12> H          0.69695       -0.00870       -4.69119
| 13> H          0.14812        0.94842       -3.33628
| 14> *
| 15> %MaxCore 64000
| 16>
| 17> %pal nprocs 8
| 18> end
| 19>
| 20> %scf
| 21>   MaxIter 150
| 22> end
| 23>
| 24>
| 25>                          ****END OF INPUT****

CARTESIAN COORDINATES (ANGSTROEM)
---------------------------------
  C     -0.151020    0.254960   -4.094260
  C     -0.721840   -0.999510   -3.439310
  H     -1.083400   -1.697550   -4.205660
  H     -1.581060   -0.723850   -2.820490
  C      0.287250   -1.711770   -2.527400
  H      1.131780   -2.067380   -3.159400
  H     -0.204140   -2.637330   -2.170480
  O      0.710500   -0.927510   -1.481770
  H     -0.897870    0.704790   -4.714550
  H      0.696950   -0.008700   -4.691190
  H      0.148120    0.948420   -3.336280

 Total Charge           Charge          ....   -1
 Multiplicity           Mult            ....    1
 Number of Electrons    NEL             ....   34
 Basis Dimension        Dim             ....  345

ORBITAL ENERGIES
----------------

  NO   OCC          E(Eh)            E(eV)
   0   2.0000     -20.206484      -549.8464
   1   2.0000     -11.038453      -300.3716
   2   2.0000     -11.037935      -300.3575
   3   2.0000     -11.030108      -300.1445
   4   2.0000      -0.996395       -27.1133
   5   2.0000      -0.852481       -23.1972
   6   2.0000      -0.706493       -19.2247
   7   2.0000      -0.575204       -15.6521
   8   2.0000      -0.439593       -11.9619
   9   2.0000      -0.427829       -11.6418
  10   2.0000      -0.372915       -10.1475
  11   2.0000      -0.337256        -9.1772
  12   2.0000      -0.303493        -8.2585
  13   2.0000      -0.294401        -8.0111
  14   2.0000      -0.256423        -6.9776
  15   2.0000      -0.115612        -3.1460
  16   2.0000      -0.113213        -3.0807
  17   0.0000       0.122143         3.3237
  18   0.0000       0.134264         3.6535
  19   0.0000       0.137395         3.7387
  20   0.0000       0.148733         4.0472
  21   0.0000       0.155293         4.2257

MULLIKEN ATOMIC CHARGES
-----------------------
   0 C :   -0.929307
   1 C :   -0.486861
   2 H :    0.240889
   3 H :    0.242797
   4 C :   -0.180654
   5 H :    0.174199
   6 H :    0.204190
   7 O :   -1.136065
   8 H :    0.267681
   9 H :    0.278181
  10 H :    0.324948
Sum of atomic charges:   -1.0000000

LOEWDIN ATOMIC CHARGES
----------------------
   0 C :    0.542534
   1 C :    0.175695
   2 H :   -0.183165
   3 H :   -0.179276
   4 C :   -0.393256
   5 H :   -0.222973
   6 H :   -0.234286
   7 O :    0.115738
   8 H :   -0.215134
   9 H :   -0.201510
  10 H :   -0.204368

  Mayer bond orders larger than 0.100000
B(  0-C ,  1-C ) :   0.8184 B(  0-C ,  8-H ) :   0.9731 B(  0-C ,  9-H ) :   0.9382
B(  0-C , 10-H ) :   0.9045 B(  1-C ,  2-H ) :   0.9494 B(  1-C ,  3-H ) :   0.9523
B(  1-C ,  4-C ) :   0.8583 B(  4-C ,  5-H ) :   1.0113 B(  4-C ,  6-H ) :   1.0310
B(  4-C ,  7-O ) :   1.0964

E(0)                                       ...   -192.559279898
E(0)                                       ...   -192.559279898
E(CORR)(strong-pairs)                      ...     -0.838534338
E(CORR)(weak-pairs)                        ...     -0.000683918
E(CORR)(corrected)                         ...     -0.839218256
E(TOT)                                     ...   -193.398498154
E(CCSD(T))                                 ...   -193.432551810
FINAL SINGLE POINT ENERGY      -193.432551809789

DIPOLE MOMENT
-------------
                                X             Y             Z
Electronic contribution:      0.98375      -0.21964       2.66866
Nuclear contribution   :     -1.95025       0.39850      -4.64834
                        -----------------------------------------
Total Dipole Moment    :     -0.96650       0.17886      -1.97968
                        -----------------------------------------
Magnitude (a.u.)       :      2.21026
Magnitude (Debye)      :      5.61802

Rotational constants in cm-1:     0.507767     0.175836     0.148827
Rotational constants in MHz : 15222.471408  5271.439482  4461.706759

                             ****ORCA TERMINATED NORMALLY****
TOTAL RUN TIME: 0 days 0 hours 5 minutes 48 seconds 615 msec
