                         Program Version 5.0.0 -  RELEASE  -
|  1> !DLPNO-CCSD(T) aug-cc-pVTZ aug-cc-pVTZ/C TightSCF TightPNO RIJCOSX def2/J
|  2> *xyz 1 1
|  3> C          3.48828        1.60092       -1.52204
|  4> C          4.34297        1.31342       -2.75683
|  5> N          2.81029        0.42878       -1.01420
|  6> H          5.13203        0.60499       -2.48447
|  7> C          3.53590        0.74925       -3.92460
|  8> H          4.84125        2.24214       -3.05408
|  9> H          2.71455        2.33145       -1.76030
| 10> H          4.09099        2.06315       -0.73338
| 11> C          3.29098       -0.41802       -0.12908
| 12> N          2.51754       -1.43202        0.23936
| 13> N          4.53549       -0.28441        0.39580
| 14> H          5.04363        0.57189        0.22290
| 15> H          4.72335       -0.73327        1.28180
| 16> H          1.93479        0.10230       -1.40379
| 17> H          1.67464       -1.50562       -0.31610
| 18> H          2.92850       -2.21850        0.72549
| 19> H          4.18704        0.56990       -4.75451
| 20> H          2.78096        1.45217       -4.20898
| 21> H          3.07436       -0.16949       -3.62832
| 22> *
| 23> %MaxCore 64000
| 24>
| 25> %pal nprocs 2
| 26> end
| 27>
| 28> %scf
| 29>   MaxIter 150
| 30> end
| 31>
| 32>
| 33>                          ****END OF INPUT****

CARTESIAN COORDINATES (ANGSTROEM)
---------------------------------
  C      3.488280    1.600920   -1.522040
  C      4.342970    1.313420   -2.756830
  N      2.810290    0.428780   -1.014200
  H      5.132030    0.604990   -2.484470
  C      3.535900    0.749250   -3.924600
  H      4.841250    2.242140   -3.054080
  H      2.714550    2.331450   -1.760300
  H      4.090990    2.063150   -0.733380
  C      3.290980   -0.418020   -0.129080
  N      2.517540   -1.432020    0.239360
  N      4.535490   -0.284410    0.395800
  H      5.043630    0.571890    0.222900
  H      4.723350   -0.733270    1.281800
  H      1.934790    0.102300   -1.403790
  H      1.674640   -1.505620   -0.316100
  H      2.928500   -2.218500    0.725490
  H      4.187040    0.569900   -4.754510
  H      2.780960    1.452170   -4.208980
  H      3.074360   -0.169490   -3.628320

 Total Charge           Charge          ....    1
 Multiplicity           Mult            ....    1
 Number of Electrons    NEL             ....   56
 Basis Dimension        Dim             ....  598

ORBITAL ENERGIES
----------------

  NO   OCC          E(Eh)            E(eV)
   0   2.0000     -15.786204      -429.5644
   1   2.0000     -15.785463      -429.5443
   2   2.0000     -15.782613      -429.4667
   3   2.0000     -11.584885      -315.2408
   4   2.0000     -11.431263      -311.0605
   5   2.0000     -11.364425      -309.2417
   6   2.0000     -11.335516      -308.4551
   7   2.0000      -1.544113       -42.0174
   8   2.0000      -1.406454       -38.2716
   9   2.0000      -1.388859       -37.7928
  10   2.0000      -1.209325       -32.9074
  11   2.0000      -1.106259       -30.1028
  12   2.0000      -1.038453       -28.2578
  13   2.0000      -0.977955       -26.6115
  14   2.0000      -0.963646       -26.2221
  15   2.0000      -0.927009       -25.2252
  16   2.0000      -0.860814       -23.4239
  17   2.0000      -0.850942       -23.1553
  18   2.0000      -0.820583       -22.3292
  19   2.0000      -0.804588       -21.8939
  20   2.0000      -0.758939       -20.6518
  21   2.0000      -0.739907       -20.1339
  22   2.0000      -0.706020       -19.2118
  23   2.0000      -0.652904       -17.7664
  24   2.0000      -0.630956       -17.1692
  25   2.0000      -0.629331       -17.1250
  26   2.0000      -0.618779       -16.8378
  27   2.0000      -0.579344       -15.7648
  28   0.0000      -0.091782        -2.4975
  29   0.0000      -0.074925        -2.0388
  30   0.0000      -0.066584        -1.8118
  31   0.0000      -0.057461        -1.5636
  32   0.0000      -0.046839        -1.2745

MULLIKEN ATOMIC CHARGES
-----------------------
   0 C :   -0.467743
   1 C :   -0.383453
   2 N :   -0.079106
   3 H :    0.212216
   4 C :   -0.933524
   5 H :    0.356452
   6 H :    0.394030
   7 H :    0.259184
   8 C :    0.722887
   9 N :   -0.492870
  10 N :   -0.292477
  11 H :    0.216681
  12 H :    0.134488
  13 H :    0.139062
  14 H :    0.138446
  15 H :    0.174092
  16 H :    0.294186
  17 H :    0.279100
  18 H :    0.328347
Sum of atomic charges:    1.0000000

LOEWDIN ATOMIC CHARGES
----------------------
   0 C :    0.243850
   1 C :    0.297404
   2 N :    0.623218
   3 H :   -0.143807
   4 C :    0.619286
   5 H :   -0.129080
   6 H :   -0.120570
   7 H :   -0.139347
   8 C :   -0.356911
   9 N :    0.942810
  10 N :    0.953069
  11 H :   -0.283638
  12 H :   -0.245310
  13 H :   -0.244156
  14 H :   -0.257397
  15 H :   -0.232340
  16 H :   -0.165664
  17 H :   -0.172704
  18 H :   -0.188712

  Mayer bond orders larger than 0.100000
B(  0-C ,  1-C ) :   0.9427 B(  0-C ,  2-N ) :   0.9625 B(  0-C ,  6-H ) :   0.8632
B(  0-C ,  7-H ) :   0.9592 B(  0-C ,  8-C ) :  -0.1022 B(  1-C ,  3-H ) :   0.9717
B(  1-C ,  4-C ) :   0.8250 B(  1-C ,  5-H ) :   0.8715 B(  2-N ,  8-C ) :   0.9145
B(  2-N ,  9-N ) :  -0.1283 B(  2-N , 13-H ) :   1.0464 B(  4-C , 16-H ) :   0.9808
B(  4-C , 17-H ) :   0.9444 B(  4-C , 18-H ) :   0.9104 B(  8-C ,  9-N ) :   1.0196
B(  8-C , 10-N ) :   0.9308 B(  9-N , 10-N ) :  -0.1266 B(  9-N , 14-H ) :   1.0830
B(  9-N , 15-H ) :   1.0613 B( 10-N , 11-H ) :   0.9784 B( 10-N , 12-H ) :   1.0518

E(0)                                       ...   -321.752196409
E(0)                                       ...   -321.752196409
E(CORR)(strong-pairs)                      ...     -1.370400136
E(CORR)(weak-pairs)                        ...     -0.001603949
E(CORR)(corrected)                         ...     -1.372004086
E(TOT)                                     ...   -323.124200495
E(CCSD(T))                                 ...   -323.179267623
FINAL SINGLE POINT ENERGY      -323.179267622574

DIPOLE MOMENT
-------------
                                X             Y             Z
Electronic contribution:     -1.35309      -2.90321       6.40332
Nuclear contribution   :      1.03951       2.07316      -5.00363
                        -----------------------------------------
Total Dipole Moment    :     -0.31358      -0.83005       1.39969
                        -----------------------------------------
Magnitude (a.u.)       :      1.65725
Magnitude (Debye)      :      4.21238

Rotational constants in cm-1:     0.160664     0.048801     0.043832
Rotational constants in MHz :  4816.589604  1463.007061  1314.037102

                             ****ORCA TERMINATED NORMALLY****
TOTAL RUN TIME: 0 days 2 hours 7 minutes 21 seconds 699 msec
