                         Program Version 5.0.0 -  RELEASE  -
|  1> !DLPNO-CCSD(T) aug-cc-pVTZ aug-cc-pVTZ/C TightSCF TightPNO RIJCOSX def2/J
|  2> *xyz 0 1
|  3> C         -0.15102        0.25496       -4.09426
|  4> C         -0.72184       -0.99951       -3.43931
|  5> H         -1.08340       -1.69755       -4.20566
|  6> H         -1.58106       -0.72385       -2.82049
|  7> C          0.28725       -1.71177       -2.52740
|  8> H          1.13178       -2.06738       -3.15940
|  9> H         -0.20414       -2.63733       -2.17048
| 10> F          0.71050       -0.92751       -1.48177
| 11> H         -0.89787        0.70479       -4.71455
| 12> H          0.69695       -0.00870       -4.69119
| 13> H          0.14812        0.94842       -3.33628
| 14> *
| 15> %MaxCore 64000
| 16>
| 17> %pal nprocs 8
| 18> end
| 19>
| 20> %scf
| 21>   MaxIter 150
| 22> end
| 23>
| 24>
| 25>                          ****END OF INPUT****

CARTESIAN COORDINATES (ANGSTROEM)
---------------------------------
  C     -0.151020    0.254960   -4.094260
  C     -0.721840   -0.999510   -3.439310
  H     -1.083400   -1.697550   -4.205660
  H     -1.581060   -0.723850   -2.820490
  C      0.287250   -1.711770   -2.527400
  H      1.131780   -2.067380   -3.159400
  H     -0.204140   -2.637330   -2.170480
  F      0.710500   -0.927510   -1.481770
  H     -0.897870    0.704790   -4.714550
  H      0.696950   -0.008700   -4.691190
  H      0.148120    0.948420   -3.336280

 Total Charge           Charge          ....    0
 Multiplicity           Mult            ....    1
 Number of Electrons    NEL             ....   34
 Basis Dimension        Dim             ....  345

ORBITAL ENERGIES
----------------

  NO   OCC          E(Eh)            E(eV)
   0   2.0000     -26.283014      -715.1972
   1   2.0000     -11.308505      -307.7201
   2   2.0000     -11.230147      -305.5878
   3   2.0000     -11.208237      -304.9916
   4   2.0000      -1.593804       -43.3696
   5   2.0000      -1.063896       -28.9501
   6   2.0000      -0.938554       -25.5393
   7   2.0000      -0.818095       -22.2615
   8   2.0000      -0.703549       -19.1445
   9   2.0000      -0.698989       -19.0204
  10   2.0000      -0.663966       -18.0674
  11   2.0000      -0.607415       -16.5286
  12   2.0000      -0.578941       -15.7538
  13   2.0000      -0.539113       -14.6700
  14   2.0000      -0.501894       -13.6572
  15   2.0000      -0.476197       -12.9580
  16   2.0000      -0.474414       -12.9095
  17   0.0000       0.030191         0.8215
  18   0.0000       0.038574         1.0496
  19   0.0000       0.040386         1.0990
  20   0.0000       0.045797         1.2462
  21   0.0000       0.062594         1.7033

MULLIKEN ATOMIC CHARGES
-----------------------
   0 C :   -0.927096
   1 C :   -0.517381
   2 H :    0.300968
   3 H :    0.259650
   4 C :   -0.090217
   5 H :    0.266198
   6 H :    0.303618
   7 F :   -0.502536
   8 H :    0.300641
   9 H :    0.294287
  10 H :    0.311868
Sum of atomic charges:    0.0000000

LOEWDIN ATOMIC CHARGES
----------------------
   0 C :    0.587446
   1 C :    0.246008
   2 H :   -0.146363
   3 H :   -0.158628
   4 C :   -0.103009
   5 H :   -0.158605
   6 H :   -0.169091
   7 F :    0.461190
   8 H :   -0.185990
   9 H :   -0.187337
  10 H :   -0.185620

  Mayer bond orders larger than 0.100000
B(  0-C ,  1-C ) :   0.8446 B(  0-C ,  8-H ) :   0.9500 B(  0-C ,  9-H ) :   0.9253
B(  0-C , 10-H ) :   0.9203 B(  1-C ,  2-H ) :   0.9128 B(  1-C ,  3-H ) :   0.9422
B(  1-C ,  4-C ) :   0.9139 B(  4-C ,  5-H ) :   0.9535 B(  4-C ,  6-H ) :   0.9523
B(  4-C ,  7-F ) :   0.5979

E(0)                                       ...   -217.195614687
E(0)                                       ...   -217.195614687
E(CORR)(strong-pairs)                      ...     -0.831791220
E(CORR)(weak-pairs)                        ...     -0.000650399
E(CORR)(corrected)                         ...     -0.832441619
E(TOT)                                     ...   -218.028056306
E(CCSD(T))                                 ...   -218.056797619
FINAL SINGLE POINT ENERGY      -218.056797618555

DIPOLE MOMENT
-------------
                                X             Y             Z
Electronic contribution:      2.45959      -0.85276       5.71486
Nuclear contribution   :     -2.76068       0.49992      -6.33880
                        -----------------------------------------
Total Dipole Moment    :     -0.30110      -0.35284      -0.62394
                        -----------------------------------------
Magnitude (a.u.)       :      0.77747
Magnitude (Debye)      :      1.97618

Rotational constants in cm-1:     0.493380     0.165620     0.140427
Rotational constants in MHz : 14791.174622  4965.163858  4209.902284

                             ****ORCA TERMINATED NORMALLY****
TOTAL RUN TIME: 0 days 0 hours 4 minutes 7 seconds 991 msec
