                         Program Version 5.0.0 -  RELEASE  -
|  1> !DLPNO-CCSD(T) aug-cc-pVTZ aug-cc-pVTZ/C TightSCF TightPNO RIJCOSX def2/J
|  2> *xyz 0 1
|  3> C          3.48828        1.60092       -1.52204
|  4> C          4.34297        1.31342       -2.75683
|  5> C          2.81029        0.42878       -1.01420
|  6> H          5.13203        0.60499       -2.48447
|  7> C          3.53590        0.74925       -3.92460
|  8> H          4.84125        2.24214       -3.05408
|  9> H          2.71455        2.33145       -1.76030
| 10> H          4.09099        2.06315       -0.73338
| 11> C          3.29098       -0.41802       -0.12908
| 12> N          2.51754       -1.43202        0.23936
| 13> N          4.53549       -0.28441        0.39580
| 14> H          5.04363        0.57189        0.22290
| 15> H          4.72335       -0.73327        1.28180
| 16> H          1.93479        0.10230       -1.40379
| 17> H          1.67464       -1.50562       -0.31610
| 18> H          2.92850       -2.21850        0.72549
| 19> H          4.18704        0.56990       -4.75451
| 20> H          2.78096        1.45217       -4.20898
| 21> H          3.07436       -0.16949       -3.62832
| 22> *
| 23> %MaxCore 64000
| 24>
| 25> %pal nprocs 2
| 26> end
| 27>
| 28> %scf
| 29>   MaxIter 150
| 30> end
| 31>
| 32>
| 33>                          ****END OF INPUT****

CARTESIAN COORDINATES (ANGSTROEM)
---------------------------------
  C      3.488280    1.600920   -1.522040
  C      4.342970    1.313420   -2.756830
  C      2.810290    0.428780   -1.014200
  H      5.132030    0.604990   -2.484470
  C      3.535900    0.749250   -3.924600
  H      4.841250    2.242140   -3.054080
  H      2.714550    2.331450   -1.760300
  H      4.090990    2.063150   -0.733380
  C      3.290980   -0.418020   -0.129080
  N      2.517540   -1.432020    0.239360
  N      4.535490   -0.284410    0.395800
  H      5.043630    0.571890    0.222900
  H      4.723350   -0.733270    1.281800
  H      1.934790    0.102300   -1.403790
  H      1.674640   -1.505620   -0.316100
  H      2.928500   -2.218500    0.725490
  H      4.187040    0.569900   -4.754510
  H      2.780960    1.452170   -4.208980
  H      3.074360   -0.169490   -3.628320

 Total Charge           Charge          ....    0
 Multiplicity           Mult            ....    1
 Number of Electrons    NEL             ....   56
 Basis Dimension        Dim             ....  598

ORBITAL ENERGIES
----------------

  NO   OCC          E(Eh)            E(eV)
   0   2.0000     -15.562015      -423.4640
   1   2.0000     -15.557494      -423.3409
   2   2.0000     -11.278481      -306.9031
   3   2.0000     -11.199423      -304.7518
   4   2.0000     -11.197498      -304.6994
   5   2.0000     -11.188545      -304.4558
   6   2.0000     -11.140381      -303.1452
   7   2.0000      -1.275717       -34.7140
   8   2.0000      -1.164491       -31.6874
   9   2.0000      -1.065649       -28.9978
  10   2.0000      -0.985005       -26.8034
  11   2.0000      -0.899857       -24.4864
  12   2.0000      -0.806275       -21.9399
  13   2.0000      -0.771307       -20.9883
  14   2.0000      -0.717548       -19.5255
  15   2.0000      -0.691023       -18.8037
  16   2.0000      -0.631769       -17.1913
  17   2.0000      -0.607590       -16.5334
  18   2.0000      -0.604691       -16.4545
  19   2.0000      -0.566993       -15.4287
  20   2.0000      -0.553043       -15.0491
  21   2.0000      -0.527192       -14.3456
  22   2.0000      -0.511459       -13.9175
  23   2.0000      -0.469679       -12.7806
  24   2.0000      -0.456074       -12.4104
  25   2.0000      -0.452405       -12.3106
  26   2.0000      -0.415987       -11.3196
  27   2.0000      -0.263474        -7.1695
  28   0.0000       0.025023         0.6809
  29   0.0000       0.034943         0.9509
  30   0.0000       0.038336         1.0432
  31   0.0000       0.042752         1.1633
  32   0.0000       0.050624         1.3776

MULLIKEN ATOMIC CHARGES
-----------------------
   0 C :   -0.283673
   1 C :   -0.479970
   2 C :   -0.226096
   3 H :    0.223900
   4 C :   -0.975247
   5 H :    0.303701
   6 H :    0.298422
   7 H :    0.102377
   8 C :    0.620665
   9 N :   -0.566342
  10 N :   -0.459394
  11 H :    0.122140
  12 H :    0.102363
  13 H :    0.168221
  14 H :    0.054958
  15 H :    0.117408
  16 H :    0.266215
  17 H :    0.265233
  18 H :    0.345119
Sum of atomic charges:   -0.0000000

LOEWDIN ATOMIC CHARGES
----------------------
   0 C :    0.225551
   1 C :    0.268587
   2 C :    0.189508
   3 H :   -0.148009
   4 C :    0.598018
   5 H :   -0.149375
   6 H :   -0.147386
   7 H :   -0.160392
   8 C :   -0.417390
   9 N :    0.854449
  10 N :    0.878010
  11 H :   -0.307669
  12 H :   -0.284807
  13 H :   -0.273541
  14 H :   -0.291992
  15 H :   -0.275982
  16 H :   -0.184796
  17 H :   -0.180723
  18 H :   -0.192060

  Mayer bond orders larger than 0.100000
B(  0-C ,  1-C ) :   0.9093 B(  0-C ,  2-C ) :   0.7110 B(  0-C ,  6-H ) :   1.0066
B(  0-C ,  7-H ) :   1.0048 B(  1-C ,  2-C ) :   0.1072 B(  1-C ,  3-H ) :   0.9474
B(  1-C ,  4-C ) :   0.8191 B(  1-C ,  5-H ) :   0.9495 B(  2-C ,  8-C ) :   1.2660
B(  2-C ,  9-N ) :  -0.2038 B(  2-C , 10-N ) :  -0.1301 B(  2-C , 13-H ) :   1.0211
B(  4-C , 16-H ) :   0.9912 B(  4-C , 17-H ) :   0.9583 B(  4-C , 18-H ) :   0.9252
B(  7-H ,  8-C ) :   0.1449 B(  8-C ,  9-N ) :   0.7331 B(  8-C , 10-N ) :   0.7603
B(  8-C , 13-H ) :   0.2024 B(  9-N , 10-N ) :  -0.1606 B(  9-N , 14-H ) :   1.1499
B(  9-N , 15-H ) :   1.1024 B( 10-N , 11-H ) :   1.0759 B( 10-N , 12-H ) :   1.0703

E(0)                                       ...   -305.301046281
E(0)                                       ...   -305.301046281
E(CORR)(strong-pairs)                      ...     -1.353890049
E(CORR)(weak-pairs)                        ...     -0.001645746
E(CORR)(corrected)                         ...     -1.355535796
E(TOT)                                     ...   -306.656582077
E(CCSD(T))                                 ...   -306.711960436
FINAL SINGLE POINT ENERGY      -306.711960436148

DIPOLE MOMENT
-------------
                                X             Y             Z
Electronic contribution:     -0.67660      -2.67142       5.55685
Nuclear contribution   :      0.88816       2.11069      -4.95634
                        -----------------------------------------
Total Dipole Moment    :      0.21156      -0.56072       0.60052
                        -----------------------------------------
Magnitude (a.u.)       :      0.84840
Magnitude (Debye)      :      2.15647

Rotational constants in cm-1:     0.162296     0.048922     0.043870
Rotational constants in MHz :  4865.524396  1466.649652  1315.198467

                             ****ORCA TERMINATED NORMALLY****
TOTAL RUN TIME: 0 days 2 hours 13 minutes 23 seconds 562 msec
