                         Program Version 5.0.0 -  RELEASE  -
|  1> !DLPNO-CCSD(T) aug-cc-pVTZ aug-cc-pVTZ/C TightSCF TightPNO RIJCOSX def2/J
|  2> *xyz 0 1
|  3> C          3.48828        1.60092       -1.52204
|  4> C          4.34297        1.31342       -2.75683
|  5> N          2.81029        0.42878       -1.01420
|  6> H          5.13203        0.60499       -2.48447
|  7> C          3.53590        0.74925       -3.92460
|  8> H          4.84125        2.24214       -3.05408
|  9> H          2.71455        2.33145       -1.76030
| 10> H          4.09099        2.06315       -0.73338
| 11> C          3.29098       -0.41802       -0.12908
| 12> C          2.51754       -1.43202        0.23936
| 13> N          4.53549       -0.28441        0.39580
| 14> H          5.04363        0.57189        0.22290
| 15> H          4.72335       -0.73327        1.28180
| 16> H          1.93479        0.10230       -1.40379
| 17> H          1.67464       -1.50562       -0.31610
| 18> H          2.92850       -2.21850        0.72549
| 19> H          4.18704        0.56990       -4.75451
| 20> H          2.78096        1.45217       -4.20898
| 21> H          3.07436       -0.16949       -3.62832
| 22> *
| 23> %MaxCore 64000
| 24>
| 25> %pal nprocs 2
| 26> end
| 27>
| 28> %scf
| 29>   MaxIter 150
| 30> end
| 31>
| 32>
| 33>                          ****END OF INPUT****

CARTESIAN COORDINATES (ANGSTROEM)
---------------------------------
  C      3.488280    1.600920   -1.522040
  C      4.342970    1.313420   -2.756830
  N      2.810290    0.428780   -1.014200
  H      5.132030    0.604990   -2.484470
  C      3.535900    0.749250   -3.924600
  H      4.841250    2.242140   -3.054080
  H      2.714550    2.331450   -1.760300
  H      4.090990    2.063150   -0.733380
  C      3.290980   -0.418020   -0.129080
  C      2.517540   -1.432020    0.239360
  N      4.535490   -0.284410    0.395800
  H      5.043630    0.571890    0.222900
  H      4.723350   -0.733270    1.281800
  H      1.934790    0.102300   -1.403790
  H      1.674640   -1.505620   -0.316100
  H      2.928500   -2.218500    0.725490
  H      4.187040    0.569900   -4.754510
  H      2.780960    1.452170   -4.208980
  H      3.074360   -0.169490   -3.628320

 Total Charge           Charge          ....    0
 Multiplicity           Mult            ....    1
 Number of Electrons    NEL             ....   56
 Basis Dimension        Dim             ....  598

ORBITAL ENERGIES
----------------

  NO   OCC          E(Eh)            E(eV)
   0   2.0000     -15.562402      -423.4745
   1   2.0000     -15.559211      -423.3876
   2   2.0000     -11.285853      -307.1037
   3   2.0000     -11.268658      -306.6358
   4   2.0000     -11.225201      -305.4533
   5   2.0000     -11.210389      -305.0502
   6   2.0000     -11.125505      -302.7404
   7   2.0000      -1.289328       -35.0844
   8   2.0000      -1.181863       -32.1601
   9   2.0000      -1.065302       -28.9883
  10   2.0000      -0.987561       -26.8729
  11   2.0000      -0.916519       -24.9398
  12   2.0000      -0.823710       -22.4143
  13   2.0000      -0.793234       -21.5850
  14   2.0000      -0.716701       -19.5024
  15   2.0000      -0.678811       -18.4714
  16   2.0000      -0.648328       -17.6419
  17   2.0000      -0.623498       -16.9662
  18   2.0000      -0.607181       -16.5222
  19   2.0000      -0.570559       -15.5257
  20   2.0000      -0.547358       -14.8944
  21   2.0000      -0.544219       -14.8089
  22   2.0000      -0.535404       -14.5691
  23   2.0000      -0.495549       -13.4846
  24   2.0000      -0.493451       -13.4275
  25   2.0000      -0.484254       -13.1772
  26   2.0000      -0.402110       -10.9420
  27   2.0000      -0.263434        -7.1684
  28   0.0000       0.025991         0.7072
  29   0.0000       0.033296         0.9060
  30   0.0000       0.037202         1.0123
  31   0.0000       0.037681         1.0253
  32   0.0000       0.051963         1.4140

MULLIKEN ATOMIC CHARGES
-----------------------
   0 C :   -0.537090
   1 C :   -0.383177
   2 N :   -0.095085
   3 H :    0.212845
   4 C :   -0.969873
   5 H :    0.348777
   6 H :    0.383852
   7 H :    0.264966
   8 C :    0.593018
   9 C :   -1.284812
  10 N :   -0.460196
  11 H :    0.162949
  12 H :    0.059313
  13 H :    0.061496
  14 H :    0.321541
  15 H :    0.444338
  16 H :    0.276660
  17 H :    0.258872
  18 H :    0.341606
Sum of atomic charges:    0.0000000

LOEWDIN ATOMIC CHARGES
----------------------
   0 C :    0.210414
   1 C :    0.280317
   2 N :    0.567416
   3 H :   -0.146961
   4 C :    0.603389
   5 H :   -0.146304
   6 H :   -0.139508
   7 H :   -0.152318
   8 C :   -0.450571
   9 C :    0.542855
  10 N :    0.875578
  11 H :   -0.320715
  12 H :   -0.273045
  13 H :   -0.270696
  14 H :   -0.324596
  15 H :   -0.306159
  16 H :   -0.180424
  17 H :   -0.181660
  18 H :   -0.187012

  Mayer bond orders larger than 0.100000
B(  0-C ,  1-C ) :   0.9363 B(  0-C ,  2-N ) :   1.0612 B(  0-C ,  6-H ) :   0.8830
B(  0-C ,  7-H ) :   0.9527 B(  0-C ,  8-C ) :  -0.1015 B(  1-C ,  3-H ) :   0.9799
B(  1-C ,  4-C ) :   0.8132 B(  1-C ,  5-H ) :   0.8711 B(  2-N ,  8-C ) :   0.5365
B(  2-N ,  9-C ) :  -0.2595 B(  2-N , 13-H ) :   1.1448 B(  4-C , 16-H ) :   0.9940
B(  4-C , 17-H ) :   0.9598 B(  4-C , 18-H ) :   0.8986 B(  8-C ,  9-C ) :   1.1828
B(  8-C , 10-N ) :   0.7477 B(  8-C , 11-H ) :  -0.1054 B(  8-C , 13-H ) :  -0.1088
B(  9-C , 10-N ) :  -0.2147 B(  9-C , 14-H ) :   1.0461 B(  9-C , 15-H ) :   0.8553
B( 10-N , 11-H ) :   1.0319 B( 10-N , 12-H ) :   1.1395

E(0)                                       ...   -305.291074406
E(0)                                       ...   -305.291074406
E(CORR)(strong-pairs)                      ...     -1.350530514
E(CORR)(weak-pairs)                        ...     -0.001607069
E(CORR)(corrected)                         ...     -1.352137583
E(TOT)                                     ...   -306.643211989
E(CCSD(T))                                 ...   -306.698484451
FINAL SINGLE POINT ENERGY      -306.698484451070

DIPOLE MOMENT
-------------
                                X             Y             Z
Electronic contribution:     -0.23511      -0.72469       4.22701
Nuclear contribution   :      0.82404       1.70307      -4.68174
                        -----------------------------------------
Total Dipole Moment    :      0.58892       0.97838      -0.45473
                        -----------------------------------------
Magnitude (a.u.)       :      1.22916
Magnitude (Debye)      :      3.12428

Rotational constants in cm-1:     0.164049     0.050262     0.045260
Rotational constants in MHz :  4918.051182  1506.829450  1356.872102

                             ****ORCA TERMINATED NORMALLY****
TOTAL RUN TIME: 0 days 2 hours 7 minutes 37 seconds 809 msec
