                         Program Version 5.0.0 -  RELEASE  -
|  1> !DLPNO-CCSD(T) aug-cc-pVTZ aug-cc-pVTZ/C TightSCF TightPNO RIJCOSX def2/J
|  2> *xyz 0 1
|  3> C          3.48828        1.60092       -1.52204
|  4> C          4.34297        1.31342       -2.75683
|  5> N          2.81029        0.42878       -1.01420
|  6> H          5.13203        0.60499       -2.48447
|  7> C          3.53590        0.74925       -3.92460
|  8> H          4.84125        2.24214       -3.05408
|  9> H          2.71455        2.33145       -1.76030
| 10> H          4.09099        2.06315       -0.73338
| 11> C          3.29098       -0.41802       -0.12908
| 12> N          2.51754       -1.43202        0.23936
| 13> C          4.53549       -0.28441        0.39580
| 14> H          5.04363        0.57189        0.22290
| 15> H          4.72335       -0.73327        1.28180
| 16> H          1.93479        0.10230       -1.40379
| 17> H          1.67464       -1.50562       -0.31610
| 18> H          2.92850       -2.21850        0.72549
| 19> H          4.18704        0.56990       -4.75451
| 20> H          2.78096        1.45217       -4.20898
| 21> H          3.07436       -0.16949       -3.62832
| 22> *
| 23> %MaxCore 64000
| 24>
| 25> %pal nprocs 2
| 26> end
| 27>
| 28> %scf
| 29>   MaxIter 150
| 30> end
| 31>
| 32>
| 33>                          ****END OF INPUT****

CARTESIAN COORDINATES (ANGSTROEM)
---------------------------------
  C      3.488280    1.600920   -1.522040
  C      4.342970    1.313420   -2.756830
  N      2.810290    0.428780   -1.014200
  H      5.132030    0.604990   -2.484470
  C      3.535900    0.749250   -3.924600
  H      4.841250    2.242140   -3.054080
  H      2.714550    2.331450   -1.760300
  H      4.090990    2.063150   -0.733380
  C      3.290980   -0.418020   -0.129080
  N      2.517540   -1.432020    0.239360
  C      4.535490   -0.284410    0.395800
  H      5.043630    0.571890    0.222900
  H      4.723350   -0.733270    1.281800
  H      1.934790    0.102300   -1.403790
  H      1.674640   -1.505620   -0.316100
  H      2.928500   -2.218500    0.725490
  H      4.187040    0.569900   -4.754510
  H      2.780960    1.452170   -4.208980
  H      3.074360   -0.169490   -3.628320

 Total Charge           Charge          ....    0
 Multiplicity           Mult            ....    1
 Number of Electrons    NEL             ....   56
 Basis Dimension        Dim             ....  598

ORBITAL ENERGIES
----------------

  NO   OCC          E(Eh)            E(eV)
   0   2.0000     -15.566560      -423.5876
   1   2.0000     -15.565611      -423.5618
   2   2.0000     -11.289688      -307.2080
   3   2.0000     -11.260919      -306.4252
   4   2.0000     -11.216932      -305.2282
   5   2.0000     -11.206767      -304.9516
   6   2.0000     -11.126816      -302.7761
   7   2.0000      -1.300223       -35.3809
   8   2.0000      -1.188844       -32.3501
   9   2.0000      -1.051508       -28.6130
  10   2.0000      -0.968299       -26.3488
  11   2.0000      -0.938068       -25.5261
  12   2.0000      -0.826600       -22.4929
  13   2.0000      -0.758219       -20.6322
  14   2.0000      -0.726072       -19.7574
  15   2.0000      -0.712712       -19.3939
  16   2.0000      -0.641863       -17.4660
  17   2.0000      -0.618388       -16.8272
  18   2.0000      -0.601313       -16.3625
  19   2.0000      -0.563658       -15.3379
  20   2.0000      -0.560532       -15.2528
  21   2.0000      -0.536442       -14.5973
  22   2.0000      -0.525666       -14.3041
  23   2.0000      -0.494635       -13.4597
  24   2.0000      -0.487565       -13.2673
  25   2.0000      -0.476324       -12.9614
  26   2.0000      -0.393875       -10.7179
  27   2.0000      -0.265405        -7.2220
  28   0.0000       0.024368         0.6631
  29   0.0000       0.033707         0.9172
  30   0.0000       0.038708         1.0533
  31   0.0000       0.039246         1.0679
  32   0.0000       0.050486         1.3738

MULLIKEN ATOMIC CHARGES
-----------------------
   0 C :   -0.490152
   1 C :   -0.429984
   2 N :   -0.257836
   3 H :    0.225975
   4 C :   -0.966940
   5 H :    0.338156
   6 H :    0.388004
   7 H :    0.315063
   8 C :    0.739908
   9 N :   -0.587175
  10 C :   -1.245243
  11 H :    0.483295
  12 H :    0.289403
  13 H :    0.107227
  14 H :    0.097851
  15 H :    0.110202
  16 H :    0.270369
  17 H :    0.260825
  18 H :    0.351051
Sum of atomic charges:    0.0000000

LOEWDIN ATOMIC CHARGES
----------------------
   0 C :    0.214063
   1 C :    0.282974
   2 N :    0.568539
   3 H :   -0.146504
   4 C :    0.599093
   5 H :   -0.143944
   6 H :   -0.140048
   7 H :   -0.152572
   8 C :   -0.454803
   9 N :    0.865033
  10 C :    0.554785
  11 H :   -0.342875
  12 H :   -0.317707
  13 H :   -0.273473
  14 H :   -0.296250
  15 H :   -0.260760
  16 H :   -0.181038
  17 H :   -0.183638
  18 H :   -0.190877

  Mayer bond orders larger than 0.100000
B(  0-C ,  1-C ) :   0.9483 B(  0-C ,  2-N ) :   1.0552 B(  0-C ,  6-H ) :   0.8841
B(  0-C ,  7-H ) :   0.9245 B(  0-C ,  8-C ) :  -0.1420 B(  1-C ,  3-H ) :   0.9751
B(  1-C ,  4-C ) :   0.8098 B(  1-C ,  5-H ) :   0.8783 B(  2-N ,  8-C ) :   0.6652
B(  2-N ,  9-N ) :  -0.1841 B(  2-N , 13-H ) :   1.1292 B(  4-C , 16-H ) :   0.9990
B(  4-C , 17-H ) :   0.9555 B(  4-C , 18-H ) :   0.9001 B(  8-C ,  9-N ) :   0.8143
B(  8-C , 10-C ) :   1.0906 B(  8-C , 13-H ) :  -0.1328 B(  9-N , 10-C ) :  -0.1497
B(  9-N , 14-H ) :   1.1344 B(  9-N , 15-H ) :   1.1166 B( 10-C , 11-H ) :   0.7513
B( 10-C , 12-H ) :   1.0688

E(0)                                       ...   -305.290801208
E(0)                                       ...   -305.290801208
E(CORR)(strong-pairs)                      ...     -1.351197718
E(CORR)(weak-pairs)                        ...     -0.001616205
E(CORR)(corrected)                         ...     -1.352813923
E(TOT)                                     ...   -306.643615130
E(CCSD(T))                                 ...   -306.699112769
FINAL SINGLE POINT ENERGY      -306.699112769038

DIPOLE MOMENT
-------------
                                X             Y             Z
Electronic contribution:     -2.29008      -2.00724       4.02371
Nuclear contribution   :      1.26608       1.95446      -4.64747
                        -----------------------------------------
Total Dipole Moment    :     -1.02401      -0.05278      -0.62377
                        -----------------------------------------
Magnitude (a.u.)       :      1.20019
Magnitude (Debye)      :      3.05064

Rotational constants in cm-1:     0.166109     0.049557     0.044716
Rotational constants in MHz :  4979.835529  1485.675017  1340.540851

                             ****ORCA TERMINATED NORMALLY****
TOTAL RUN TIME: 0 days 2 hours 9 minutes 14 seconds 647 msec
