                         Program Version 5.0.0 -  RELEASE  -
|  1> !DLPNO-CCSD(T) aug-cc-pVTZ aug-cc-pVTZ/C TightSCF TightPNO RIJCOSX def2/J
|  2>
|  3> *xyzfile 0 1 D1.xyz
|  4>
|  5> %MaxCore 64000
|  6>
|  7> %pal nprocs 18
|  8> end
|  9>
| 10> %scf
| 11>   MaxIter 150
| 12> end
| 13>
| 14>
| 15>                          ****END OF INPUT****

CARTESIAN COORDINATES (ANGSTROEM)
---------------------------------
  C      3.488276    1.600919   -1.522040
  C      4.342970    1.313419   -2.756826
  C      2.810285    0.428783   -1.014196
  H      5.132033    0.604994   -2.484466
  C      3.535896    0.749253   -3.924604
  H      4.841247    2.242136   -3.054083
  H      2.991617   -0.132199   -3.574137
  H      4.225505    0.392784   -4.695962
  C      2.564776    1.750890   -4.544523
  H      1.918749    2.171679   -3.769419
  C      1.686235    1.161657   -5.650111
  H      3.132494    2.594775   -4.951604
  C      0.839616   -0.037582   -5.220473
  H      2.323886    0.866395   -6.490796
  H      1.029518    1.951850   -6.029329
  C     -0.151019    0.254955   -4.094256
  H      1.499442   -0.857141   -4.922958
  H      0.290097   -0.410143   -6.091131
  H      0.328265    0.833022   -3.299125
  C     -0.721843   -0.999513   -3.439309
  H     -0.957367    0.884951   -4.485450
  H     -1.083403   -1.697555   -4.205656
  H     -1.581056   -0.723848   -2.820490
  C      0.287250   -1.711771   -2.527405
  H      1.131780   -2.067380   -3.159396
  H     -0.204137   -2.637326   -2.170480
  F      0.710505   -0.927506   -1.481767
  H      2.714548    2.331455   -1.760302
  H      4.090991    2.063151   -0.733382
  C      3.290978   -0.418021   -0.129083
  N      2.517536   -1.432017    0.239360
  N      4.535490   -0.284410    0.395800
  H      5.043627    0.571888    0.222899
  H      4.723346   -0.733273    1.281800
  H      1.934787    0.102305   -1.403788
  H      1.674638   -1.505616   -0.316095
  H      2.928503   -2.218502    0.725494

 Total Charge           Charge          ....    0
 Multiplicity           Mult            ....    1
 Number of Electrons    NEL             ....  112
 Basis Dimension        Dim             .... 1173

ORBITAL ENERGIES
----------------

  NO   OCC          E(Eh)            E(eV)
   0   2.0000     -26.309032      -715.9052
   1   2.0000     -15.545998      -423.0281
   2   2.0000     -15.528050      -422.5397
   3   2.0000     -11.322090      -308.0897
   4   2.0000     -11.257808      -306.3405
   5   2.0000     -11.236126      -305.7505
   6   2.0000     -11.219605      -305.3010
   7   2.0000     -11.215582      -305.1915
   8   2.0000     -11.210962      -305.0658
   9   2.0000     -11.202635      -304.8392
  10   2.0000     -11.197105      -304.6887
  11   2.0000     -11.191893      -304.5469
  12   2.0000     -11.184386      -304.3426
  13   2.0000     -11.110042      -302.3196
  14   2.0000      -1.634715       -44.4829
  15   2.0000      -1.255660       -34.1682
  16   2.0000      -1.145906       -31.1817
  17   2.0000      -1.100242       -29.9391
  18   2.0000      -1.072263       -29.1778
  19   2.0000      -1.036460       -28.2035
  20   2.0000      -0.994244       -27.0547
  21   2.0000      -0.945506       -25.7285
  22   2.0000      -0.910046       -24.7636
  23   2.0000      -0.866328       -23.5740
  24   2.0000      -0.823201       -22.4004
  25   2.0000      -0.800677       -21.7875
  26   2.0000      -0.773777       -21.0555
  27   2.0000      -0.752716       -20.4825
  28   2.0000      -0.745474       -20.2854
  29   2.0000      -0.716099       -19.4861
  30   2.0000      -0.698723       -19.0132
  31   2.0000      -0.688313       -18.7299
  32   2.0000      -0.667401       -18.1609
  33   2.0000      -0.637047       -17.3349
  34   2.0000      -0.626973       -17.0608
  35   2.0000      -0.607820       -16.5396
  36   2.0000      -0.602829       -16.4038
  37   2.0000      -0.587975       -15.9996
  38   2.0000      -0.575100       -15.6493
  39   2.0000      -0.564634       -15.3645
  40   2.0000      -0.554686       -15.0938
  41   2.0000      -0.535140       -14.5619
  42   2.0000      -0.524642       -14.2762
  43   2.0000      -0.520299       -14.1581
  44   2.0000      -0.510971       -13.9042
  45   2.0000      -0.505215       -13.7476
  46   2.0000      -0.482409       -13.1270
  47   2.0000      -0.475658       -12.9433
  48   2.0000      -0.461788       -12.5659
  49   2.0000      -0.458143       -12.4667
  50   2.0000      -0.450218       -12.2510
  51   2.0000      -0.434584       -11.8256
  52   2.0000      -0.430206       -11.7065
  53   2.0000      -0.424750       -11.5580
  54   2.0000      -0.396175       -10.7805
  55   2.0000      -0.242864        -6.6087
  56   0.0000       0.024831         0.6757
  57   0.0000       0.030592         0.8325
  58   0.0000       0.032627         0.8878
  59   0.0000       0.034713         0.9446
  60   0.0000       0.041798         1.1374

MULLIKEN ATOMIC CHARGES
-----------------------
   0 C :   -0.511809
   1 C :   -0.669413
   2 C :   -0.679844
   3 H :    0.084671
   4 C :   -0.404065
   5 H :    0.230626
   6 H :    0.386615
   7 H :    0.261660
   8 C :   -0.331064
   9 H :    0.173344
  10 C :   -0.733606
  11 H :    0.320998
  12 C :   -0.284676
  13 H :    0.157894
  14 H :    0.135871
  15 C :   -0.362087
  16 H :    0.073353
  17 H :    0.470706
  18 H :    0.276040
  19 C :   -0.704231
  20 H :    0.262794
  21 H :    0.181400
  22 H :    0.259979
  23 C :   -0.213712
  24 H :    0.313734
  25 H :    0.368057
  26 F :   -0.647095
  27 H :    0.105030
  28 H :    0.173178
  29 C :    1.134562
  30 N :   -0.736646
  31 N :   -0.627390
  32 H :    0.129001
  33 H :    0.097039
  34 H :    0.854641
  35 H :    0.372869
  36 H :    0.081575
Sum of atomic charges:   -0.0000000

LOEWDIN ATOMIC CHARGES
----------------------
   0 C :    0.241725
   1 C :    0.301179
   2 C :    0.197026
   3 H :   -0.141590
   4 C :    0.289905
   5 H :   -0.144257
   6 H :   -0.176939
   7 H :   -0.130955
   8 C :    0.289420
   9 H :   -0.172341
  10 C :    0.303192
  11 H :   -0.131403
  12 C :    0.285808
  13 H :   -0.139934
  14 H :   -0.140126
  15 C :    0.288548
  16 H :   -0.178344
  17 H :   -0.135349
  18 H :   -0.168416
  19 C :    0.295242
  20 H :   -0.127972
  21 H :   -0.134734
  22 H :   -0.147857
  23 C :    0.013418
  24 H :   -0.146899
  25 H :   -0.146618
  26 F :    0.748546
  27 H :   -0.158351
  28 H :   -0.156968
  29 C :   -0.396160
  30 N :    0.863288
  31 N :    0.875799
  32 H :   -0.310729
  33 H :   -0.288057
  34 H :   -0.518565
  35 H :   -0.526315
  36 H :   -0.274216

  Mayer bond orders larger than 0.100000
B(  0-C ,  1-C ) :   1.0048 B(  0-C ,  2-C ) :   0.8107 B(  0-C ,  3-H ) :   0.1342
B(  0-C , 27-H ) :   1.1758 B(  0-C , 28-H ) :   1.0153 B(  1-C ,  3-H ) :   1.1011
B(  1-C ,  4-C ) :   0.9523 B(  1-C ,  5-H ) :   0.9892 B(  1-C , 27-H ) :   0.1187
B(  2-C , 26-F ) :   0.1167 B(  2-C , 27-H ) :  -0.1631 B(  2-C , 29-C ) :   1.2539
B(  2-C , 30-N ) :  -0.1295 B(  2-C , 34-H ) :   0.3176 B(  4-C ,  6-H ) :   0.8894
B(  4-C ,  7-H ) :   1.0128 B(  4-C ,  8-C ) :   0.8115 B(  6-H ,  8-C ) :   0.1259
B(  8-C ,  9-H ) :   1.0559 B(  8-C , 10-C ) :   0.8856 B(  8-C , 11-H ) :   0.9420
B( 10-C , 12-C ) :   0.9571 B( 10-C , 13-H ) :   1.0627 B( 10-C , 14-H ) :   1.0827
B( 10-C , 16-H ) :   0.1329 B( 12-C , 15-C ) :   0.7550 B( 12-C , 16-H ) :   1.1040
B( 12-C , 17-H ) :   0.8143 B( 13-H , 14-H ) :   0.1001 B( 15-C , 18-H ) :   1.0063
B( 15-C , 19-C ) :   0.9588 B( 15-C , 20-H ) :   0.9730 B( 15-C , 26-F ) :  -0.1262
B( 19-C , 21-H ) :   1.0534 B( 19-C , 22-H ) :   0.9804 B( 19-C , 23-C ) :   0.9047
B( 19-C , 26-F ) :   0.1796 B( 23-C , 24-H ) :   0.9686 B( 23-C , 25-H ) :   0.8946
B( 23-C , 26-F ) :   0.7834 B( 26-F , 34-H ) :  -0.4932 B( 28-H , 29-C ) :   0.1032
B( 29-C , 30-N ) :   0.4502 B( 29-C , 31-N ) :   0.3901 B( 29-C , 34-H ) :   0.2995
B( 29-C , 36-H ) :  -0.1327 B( 30-N , 31-N ) :  -0.1230 B( 30-N , 35-H ) :   0.9111
B( 30-N , 36-H ) :   1.1853 B( 31-N , 32-H ) :   1.0843 B( 31-N , 33-H ) :   1.1003

E(0)                                       ...   -638.432807051
E(0)                                       ...   -638.432807051
E(CORR)(strong-pairs)                      ...     -2.731093367
E(CORR)(weak-pairs)                        ...     -0.005035374
E(CORR)(corrected)                         ...     -2.736128741
E(TOT)                                     ...   -641.168935792
E(CCSD(T))                                 ...   -641.279893096
FINAL SINGLE POINT ENERGY      -641.279893095532

DIPOLE MOMENT
-------------
                                X             Y             Z
Electronic contribution:     -1.60160      -4.89135      10.65011
Nuclear contribution   :      1.15699       3.94991     -10.89335
                        -----------------------------------------
Total Dipole Moment    :     -0.44461      -0.94144      -0.24324
                        -----------------------------------------
Magnitude (a.u.)       :      1.06919
Magnitude (Debye)      :      2.71766

Rotational constants in cm-1:     0.026548     0.016177     0.010851
Rotational constants in MHz :   795.884848   484.988695   325.313537

                             ****ORCA TERMINATED NORMALLY****
TOTAL RUN TIME: 0 days 5 hours 21 minutes 49 seconds 287 msec
