                         Program Version 5.0.0 -  RELEASE  -
|  1> !DLPNO-CCSD(T) aug-cc-pVTZ aug-cc-pVTZ/C TightSCF TightPNO RIJCOSX def2/J
|  2>
|  3> *xyzfile 0 1 D3.xyz
|  4>
|  5> %MaxCore 64000
|  6>
|  7> %pal nprocs 18
|  8> end
|  9>
| 10> %scf
| 11>   MaxIter 150
| 12> end
| 13>
| 14>
| 15>                          ****END OF INPUT****

CARTESIAN COORDINATES (ANGSTROEM)
---------------------------------
  C      3.488276    1.600919   -1.522040
  C      4.342970    1.313419   -2.756826
  N      2.810285    0.428783   -1.014196
  H      5.132033    0.604994   -2.484466
  C      3.535896    0.749253   -3.924604
  H      4.841247    2.242136   -3.054083
  H      2.991617   -0.132199   -3.574137
  H      4.225505    0.392784   -4.695962
  C      2.564776    1.750890   -4.544523
  H      1.918749    2.171679   -3.769419
  C      1.686235    1.161657   -5.650111
  H      3.132494    2.594775   -4.951604
  C      0.839616   -0.037582   -5.220473
  H      2.323886    0.866395   -6.490796
  H      1.029518    1.951850   -6.029329
  C     -0.151019    0.254955   -4.094256
  H      1.499442   -0.857141   -4.922958
  H      0.290097   -0.410143   -6.091131
  H      0.328265    0.833022   -3.299125
  C     -0.721843   -0.999513   -3.439309
  H     -0.957367    0.884951   -4.485450
  H     -1.083403   -1.697555   -4.205656
  H     -1.581056   -0.723848   -2.820490
  C      0.287250   -1.711771   -2.527405
  H      1.131780   -2.067380   -3.159396
  H     -0.204137   -2.637326   -2.170480
  F      0.710505   -0.927506   -1.481767
  H      2.714548    2.331455   -1.760302
  H      4.090991    2.063151   -0.733382
  C      3.290978   -0.418021   -0.129083
  N      2.517536   -1.432017    0.239360
  C      4.535490   -0.284410    0.395800
  H      5.043627    0.571888    0.222899
  H      4.723346   -0.733273    1.281800
  H      1.934787    0.102305   -1.403788
  H      1.674638   -1.505616   -0.316095
  H      2.928503   -2.218502    0.725494

 Total Charge           Charge          ....    0
 Multiplicity           Mult            ....    1
 Number of Electrons    NEL             ....  112
 Basis Dimension        Dim             .... 1173

ORBITAL ENERGIES
----------------

  NO   OCC          E(Eh)            E(eV)
   0   2.0000     -26.337948      -716.6920
   1   2.0000     -15.535188      -422.7340
   2   2.0000     -15.533223      -422.6805
   3   2.0000     -11.339825      -308.5723
   4   2.0000     -11.268947      -306.6436
   5   2.0000     -11.250644      -306.1456
   6   2.0000     -11.245583      -306.0079
   7   2.0000     -11.234684      -305.7113
   8   2.0000     -11.228501      -305.5430
   9   2.0000     -11.223353      -305.4030
  10   2.0000     -11.217286      -305.2379
  11   2.0000     -11.213424      -305.1328
  12   2.0000     -11.207564      -304.9733
  13   2.0000     -11.107352      -302.2464
  14   2.0000      -1.662612       -45.2420
  15   2.0000      -1.276793       -34.7433
  16   2.0000      -1.166553       -31.7435
  17   2.0000      -1.114519       -30.3276
  18   2.0000      -1.079199       -29.3665
  19   2.0000      -1.036814       -28.2131
  20   2.0000      -0.984368       -26.7860
  21   2.0000      -0.945890       -25.7390
  22   2.0000      -0.939034       -25.5524
  23   2.0000      -0.888619       -24.1805
  24   2.0000      -0.842925       -22.9372
  25   2.0000      -0.809403       -22.0250
  26   2.0000      -0.783250       -21.3133
  27   2.0000      -0.775222       -21.0949
  28   2.0000      -0.766369       -20.8540
  29   2.0000      -0.727535       -19.7972
  30   2.0000      -0.715450       -19.4684
  31   2.0000      -0.694450       -18.8969
  32   2.0000      -0.672947       -18.3118
  33   2.0000      -0.652288       -17.7496
  34   2.0000      -0.637547       -17.3485
  35   2.0000      -0.622745       -16.9458
  36   2.0000      -0.603588       -16.4245
  37   2.0000      -0.601988       -16.3809
  38   2.0000      -0.593132       -16.1399
  39   2.0000      -0.567722       -15.4485
  40   2.0000      -0.561220       -15.2716
  41   2.0000      -0.541568       -14.7368
  42   2.0000      -0.535354       -14.5677
  43   2.0000      -0.525766       -14.3068
  44   2.0000      -0.520976       -14.1765
  45   2.0000      -0.509629       -13.8677
  46   2.0000      -0.502306       -13.6684
  47   2.0000      -0.498048       -13.5526
  48   2.0000      -0.483835       -13.1658
  49   2.0000      -0.479385       -13.0447
  50   2.0000      -0.468706       -12.7541
  51   2.0000      -0.452301       -12.3077
  52   2.0000      -0.451131       -12.2759
  53   2.0000      -0.442659       -12.0454
  54   2.0000      -0.369550       -10.0560
  55   2.0000      -0.245766        -6.6876
  56   0.0000       0.020276         0.5517
  57   0.0000       0.027244         0.7413
  58   0.0000       0.029443         0.8012
  59   0.0000       0.033597         0.9142
  60   0.0000       0.042325         1.1517

MULLIKEN ATOMIC CHARGES
-----------------------
   0 C :   -0.666755
   1 C :   -0.457103
   2 N :   -0.201334
   3 H :    0.158301
   4 C :   -0.459935
   5 H :    0.292034
   6 H :    0.367494
   7 H :    0.283539
   8 C :   -0.273910
   9 H :    0.127546
  10 C :   -0.754819
  11 H :    0.333199
  12 C :   -0.280287
  13 H :    0.159752
  14 H :    0.160187
  15 C :   -0.352429
  16 H :    0.063254
  17 H :    0.482770
  18 H :    0.263946
  19 C :   -0.710531
  20 H :    0.242234
  21 H :    0.207029
  22 H :    0.240460
  23 C :   -0.208535
  24 H :    0.320357
  25 H :    0.383034
  26 F :   -0.634880
  27 H :    0.269417
  28 H :    0.259183
  29 C :    0.559948
  30 N :   -0.792258
  31 C :   -1.484720
  32 H :    0.392224
  33 H :    0.335680
  34 H :    0.974948
  35 H :    0.371925
  36 H :    0.029038
Sum of atomic charges:   -0.0000000

LOEWDIN ATOMIC CHARGES
----------------------
   0 C :    0.228235
   1 C :    0.314578
   2 N :    0.586853
   3 H :   -0.140443
   4 C :    0.289314
   5 H :   -0.139191
   6 H :   -0.175181
   7 H :   -0.128206
   8 C :    0.287604
   9 H :   -0.175120
  10 C :    0.305124
  11 H :   -0.130176
  12 C :    0.286605
  13 H :   -0.138279
  14 H :   -0.138905
  15 C :    0.287541
  16 H :   -0.178710
  17 H :   -0.133549
  18 H :   -0.170747
  19 C :    0.297377
  20 H :   -0.126261
  21 H :   -0.132239
  22 H :   -0.146857
  23 C :    0.017533
  24 H :   -0.146201
  25 H :   -0.142749
  26 F :    0.752362
  27 H :   -0.151739
  28 H :   -0.149356
  29 C :   -0.437960
  30 N :    0.873711
  31 C :    0.549693
  32 H :   -0.347515
  33 H :   -0.322554
  34 H :   -0.531353
  35 H :   -0.533898
  36 H :   -0.259343

  Mayer bond orders larger than 0.100000
B(  0-C ,  1-C ) :   0.9109 B(  0-C ,  2-N ) :   1.2240 B(  0-C ,  4-C ) :   0.1160
B(  0-C , 27-H ) :   1.0195 B(  0-C , 28-H ) :   1.0002 B(  0-C , 29-C ) :  -0.2355
B(  0-C , 31-C ) :  -0.1278 B(  0-C , 34-H ) :  -0.2476 B(  1-C ,  3-H ) :   1.1020
B(  1-C ,  4-C ) :   0.9684 B(  1-C ,  5-H ) :   0.8972 B(  2-N ,  4-C ) :  -0.1007
B(  2-N , 26-F ) :  -0.1393 B(  2-N , 29-C ) :   0.8934 B(  2-N , 30-N ) :  -0.2559
B(  2-N , 31-C ) :  -0.1158 B(  4-C ,  6-H ) :   0.9233 B(  4-C ,  7-H ) :   0.9784
B(  4-C ,  8-C ) :   0.7761 B(  6-H ,  8-C ) :   0.1064 B(  8-C ,  9-H ) :   1.0787
B(  8-C , 10-C ) :   0.8861 B(  8-C , 11-H ) :   0.9338 B( 10-C , 12-C ) :   0.9616
B( 10-C , 13-H ) :   1.0575 B( 10-C , 14-H ) :   1.0687 B( 10-C , 16-H ) :   0.1301
B( 12-C , 15-C ) :   0.7526 B( 12-C , 16-H ) :   1.1073 B( 12-C , 17-H ) :   0.7990
B( 14-H , 33-H ) :  -0.2471 B( 15-C , 16-H ) :   0.1023 B( 15-C , 18-H ) :   1.0007
B( 15-C , 19-C ) :   0.9773 B( 15-C , 20-H ) :   0.9916 B( 15-C , 26-F ) :  -0.1501
B( 19-C , 21-H ) :   1.0204 B( 19-C , 22-H ) :   1.0054 B( 19-C , 23-C ) :   0.9127
B( 19-C , 26-F ) :   0.1802 B( 23-C , 24-H ) :   0.9689 B( 23-C , 25-H ) :   0.8744
B( 23-C , 26-F ) :   0.7521 B( 26-F , 29-C ) :   0.1107 B( 26-F , 34-H ) :  -0.2349
B( 26-F , 35-H ) :  -0.1402 B( 29-C , 30-N ) :   0.7461 B( 29-C , 31-C ) :   0.9825
B( 29-C , 32-H ) :  -0.1309 B( 29-C , 34-H ) :  -0.4882 B( 29-C , 36-H ) :  -0.1308
B( 30-N , 31-C ) :  -0.1150 B( 30-N , 34-H ) :  -0.1422 B( 30-N , 35-H ) :   0.9221
B( 30-N , 36-H ) :   1.2702 B( 31-C , 32-H ) :   0.9271 B( 31-C , 33-H ) :   1.0099

E(0)                                       ...   -638.435946755
E(0)                                       ...   -638.435946755
E(CORR)(strong-pairs)                      ...     -2.726773812
E(CORR)(weak-pairs)                        ...     -0.005009002
E(CORR)(corrected)                         ...     -2.731782814
E(TOT)                                     ...   -641.167729568
E(CCSD(T))                                 ...   -641.278614445
FINAL SINGLE POINT ENERGY      -641.278614444730

DIPOLE MOMENT
-------------
                                X             Y             Z
Electronic contribution:     -3.33856      -4.31611       8.99516
Nuclear contribution   :      1.49917       3.80845     -10.61369
                        -----------------------------------------
Total Dipole Moment    :     -1.83939      -0.50766      -1.61853
                        -----------------------------------------
Magnitude (a.u.)       :      2.50214
Magnitude (Debye)      :      6.35994

Rotational constants in cm-1:     0.026547     0.016542     0.011018
Rotational constants in MHz :   795.873737   495.912559   330.323979

                             ****ORCA TERMINATED NORMALLY****
TOTAL RUN TIME: 0 days 6 hours 8 minutes 37 seconds 20 msec
