                         Program Version 5.0.0 -  RELEASE  -
|  1> !B3LYP D3BJ RIJCOSX def2-TZVP def2/J TightSCF
|  2> *xyz -1 1
|  3> C         -7.33044       -2.67899       -3.20681
|  4> S         -6.01966       -2.92697       -4.41913
|  5> O         -5.64583       -1.58838       -4.91931
|  6> O         -4.88196       -3.50370       -3.66724
|  7> O         -6.54927       -3.80515       -5.42507
|  8> C         -7.46900       -1.24615       -2.71383
|  9> H         -7.11825       -3.37982       -2.39805
| 10> H         -8.24184       -3.00474       -3.70651
| 11> H         -7.67580       -0.60214       -3.54292
| 12> H         -6.55749       -0.94096       -2.24382
| 13> H         -8.27114       -1.18777       -2.00810
| 14> *
| 15> %MaxCore 64000
| 16>
| 17> %pal nprocs 4
| 18> end
| 19>
| 20> %scf
| 21>   MaxIter 150
| 22> end
| 23>
| 24>
| 25>                          ****END OF INPUT****

CARTESIAN COORDINATES (ANGSTROEM)
---------------------------------
  C     -7.330440   -2.678990   -3.206810
  S     -6.019660   -2.926970   -4.419130
  O     -5.645830   -1.588380   -4.919310
  O     -4.881960   -3.503700   -3.667240
  O     -6.549270   -3.805150   -5.425070
  C     -7.469000   -1.246150   -2.713830
  H     -7.118250   -3.379820   -2.398050
  H     -8.241840   -3.004740   -3.706510
  H     -7.675800   -0.602140   -3.542920
  H     -6.557490   -0.940960   -2.243820
  H     -8.271140   -1.187770   -2.008100

 Total Charge           Charge          ....   -1
 Multiplicity           Mult            ....    1
 Number of Electrons    NEL             ....   58
 Basis Dimension        Dim             ....  222

ORBITAL ENERGIES
----------------

  NO   OCC          E(Eh)            E(eV)
   0   2.0000     -88.830692     -2417.2060
   1   2.0000     -18.897864      -514.2370
   2   2.0000     -18.887178      -513.9462
   3   2.0000     -18.883045      -513.8338
   4   2.0000     -10.027360      -272.8583
   5   2.0000     -10.021142      -272.6891
   6   2.0000      -7.873782      -214.2565
   7   2.0000      -5.837271      -158.8402
   8   2.0000      -5.836289      -158.8135
   9   2.0000      -5.836078      -158.8077
  10   2.0000      -0.911153       -24.7937
  11   2.0000      -0.781344       -21.2615
  12   2.0000      -0.758984       -20.6530
  13   2.0000      -0.630393       -17.1539
  14   2.0000      -0.503815       -13.7095
  15   2.0000      -0.376185       -10.2365
  16   2.0000      -0.316934        -8.6242
  17   2.0000      -0.306630        -8.3438
  18   2.0000      -0.268159        -7.2970
  19   2.0000      -0.249327        -6.7845
  20   2.0000      -0.247937        -6.7467
  21   2.0000      -0.224083        -6.0976
  22   2.0000      -0.216657        -5.8955
  23   2.0000      -0.141030        -3.8376
  24   2.0000      -0.138956        -3.7812
  25   2.0000      -0.107001        -2.9116
  26   2.0000      -0.100152        -2.7253
  27   2.0000      -0.090313        -2.4575
  28   2.0000      -0.054145        -1.4733
  29   0.0000       0.171643         4.6706
  30   0.0000       0.217048         5.9062
  31   0.0000       0.228671         6.2224
  32   0.0000       0.235247         6.4014
  33   0.0000       0.260135         7.0786

MULLIKEN ATOMIC CHARGES
-----------------------
   0 C :   -0.227911
   1 S :    0.846431
   2 O :   -0.588541
   3 O :   -0.597811
   4 O :   -0.551331
   5 C :   -0.280720
   6 H :    0.078375
   7 H :    0.074260
   8 H :    0.100738
   9 H :    0.094103
  10 H :    0.052407
Sum of atomic charges:   -1.0000000

LOEWDIN ATOMIC CHARGES
----------------------
   0 C :   -0.424047
   1 S :    0.434815
   2 O :   -0.415213
   3 O :   -0.432954
   4 O :   -0.374925
   5 C :   -0.339707
   6 H :    0.116639
   7 H :    0.114415
   8 H :    0.112607
   9 H :    0.112884
  10 H :    0.095486

  Mayer bond orders larger than 0.100000
B(  0-C ,  1-S ) :   0.8712 B(  0-C ,  5-C ) :   0.9549 B(  0-C ,  6-H ) :   0.9619
B(  0-C ,  7-H ) :   0.9569 B(  1-S ,  2-O ) :   1.7385 B(  1-S ,  3-O ) :   1.7554
B(  1-S ,  4-O ) :   1.8113 B(  5-C ,  8-H ) :   0.9752 B(  5-C ,  9-H ) :   0.9780
B(  5-C , 10-H ) :   0.9559

Dispersion correction           -0.016663319
FINAL SINGLE POINT ENERGY      -703.113391631892

DIPOLE MOMENT
-------------
                                X             Y             Z
Electronic contribution:      4.73297      -3.53887      -5.14638
Nuclear contribution   :     -6.18165       4.01759       6.33106
                        -----------------------------------------
Total Dipole Moment    :     -1.44868       0.47873       1.18468
                        -----------------------------------------
Magnitude (a.u.)       :      1.93166
Magnitude (Debye)      :      4.90989

Rotational constants in cm-1:     0.161711     0.082788     0.081165
Rotational constants in MHz :  4847.971521  2481.906910  2433.276832

                             ****ORCA TERMINATED NORMALLY****
TOTAL RUN TIME: 0 days 0 hours 0 minutes 30 seconds 717 msec
