                         Program Version 5.0.0 -  RELEASE  -
|  1> !B3LYP D3BJ RIJCOSX def2-TZVP def2/J TightSCF
|  2> *xyz 1 1
|  3> C         -2.16038       -1.36949       -3.46710
|  4> N         -3.03011       -1.91086       -4.54107
|  5> C         -2.04772        0.14658       -3.51177
|  6> H         -3.47744       -2.79151       -4.25710
|  7> H         -2.53801       -2.01786       -5.43808
|  8> H         -3.89159       -1.37604       -4.71437
|  9> H         -1.18444       -1.84400       -3.56639
| 10> H         -2.59819       -1.70838       -2.52848
| 11> H         -1.61525        0.44478       -4.44395
| 12> H         -1.42718        0.48198       -2.70720
| 13> H         -3.02145        0.57958       -3.41560
| 14> *
| 15> %MaxCore 64000
| 16>
| 17> %pal nprocs 4
| 18> end
| 19>
| 20> %scf
| 21>   MaxIter 150
| 22> end
| 23>
| 24>
| 25>                          ****END OF INPUT****

CARTESIAN COORDINATES (ANGSTROEM)
---------------------------------
  C     -2.160380   -1.369490   -3.467100
  N     -3.030110   -1.910860   -4.541070
  C     -2.047720    0.146580   -3.511770
  H     -3.477440   -2.791510   -4.257100
  H     -2.538010   -2.017860   -5.438080
  H     -3.891590   -1.376040   -4.714370
  H     -1.184440   -1.844000   -3.566390
  H     -2.598190   -1.708380   -2.528480
  H     -1.615250    0.444780   -4.443950
  H     -1.427180    0.481980   -2.707200
  H     -3.021450    0.579580   -3.415600

 Total Charge           Charge          ....    1
 Multiplicity           Mult            ....    1
 Number of Electrons    NEL             ....   26
 Basis Dimension        Dim             ....  141

ORBITAL ENERGIES
----------------

  NO   OCC          E(Eh)            E(eV)
   0   2.0000     -14.650416      -398.6581
   1   2.0000     -10.422758      -283.6177
   2   2.0000     -10.341459      -281.4054
   3   2.0000      -1.217920       -33.1413
   4   2.0000      -0.967423       -26.3249
   5   2.0000      -0.847220       -23.0540
   6   2.0000      -0.810353       -22.0508
   7   2.0000      -0.770469       -20.9655
   8   2.0000      -0.701008       -19.0754
   9   2.0000      -0.643409       -17.5081
  10   2.0000      -0.582836       -15.8598
  11   2.0000      -0.568573       -15.4716
  12   2.0000      -0.551394       -15.0042
  13   0.0000      -0.199423        -5.4266
  14   0.0000      -0.138231        -3.7615
  15   0.0000      -0.136382        -3.7112
  16   0.0000      -0.113859        -3.0983
  17   0.0000      -0.075366        -2.0508

MULLIKEN ATOMIC CHARGES
-----------------------
   0 C :   -0.166285
   1 N :   -0.281541
   2 C :   -0.325455
   3 H :    0.321590
   4 H :    0.326822
   5 H :    0.311532
   6 H :    0.184802
   7 H :    0.174620
   8 H :    0.141261
   9 H :    0.172231
  10 H :    0.140423
Sum of atomic charges:    1.0000000

LOEWDIN ATOMIC CHARGES
----------------------
   0 C :   -0.272078
   1 N :    0.170421
   2 C :   -0.270269
   3 H :    0.223026
   4 H :    0.222697
   5 H :    0.219272
   6 H :    0.152559
   7 H :    0.150468
   8 H :    0.129416
   9 H :    0.146258
  10 H :    0.128232

  Mayer bond orders larger than 0.100000
B(  0-C ,  1-N ) :   0.8417 B(  0-C ,  2-C ) :   0.9835 B(  0-C ,  6-H ) :   0.9556
B(  0-C ,  7-H ) :   0.9544 B(  1-N ,  3-H ) :   0.8851 B(  1-N ,  4-H ) :   0.8774
B(  1-N ,  5-H ) :   0.8814 B(  2-C ,  8-H ) :   0.9602 B(  2-C ,  9-H ) :   0.9598
B(  2-C , 10-H ) :   0.9606

Dispersion correction           -0.009980011
FINAL SINGLE POINT ENERGY      -135.502182871577

DIPOLE MOMENT
-------------
                                X             Y             Z
Electronic contribution:     -0.65000      -1.49340      -0.77489
Nuclear contribution   :     -0.15215       0.37393      -0.04773
                        -----------------------------------------
Total Dipole Moment    :     -0.80214      -1.11946      -0.82262
                        -----------------------------------------
Magnitude (a.u.)       :      1.60416
Magnitude (Debye)      :      4.07745

Rotational constants in cm-1:     1.020762     0.277172     0.247319
Rotational constants in MHz : 30601.664035  8309.399682  7414.438136

                             ****ORCA TERMINATED NORMALLY****
TOTAL RUN TIME: 0 days 0 hours 0 minutes 13 seconds 387 msec
