                         Program Version 5.0.0 -  RELEASE  -
|  1> !B3LYP D3BJ RIJCOSX def2-TZVP def2/J TightSCF xyzfile
|  2>
|  3> *xyzfile 0 1 B.xyz
|  4>
|  5> %MaxCore 64000
|  6>
|  7> %pal nprocs 18
|  8> end
|  9>
| 10> %scf
| 11>   MaxIter 150
| 12> end
| 13>
| 14>
| 15>                          ****END OF INPUT****

CARTESIAN COORDINATES (ANGSTROEM)
---------------------------------
  C     -2.160376   -1.369486   -3.467104
  N     -3.030108   -1.910857   -4.541074
  C     -2.047717    0.146583   -3.511774
  C     -7.330440   -2.678991   -3.206811
  S     -6.019659   -2.926965   -4.419128
  H     -3.477443   -2.791513   -4.257096
  H     -2.538013   -2.017860   -5.438075
  H     -3.891589   -1.376039   -4.714365
  O     -5.645830   -1.588384   -4.919307
  O     -4.881961   -3.503697   -3.667235
  H     -1.184438   -1.843997   -3.566393
  H     -2.598195   -1.708376   -2.528477
  O     -6.549267   -3.805150   -5.425071
  C     -3.328755    0.875037   -3.103669
  H     -1.740034    0.452343   -4.517126
  H     -1.232611    0.434938   -2.842208
  C     -3.628487    0.771601   -1.609363
  H     -4.175106    0.490791   -3.682203
  H     -3.237812    1.928663   -3.381480
  C     -4.975718    1.361432   -1.190644
  H     -2.830700    1.276234   -1.054766
  H     -3.594312   -0.275838   -1.294603
  C     -6.184720    0.784347   -1.926464
  H     -4.956292    2.445725   -1.342200
  H     -5.097256    1.205252   -0.114136
  C     -6.286921   -0.735882   -1.893531
  H     -6.163994    1.100199   -2.974250
  H     -7.094530    1.223459   -1.504509
  C     -7.468999   -1.246153   -2.713833
  H     -6.360641   -1.090347   -0.859176
  H     -5.369848   -1.171853   -2.295982
  H     -7.601914   -0.601349   -3.585329
  H     -8.389791   -1.173436   -2.126922
  H     -7.118254   -3.379818   -2.398055
  H     -8.241838   -3.004745   -3.706513

 Total Charge           Charge          ....    0
 Multiplicity           Mult            ....    1
 Number of Electrons    NEL             ....  122
 Basis Dimension        Dim             ....  566

ORBITAL ENERGIES
----------------

  NO   OCC          E(Eh)            E(eV)
   0   2.0000     -89.003494     -2421.9082
   1   2.0000     -19.074379      -519.0402
   2   2.0000     -19.074286      -519.0377
   3   2.0000     -19.058738      -518.6146
   4   2.0000     -14.417134      -392.3102
   5   2.0000     -10.251371      -278.9540
   6   2.0000     -10.204125      -277.6683
   7   2.0000     -10.183796      -277.1152
   8   2.0000     -10.175446      -276.8880
   9   2.0000     -10.167852      -276.6813
  10   2.0000     -10.167514      -276.6721
  11   2.0000     -10.159707      -276.4597
  12   2.0000     -10.158618      -276.4301
  13   2.0000     -10.155771      -276.3526
  14   2.0000      -8.047641      -218.9874
  15   2.0000      -6.011162      -163.5720
  16   2.0000      -6.010273      -163.5478
  17   2.0000      -6.009438      -163.5251
  18   2.0000      -1.091559       -29.7028
  19   2.0000      -1.005163       -27.3519
  20   2.0000      -0.954068       -25.9615
  21   2.0000      -0.952246       -25.9119
  22   2.0000      -0.835864       -22.7450
  23   2.0000      -0.806534       -21.9469
  24   2.0000      -0.780508       -21.2387
  25   2.0000      -0.737638       -20.0721
  26   2.0000      -0.704855       -19.1801
  27   2.0000      -0.661320       -17.9954
  28   2.0000      -0.624029       -16.9807
  29   2.0000      -0.607883       -16.5413
  30   2.0000      -0.594019       -16.1641
  31   2.0000      -0.569662       -15.5013
  32   2.0000      -0.560581       -15.2542
  33   2.0000      -0.535668       -14.5763
  34   2.0000      -0.514491       -14.0000
  35   2.0000      -0.488078       -13.2813
  36   2.0000      -0.486373       -13.2349
  37   2.0000      -0.471559       -12.8318
  38   2.0000      -0.456350       -12.4179
  39   2.0000      -0.444515       -12.0959
  40   2.0000      -0.438451       -11.9309
  41   2.0000      -0.432526       -11.7696
  42   2.0000      -0.428788       -11.6679
  43   2.0000      -0.413908       -11.2630
  44   2.0000      -0.407940       -11.1006
  45   2.0000      -0.399757       -10.8779
  46   2.0000      -0.387440       -10.5428
  47   2.0000      -0.375876       -10.2281
  48   2.0000      -0.369260       -10.0481
  49   2.0000      -0.354791        -9.6543
  50   2.0000      -0.346770        -9.4361
  51   2.0000      -0.337479        -9.1833
  52   2.0000      -0.325018        -8.8442
  53   2.0000      -0.322080        -8.7643
  54   2.0000      -0.317473        -8.6389
  55   2.0000      -0.314905        -8.5690
  56   2.0000      -0.311798        -8.4844
  57   2.0000      -0.280523        -7.6334
  58   2.0000      -0.274787        -7.4773
  59   2.0000      -0.264719        -7.2034
  60   2.0000      -0.239103        -6.5063
  61   0.0000      -0.009788        -0.2664
  62   0.0000       0.027033         0.7356
  63   0.0000       0.035740         0.9725
  64   0.0000       0.039478         1.0743
  65   0.0000       0.053487         1.4555

MULLIKEN ATOMIC CHARGES
-----------------------
   0 C :   -0.172484
   1 N :   -0.265378
   2 C :   -0.134997
   3 C :   -0.236319
   4 S :    0.890693
   5 H :    0.300551
   6 H :    0.258399
   7 H :    0.285883
   8 O :   -0.606423
   9 O :   -0.604361
  10 H :    0.136452
  11 H :    0.155392
  12 O :   -0.492500
  13 C :   -0.254294
  14 H :    0.103782
  15 H :    0.102340
  16 C :   -0.209157
  17 H :    0.142947
  18 H :    0.101629
  19 C :   -0.126257
  20 H :    0.093295
  21 H :    0.098127
  22 C :   -0.192117
  23 H :    0.086318
  24 H :    0.088650
  25 C :   -0.238846
  26 H :    0.108295
  27 H :    0.089205
  28 C :   -0.107580
  29 H :    0.079191
  30 H :    0.091947
  31 H :    0.099350
  32 H :    0.087949
  33 H :    0.106730
  34 H :    0.133588
Sum of atomic charges:   -0.0000000

LOEWDIN ATOMIC CHARGES
----------------------
   0 C :   -0.266592
   1 N :    0.140495
   2 C :   -0.265345
   3 C :   -0.369725
   4 S :    0.473027
   5 H :    0.169403
   6 H :    0.192525
   7 H :    0.176554
   8 O :   -0.383003
   9 O :   -0.389214
  10 H :    0.135073
  11 H :    0.142143
  12 O :   -0.316762
  13 C :   -0.261488
  14 H :    0.136830
  15 H :    0.145490
  16 C :   -0.266321
  17 H :    0.139647
  18 H :    0.139129
  19 C :   -0.261914
  20 H :    0.133727
  21 H :    0.131495
  22 C :   -0.266762
  23 H :    0.133914
  24 H :    0.135112
  25 C :   -0.266885
  26 H :    0.135853
  27 H :    0.134699
  28 C :   -0.284017
  29 H :    0.130655
  30 H :    0.129661
  31 H :    0.141285
  32 H :    0.133838
  33 H :    0.132671
  34 H :    0.134802

  Mayer bond orders larger than 0.100000
B(  0-C ,  1-N ) :   0.9006 B(  0-C ,  2-C ) :   0.9557 B(  0-C , 10-H ) :   0.9703
B(  0-C , 11-H ) :   0.9687 B(  1-N ,  5-H ) :   0.7880 B(  1-N ,  6-H ) :   0.9030
B(  1-N ,  7-H ) :   0.8227 B(  2-C , 13-C ) :   0.9653 B(  2-C , 14-H ) :   0.9684
B(  2-C , 15-H ) :   0.9620 B(  3-C ,  4-S ) :   0.8920 B(  3-C , 28-C ) :   0.9647
B(  3-C , 33-H ) :   0.9523 B(  3-C , 34-H ) :   0.9580 B(  4-S ,  8-O ) :   1.5612
B(  4-S ,  9-O ) :   1.5328 B(  4-S , 12-O ) :   1.9262 B(  5-H ,  9-O ) :   0.1675
B(  7-H ,  8-O ) :   0.1271 B( 13-C , 16-C ) :   0.9403 B( 13-C , 17-H ) :   0.9824
B( 13-C , 18-H ) :   0.9626 B( 16-C , 19-C ) :   0.9696 B( 16-C , 20-H ) :   0.9597
B( 16-C , 21-H ) :   0.9810 B( 19-C , 22-C ) :   0.9654 B( 19-C , 23-H ) :   0.9732
B( 19-C , 24-H ) :   0.9707 B( 22-C , 25-C ) :   0.9512 B( 22-C , 26-H ) :   0.9817
B( 22-C , 27-H ) :   0.9678 B( 25-C , 28-C ) :   0.9706 B( 25-C , 29-H ) :   0.9594
B( 25-C , 30-H ) :   0.9796 B( 28-C , 31-H ) :   0.9636 B( 28-C , 32-H ) :   0.9528

Dispersion correction           -0.068374650
FINAL SINGLE POINT ENERGY     -1034.133163622544

DIPOLE MOMENT
-------------
                                X             Y             Z
Electronic contribution:     -5.96531     -15.24173     -11.46380
Nuclear contribution   :      8.59301      16.99497      12.41069
                        -----------------------------------------
Total Dipole Moment    :      2.62771       1.75325       0.94689
                        -----------------------------------------
Magnitude (a.u.)       :      3.29778
Magnitude (Debye)      :      8.38228

Rotational constants in cm-1:     0.025617     0.015295     0.010641
Rotational constants in MHz :   767.991150   458.522408   319.013093

                             ****ORCA TERMINATED NORMALLY****
TOTAL RUN TIME: 0 days 0 hours 1 minutes 19 seconds 142 msec
