                         Program Version 5.0.0 -  RELEASE  -
|  1> !B3LYP D3BJ RIJCOSX def2-TZVP def2/J TightSCF
|  2> *xyz 0 1
|  3> C         -7.33044       -2.67899       -3.20681
|  4> S         -6.01966       -2.92697       -4.41913
|  5> F         -5.64583       -1.58838       -4.91931
|  6> O         -4.88196       -3.50370       -3.66724
|  7> O         -6.54927       -3.80515       -5.42507
|  8> C         -7.46900       -1.24615       -2.71383
|  9> H         -7.11825       -3.37982       -2.39805
| 10> H         -8.24184       -3.00474       -3.70651
| 11> H         -7.67580       -0.60214       -3.54292
| 12> H         -6.55749       -0.94096       -2.24382
| 13> H         -8.27114       -1.18777       -2.00810
| 14> *
| 15> %MaxCore 64000
| 16>
| 17> %pal nprocs 4
| 18> end
| 19>
| 20> %scf
| 21>   MaxIter 150
| 22> end
| 23>
| 24>
| 25>                          ****END OF INPUT****

CARTESIAN COORDINATES (ANGSTROEM)
---------------------------------
  C     -7.330440   -2.678990   -3.206810
  S     -6.019660   -2.926970   -4.419130
  F     -5.645830   -1.588380   -4.919310
  O     -4.881960   -3.503700   -3.667240
  O     -6.549270   -3.805150   -5.425070
  C     -7.469000   -1.246150   -2.713830
  H     -7.118250   -3.379820   -2.398050
  H     -8.241840   -3.004740   -3.706510
  H     -7.675800   -0.602140   -3.542920
  H     -6.557490   -0.940960   -2.243820
  H     -8.271140   -1.187770   -2.008100

 Total Charge           Charge          ....    0
 Multiplicity           Mult            ....    1
 Number of Electrons    NEL             ....   58
 Basis Dimension        Dim             ....  222

ORBITAL ENERGIES
----------------

  NO   OCC          E(Eh)            E(eV)
   0   2.0000     -89.095602     -2424.4146
   1   2.0000     -24.784767      -674.4278
   2   2.0000     -19.138503      -520.7851
   3   2.0000     -19.123736      -520.3833
   4   2.0000     -10.231988      -278.4266
   5   2.0000     -10.195003      -277.4201
   6   2.0000      -8.139369      -221.4835
   7   2.0000      -6.106291      -166.1606
   8   2.0000      -6.099646      -165.9798
   9   2.0000      -6.099511      -165.9761
  10   2.0000      -1.355544       -36.8862
  11   2.0000      -1.105983       -30.0953
  12   2.0000      -1.007392       -27.4125
  13   2.0000      -0.828423       -22.5425
  14   2.0000      -0.724187       -19.7061
  15   2.0000      -0.676269       -18.4022
  16   2.0000      -0.585259       -15.9257
  17   2.0000      -0.566684       -15.4203
  18   2.0000      -0.542400       -14.7595
  19   2.0000      -0.499906       -13.6031
  20   2.0000      -0.473746       -12.8913
  21   2.0000      -0.449499       -12.2315
  22   2.0000      -0.443366       -12.0646
  23   2.0000      -0.416385       -11.3304
  24   2.0000      -0.400327       -10.8935
  25   2.0000      -0.384530       -10.4636
  26   2.0000      -0.335945        -9.1415
  27   2.0000      -0.322025        -8.7627
  28   2.0000      -0.309228        -8.4145
  29   0.0000       0.001572         0.0428
  30   0.0000       0.044129         1.2008
  31   0.0000       0.059576         1.6211
  32   0.0000       0.062410         1.6983
  33   0.0000       0.072521         1.9734

MULLIKEN ATOMIC CHARGES
-----------------------
   0 C :   -0.227762
   1 S :    0.882355
   2 F :   -0.132740
   3 O :   -0.456433
   4 O :   -0.409461
   5 C :   -0.329350
   6 H :    0.153523
   7 H :    0.143733
   8 H :    0.120942
   9 H :    0.130536
  10 H :    0.124656
Sum of atomic charges:    0.0000000

LOEWDIN ATOMIC CHARGES
----------------------
   0 C :   -0.380260
   1 S :    0.561390
   2 F :    0.056778
   3 O :   -0.316186
   4 O :   -0.260448
   5 C :   -0.312644
   6 H :    0.146303
   7 H :    0.139483
   8 H :    0.118626
   9 H :    0.122450
  10 H :    0.124509

  Mayer bond orders larger than 0.100000
B(  0-C ,  1-S ) :   0.9035 B(  0-C ,  5-C ) :   0.9590 B(  0-C ,  6-H ) :   0.9419
B(  0-C ,  7-H ) :   0.9418 B(  1-S ,  2-F ) :   1.0915 B(  1-S ,  3-O ) :   1.8864
B(  1-S ,  4-O ) :   1.9398 B(  5-C ,  8-H ) :   0.9688 B(  5-C ,  9-H ) :   0.9697
B(  5-C , 10-H ) :   0.9609

Dispersion correction           -0.015809017
FINAL SINGLE POINT ENERGY      -727.647101253610

DIPOLE MOMENT
-------------
                                X             Y             Z
Electronic contribution:      5.65709      -1.72428      -6.39072
Nuclear contribution   :     -6.81251       2.87933       7.15058
                        -----------------------------------------
Total Dipole Moment    :     -1.15543       1.15505       0.75986
                        -----------------------------------------
Magnitude (a.u.)       :      1.80181
Magnitude (Debye)      :      4.57985

Rotational constants in cm-1:     0.152543     0.082494     0.078987
Rotational constants in MHz :  4573.135887  2473.116216  2367.980829

                             ****ORCA TERMINATED NORMALLY****
TOTAL RUN TIME: 0 days 0 hours 0 minutes 28 seconds 845 msec
