                         Program Version 5.0.0 -  RELEASE  -
|  1> !B3LYP D3BJ RIJCOSX def2-TZVP def2/J TightSCF
|  2> *xyz 0 1
|  3> C         -2.16038       -1.36949       -3.46710
|  4> C         -3.03011       -1.91086       -4.54107
|  5> C         -2.04772        0.14658       -3.51177
|  6> H         -3.47744       -2.79151       -4.25710
|  7> H         -2.53801       -2.01786       -5.43808
|  8> H         -3.89159       -1.37604       -4.71437
|  9> H         -1.18444       -1.84400       -3.56639
| 10> H         -2.59819       -1.70838       -2.52848
| 11> H         -1.61525        0.44478       -4.44395
| 12> H         -1.42718        0.48198       -2.70720
| 13> H         -3.02145        0.57958       -3.41560
| 14> *
| 15> %MaxCore 64000
| 16>
| 17> %pal nprocs 4
| 18> end
| 19>
| 20> %scf
| 21>   MaxIter 150
| 22> end
| 23>
| 24>
| 25>                          ****END OF INPUT****

CARTESIAN COORDINATES (ANGSTROEM)
---------------------------------
  C     -2.160380   -1.369490   -3.467100
  C     -3.030110   -1.910860   -4.541070
  C     -2.047720    0.146580   -3.511770
  H     -3.477440   -2.791510   -4.257100
  H     -2.538010   -2.017860   -5.438080
  H     -3.891590   -1.376040   -4.714370
  H     -1.184440   -1.844000   -3.566390
  H     -2.598190   -1.708380   -2.528480
  H     -1.615250    0.444780   -4.443950
  H     -1.427180    0.481980   -2.707200
  H     -3.021450    0.579580   -3.415600

 Total Charge           Charge          ....    0
 Multiplicity           Mult            ....    1
 Number of Electrons    NEL             ....   26
 Basis Dimension        Dim             ....  141

ORBITAL ENERGIES
----------------

  NO   OCC          E(Eh)            E(eV)
   0   2.0000     -10.153862      -276.3006
   1   2.0000     -10.144482      -276.0454
   2   2.0000     -10.126074      -275.5445
   3   2.0000      -0.789451       -21.4820
   4   2.0000      -0.690956       -18.8019
   5   2.0000      -0.587923       -15.9982
   6   2.0000      -0.468815       -12.7571
   7   2.0000      -0.438590       -11.9346
   8   2.0000      -0.401269       -10.9191
   9   2.0000      -0.393749       -10.7145
  10   2.0000      -0.340111        -9.2549
  11   2.0000      -0.328436        -8.9372
  12   2.0000      -0.327324        -8.9069
  13   0.0000       0.040408         1.0995
  14   0.0000       0.082272         2.2387
  15   0.0000       0.088008         2.3948
  16   0.0000       0.092485         2.5166
  17   0.0000       0.116308         3.1649

MULLIKEN ATOMIC CHARGES
-----------------------
   0 C :   -0.126302
   1 C :   -0.327918
   2 C :   -0.303485
   3 H :    0.106405
   4 H :    0.101756
   5 H :    0.099433
   6 H :    0.078496
   7 H :    0.076897
   8 H :    0.095131
   9 H :    0.101831
  10 H :    0.097756
Sum of atomic charges:   -0.0000000

LOEWDIN ATOMIC CHARGES
----------------------
   0 C :   -0.315950
   1 C :   -0.306198
   2 C :   -0.300394
   3 H :    0.109670
   4 H :    0.106106
   5 H :    0.108039
   6 H :    0.129996
   7 H :    0.130028
   8 H :    0.113541
   9 H :    0.112277
  10 H :    0.112883

  Mayer bond orders larger than 0.100000
B(  0-C ,  1-C ) :   0.9599 B(  0-C ,  2-C ) :   0.9694 B(  0-C ,  6-H ) :   0.9737
B(  0-C ,  7-H ) :   0.9761 B(  1-C ,  3-H ) :   0.9831 B(  1-C ,  4-H ) :   0.9792
B(  1-C ,  5-H ) :   0.9809 B(  2-C ,  8-H ) :   0.9769 B(  2-C ,  9-H ) :   0.9796
B(  2-C , 10-H ) :   0.9785

Dispersion correction           -0.010057642
FINAL SINGLE POINT ENERGY      -119.091144052293

DIPOLE MOMENT
-------------
                                X             Y             Z
Electronic contribution:      0.31752      -0.13133       0.27615
Nuclear contribution   :     -0.34625       0.09603      -0.26933
                        -----------------------------------------
Total Dipole Moment    :     -0.02873      -0.03530       0.00681
                        -----------------------------------------
Magnitude (a.u.)       :      0.04602
Magnitude (Debye)      :      0.11697

Rotational constants in cm-1:     1.028617     0.291238     0.258956
Rotational constants in MHz : 30837.159054  8731.095379  7763.318586

                             ****ORCA TERMINATED NORMALLY****
TOTAL RUN TIME: 0 days 0 hours 0 minutes 15 seconds 324 msec
