                         Program Version 5.0.0 -  RELEASE  -
|  1> !B3LYP D3BJ RIJCOSX def2-TZVP def2/J TightSCF
|  2> *xyz 0 1
|  3> C         -7.33044       -2.67899       -3.20681
|  4> S         -6.01966       -2.92697       -4.41913
|  5> O         -5.64583       -1.58838       -4.91931
|  6> F         -4.88196       -3.50370       -3.66724
|  7> O         -6.54927       -3.80515       -5.42507
|  8> C         -7.46900       -1.24615       -2.71383
|  9> H         -7.11825       -3.37982       -2.39805
| 10> H         -8.24184       -3.00474       -3.70651
| 11> H         -7.67580       -0.60214       -3.54292
| 12> H         -6.55749       -0.94096       -2.24382
| 13> H         -8.27114       -1.18777       -2.00810
| 14> *
| 15> %MaxCore 64000
| 16>
| 17> %pal nprocs 4
| 18> end
| 19>
| 20> %scf
| 21>   MaxIter 150
| 22> end
| 23>
| 24>
| 25>                          ****END OF INPUT****

CARTESIAN COORDINATES (ANGSTROEM)
---------------------------------
  C     -7.330440   -2.678990   -3.206810
  S     -6.019660   -2.926970   -4.419130
  O     -5.645830   -1.588380   -4.919310
  F     -4.881960   -3.503700   -3.667240
  O     -6.549270   -3.805150   -5.425070
  C     -7.469000   -1.246150   -2.713830
  H     -7.118250   -3.379820   -2.398050
  H     -8.241840   -3.004740   -3.706510
  H     -7.675800   -0.602140   -3.542920
  H     -6.557490   -0.940960   -2.243820
  H     -8.271140   -1.187770   -2.008100

 Total Charge           Charge          ....    0
 Multiplicity           Mult            ....    1
 Number of Electrons    NEL             ....   58
 Basis Dimension        Dim             ....  222

ORBITAL ENERGIES
----------------

  NO   OCC          E(Eh)            E(eV)
   0   2.0000     -89.095761     -2424.4189
   1   2.0000     -24.781963      -674.3515
   2   2.0000     -19.138579      -520.7872
   3   2.0000     -19.127220      -520.4781
   4   2.0000     -10.232312      -278.4354
   5   2.0000     -10.186155      -277.1794
   6   2.0000      -8.139524      -221.4877
   7   2.0000      -6.106375      -166.1629
   8   2.0000      -6.099995      -165.9893
   9   2.0000      -6.099557      -165.9774
  10   2.0000      -1.351913       -36.7874
  11   2.0000      -1.107147       -30.1270
  12   2.0000      -1.010953       -27.5094
  13   2.0000      -0.824069       -22.4241
  14   2.0000      -0.724965       -19.7273
  15   2.0000      -0.669625       -18.2214
  16   2.0000      -0.575926       -15.6717
  17   2.0000      -0.562973       -15.3193
  18   2.0000      -0.550232       -14.9726
  19   2.0000      -0.494354       -13.4521
  20   2.0000      -0.480992       -13.0885
  21   2.0000      -0.453521       -12.3409
  22   2.0000      -0.429525       -11.6880
  23   2.0000      -0.405253       -11.0275
  24   2.0000      -0.398788       -10.8516
  25   2.0000      -0.383690       -10.4407
  26   2.0000      -0.335489        -9.1291
  27   2.0000      -0.328111        -8.9283
  28   2.0000      -0.312272        -8.4973
  29   0.0000       0.015360         0.4180
  30   0.0000       0.026615         0.7242
  31   0.0000       0.051733         1.4077
  32   0.0000       0.073737         2.0065
  33   0.0000       0.074446         2.0258

MULLIKEN ATOMIC CHARGES
-----------------------
   0 C :   -0.245370
   1 S :    0.883676
   2 O :   -0.451307
   3 F :   -0.135003
   4 O :   -0.411430
   5 C :   -0.293941
   6 H :    0.127332
   7 H :    0.152509
   8 H :    0.139522
   9 H :    0.116130
  10 H :    0.117882
Sum of atomic charges:    0.0000000

LOEWDIN ATOMIC CHARGES
----------------------
   0 C :   -0.387203
   1 S :    0.562282
   2 O :   -0.302275
   3 F :    0.046090
   4 O :   -0.261287
   5 C :   -0.305161
   6 H :    0.133205
   7 H :    0.145160
   8 H :    0.126213
   9 H :    0.121228
  10 H :    0.121748

  Mayer bond orders larger than 0.100000
B(  0-C ,  1-S ) :   0.8975 B(  0-C ,  5-C ) :   0.9626 B(  0-C ,  6-H ) :   0.9462
B(  0-C ,  7-H ) :   0.9421 B(  1-S ,  2-O ) :   1.8786 B(  1-S ,  3-F ) :   1.0928
B(  1-S ,  4-O ) :   1.9397 B(  5-C ,  8-H ) :   0.9682 B(  5-C ,  9-H ) :   0.9713
B(  5-C , 10-H ) :   0.9550

Dispersion correction           -0.015892975
FINAL SINGLE POINT ENERGY      -727.650236995795

DIPOLE MOMENT
-------------
                                X             Y             Z
Electronic contribution:      6.99613      -4.98337      -4.28834
Nuclear contribution   :     -7.60849       4.87515       5.84588
                        -----------------------------------------
Total Dipole Moment    :     -0.61236      -0.10822       1.55754
                        -----------------------------------------
Magnitude (a.u.)       :      1.67709
Magnitude (Debye)      :      4.26282

Rotational constants in cm-1:     0.153704     0.080342     0.079431
Rotational constants in MHz :  4607.928650  2408.599360  2381.267225

                             ****ORCA TERMINATED NORMALLY****
TOTAL RUN TIME: 0 days 0 hours 0 minutes 27 seconds 549 msec
