                         Program Version 5.0.0 -  RELEASE  -
|  1> !B3LYP D3BJ RIJCOSX def2-TZVP def2/J TightSCF
|  2> *xyz 0 1
|  3> C         -7.33044       -2.67899       -3.20681
|  4> S         -6.01966       -2.92697       -4.41913
|  5> O         -5.64583       -1.58838       -4.91931
|  6> O         -4.88196       -3.50370       -3.66724
|  7> F         -6.54927       -3.80515       -5.42507
|  8> C         -7.46900       -1.24615       -2.71383
|  9> H         -7.11825       -3.37982       -2.39805
| 10> H         -8.24184       -3.00474       -3.70651
| 11> H         -7.67580       -0.60214       -3.54292
| 12> H         -6.55749       -0.94096       -2.24382
| 13> H         -8.27114       -1.18777       -2.00810
| 14> *
| 15> %MaxCore 64000
| 16>
| 17> %pal nprocs 4
| 18> end
| 19>
| 20> %scf
| 21>   MaxIter 150
| 22> end
| 23>
| 24>
| 25>                          ****END OF INPUT****

CARTESIAN COORDINATES (ANGSTROEM)
---------------------------------
  C     -7.330440   -2.678990   -3.206810
  S     -6.019660   -2.926970   -4.419130
  O     -5.645830   -1.588380   -4.919310
  O     -4.881960   -3.503700   -3.667240
  F     -6.549270   -3.805150   -5.425070
  C     -7.469000   -1.246150   -2.713830
  H     -7.118250   -3.379820   -2.398050
  H     -8.241840   -3.004740   -3.706510
  H     -7.675800   -0.602140   -3.542920
  H     -6.557490   -0.940960   -2.243820
  H     -8.271140   -1.187770   -2.008100

 Total Charge           Charge          ....    0
 Multiplicity           Mult            ....    1
 Number of Electrons    NEL             ....   58
 Basis Dimension        Dim             ....  222

ORBITAL ENERGIES
----------------

  NO   OCC          E(Eh)            E(eV)
   0   2.0000     -89.097952     -2424.4785
   1   2.0000     -24.804164      -674.9556
   2   2.0000     -19.127440      -520.4841
   3   2.0000     -19.124309      -520.3989
   4   2.0000     -10.232886      -278.4510
   5   2.0000     -10.186259      -277.1822
   6   2.0000      -8.141669      -221.5461
   7   2.0000      -6.108448      -166.2193
   8   2.0000      -6.102032      -166.0447
   9   2.0000      -6.101742      -166.0368
  10   2.0000      -1.388732       -37.7893
  11   2.0000      -1.090808       -29.6824
  12   2.0000      -0.993928       -27.0462
  13   2.0000      -0.824282       -22.4298
  14   2.0000      -0.739376       -20.1194
  15   2.0000      -0.677114       -18.4252
  16   2.0000      -0.591452       -16.0942
  17   2.0000      -0.589134       -16.0311
  18   2.0000      -0.555175       -15.1071
  19   2.0000      -0.495771       -13.4906
  20   2.0000      -0.479306       -13.0426
  21   2.0000      -0.443516       -12.0687
  22   2.0000      -0.426312       -11.6005
  23   2.0000      -0.407322       -11.0838
  24   2.0000      -0.391934       -10.6651
  25   2.0000      -0.377369       -10.2687
  26   2.0000      -0.327114        -8.9012
  27   2.0000      -0.319726        -8.7002
  28   2.0000      -0.298583        -8.1248
  29   0.0000       0.017712         0.4820
  30   0.0000       0.024443         0.6651
  31   0.0000       0.048745         1.3264
  32   0.0000       0.070474         1.9177
  33   0.0000       0.072855         1.9825

MULLIKEN ATOMIC CHARGES
-----------------------
   0 C :   -0.235194
   1 S :    0.879182
   2 O :   -0.443372
   3 O :   -0.448428
   4 F :   -0.103042
   5 C :   -0.299691
   6 H :    0.149693
   7 H :    0.118817
   8 H :    0.129130
   9 H :    0.133938
  10 H :    0.118967
Sum of atomic charges:    0.0000000

LOEWDIN ATOMIC CHARGES
----------------------
   0 C :   -0.389487
   1 S :    0.554217
   2 O :   -0.298889
   3 O :   -0.311962
   4 F :    0.100079
   5 C :   -0.299676
   6 H :    0.142070
   7 H :    0.130312
   8 H :    0.124134
   9 H :    0.126584
  10 H :    0.122617

  Mayer bond orders larger than 0.100000
B(  0-C ,  1-S ) :   0.9003 B(  0-C ,  5-C ) :   0.9683 B(  0-C ,  6-H ) :   0.9408
B(  0-C ,  7-H ) :   0.9402 B(  1-S ,  2-O ) :   1.8817 B(  1-S ,  3-O ) :   1.8896
B(  1-S ,  4-F ) :   1.1354 B(  5-C ,  8-H ) :   0.9676 B(  5-C ,  9-H ) :   0.9708
B(  5-C , 10-H ) :   0.9543

Dispersion correction           -0.015916971
FINAL SINGLE POINT ENERGY      -727.632002492551

DIPOLE MOMENT
-------------
                                X             Y             Z
Electronic contribution:      4.16060      -5.47892      -7.28209
Nuclear contribution   :     -5.87110       5.18927       7.67759
                        -----------------------------------------
Total Dipole Moment    :     -1.71050      -0.28965       0.39550
                        -----------------------------------------
Magnitude (a.u.)       :      1.77936
Magnitude (Debye)      :      4.52277

Rotational constants in cm-1:     0.155988     0.080452     0.078187
Rotational constants in MHz :  4676.405251  2411.902056  2343.983816

                             ****ORCA TERMINATED NORMALLY****
TOTAL RUN TIME: 0 days 0 hours 0 minutes 29 seconds 864 msec
