                         Program Version 5.0.0 -  RELEASE  -
|  1> !B3LYP D3BJ RIJCOSX def2-TZVP def2/J TightSCF xyzfile
|  2>
|  3> *xyzfile 0 1 D2.xyz
|  4>
|  5> %MaxCore 64000
|  6>
|  7> %pal nprocs 18
|  8> end
|  9>
| 10> %scf
| 11>   MaxIter 150
| 12> end
| 13>
| 14>
| 15>                          ****END OF INPUT****

CARTESIAN COORDINATES (ANGSTROEM)
---------------------------------
  C     -2.160376   -1.369486   -3.467104
  C     -3.030108   -1.910857   -4.541074
  C     -2.047717    0.146583   -3.511774
  C     -7.330440   -2.678991   -3.206811
  S     -6.019659   -2.926965   -4.419128
  H     -3.477443   -2.791513   -4.257096
  H     -2.538013   -2.017860   -5.438075
  H     -3.891589   -1.376039   -4.714365
  O     -5.645830   -1.588384   -4.919307
  F     -4.881961   -3.503697   -3.667235
  H     -1.184438   -1.843997   -3.566393
  H     -2.598195   -1.708376   -2.528477
  O     -6.549267   -3.805150   -5.425071
  C     -3.328755    0.875037   -3.103669
  H     -1.740034    0.452343   -4.517126
  H     -1.232611    0.434938   -2.842208
  C     -3.628487    0.771601   -1.609363
  H     -4.175106    0.490791   -3.682203
  H     -3.237812    1.928663   -3.381480
  C     -4.975718    1.361432   -1.190644
  H     -2.830700    1.276234   -1.054766
  H     -3.594312   -0.275838   -1.294603
  C     -6.184720    0.784347   -1.926464
  H     -4.956292    2.445725   -1.342200
  H     -5.097256    1.205252   -0.114136
  C     -6.286921   -0.735882   -1.893531
  H     -6.163994    1.100199   -2.974250
  H     -7.094530    1.223459   -1.504509
  C     -7.468999   -1.246153   -2.713833
  H     -6.360641   -1.090347   -0.859176
  H     -5.369848   -1.171853   -2.295982
  H     -7.601914   -0.601349   -3.585329
  H     -8.389791   -1.173436   -2.126922
  H     -7.118254   -3.379818   -2.398055
  H     -8.241838   -3.004745   -3.706513

 Total Charge           Charge          ....    0
 Multiplicity           Mult            ....    1
 Number of Electrons    NEL             ....  122
 Basis Dimension        Dim             ....  566

ORBITAL ENERGIES
----------------

  NO   OCC          E(Eh)            E(eV)
   0   2.0000     -89.101064     -2424.5632
   1   2.0000     -24.787239      -674.4951
   2   2.0000     -19.143839      -520.9303
   3   2.0000     -19.132222      -520.6142
   4   2.0000     -10.232112      -278.4299
   5   2.0000     -10.194077      -277.3949
   6   2.0000     -10.176548      -276.9180
   7   2.0000     -10.166629      -276.6480
   8   2.0000     -10.161698      -276.5139
   9   2.0000     -10.155743      -276.3518
  10   2.0000     -10.150290      -276.2034
  11   2.0000     -10.147502      -276.1276
  12   2.0000     -10.141057      -275.9522
  13   2.0000     -10.093998      -274.6716
  14   2.0000      -8.145171      -221.6414
  15   2.0000      -6.111987      -166.3156
  16   2.0000      -6.105549      -166.1404
  17   2.0000      -6.105222      -166.1315
  18   2.0000      -1.362269       -37.0692
  19   2.0000      -1.114031       -30.3143
  20   2.0000      -1.020167       -27.7602
  21   2.0000      -0.841096       -22.8874
  22   2.0000      -0.811859       -22.0918
  23   2.0000      -0.785436       -21.3728
  24   2.0000      -0.759986       -20.6803
  25   2.0000      -0.720797       -19.6139
  26   2.0000      -0.705577       -19.1997
  27   2.0000      -0.667144       -18.1539
  28   2.0000      -0.633251       -17.2316
  29   2.0000      -0.618698       -16.8356
  30   2.0000      -0.580848       -15.8057
  31   2.0000      -0.576323       -15.6825
  32   2.0000      -0.570925       -15.5357
  33   2.0000      -0.557585       -15.1727
  34   2.0000      -0.542778       -14.7697
  35   2.0000      -0.501513       -13.6469
  36   2.0000      -0.485090       -13.2000
  37   2.0000      -0.474561       -12.9135
  38   2.0000      -0.468940       -12.7605
  39   2.0000      -0.462476       -12.5846
  40   2.0000      -0.444074       -12.0839
  41   2.0000      -0.432463       -11.7679
  42   2.0000      -0.430333       -11.7099
  43   2.0000      -0.426094       -11.5946
  44   2.0000      -0.405639       -11.0380
  45   2.0000      -0.397510       -10.8168
  46   2.0000      -0.388313       -10.5665
  47   2.0000      -0.381832       -10.3902
  48   2.0000      -0.373465       -10.1625
  49   2.0000      -0.364257        -9.9119
  50   2.0000      -0.357566        -9.7299
  51   2.0000      -0.345379        -9.3982
  52   2.0000      -0.338656        -9.2153
  53   2.0000      -0.334057        -9.0901
  54   2.0000      -0.329723        -8.9722
  55   2.0000      -0.324361        -8.8263
  56   2.0000      -0.318763        -8.6740
  57   2.0000      -0.313335        -8.5263
  58   2.0000      -0.302204        -8.2234
  59   2.0000      -0.300456        -8.1758
  60   2.0000      -0.286537        -7.7971
  61   0.0000       0.013841         0.3766
  62   0.0000       0.021822         0.5938
  63   0.0000       0.039964         1.0875
  64   0.0000       0.043263         1.1772
  65   0.0000       0.051739         1.4079

MULLIKEN ATOMIC CHARGES
-----------------------
   0 C :   -0.140542
   1 C :   -0.414091
   2 C :   -0.089773
   3 C :   -0.266574
   4 S :    0.916418
   5 H :    0.090861
   6 H :    0.101101
   7 H :    0.164808
   8 O :   -0.459016
   9 F :   -0.131362
  10 H :    0.078118
  11 H :    0.063051
  12 O :   -0.418924
  13 C :   -0.227047
  14 H :    0.079690
  15 H :    0.069505
  16 C :   -0.209476
  17 H :    0.123897
  18 H :    0.081845
  19 C :   -0.123294
  20 H :    0.088343
  21 H :    0.093203
  22 C :   -0.198142
  23 H :    0.085513
  24 H :    0.083566
  25 C :   -0.246762
  26 H :    0.113602
  27 H :    0.088264
  28 C :   -0.108286
  29 H :    0.089868
  30 H :    0.097217
  31 H :    0.119534
  32 H :    0.106871
  33 H :    0.130590
  34 H :    0.167425
Sum of atomic charges:    0.0000000

LOEWDIN ATOMIC CHARGES
----------------------
   0 C :   -0.298272
   1 C :   -0.333407
   2 C :   -0.260452
   3 C :   -0.357925
   4 S :    0.579131
   5 H :    0.092187
   6 H :    0.103104
   7 H :    0.103677
   8 O :   -0.272290
   9 F :    0.064939
  10 H :    0.130374
  11 H :    0.125497
  12 O :   -0.254670
  13 C :   -0.261023
  14 H :    0.133996
  15 H :    0.130796
  16 C :   -0.266280
  17 H :    0.136833
  18 H :    0.132200
  19 C :   -0.263117
  20 H :    0.133483
  21 H :    0.129011
  22 C :   -0.264810
  23 H :    0.134634
  24 H :    0.132449
  25 C :   -0.265801
  26 H :    0.137988
  27 H :    0.133940
  28 C :   -0.276094
  29 H :    0.132931
  30 H :    0.133053
  31 H :    0.147030
  32 H :    0.142082
  33 H :    0.136754
  34 H :    0.148055

  Mayer bond orders larger than 0.100000
B(  0-C ,  1-C ) :   0.9326 B(  0-C ,  2-C ) :   0.9694 B(  0-C , 10-H ) :   0.9714
B(  0-C , 11-H ) :   0.9863 B(  1-C ,  5-H ) :   0.9833 B(  1-C ,  6-H ) :   0.9706
B(  1-C ,  7-H ) :   0.9824 B(  2-C , 13-C ) :   0.9785 B(  2-C , 14-H ) :   0.9643
B(  2-C , 15-H ) :   0.9682 B(  3-C ,  4-S ) :   0.9016 B(  3-C , 28-C ) :   0.9443
B(  3-C , 33-H ) :   0.9473 B(  3-C , 34-H ) :   0.9501 B(  4-S ,  8-O ) :   1.7964
B(  4-S ,  9-F ) :   1.0623 B(  4-S , 12-O ) :   1.9644 B( 13-C , 16-C ) :   0.9601
B( 13-C , 17-H ) :   0.9789 B( 13-C , 18-H ) :   0.9634 B( 16-C , 19-C ) :   0.9625
B( 16-C , 20-H ) :   0.9645 B( 16-C , 21-H ) :   0.9808 B( 19-C , 22-C ) :   0.9704
B( 19-C , 23-H ) :   0.9705 B( 19-C , 24-H ) :   0.9735 B( 22-C , 25-C ) :   0.9621
B( 22-C , 26-H ) :   0.9776 B( 22-C , 27-H ) :   0.9675 B( 25-C , 28-C ) :   0.9534
B( 25-C , 29-H ) :   0.9579 B( 25-C , 30-H ) :   0.9858 B( 28-C , 31-H ) :   0.9632
B( 28-C , 32-H ) :   0.9474

Dispersion correction           -0.067306216
FINAL SINGLE POINT ENERGY     -1042.030847539159

DIPOLE MOMENT
-------------
                                X             Y             Z
Electronic contribution:     -9.53271     -19.52022     -11.11525
Nuclear contribution   :      8.71934      19.48829      12.54264
                        -----------------------------------------
Total Dipole Moment    :     -0.81337      -0.03193       1.42739
                        -----------------------------------------
Magnitude (a.u.)       :      1.64318
Magnitude (Debye)      :      4.17664

Rotational constants in cm-1:     0.025810     0.015137     0.010647
Rotational constants in MHz :   773.773140   453.802427   319.195213

                             ****ORCA TERMINATED NORMALLY****
TOTAL RUN TIME: 0 days 0 hours 1 minutes 4 seconds 647 msec
