                         Program Version 5.0.0 -  RELEASE  -
|  1> !M062X D3Zero RIJCOSX def2-TZVPD def2/J TightSCF
|  2> *xyz -1 1
|  3> C         -0.87096        0.24804       -2.66280
|  4> C         -0.47749        0.60819       -4.10105
|  5> H          0.20677        1.45830       -4.11875
|  6> H         -1.36844        0.92942       -4.64785
|  7> C          0.18467       -0.50664       -4.91676
|  8> O         -0.15869       -1.70109       -4.65798
|  9> O          1.05594       -0.17441       -5.74037
| 10> H         -1.54056       -0.58646       -2.67455
| 11> H         -1.35339        1.08600       -2.20455
| 12> H          0.00660       -0.00662       -2.10609
| 13> *
| 14>
| 15> %MaxCore 64000
| 16>
| 17> %pal nprocs 4
| 18> end
| 19>
| 20> %scf
| 21>   MaxIter 150
| 22> end
| 23>
| 24>
| 25>                          ****END OF INPUT****

CARTESIAN COORDINATES (ANGSTROEM)
---------------------------------
  C     -0.870960    0.248040   -2.662800
  C     -0.477490    0.608190   -4.101050
  H      0.206770    1.458300   -4.118750
  H     -1.368440    0.929420   -4.647850
  C      0.184670   -0.506640   -4.916760
  O     -0.158690   -1.701090   -4.657980
  O      1.055940   -0.174410   -5.740370
  H     -1.540560   -0.586460   -2.674550
  H     -1.353390    1.086000   -2.204550
  H      0.006600   -0.006620   -2.106090

 Total Charge           Charge          ....   -1
 Multiplicity           Mult            ....    1
 Number of Electrons    NEL             ....   40
 Basis Dimension        Dim             ....  236

ORBITAL ENERGIES
----------------

  NO   OCC          E(Eh)            E(eV)
   0   2.0000     -19.362011      -526.8671
   1   2.0000     -19.358338      -526.7672
   2   2.0000     -10.422194      -283.6023
   3   2.0000     -10.368182      -282.1326
   4   2.0000     -10.360291      -281.9179
   5   2.0000      -0.943229       -25.6666
   6   2.0000      -0.843469       -22.9520
   7   2.0000      -0.700242       -19.0545
   8   2.0000      -0.563325       -15.3289
   9   2.0000      -0.396363       -10.7856
  10   2.0000      -0.362986        -9.8773
  11   2.0000      -0.337941        -9.1958
  12   2.0000      -0.301013        -8.1910
  13   2.0000      -0.284158        -7.7323
  14   2.0000      -0.279852        -7.6152
  15   2.0000      -0.245727        -6.6866
  16   2.0000      -0.227900        -6.2015
  17   2.0000      -0.113249        -3.0817
  18   2.0000      -0.111717        -3.0400
  19   2.0000      -0.105051        -2.8586
  20   0.0000       0.141031         3.8376
  21   0.0000       0.162662         4.4263
  22   0.0000       0.171812         4.6752
  23   0.0000       0.189170         5.1476
  24   0.0000       0.203352         5.5335

MULLIKEN ATOMIC CHARGES
-----------------------
   0 C :   -1.027377
   1 C :   -0.349261
   2 H :    0.269786
   3 H :    0.259090
   4 C :    0.603355
   5 O :   -0.805819
   6 O :   -0.791836
   7 H :    0.237711
   8 H :    0.318015
   9 H :    0.286335
Sum of atomic charges:   -1.0000000

LOEWDIN ATOMIC CHARGES
----------------------
   0 C :   -0.136580
   1 C :   -0.209983
   2 H :    0.090515
   3 H :    0.097493
   4 C :   -0.769072
   5 O :   -0.124409
   6 O :   -0.105339
   7 H :    0.054590
   8 H :    0.042706
   9 H :    0.060077

  Mayer bond orders larger than 0.100000
B(  0-C ,  1-C ) :   0.4666 B(  0-C ,  7-H ) :   1.0478 B(  0-C ,  8-H ) :   0.9443
B(  0-C ,  9-H ) :   0.9870 B(  1-C ,  2-H ) :   0.9942 B(  1-C ,  3-H ) :   0.9617
B(  1-C ,  4-C ) :   0.9525 B(  4-C ,  5-O ) :   1.3557 B(  4-C ,  6-O ) :   1.3537

Dispersion correction           -0.000090013
FINAL SINGLE POINT ENERGY      -267.831608227710

DIPOLE MOMENT
-------------
                                X             Y             Z
Electronic contribution:      2.61571      -2.88606      -4.53837
Nuclear contribution   :     -3.54611       4.15440       5.90446
                        -----------------------------------------
Total Dipole Moment    :     -0.93041       1.26834       1.36610
                        -----------------------------------------
Magnitude (a.u.)       :      2.08340
Magnitude (Debye)      :      5.29558

Rotational constants in cm-1:     0.332789     0.132085     0.101080
Rotational constants in MHz :  9976.755824  3959.803182  3030.288811

                             ****ORCA TERMINATED NORMALLY****
TOTAL RUN TIME: 0 days 0 hours 0 minutes 36 seconds 147 msec
