                         Program Version 5.0.0 -  RELEASE  -
|  1> !M062X D3Zero RIJCOSX def2-TZVPD def2/J TightSCF
|  2> *xyz 1 1
|  3> C          2.48645       -2.67712       -2.56345
|  4> C          3.03764       -2.36672       -3.92351
|  5> N          2.28036       -2.45441       -4.96769
|  6> N          4.32174       -2.01793       -4.01664
|  7> H          4.87994       -1.91167       -3.17382
|  8> H          4.71015       -1.67088       -4.88356
|  9> H          1.27042       -2.41265       -4.86614
| 10> H          2.58183       -2.05528       -5.84688
| 11> C          2.49799       -1.46946       -1.61030
| 12> H          1.47259       -3.05153       -2.69437
| 13> H          3.08320       -3.49064       -2.14147
| 14> H          1.91240       -0.67831       -2.02991
| 15> H          3.50450       -1.13364       -1.47227
| 16> H          2.08509       -1.75655       -0.66585
| 17> *
| 18>
| 19> %MaxCore 64000
| 20>
| 21> %pal nprocs 4
| 22> end
| 23>
| 24> %scf
| 25>   MaxIter 150
| 26> end
| 27>
| 28>
| 29>                          ****END OF INPUT****

CARTESIAN COORDINATES (ANGSTROEM)
---------------------------------
  C      2.486450   -2.677120   -2.563450
  C      3.037640   -2.366720   -3.923510
  N      2.280360   -2.454410   -4.967690
  N      4.321740   -2.017930   -4.016640
  H      4.879940   -1.911670   -3.173820
  H      4.710150   -1.670880   -4.883560
  H      1.270420   -2.412650   -4.866140
  H      2.581830   -2.055280   -5.846880
  C      2.497990   -1.469460   -1.610300
  H      1.472590   -3.051530   -2.694370
  H      3.083200   -3.490640   -2.141470
  H      1.912400   -0.678310   -2.029910
  H      3.504500   -1.133640   -1.472270
  H      2.085090   -1.756550   -0.665850

 Total Charge           Charge          ....    1
 Multiplicity           Mult            ....    1
 Number of Electrons    NEL             ....   40
 Basis Dimension        Dim             ....  266

ORBITAL ENERGIES
----------------

  NO   OCC          E(Eh)            E(eV)
   0   2.0000     -14.997739      -408.1092
   1   2.0000     -14.992172      -407.9577
   2   2.0000     -10.865744      -295.6719
   3   2.0000     -10.734872      -292.1107
   4   2.0000     -10.692445      -290.9562
   5   2.0000      -1.320524       -35.9333
   6   2.0000      -1.216587       -33.1050
   7   2.0000      -1.067392       -29.0452
   8   2.0000      -0.954740       -25.9798
   9   2.0000      -0.899066       -24.4648
  10   2.0000      -0.849454       -23.1148
  11   2.0000      -0.828353       -22.5406
  12   2.0000      -0.771604       -20.9964
  13   2.0000      -0.725794       -19.7499
  14   2.0000      -0.692080       -18.8324
  15   2.0000      -0.678238       -18.4558
  16   2.0000      -0.611820       -16.6485
  17   2.0000      -0.602051       -16.3826
  18   2.0000      -0.592439       -16.1211
  19   2.0000      -0.559680       -15.2297
  20   0.0000      -0.176527        -4.8036
  21   0.0000      -0.148530        -4.0417
  22   0.0000      -0.110943        -3.0189
  23   0.0000      -0.106712        -2.9038
  24   0.0000      -0.084926        -2.3110

MULLIKEN ATOMIC CHARGES
-----------------------
   0 C :   -0.733816
   1 C :    1.059202
   2 N :   -0.541213
   3 N :   -0.553743
   4 H :    0.284436
   5 H :    0.264247
   6 H :    0.313557
   7 H :    0.286433
   8 C :   -1.043936
   9 H :    0.340612
  10 H :    0.341232
  11 H :    0.324162
  12 H :    0.331709
  13 H :    0.327119
Sum of atomic charges:    1.0000000

LOEWDIN ATOMIC CHARGES
----------------------
   0 C :   -0.146090
   1 C :   -0.359749
   2 N :    0.227250
   3 N :    0.221575
   4 H :    0.147434
   5 H :    0.145952
   6 H :    0.157973
   7 H :    0.151289
   8 C :   -0.053540
   9 H :    0.124770
  10 H :    0.139863
  11 H :    0.084869
  12 H :    0.071078
  13 H :    0.087327

  Mayer bond orders larger than 0.100000
B(  0-C ,  1-C ) :   0.6722 B(  0-C ,  8-C ) :   0.5547 B(  0-C ,  9-H ) :   0.9426
B(  0-C , 10-H ) :   0.9702 B(  1-C ,  2-N ) :   1.1347 B(  1-C ,  3-N ) :   1.0266
B(  2-N ,  3-N ) :   0.1044 B(  2-N ,  6-H ) :   0.8987 B(  2-N ,  7-H ) :   0.9442
B(  3-N ,  4-H ) :   0.9252 B(  3-N ,  5-H ) :   0.9769 B(  8-C , 11-H ) :   0.9756
B(  8-C , 12-H ) :   0.9083 B(  8-C , 13-H ) :   0.9935

Dispersion correction           -0.000199988
FINAL SINGLE POINT ENERGY      -229.002228329645

DIPOLE MOMENT
-------------
                                X             Y             Z
Electronic contribution:      1.04601      -1.07233      -3.89257
Nuclear contribution   :     -0.84604       1.34287       2.92710
                        -----------------------------------------
Total Dipole Moment    :      0.19997       0.27054      -0.96547
                        -----------------------------------------
Magnitude (a.u.)       :      1.02240
Magnitude (Debye)      :      2.59875

Rotational constants in cm-1:     0.265816     0.126189     0.097583
Rotational constants in MHz :  7968.948902  3783.040103  2925.457702

                             ****ORCA TERMINATED NORMALLY****
TOTAL RUN TIME: 0 days 0 hours 0 minutes 45 seconds 120 msec
