                         Program Version 5.0.0 -  RELEASE  -
|  1> !M062X D3Zero RIJCOSX def2-TZVPD def2/J TightSCF xyzfile
|  2>
|  3> *xyzfile 0 1 B.xyz
|  4>
|  5> %MaxCore 64000
|  6>
|  7> %pal nprocs 4
|  8> end
|  9>
| 10> %scf
| 11>   MaxIter 150
| 12> end
| 13>
| 14>
| 15>                          ****END OF INPUT****

CARTESIAN COORDINATES (ANGSTROEM)
---------------------------------
  C      2.486452   -2.677121   -2.563447
  C     -0.870963    0.248043   -2.662804
  C     -0.477492    0.608191   -4.101052
  H      0.206773    1.458299   -4.118748
  H     -1.368442    0.929419   -4.647855
  C      0.184673   -0.506640   -4.916760
  C      3.037640   -2.366715   -3.923509
  N      2.280360   -2.454408   -4.967692
  N      4.321736   -2.017932   -4.016641
  H      4.879940   -1.911668   -3.173823
  H      4.710148   -1.670882   -4.883561
  H      1.270423   -2.412650   -4.866143
  H      2.581829   -2.055282   -5.846878
  O     -0.158685   -1.701088   -4.657981
  O      1.055938   -0.174410   -5.740373
  C      2.497991   -1.469464   -1.610303
  C      1.582841   -0.321986   -2.042619
  H      2.193083   -1.833912   -0.625420
  H      3.523356   -1.103982   -1.490392
  C      0.100160   -0.673551   -1.915815
  H      1.822311   -0.040361   -3.072834
  H      1.813180    0.557019   -1.433266
  H     -0.063284   -1.679120   -2.301112
  H     -0.168820   -0.691680   -0.853831
  H     -1.001048    1.181040   -2.104071
  H     -1.844645   -0.246592   -2.663281
  H      1.472592   -3.051527   -2.694366
  H      3.083201   -3.490638   -2.141472

 Total Charge           Charge          ....    0
 Multiplicity           Mult            ....    1
 Number of Electrons    NEL             ....   94
 Basis Dimension        Dim             ....  594

ORBITAL ENERGIES
----------------

  NO   OCC          E(Eh)            E(eV)
   0   2.0000     -19.538146      -531.6600
   1   2.0000     -19.531439      -531.4775
   2   2.0000     -14.831356      -403.5817
   3   2.0000     -14.795609      -402.6090
   4   2.0000     -10.691025      -290.9176
   5   2.0000     -10.590801      -288.1903
   6   2.0000     -10.581229      -287.9299
   7   2.0000     -10.562784      -287.4280
   8   2.0000     -10.532240      -286.5968
   9   2.0000     -10.513625      -286.0903
  10   2.0000     -10.509084      -285.9667
  11   2.0000     -10.496934      -285.6361
  12   2.0000      -1.146117       -31.1874
  13   2.0000      -1.122807       -30.5531
  14   2.0000      -1.040444       -28.3119
  15   2.0000      -1.023031       -27.8381
  16   2.0000      -0.931546       -25.3487
  17   2.0000      -0.876171       -23.8418
  18   2.0000      -0.828425       -22.5426
  19   2.0000      -0.769093       -20.9281
  20   2.0000      -0.746232       -20.3060
  21   2.0000      -0.700211       -19.0537
  22   2.0000      -0.683763       -18.6061
  23   2.0000      -0.658197       -17.9105
  24   2.0000      -0.637102       -17.3364
  25   2.0000      -0.598028       -16.2732
  26   2.0000      -0.573455       -15.6045
  27   2.0000      -0.553716       -15.0674
  28   2.0000      -0.535157       -14.5624
  29   2.0000      -0.524222       -14.2648
  30   2.0000      -0.518958       -14.1216
  31   2.0000      -0.493178       -13.4200
  32   2.0000      -0.481505       -13.1024
  33   2.0000      -0.478357       -13.0167
  34   2.0000      -0.464365       -12.6360
  35   2.0000      -0.451300       -12.2805
  36   2.0000      -0.439647       -11.9634
  37   2.0000      -0.422139       -11.4870
  38   2.0000      -0.415027       -11.2935
  39   2.0000      -0.399618       -10.8742
  40   2.0000      -0.385010       -10.4767
  41   2.0000      -0.375961       -10.2304
  42   2.0000      -0.366186        -9.9644
  43   2.0000      -0.357175        -9.7192
  44   2.0000      -0.294157        -8.0044
  45   2.0000      -0.285414        -7.7665
  46   2.0000      -0.275560        -7.4984
  47   0.0000      -0.018441        -0.5018
  48   0.0000      -0.008816        -0.2399
  49   0.0000       0.014328         0.3899
  50   0.0000       0.024419         0.6645
  51   0.0000       0.030512         0.8303

MULLIKEN ATOMIC CHARGES
-----------------------
   0 C :   -0.798480
   1 C :   -0.896255
   2 C :   -0.800530
   3 H :    0.316926
   4 H :    0.375983
   5 C :    1.056643
   6 C :    0.795833
   7 N :   -0.519601
   8 N :   -0.640706
   9 H :    0.262228
  10 H :    0.251790
  11 H :    0.374595
  12 H :    0.300041
  13 O :   -0.950508
  14 O :   -0.859103
  15 C :   -0.756409
  16 C :   -0.329492
  17 H :    0.411054
  18 H :    0.326412
  19 C :   -0.504854
  20 H :    0.168394
  21 H :    0.366841
  22 H :    0.226687
  23 H :    0.408771
  24 H :    0.381209
  25 H :    0.341564
  26 H :    0.300970
  27 H :    0.389996
Sum of atomic charges:   -0.0000000

LOEWDIN ATOMIC CHARGES
----------------------
   0 C :   -0.104798
   1 C :   -0.199333
   2 C :   -0.129374
   3 H :    0.110124
   4 H :    0.118065
   5 C :   -0.693871
   6 C :   -0.366536
   7 N :    0.232576
   8 N :    0.186999
   9 H :    0.127908
  10 H :    0.133111
  11 H :    0.054494
  12 H :    0.137703
  13 O :   -0.081927
  14 O :   -0.050151
  15 C :   -0.190647
  16 C :   -0.195207
  17 H :    0.119379
  18 H :    0.103438
  19 C :   -0.215860
  20 H :    0.108225
  21 H :    0.120366
  22 H :    0.091599
  23 H :    0.114664
  24 H :    0.107365
  25 H :    0.110726
  26 H :    0.121285
  27 H :    0.129680

  Mayer bond orders larger than 0.100000
B(  0-C ,  6-C ) :   0.6756 B(  0-C ,  8-N ) :   0.1203 B(  0-C , 15-C ) :   0.6734
B(  0-C , 16-C ) :  -0.1096 B(  0-C , 26-H ) :   0.9958 B(  0-C , 27-H ) :   0.9342
B(  1-C ,  2-C ) :   0.5900 B(  1-C , 19-C ) :   0.7847 B(  1-C , 22-H ) :   0.1001
B(  1-C , 24-H ) :   0.9471 B(  1-C , 25-H ) :   0.9688 B(  2-C ,  3-H ) :   1.0711
B(  2-C ,  4-H ) :   0.8907 B(  2-C ,  5-C ) :   0.8770 B(  5-C , 13-O ) :   0.9413
B(  5-C , 14-O ) :   1.0920 B(  6-C ,  7-N ) :   1.3501 B(  6-C ,  8-N ) :   0.8435
B(  6-C , 15-C ) :   0.1136 B(  7-N ,  8-N ) :   0.1080 B(  7-N , 11-H ) :   0.6010
B(  7-N , 12-H ) :   0.9014 B(  7-N , 13-O ) :  -0.1262 B(  8-N ,  9-H ) :   0.9643
B(  8-N , 10-H ) :   0.9652 B( 11-H , 13-O ) :   0.2288 B( 13-O , 19-C ) :  -0.1214
B( 15-C , 16-C ) :   0.7068 B( 15-C , 17-H ) :   0.9162 B( 15-C , 18-H ) :   0.9303
B( 15-C , 19-C ) :   0.2608 B( 16-C , 19-C ) :   0.2331 B( 16-C , 20-H ) :   0.9504
B( 16-C , 21-H ) :   0.9167 B( 16-C , 22-H ) :  -0.1594 B( 19-C , 22-H ) :   1.0384
B( 19-C , 23-H ) :   0.8580 B( 22-H , 23-H ) :   0.1033

Dispersion correction           -0.001393253
FINAL SINGLE POINT ENERGY      -574.433408065881

DIPOLE MOMENT
-------------
                                X             Y             Z
Electronic contribution:      1.70819      -2.91080      -8.77274
Nuclear contribution   :      1.39386       1.90489      10.36520
                        -----------------------------------------
Total Dipole Moment    :      3.10204      -1.00590       1.59246
                        -----------------------------------------
Magnitude (a.u.)       :      3.62911
Magnitude (Debye)      :      9.22447

Rotational constants in cm-1:     0.041165     0.025922     0.019001
Rotational constants in MHz :  1234.086888   777.109255   569.639629

                             ****ORCA TERMINATED NORMALLY****
TOTAL RUN TIME: 0 days 0 hours 5 minutes 5 seconds 864 msec
