                         Program Version 5.0.0 -  RELEASE  -
|  1> !M062X D3Zero RIJCOSX def2-TZVPD def2/J TightSCF
|  2> *xyz 0 1
|  3> C         -0.87096        0.24804       -2.66280
|  4> C         -0.47749        0.60819       -4.10105
|  5> H          0.20677        1.45830       -4.11875
|  6> H         -1.36844        0.92942       -4.64785
|  7> C          0.18467       -0.50664       -4.91676
|  8> F         -0.15869       -1.70109       -4.65798
|  9> O          1.05594       -0.17441       -5.74037
| 10> H         -1.54056       -0.58646       -2.67455
| 11> H         -1.35339        1.08600       -2.20455
| 12> H          0.00660       -0.00662       -2.10609
| 13> *
| 14>
| 15> %MaxCore 64000
| 16>
| 17> %pal nprocs 4
| 18> end
| 19>
| 20> %scf
| 21>   MaxIter 150
| 22> end
| 23>
| 24>
| 25>                          ****END OF INPUT****

CARTESIAN COORDINATES (ANGSTROEM)
---------------------------------
  C     -0.870960    0.248040   -2.662800
  C     -0.477490    0.608190   -4.101050
  H      0.206770    1.458300   -4.118750
  H     -1.368440    0.929420   -4.647850
  C      0.184670   -0.506640   -4.916760
  F     -0.158690   -1.701090   -4.657980
  O      1.055940   -0.174410   -5.740370
  H     -1.540560   -0.586460   -2.674550
  H     -1.353390    1.086000   -2.204550
  H      0.006600   -0.006620   -2.106090

 Total Charge           Charge          ....    0
 Multiplicity           Mult            ....    1
 Number of Electrons    NEL             ....   40
 Basis Dimension        Dim             ....  236

ORBITAL ENERGIES
----------------

  NO   OCC          E(Eh)            E(eV)
   0   2.0000     -25.311562      -688.7626
   1   2.0000     -19.636464      -534.3353
   2   2.0000     -10.720454      -291.7184
   3   2.0000     -10.568655      -287.5877
   4   2.0000     -10.542674      -286.8807
   5   2.0000      -1.455636       -39.6099
   6   2.0000      -1.163827       -31.6693
   7   2.0000      -0.902368       -24.5547
   8   2.0000      -0.781888       -21.2762
   9   2.0000      -0.734961       -19.9993
  10   2.0000      -0.640570       -17.4308
  11   2.0000      -0.634987       -17.2789
  12   2.0000      -0.583094       -15.8668
  13   2.0000      -0.540429       -14.7058
  14   2.0000      -0.508844       -13.8463
  15   2.0000      -0.474416       -12.9095
  16   2.0000      -0.458276       -12.4703
  17   2.0000      -0.444356       -12.0915
  18   2.0000      -0.417328       -11.3561
  19   2.0000      -0.370544       -10.0830
  20   0.0000       0.006088         0.1657
  21   0.0000       0.017308         0.4710
  22   0.0000       0.034616         0.9420
  23   0.0000       0.039478         1.0743
  24   0.0000       0.053585         1.4581

MULLIKEN ATOMIC CHARGES
-----------------------
   0 C :   -1.093780
   1 C :   -0.360510
   2 H :    0.291367
   3 H :    0.313067
   4 C :    0.714546
   5 F :   -0.244891
   6 O :   -0.578235
   7 H :    0.306374
   8 H :    0.317635
   9 H :    0.334427
Sum of atomic charges:   -0.0000000

LOEWDIN ATOMIC CHARGES
----------------------
   0 C :   -0.094507
   1 C :   -0.150308
   2 H :    0.119301
   3 H :    0.122983
   4 C :   -0.472231
   5 F :    0.181471
   6 O :    0.081343
   7 H :    0.068660
   8 H :    0.069276
   9 H :    0.074012

  Mayer bond orders larger than 0.100000
B(  0-C ,  1-C ) :   0.5009 B(  0-C ,  7-H ) :   0.9762 B(  0-C ,  8-H ) :   0.9691
B(  0-C ,  9-H ) :   0.9529 B(  1-C ,  2-H ) :   0.9630 B(  1-C ,  3-H ) :   0.9323
B(  1-C ,  4-C ) :   0.9355 B(  4-C ,  5-F ) :   0.9247 B(  4-C ,  6-O ) :   1.6412

Dispersion correction           -0.000096223
FINAL SINGLE POINT ENERGY      -292.397133066761

DIPOLE MOMENT
-------------
                                X             Y             Z
Electronic contribution:      2.59840      -5.33756      -5.27652
Nuclear contribution   :     -3.42837       5.66737       6.17046
                        -----------------------------------------
Total Dipole Moment    :     -0.82997       0.32981       0.89394
                        -----------------------------------------
Magnitude (a.u.)       :      1.26363
Magnitude (Debye)      :      3.21189

Rotational constants in cm-1:     0.304660     0.130969     0.097716
Rotational constants in MHz :  9133.464515  3926.366384  2929.457090

                             ****ORCA TERMINATED NORMALLY****
TOTAL RUN TIME: 0 days 0 hours 0 minutes 37 seconds 652 msec
