                         Program Version 5.0.0 -  RELEASE  -
|  1> !M062X D3Zero RIJCOSX def2-TZVPD def2/J TightSCF
|  2> *xyz 0 1
|  3> C          2.48645       -2.67712       -2.56345
|  4> C          3.03764       -2.36672       -3.92351
|  5> C          2.28036       -2.45441       -4.96769
|  6> N          4.32174       -2.01793       -4.01664
|  7> H          4.87994       -1.91167       -3.17382
|  8> H          4.71015       -1.67088       -4.88356
|  9> H          1.27042       -2.41265       -4.86614
| 10> H          2.58183       -2.05528       -5.84688
| 11> C          2.49799       -1.46946       -1.61030
| 12> H          1.47259       -3.05153       -2.69437
| 13> H          3.08320       -3.49064       -2.14147
| 14> H          1.91240       -0.67831       -2.02991
| 15> H          3.50450       -1.13364       -1.47227
| 16> H          2.08509       -1.75655       -0.66585
| 17> *
| 18>
| 19> %MaxCore 64000
| 20>
| 21> %pal nprocs 4
| 22> end
| 23>
| 24> %scf
| 25>   MaxIter 150
| 26> end
| 27>
| 28>
| 29>                          ****END OF INPUT****

CARTESIAN COORDINATES (ANGSTROEM)
---------------------------------
  C      2.486450   -2.677120   -2.563450
  C      3.037640   -2.366720   -3.923510
  C      2.280360   -2.454410   -4.967690
  N      4.321740   -2.017930   -4.016640
  H      4.879940   -1.911670   -3.173820
  H      4.710150   -1.670880   -4.883560
  H      1.270420   -2.412650   -4.866140
  H      2.581830   -2.055280   -5.846880
  C      2.497990   -1.469460   -1.610300
  H      1.472590   -3.051530   -2.694370
  H      3.083200   -3.490640   -2.141470
  H      1.912400   -0.678310   -2.029910
  H      3.504500   -1.133640   -1.472270
  H      2.085090   -1.756550   -0.665850

 Total Charge           Charge          ....    0
 Multiplicity           Mult            ....    1
 Number of Electrons    NEL             ....   40
 Basis Dimension        Dim             ....  266

ORBITAL ENERGIES
----------------

  NO   OCC          E(Eh)            E(eV)
   0   2.0000     -14.748040      -401.3146
   1   2.0000     -10.557485      -287.2838
   2   2.0000     -10.533885      -286.6416
   3   2.0000     -10.522299      -286.3263
   4   2.0000     -10.465888      -284.7913
   5   2.0000      -1.034139       -28.1403
   6   2.0000      -0.877650       -23.8821
   7   2.0000      -0.820837       -22.3361
   8   2.0000      -0.723353       -19.6834
   9   2.0000      -0.645778       -17.5725
  10   2.0000      -0.598910       -16.2972
  11   2.0000      -0.549584       -14.9549
  12   2.0000      -0.504806       -13.7365
  13   2.0000      -0.499521       -13.5927
  14   2.0000      -0.454196       -12.3593
  15   2.0000      -0.448942       -12.2163
  16   2.0000      -0.416628       -11.3370
  17   2.0000      -0.396375       -10.7859
  18   2.0000      -0.389125       -10.5886
  19   2.0000      -0.252337        -6.8664
  20   0.0000       0.014758         0.4016
  21   0.0000       0.038397         1.0448
  22   0.0000       0.044469         1.2101
  23   0.0000       0.049810         1.3554
  24   0.0000       0.073862         2.0099

MULLIKEN ATOMIC CHARGES
-----------------------
   0 C :   -0.823672
   1 C :    0.906560
   2 C :   -0.860244
   3 N :   -0.639436
   4 H :    0.240373
   5 H :    0.219284
   6 H :    0.196192
   7 H :    0.237117
   8 C :   -1.018806
   9 H :    0.306607
  10 H :    0.342559
  11 H :    0.284304
  12 H :    0.291949
  13 H :    0.317211
Sum of atomic charges:    0.0000000

LOEWDIN ATOMIC CHARGES
----------------------
   0 C :   -0.201092
   1 C :   -0.501128
   2 C :    0.011652
   3 N :    0.094102
   4 H :    0.105310
   5 H :    0.111584
   6 H :    0.028714
   7 H :    0.025187
   8 C :   -0.092581
   9 H :    0.109139
  10 H :    0.115441
  11 H :    0.073468
  12 H :    0.056323
  13 H :    0.063884

  Mayer bond orders larger than 0.100000
B(  0-C ,  1-C ) :   0.6359 B(  0-C ,  2-C ) :   0.1263 B(  0-C ,  3-N ) :   0.1154
B(  0-C ,  8-C ) :   0.5470 B(  0-C ,  9-H ) :   0.9897 B(  0-C , 10-H ) :   0.9246
B(  1-C ,  2-C ) :   1.3618 B(  1-C ,  3-N ) :   0.7629 B(  1-C ,  7-H ) :  -0.1457
B(  2-C ,  3-N ) :   0.1175 B(  2-C ,  6-H ) :   1.0337 B(  2-C ,  7-H ) :   1.1025
B(  3-N ,  4-H ) :   0.9739 B(  3-N ,  5-H ) :   0.9994 B(  8-C , 11-H ) :   1.0292
B(  8-C , 12-H ) :   0.9475 B(  8-C , 13-H ) :   0.9918

Dispersion correction           -0.000196499
FINAL SINGLE POINT ENERGY      -212.534510329581

DIPOLE MOMENT
-------------
                                X             Y             Z
Electronic contribution:      1.50209      -0.88780      -2.13552
Nuclear contribution   :     -0.99743       1.27863       2.57190
                        -----------------------------------------
Total Dipole Moment    :      0.50465       0.39083       0.43638
                        -----------------------------------------
Magnitude (a.u.)       :      0.77321
Magnitude (Debye)      :      1.96534

Rotational constants in cm-1:     0.274050     0.130114     0.100964
Rotational constants in MHz :  8215.815505  3900.722919  3026.834930

                             ****ORCA TERMINATED NORMALLY****
TOTAL RUN TIME: 0 days 0 hours 0 minutes 47 seconds 296 msec
