                         Program Version 5.0.0 -  RELEASE  -
|  1> !M062X D3Zero RIJCOSX def2-TZVPD def2/J TightSCF
|  2> *xyz 0 1
|  3> C         -0.87096        0.24804       -2.66280
|  4> C         -0.47749        0.60819       -4.10105
|  5> H          0.20677        1.45830       -4.11875
|  6> H         -1.36844        0.92942       -4.64785
|  7> C          0.18467       -0.50664       -4.91676
|  8> O         -0.15869       -1.70109       -4.65798
|  9> F          1.05594       -0.17441       -5.74037
| 10> H         -1.54056       -0.58646       -2.67455
| 11> H         -1.35339        1.08600       -2.20455
| 12> H          0.00660       -0.00662       -2.10609
| 13> *
| 14>
| 15> %MaxCore 64000
| 16>
| 17> %pal nprocs 4
| 18> end
| 19>
| 20> %scf
| 21>   MaxIter 150
| 22> end
| 23>
| 24>
| 25>                          ****END OF INPUT****

CARTESIAN COORDINATES (ANGSTROEM)
---------------------------------
  C     -0.870960    0.248040   -2.662800
  C     -0.477490    0.608190   -4.101050
  H      0.206770    1.458300   -4.118750
  H     -1.368440    0.929420   -4.647850
  C      0.184670   -0.506640   -4.916760
  O     -0.158690   -1.701090   -4.657980
  F      1.055940   -0.174410   -5.740370
  H     -1.540560   -0.586460   -2.674550
  H     -1.353390    1.086000   -2.204550
  H      0.006600   -0.006620   -2.106090

 Total Charge           Charge          ....    0
 Multiplicity           Mult            ....    1
 Number of Electrons    NEL             ....   40
 Basis Dimension        Dim             ....  236

ORBITAL ENERGIES
----------------

  NO   OCC          E(Eh)            E(eV)
   0   2.0000     -25.320742      -689.0124
   1   2.0000     -19.633376      -534.2513
   2   2.0000     -10.723038      -291.7887
   3   2.0000     -10.569805      -287.6190
   4   2.0000     -10.536941      -286.7247
   5   2.0000      -1.474593       -40.1257
   6   2.0000      -1.147980       -31.2381
   7   2.0000      -0.898646       -24.4534
   8   2.0000      -0.793519       -21.5928
   9   2.0000      -0.733504       -19.9597
  10   2.0000      -0.650170       -17.6920
  11   2.0000      -0.636018       -17.3069
  12   2.0000      -0.593856       -16.1596
  13   2.0000      -0.538760       -14.6604
  14   2.0000      -0.507961       -13.8223
  15   2.0000      -0.461238       -12.5509
  16   2.0000      -0.445008       -12.1093
  17   2.0000      -0.440471       -11.9858
  18   2.0000      -0.413183       -11.2433
  19   2.0000      -0.369570       -10.0565
  20   0.0000       0.006501         0.1769
  21   0.0000       0.015436         0.4200
  22   0.0000       0.033939         0.9235
  23   0.0000       0.041956         1.1417
  24   0.0000       0.053716         1.4617

MULLIKEN ATOMIC CHARGES
-----------------------
   0 C :   -1.080412
   1 C :   -0.403435
   2 H :    0.327605
   3 H :    0.313650
   4 C :    0.747677
   5 O :   -0.591682
   6 F :   -0.248355
   7 H :    0.286932
   8 H :    0.329851
   9 H :    0.318169
Sum of atomic charges:   -0.0000000

LOEWDIN ATOMIC CHARGES
----------------------
   0 C :   -0.088690
   1 C :   -0.157220
   2 H :    0.111409
   3 H :    0.123041
   4 C :   -0.473320
   5 O :    0.060468
   6 F :    0.208218
   7 H :    0.071843
   8 H :    0.068963
   9 H :    0.075289

  Mayer bond orders larger than 0.100000
B(  0-C ,  1-C ) :   0.5605 B(  0-C ,  7-H ) :   1.0059 B(  0-C ,  8-H ) :   0.9427
B(  0-C ,  9-H ) :   0.9525 B(  1-C ,  2-H ) :   0.9267 B(  1-C ,  3-H ) :   0.9343
B(  1-C ,  4-C ) :   0.9264 B(  4-C ,  5-O ) :   1.6312 B(  4-C ,  6-F ) :   0.9194

Dispersion correction           -0.000089599
FINAL SINGLE POINT ENERGY      -292.390363848294

DIPOLE MOMENT
-------------
                                X             Y             Z
Electronic contribution:      4.63220      -2.81519      -7.09752
Nuclear contribution   :     -4.75269       4.00281       7.35060
                        -----------------------------------------
Total Dipole Moment    :     -0.12049       1.18762       0.25308
                        -----------------------------------------
Magnitude (a.u.)       :      1.22025
Magnitude (Debye)      :      3.10164

Rotational constants in cm-1:     0.323805     0.124913     0.096140
Rotational constants in MHz :  9707.430323  3744.789513  2882.191141

                             ****ORCA TERMINATED NORMALLY****
TOTAL RUN TIME: 0 days 0 hours 0 minutes 36 seconds 134 msec
