                         Program Version 5.0.0 -  RELEASE  -
|  1> !M062X D3Zero RIJCOSX def2-TZVPD def2/J TightSCF
|  2> *xyz 0 1
|  3> C          2.48645       -2.67712       -2.56345
|  4> C          3.03764       -2.36672       -3.92351
|  5> N          2.28036       -2.45441       -4.96769
|  6> C          4.32174       -2.01793       -4.01664
|  7> H          4.87994       -1.91167       -3.17382
|  8> H          4.71015       -1.67088       -4.88356
|  9> H          1.27042       -2.41265       -4.86614
| 10> H          2.58183       -2.05528       -5.84688
| 11> C          2.49799       -1.46946       -1.61030
| 12> H          1.47259       -3.05153       -2.69437
| 13> H          3.08320       -3.49064       -2.14147
| 14> H          1.91240       -0.67831       -2.02991
| 15> H          3.50450       -1.13364       -1.47227
| 16> H          2.08509       -1.75655       -0.66585
| 17> *
| 18>
| 19> %MaxCore 64000
| 20>
| 21> %pal nprocs 4
| 22> end
| 23>
| 24> %scf
| 25>   MaxIter 150
| 26> end
| 27>
| 28>
| 29>                          ****END OF INPUT****

CARTESIAN COORDINATES (ANGSTROEM)
---------------------------------
  C      2.486450   -2.677120   -2.563450
  C      3.037640   -2.366720   -3.923510
  N      2.280360   -2.454410   -4.967690
  C      4.321740   -2.017930   -4.016640
  H      4.879940   -1.911670   -3.173820
  H      4.710150   -1.670880   -4.883560
  H      1.270420   -2.412650   -4.866140
  H      2.581830   -2.055280   -5.846880
  C      2.497990   -1.469460   -1.610300
  H      1.472590   -3.051530   -2.694370
  H      3.083200   -3.490640   -2.141470
  H      1.912400   -0.678310   -2.029910
  H      3.504500   -1.133640   -1.472270
  H      2.085090   -1.756550   -0.665850

 Total Charge           Charge          ....    0
 Multiplicity           Mult            ....    1
 Number of Electrons    NEL             ....   40
 Basis Dimension        Dim             ....  266

ORBITAL ENERGIES
----------------

  NO   OCC          E(Eh)            E(eV)
   0   2.0000     -14.751899      -401.4196
   1   2.0000     -10.557702      -287.2897
   2   2.0000     -10.534447      -286.6569
   3   2.0000     -10.518637      -286.2267
   4   2.0000     -10.466887      -284.8185
   5   2.0000      -1.050213       -28.5778
   6   2.0000      -0.878852       -23.9148
   7   2.0000      -0.803981       -21.8774
   8   2.0000      -0.728605       -19.8264
   9   2.0000      -0.649640       -17.6776
  10   2.0000      -0.595778       -16.2119
  11   2.0000      -0.554524       -15.0894
  12   2.0000      -0.514689       -14.0054
  13   2.0000      -0.475104       -12.9283
  14   2.0000      -0.462252       -12.5785
  15   2.0000      -0.445002       -12.1091
  16   2.0000      -0.414663       -11.2836
  17   2.0000      -0.399977       -10.8839
  18   2.0000      -0.396705       -10.7949
  19   2.0000      -0.241946        -6.5837
  20   0.0000       0.015390         0.4188
  21   0.0000       0.037115         1.0100
  22   0.0000       0.043574         1.1857
  23   0.0000       0.049777         1.3545
  24   0.0000       0.073467         1.9991

MULLIKEN ATOMIC CHARGES
-----------------------
   0 C :   -0.737154
   1 C :    1.041008
   2 N :   -0.617757
   3 C :   -1.118648
   4 H :    0.209987
   5 H :    0.211496
   6 H :    0.270946
   7 H :    0.248346
   8 C :   -1.054470
   9 H :    0.336963
  10 H :    0.306726
  11 H :    0.295506
  12 H :    0.305525
  13 H :    0.301525
Sum of atomic charges:   -0.0000000

LOEWDIN ATOMIC CHARGES
----------------------
   0 C :   -0.200752
   1 C :   -0.507145
   2 N :    0.091955
   3 C :    0.023213
   4 H :    0.021041
   5 H :    0.017200
   6 H :    0.112605
   7 H :    0.116550
   8 C :   -0.092081
   9 H :    0.103086
  10 H :    0.117650
  11 H :    0.071689
  12 H :    0.062131
  13 H :    0.062858

  Mayer bond orders larger than 0.100000
B(  0-C ,  1-C ) :   0.4984 B(  0-C ,  8-C ) :   0.5182 B(  0-C ,  9-H ) :   0.9968
B(  0-C , 10-H ) :   0.9925 B(  1-C ,  2-N ) :   0.8707 B(  1-C ,  3-C ) :   1.1936
B(  1-C ,  5-H ) :  -0.1705 B(  1-C ,  9-H ) :  -0.1235 B(  2-N ,  3-C ) :   0.1191
B(  2-N ,  6-H ) :   0.9450 B(  2-N ,  7-H ) :   0.9568 B(  3-C ,  4-H ) :   1.0182
B(  3-C ,  5-H ) :   1.1478 B(  8-C , 11-H ) :   0.9885 B(  8-C , 12-H ) :   0.9837
B(  8-C , 13-H ) :   0.9804

Dispersion correction           -0.000196929
FINAL SINGLE POINT ENERGY      -212.534853877550

DIPOLE MOMENT
-------------
                                X             Y             Z
Electronic contribution:     -0.23535      -1.19247      -2.95107
Nuclear contribution   :     -0.52463       1.37972       2.79217
                        -----------------------------------------
Total Dipole Moment    :     -0.75998       0.18725      -0.15890
                        -----------------------------------------
Magnitude (a.u.)       :      0.79867
Magnitude (Debye)      :      2.03007

Rotational constants in cm-1:     0.281086     0.127387     0.100311
Rotational constants in MHz :  8426.743103  3818.969834  3007.238026

                             ****ORCA TERMINATED NORMALLY****
TOTAL RUN TIME: 0 days 0 hours 0 minutes 48 seconds 604 msec
