                         Program Version 5.0.0 -  RELEASE  -
|  1> !M062X D3Zero RIJCOSX def2-TZVPD def2/J TightSCF xyzfile
|  2>
|  3> *xyzfile 0 1 D1.xyz
|  4>
|  5> %MaxCore 64000
|  6>
|  7> %pal nprocs 4
|  8> end
|  9>
| 10> %scf
| 11>   MaxIter 150
| 12> end
| 13>
| 14>
| 15>                          ****END OF INPUT****

CARTESIAN COORDINATES (ANGSTROEM)
---------------------------------
  C      2.486452   -2.677121   -2.563447
  C     -0.870963    0.248043   -2.662804
  C     -0.477492    0.608191   -4.101052
  H      0.206773    1.458299   -4.118748
  H     -1.368442    0.929419   -4.647855
  C      0.184673   -0.506640   -4.916760
  C      3.037640   -2.366715   -3.923509
  C      2.280360   -2.454408   -4.967692
  N      4.321736   -2.017932   -4.016641
  H      4.879940   -1.911668   -3.173823
  H      4.710148   -1.670882   -4.883561
  H      1.270423   -2.412650   -4.866143
  H      2.581829   -2.055282   -5.846878
  F     -0.158685   -1.701088   -4.657981
  O      1.055938   -0.174410   -5.740373
  C      2.497991   -1.469464   -1.610303
  C      1.582841   -0.321986   -2.042619
  H      2.193083   -1.833912   -0.625420
  H      3.523356   -1.103982   -1.490392
  C      0.100160   -0.673551   -1.915815
  H      1.822311   -0.040361   -3.072834
  H      1.813180    0.557019   -1.433266
  H     -0.063284   -1.679120   -2.301112
  H     -0.168820   -0.691680   -0.853831
  H     -1.001048    1.181040   -2.104071
  H     -1.844645   -0.246592   -2.663281
  H      1.472592   -3.051527   -2.694366
  H      3.083201   -3.490638   -2.141472

 Total Charge           Charge          ....    0
 Multiplicity           Mult            ....    1
 Number of Electrons    NEL             ....   94
 Basis Dimension        Dim             ....  594

ORBITAL ENERGIES
----------------

  NO   OCC          E(Eh)            E(eV)
   0   2.0000     -25.312571      -688.7901
   1   2.0000     -19.633242      -534.2477
   2   2.0000     -14.736210      -400.9927
   3   2.0000     -10.719207      -291.6845
   4   2.0000     -10.564623      -287.4780
   5   2.0000     -10.549251      -287.0597
   6   2.0000     -10.542541      -286.8771
   7   2.0000     -10.537111      -286.7294
   8   2.0000     -10.534210      -286.6504
   9   2.0000     -10.532776      -286.6114
  10   2.0000     -10.528360      -286.4912
  11   2.0000     -10.444943      -284.2213
  12   2.0000      -1.463512       -39.8242
  13   2.0000      -1.163068       -31.6487
  14   2.0000      -1.022680       -27.8285
  15   2.0000      -0.927997       -25.2521
  16   2.0000      -0.891360       -24.2551
  17   2.0000      -0.840553       -22.8726
  18   2.0000      -0.817271       -22.2391
  19   2.0000      -0.771361       -20.9898
  20   2.0000      -0.749947       -20.4071
  21   2.0000      -0.704895       -19.1812
  22   2.0000      -0.664101       -18.0711
  23   2.0000      -0.662065       -18.0157
  24   2.0000      -0.641674       -17.4608
  25   2.0000      -0.620066       -16.8728
  26   2.0000      -0.584966       -15.9177
  27   2.0000      -0.578073       -15.7302
  28   2.0000      -0.552416       -15.0320
  29   2.0000      -0.543223       -14.7819
  30   2.0000      -0.528872       -14.3913
  31   2.0000      -0.511822       -13.9274
  32   2.0000      -0.500248       -13.6124
  33   2.0000      -0.484717       -13.1898
  34   2.0000      -0.470229       -12.7956
  35   2.0000      -0.454857       -12.3773
  36   2.0000      -0.442095       -12.0300
  37   2.0000      -0.438218       -11.9245
  38   2.0000      -0.423341       -11.5197
  39   2.0000      -0.416274       -11.3274
  40   2.0000      -0.402703       -10.9581
  41   2.0000      -0.398145       -10.8341
  42   2.0000      -0.380410       -10.3515
  43   2.0000      -0.375438       -10.2162
  44   2.0000      -0.369904       -10.0656
  45   2.0000      -0.361362        -9.8332
  46   2.0000      -0.237636        -6.4664
  47   0.0000       0.008319         0.2264
  48   0.0000       0.013589         0.3698
  49   0.0000       0.021029         0.5722
  50   0.0000       0.025658         0.6982
  51   0.0000       0.030398         0.8272

MULLIKEN ATOMIC CHARGES
-----------------------
   0 C :   -0.919881
   1 C :   -0.913673
   2 C :   -0.664286
   3 H :    0.354072
   4 H :    0.384275
   5 C :    0.811490
   6 C :    0.832055
   7 C :   -0.941288
   8 N :   -0.686320
   9 H :    0.227676
  10 H :    0.222603
  11 H :    0.368432
  12 H :    0.284607
  13 F :   -0.307567
  14 O :   -0.632526
  15 C :   -0.852843
  16 C :   -0.301937
  17 H :    0.400291
  18 H :    0.358401
  19 C :   -0.584274
  20 H :    0.202483
  21 H :    0.350225
  22 H :    0.243725
  23 H :    0.419347
  24 H :    0.379841
  25 H :    0.348199
  26 H :    0.183455
  27 H :    0.433418
Sum of atomic charges:    0.0000000

LOEWDIN ATOMIC CHARGES
----------------------
   0 C :   -0.144358
   1 C :   -0.195224
   2 C :   -0.095887
   3 H :    0.126188
   4 H :    0.127099
   5 C :   -0.469588
   6 C :   -0.473977
   7 C :    0.017411
   8 N :    0.100748
   9 H :    0.102559
  10 H :    0.112543
  11 H :    0.002688
  12 H :    0.041264
  13 F :    0.148446
  14 O :    0.089104
  15 C :   -0.197447
  16 C :   -0.197132
  17 H :    0.112573
  18 H :    0.103834
  19 C :   -0.210549
  20 H :    0.107465
  21 H :    0.119086
  22 H :    0.096824
  23 H :    0.120245
  24 H :    0.115252
  25 H :    0.111944
  26 H :    0.108175
  27 H :    0.120715

  Mayer bond orders larger than 0.100000
B(  0-C ,  6-C ) :   0.5596 B(  0-C ,  8-N ) :   0.2324 B(  0-C , 15-C ) :   0.7477
B(  0-C , 16-C ) :  -0.1137 B(  0-C , 26-H ) :   1.0585 B(  0-C , 27-H ) :   0.8665
B(  1-C ,  2-C ) :   0.5903 B(  1-C , 19-C ) :   0.6863 B(  1-C , 24-H ) :   0.9463
B(  1-C , 25-H ) :   0.9950 B(  2-C ,  3-H ) :   1.0172 B(  2-C ,  4-H ) :   0.8984
B(  2-C ,  5-C ) :   0.8299 B(  2-C , 19-C ) :  -0.1217 B(  5-C , 13-F ) :   0.8049
B(  5-C , 14-O ) :   1.5050 B(  6-C ,  7-C ) :   1.4737 B(  6-C ,  8-N ) :   0.5789
B(  6-C , 11-H ) :  -0.1890 B(  6-C , 12-H ) :  -0.1879 B(  7-C , 11-H ) :   0.8399
B(  7-C , 12-H ) :   1.1604 B(  8-N ,  9-H ) :   1.0052 B(  8-N , 10-H ) :   0.9839
B( 15-C , 16-C ) :   0.7916 B( 15-C , 17-H ) :   0.9230 B( 15-C , 18-H ) :   0.9234
B( 15-C , 19-C ) :   0.2860 B( 16-C , 19-C ) :   0.1866 B( 16-C , 20-H ) :   0.9628
B( 16-C , 21-H ) :   0.9353 B( 16-C , 22-H ) :  -0.1683 B( 19-C , 20-H ) :  -0.1023
B( 19-C , 22-H ) :   1.0969 B( 19-C , 23-H ) :   0.8401

Dispersion correction           -0.001380164
FINAL SINGLE POINT ENERGY      -582.328272675950

DIPOLE MOMENT
-------------
                                X             Y             Z
Electronic contribution:     -3.72289      -1.63133     -10.23213
Nuclear contribution   :      3.32973       2.37270      11.37738
                        -----------------------------------------
Total Dipole Moment    :     -0.39317       0.74137       1.14525
                        -----------------------------------------
Magnitude (a.u.)       :      1.41979
Magnitude (Debye)      :      3.60882

Rotational constants in cm-1:     0.040902     0.025807     0.019036
Rotational constants in MHz :  1226.202138   773.670450   570.681201

                             ****ORCA TERMINATED NORMALLY****
TOTAL RUN TIME: 0 days 0 hours 5 minutes 50 seconds 189 msec
