                         Program Version 5.0.0 -  RELEASE  -
|  1> !M062X D3Zero RIJCOSX def2-TZVPD def2/J TightSCF xyzfile
|  2>
|  3> *xyzfile 0 1 D2.xyz
|  4>
|  5> %MaxCore 64000
|  6>
|  7> %pal nprocs 4
|  8> end
|  9>
| 10> %scf
| 11>   MaxIter 150
| 12> end
| 13>
| 14>
| 15>                          ****END OF INPUT****

CARTESIAN COORDINATES (ANGSTROEM)
---------------------------------
  C      2.486452   -2.677121   -2.563447
  C     -0.870963    0.248043   -2.662804
  C     -0.477492    0.608191   -4.101052
  H      0.206773    1.458299   -4.118748
  H     -1.368442    0.929419   -4.647855
  C      0.184673   -0.506640   -4.916760
  C      3.037640   -2.366715   -3.923509
  N      2.280360   -2.454408   -4.967692
  C      4.321736   -2.017932   -4.016641
  H      4.879940   -1.911668   -3.173823
  H      4.710148   -1.670882   -4.883561
  H      1.270423   -2.412650   -4.866143
  H      2.581829   -2.055282   -5.846878
  F     -0.158685   -1.701088   -4.657981
  O      1.055938   -0.174410   -5.740373
  C      2.497991   -1.469464   -1.610303
  C      1.582841   -0.321986   -2.042619
  H      2.193083   -1.833912   -0.625420
  H      3.523356   -1.103982   -1.490392
  C      0.100160   -0.673551   -1.915815
  H      1.822311   -0.040361   -3.072834
  H      1.813180    0.557019   -1.433266
  H     -0.063284   -1.679120   -2.301112
  H     -0.168820   -0.691680   -0.853831
  H     -1.001048    1.181040   -2.104071
  H     -1.844645   -0.246592   -2.663281
  H      1.472592   -3.051527   -2.694366
  H      3.083201   -3.490638   -2.141472

 Total Charge           Charge          ....    0
 Multiplicity           Mult            ....    1
 Number of Electrons    NEL             ....   94
 Basis Dimension        Dim             ....  594

ORBITAL ENERGIES
----------------

  NO   OCC          E(Eh)            E(eV)
   0   2.0000     -25.340576      -689.5521
   1   2.0000     -19.652894      -534.7824
   2   2.0000     -14.725134      -400.6913
   3   2.0000     -10.737849      -292.1917
   4   2.0000     -10.575929      -287.7857
   5   2.0000     -10.556641      -287.2608
   6   2.0000     -10.546262      -286.9784
   7   2.0000     -10.542244      -286.8690
   8   2.0000     -10.535197      -286.6773
   9   2.0000     -10.532014      -286.5907
  10   2.0000     -10.529327      -286.5176
  11   2.0000     -10.454117      -284.4710
  12   2.0000      -1.490267       -40.5522
  13   2.0000      -1.182548       -32.1788
  14   2.0000      -1.033548       -28.1243
  15   2.0000      -0.935809       -25.4647
  16   2.0000      -0.893855       -24.3230
  17   2.0000      -0.851150       -23.1610
  18   2.0000      -0.804964       -21.9042
  19   2.0000      -0.785454       -21.3733
  20   2.0000      -0.758872       -20.6500
  21   2.0000      -0.713682       -19.4203
  22   2.0000      -0.686175       -18.6718
  23   2.0000      -0.672509       -18.2999
  24   2.0000      -0.659890       -17.9565
  25   2.0000      -0.621430       -16.9100
  26   2.0000      -0.593777       -16.1575
  27   2.0000      -0.572763       -15.5857
  28   2.0000      -0.555721       -15.1219
  29   2.0000      -0.550326       -14.9751
  30   2.0000      -0.543781       -14.7970
  31   2.0000      -0.516687       -14.0598
  32   2.0000      -0.499822       -13.6008
  33   2.0000      -0.489837       -13.3292
  34   2.0000      -0.476055       -12.9541
  35   2.0000      -0.461902       -12.5690
  36   2.0000      -0.453189       -12.3319
  37   2.0000      -0.444168       -12.0864
  38   2.0000      -0.431443       -11.7402
  39   2.0000      -0.419727       -11.4214
  40   2.0000      -0.407592       -11.0911
  41   2.0000      -0.403447       -10.9784
  42   2.0000      -0.391782       -10.6609
  43   2.0000      -0.382378       -10.4050
  44   2.0000      -0.374766       -10.1979
  45   2.0000      -0.370597       -10.0845
  46   2.0000      -0.226745        -6.1700
  47   0.0000      -0.003709        -0.1009
  48   0.0000       0.004413         0.1201
  49   0.0000       0.021823         0.5938
  50   0.0000       0.023373         0.6360
  51   0.0000       0.028421         0.7734

MULLIKEN ATOMIC CHARGES
-----------------------
   0 C :   -0.851806
   1 C :   -0.902857
   2 C :   -0.660435
   3 H :    0.349830
   4 H :    0.389059
   5 C :    0.841106
   6 C :    0.782939
   7 N :   -0.737466
   8 C :   -1.113461
   9 H :    0.234782
  10 H :    0.224412
  11 H :    0.503361
  12 H :    0.272942
  13 F :   -0.337326
  14 O :   -0.636532
  15 C :   -0.811648
  16 C :   -0.371085
  17 H :    0.408253
  18 H :    0.369211
  19 C :   -0.574009
  20 H :    0.213651
  21 H :    0.346860
  22 H :    0.246324
  23 H :    0.425431
  24 H :    0.385443
  25 H :    0.352335
  26 H :    0.283833
  27 H :    0.366850
Sum of atomic charges:    0.0000000

LOEWDIN ATOMIC CHARGES
----------------------
   0 C :   -0.143405
   1 C :   -0.194787
   2 C :   -0.095061
   3 H :    0.128312
   4 H :    0.128577
   5 C :   -0.464284
   6 C :   -0.488503
   7 N :    0.112474
   8 C :    0.028200
   9 H :    0.018605
  10 H :    0.018523
  11 H :    0.063758
  12 H :    0.118601
  13 F :    0.158917
  14 O :    0.093411
  15 C :   -0.193734
  16 C :   -0.196609
  17 H :    0.112902
  18 H :    0.109682
  19 C :   -0.212925
  20 H :    0.106118
  21 H :    0.120619
  22 H :    0.094006
  23 H :    0.121207
  24 H :    0.116821
  25 H :    0.112191
  26 H :    0.102863
  27 H :    0.123520

  Mayer bond orders larger than 0.100000
B(  0-C ,  6-C ) :   0.5231 B(  0-C ,  7-N ) :   0.1086 B(  0-C , 15-C ) :   0.7404
B(  0-C , 26-H ) :   1.0212 B(  0-C , 27-H ) :   0.9130 B(  1-C ,  2-C ) :   0.5722
B(  1-C , 19-C ) :   0.6525 B(  1-C , 24-H ) :   0.9400 B(  1-C , 25-H ) :   0.9975
B(  2-C ,  3-H ) :   1.0210 B(  2-C ,  4-H ) :   0.8955 B(  2-C ,  5-C ) :   0.8385
B(  2-C , 19-C ) :  -0.1207 B(  5-C , 13-F ) :   0.6912 B(  5-C , 14-O ) :   1.5280
B(  6-C ,  7-N ) :   0.8259 B(  6-C ,  8-C ) :   1.2766 B(  6-C , 10-H ) :  -0.1418
B(  7-N ,  8-C ) :   0.1667 B(  7-N , 11-H ) :   0.5716 B(  7-N , 12-H ) :   0.9050
B(  8-C ,  9-H ) :   1.0364 B(  8-C , 10-H ) :   1.1085 B( 15-C , 16-C ) :   0.8005
B( 15-C , 17-H ) :   0.8955 B( 15-C , 18-H ) :   0.9652 B( 15-C , 19-C ) :   0.2602
B( 16-C , 19-C ) :   0.1422 B( 16-C , 20-H ) :   0.9795 B( 16-C , 21-H ) :   0.9229
B( 16-C , 22-H ) :  -0.1764 B( 19-C , 20-H ) :  -0.1247 B( 19-C , 22-H ) :   1.1109
B( 19-C , 23-H ) :   0.8287

Dispersion correction           -0.001378231
FINAL SINGLE POINT ENERGY      -582.339413726325

DIPOLE MOMENT
-------------
                                X             Y             Z
Electronic contribution:     -5.32858      -1.78204     -10.84626
Nuclear contribution   :      3.65024       2.44123      11.52670
                        -----------------------------------------
Total Dipole Moment    :     -1.67834       0.65920       0.68045
                        -----------------------------------------
Magnitude (a.u.)       :      1.92727
Magnitude (Debye)      :      4.89872

Rotational constants in cm-1:     0.040600     0.026409     0.019262
Rotational constants in MHz :  1217.142957   791.712481   577.449390

                             ****ORCA TERMINATED NORMALLY****
TOTAL RUN TIME: 0 days 0 hours 4 minutes 53 seconds 200 msec
