                         Program Version 5.0.0 -  RELEASE  -
|  1> !M062X D3Zero RIJCOSX def2-TZVPD def2/J TightSCF xyzfile
|  2>
|  3> *xyzfile 0 1 D3.xyz
|  4>
|  5> %MaxCore 64000
|  6>
|  7> %pal nprocs 4
|  8> end
|  9>
| 10> %scf
| 11>   MaxIter 150
| 12> end
| 13>
| 14>
| 15>                          ****END OF INPUT****

CARTESIAN COORDINATES (ANGSTROEM)
---------------------------------
  C      2.486452   -2.677121   -2.563447
  C     -0.870963    0.248043   -2.662804
  C     -0.477492    0.608191   -4.101052
  H      0.206773    1.458299   -4.118748
  H     -1.368442    0.929419   -4.647855
  C      0.184673   -0.506640   -4.916760
  C      3.037640   -2.366715   -3.923509
  C      2.280360   -2.454408   -4.967692
  N      4.321736   -2.017932   -4.016641
  H      4.879940   -1.911668   -3.173823
  H      4.710148   -1.670882   -4.883561
  H      1.270423   -2.412650   -4.866143
  H      2.581829   -2.055282   -5.846878
  O     -0.158685   -1.701088   -4.657981
  F      1.055938   -0.174410   -5.740373
  C      2.497991   -1.469464   -1.610303
  C      1.582841   -0.321986   -2.042619
  H      2.193083   -1.833912   -0.625420
  H      3.523356   -1.103982   -1.490392
  C      0.100160   -0.673551   -1.915815
  H      1.822311   -0.040361   -3.072834
  H      1.813180    0.557019   -1.433266
  H     -0.063284   -1.679120   -2.301112
  H     -0.168820   -0.691680   -0.853831
  H     -1.001048    1.181040   -2.104071
  H     -1.844645   -0.246592   -2.663281
  H      1.472592   -3.051527   -2.694366
  H      3.083201   -3.490638   -2.141472

 Total Charge           Charge          ....    0
 Multiplicity           Mult            ....    1
 Number of Electrons    NEL             ....   94
 Basis Dimension        Dim             ....  594

ORBITAL ENERGIES
----------------

  NO   OCC          E(Eh)            E(eV)
   0   2.0000     -25.320165      -688.9967
   1   2.0000     -19.632125      -534.2173
   2   2.0000     -14.735015      -400.9601
   3   2.0000     -10.725133      -291.8457
   4   2.0000     -10.567303      -287.5509
   5   2.0000     -10.546538      -286.9859
   6   2.0000     -10.539940      -286.8063
   7   2.0000     -10.531226      -286.5692
   8   2.0000     -10.530832      -286.5585
   9   2.0000     -10.528256      -286.4884
  10   2.0000     -10.523224      -286.3515
  11   2.0000     -10.437134      -284.0089
  12   2.0000      -1.474734       -40.1295
  13   2.0000      -1.157650       -31.5012
  14   2.0000      -1.021199       -27.7882
  15   2.0000      -0.922664       -25.1070
  16   2.0000      -0.888849       -24.1868
  17   2.0000      -0.839069       -22.8322
  18   2.0000      -0.815508       -22.1911
  19   2.0000      -0.775124       -21.0922
  20   2.0000      -0.746486       -20.3129
  21   2.0000      -0.701267       -19.0824
  22   2.0000      -0.659389       -17.9429
  23   2.0000      -0.654064       -17.7980
  24   2.0000      -0.637401       -17.3446
  25   2.0000      -0.623505       -16.9664
  26   2.0000      -0.599817       -16.3218
  27   2.0000      -0.583253       -15.8711
  28   2.0000      -0.550161       -14.9706
  29   2.0000      -0.541647       -14.7390
  30   2.0000      -0.525111       -14.2890
  31   2.0000      -0.508818       -13.8457
  32   2.0000      -0.502395       -13.6709
  33   2.0000      -0.471360       -12.8263
  34   2.0000      -0.470564       -12.8047
  35   2.0000      -0.462184       -12.5767
  36   2.0000      -0.441887       -12.0244
  37   2.0000      -0.431312       -11.7366
  38   2.0000      -0.421649       -11.4737
  39   2.0000      -0.419209       -11.4072
  40   2.0000      -0.398798       -10.8518
  41   2.0000      -0.391779       -10.6608
  42   2.0000      -0.376838       -10.2543
  43   2.0000      -0.371308       -10.1038
  44   2.0000      -0.369969       -10.0674
  45   2.0000      -0.338780        -9.2187
  46   2.0000      -0.236211        -6.4276
  47   0.0000       0.006554         0.1783
  48   0.0000       0.010842         0.2950
  49   0.0000       0.022152         0.6028
  50   0.0000       0.025888         0.7044
  51   0.0000       0.031841         0.8664

MULLIKEN ATOMIC CHARGES
-----------------------
   0 C :   -0.931277
   1 C :   -0.924013
   2 C :   -0.741149
   3 H :    0.409822
   4 H :    0.386651
   5 C :    0.855408
   6 C :    0.890007
   7 C :   -1.140438
   8 N :   -0.688199
   9 H :    0.226897
  10 H :    0.219271
  11 H :    0.520804
  12 H :    0.258572
  13 O :   -0.667616
  14 F :   -0.304303
  15 C :   -0.825959
  16 C :   -0.308329
  17 H :    0.399334
  18 H :    0.351610
  19 C :   -0.562368
  20 H :    0.165522
  21 H :    0.354464
  22 H :    0.243880
  23 H :    0.422473
  24 H :    0.389897
  25 H :    0.355276
  26 H :    0.201040
  27 H :    0.442722
Sum of atomic charges:   -0.0000000

LOEWDIN ATOMIC CHARGES
----------------------
   0 C :   -0.141030
   1 C :   -0.187145
   2 C :   -0.100406
   3 H :    0.119110
   4 H :    0.127686
   5 C :   -0.454878
   6 C :   -0.475937
   7 C :    0.013736
   8 N :    0.095216
   9 H :    0.101558
  10 H :    0.109643
  11 H :   -0.018844
  12 H :    0.039961
  13 O :    0.043169
  14 F :    0.217121
  15 C :   -0.196840
  16 C :   -0.199208
  17 H :    0.113132
  18 H :    0.102686
  19 C :   -0.209830
  20 H :    0.104490
  21 H :    0.117609
  22 H :    0.096424
  23 H :    0.119955
  24 H :    0.115321
  25 H :    0.115158
  26 H :    0.111622
  27 H :    0.120521

  Mayer bond orders larger than 0.100000
B(  0-C ,  6-C ) :   0.5623 B(  0-C ,  8-N ) :   0.2262 B(  0-C , 15-C ) :   0.7362
B(  0-C , 16-C ) :  -0.1035 B(  0-C , 26-H ) :   1.0506 B(  0-C , 27-H ) :   0.8574
B(  1-C ,  2-C ) :   0.6805 B(  1-C , 19-C ) :   0.7687 B(  1-C , 24-H ) :   0.9444
B(  1-C , 25-H ) :   0.9501 B(  2-C ,  3-H ) :   0.9271 B(  2-C ,  4-H ) :   0.8937
B(  2-C ,  5-C ) :   0.8645 B(  5-C , 13-O ) :   1.6024 B(  5-C , 14-F ) :   0.7543
B(  6-C ,  7-C ) :   1.3336 B(  6-C ,  8-N ) :   0.5837 B(  6-C , 11-H ) :  -0.1679
B(  6-C , 12-H ) :  -0.2568 B(  7-C , 11-H ) :   0.8393 B(  7-C , 12-H ) :   1.2919
B(  8-N ,  9-H ) :   1.0089 B(  8-N , 10-H ) :   0.9887 B( 11-H , 13-O ) :  -0.2256
B( 15-C , 16-C ) :   0.7969 B( 15-C , 17-H ) :   0.9179 B( 15-C , 18-H ) :   0.9256
B( 15-C , 19-C ) :   0.2681 B( 16-C , 19-C ) :   0.2188 B( 16-C , 20-H ) :   0.9752
B( 16-C , 21-H ) :   0.9377 B( 16-C , 22-H ) :  -0.1527 B( 19-C , 20-H ) :  -0.1025
B( 19-C , 22-H ) :   1.0811 B( 19-C , 23-H ) :   0.8308

Dispersion correction           -0.001370931
FINAL SINGLE POINT ENERGY      -582.322384665215

DIPOLE MOMENT
-------------
                                X             Y             Z
Electronic contribution:     -1.78438       0.90965     -12.09078
Nuclear contribution   :      1.88979       0.56282      12.66056
                        -----------------------------------------
Total Dipole Moment    :      0.10541       1.47247       0.56978
                        -----------------------------------------
Magnitude (a.u.)       :      1.58238
Magnitude (Debye)      :      4.02208

Rotational constants in cm-1:     0.040271     0.025954     0.018866
Rotational constants in MHz :  1207.302496   778.083475   565.600538

                             ****ORCA TERMINATED NORMALLY****
TOTAL RUN TIME: 0 days 0 hours 5 minutes 12 seconds 712 msec
