                         Program Version 5.0.0 -  RELEASE  -
|  1> !M062X D3Zero RIJCOSX def2-TZVPD def2/J TightSCF xyzfile
|  2>
|  3> *xyzfile 0 1 D4.xyz
|  4>
|  5> %MaxCore 64000
|  6>
|  7> %pal nprocs 4
|  8> end
|  9>
| 10> %scf
| 11>   MaxIter 150
| 12> end
| 13>
| 14>
| 15>                          ****END OF INPUT****

CARTESIAN COORDINATES (ANGSTROEM)
---------------------------------
  C      2.486452   -2.677121   -2.563447
  C     -0.870963    0.248043   -2.662804
  C     -0.477492    0.608191   -4.101052
  H      0.206773    1.458299   -4.118748
  H     -1.368442    0.929419   -4.647855
  C      0.184673   -0.506640   -4.916760
  C      3.037640   -2.366715   -3.923509
  N      2.280360   -2.454408   -4.967692
  C      4.321736   -2.017932   -4.016641
  H      4.879940   -1.911668   -3.173823
  H      4.710148   -1.670882   -4.883561
  H      1.270423   -2.412650   -4.866143
  H      2.581829   -2.055282   -5.846878
  O     -0.158685   -1.701088   -4.657981
  F      1.055938   -0.174410   -5.740373
  C      2.497991   -1.469464   -1.610303
  C      1.582841   -0.321986   -2.042619
  H      2.193083   -1.833912   -0.625420
  H      3.523356   -1.103982   -1.490392
  C      0.100160   -0.673551   -1.915815
  H      1.822311   -0.040361   -3.072834
  H      1.813180    0.557019   -1.433266
  H     -0.063284   -1.679120   -2.301112
  H     -0.168820   -0.691680   -0.853831
  H     -1.001048    1.181040   -2.104071
  H     -1.844645   -0.246592   -2.663281
  H      1.472592   -3.051527   -2.694366
  H      3.083201   -3.490638   -2.141472

 Total Charge           Charge          ....    0
 Multiplicity           Mult            ....    1
 Number of Electrons    NEL             ....   94
 Basis Dimension        Dim             ....  594

ORBITAL ENERGIES
----------------

  NO   OCC          E(Eh)            E(eV)
   0   2.0000     -25.341702      -689.5828
   1   2.0000     -19.658333      -534.9304
   2   2.0000     -14.716060      -400.4444
   3   2.0000     -10.748338      -292.4772
   4   2.0000     -10.580217      -287.9023
   5   2.0000     -10.554898      -287.2134
   6   2.0000     -10.543143      -286.8935
   7   2.0000     -10.533951      -286.6434
   8   2.0000     -10.533541      -286.6322
   9   2.0000     -10.528619      -286.4983
  10   2.0000     -10.523466      -286.3581
  11   2.0000     -10.451643      -284.4037
  12   2.0000      -1.496145       -40.7122
  13   2.0000      -1.183308       -32.1994
  14   2.0000      -1.027554       -27.9612
  15   2.0000      -0.931733       -25.3537
  16   2.0000      -0.891744       -24.2656
  17   2.0000      -0.849680       -23.1210
  18   2.0000      -0.808060       -21.9884
  19   2.0000      -0.780236       -21.2313
  20   2.0000      -0.756194       -20.5771
  21   2.0000      -0.710114       -19.3232
  22   2.0000      -0.674233       -18.3468
  23   2.0000      -0.668117       -18.1804
  24   2.0000      -0.648777       -17.6541
  25   2.0000      -0.636535       -17.3210
  26   2.0000      -0.608189       -16.5497
  27   2.0000      -0.572945       -15.5906
  28   2.0000      -0.555748       -15.1227
  29   2.0000      -0.549358       -14.9488
  30   2.0000      -0.543764       -14.7966
  31   2.0000      -0.516522       -14.0553
  32   2.0000      -0.493813       -13.4373
  33   2.0000      -0.483419       -13.1545
  34   2.0000      -0.473387       -12.8815
  35   2.0000      -0.461338       -12.5536
  36   2.0000      -0.447203       -12.1690
  37   2.0000      -0.441171       -12.0049
  38   2.0000      -0.426238       -11.5985
  39   2.0000      -0.422271       -11.4906
  40   2.0000      -0.402435       -10.9508
  41   2.0000      -0.400683       -10.9031
  42   2.0000      -0.388690       -10.5768
  43   2.0000      -0.381517       -10.3816
  44   2.0000      -0.374234       -10.1834
  45   2.0000      -0.363496        -9.8912
  46   2.0000      -0.224006        -6.0955
  47   0.0000      -0.011609        -0.3159
  48   0.0000       0.004103         0.1116
  49   0.0000       0.020674         0.5626
  50   0.0000       0.025971         0.7067
  51   0.0000       0.028855         0.7852

MULLIKEN ATOMIC CHARGES
-----------------------
   0 C :   -0.842836
   1 C :   -0.925642
   2 C :   -0.723738
   3 H :    0.407982
   4 H :    0.389425
   5 C :    0.931649
   6 C :    0.768823
   7 N :   -0.768672
   8 C :   -1.109235
   9 H :    0.235766
  10 H :    0.224737
  11 H :    0.515162
  12 H :    0.249670
  13 O :   -0.722743
  14 F :   -0.316691
  15 C :   -0.803806
  16 C :   -0.371438
  17 H :    0.408550
  18 H :    0.369199
  19 C :   -0.533302
  20 H :    0.164229
  21 H :    0.348285
  22 H :    0.246671
  23 H :    0.429022
  24 H :    0.394759
  25 H :    0.359478
  26 H :    0.299569
  27 H :    0.375125
Sum of atomic charges:    0.0000000

LOEWDIN ATOMIC CHARGES
----------------------
   0 C :   -0.140779
   1 C :   -0.186182
   2 C :   -0.097879
   3 H :    0.121908
   4 H :    0.129876
   5 C :   -0.443810
   6 C :   -0.490655
   7 N :    0.106987
   8 C :    0.021008
   9 H :    0.017020
  10 H :    0.014878
  11 H :    0.038951
  12 H :    0.117281
  13 O :    0.051251
  14 F :    0.222192
  15 C :   -0.193291
  16 C :   -0.198440
  17 H :    0.113383
  18 H :    0.108520
  19 C :   -0.211688
  20 H :    0.103085
  21 H :    0.119182
  22 H :    0.094057
  23 H :    0.121063
  24 H :    0.117102
  25 H :    0.115633
  26 H :    0.106063
  27 H :    0.123286

  Mayer bond orders larger than 0.100000
B(  0-C ,  6-C ) :   0.5256 B(  0-C , 15-C ) :   0.7299 B(  0-C , 26-H ) :   1.0183
B(  0-C , 27-H ) :   0.9056 B(  1-C ,  2-C ) :   0.6613 B(  1-C , 19-C ) :   0.7363
B(  1-C , 24-H ) :   0.9367 B(  1-C , 25-H ) :   0.9536 B(  2-C ,  3-H ) :   0.9280
B(  2-C ,  4-H ) :   0.8925 B(  2-C ,  5-C ) :   0.8781 B(  5-C , 13-O ) :   1.3881
B(  5-C , 14-F ) :   0.7726 B(  6-C ,  7-N ) :   0.8043 B(  6-C ,  8-C ) :   1.2974
B(  6-C , 10-H ) :  -0.1379 B(  7-N ,  8-C ) :   0.1672 B(  7-N , 11-H ) :   0.5548
B(  7-N , 12-H ) :   0.9349 B(  8-C ,  9-H ) :   1.0426 B(  8-C , 10-H ) :   1.1109
B( 15-C , 16-C ) :   0.8117 B( 15-C , 17-H ) :   0.8888 B( 15-C , 18-H ) :   0.9632
B( 15-C , 19-C ) :   0.2423 B( 16-C , 19-C ) :   0.1818 B( 16-C , 20-H ) :   0.9960
B( 16-C , 21-H ) :   0.9224 B( 16-C , 22-H ) :  -0.1592 B( 19-C , 20-H ) :  -0.1306
B( 19-C , 22-H ) :   1.0918 B( 19-C , 23-H ) :   0.8181

Dispersion correction           -0.001368300
FINAL SINGLE POINT ENERGY      -582.340669730530

DIPOLE MOMENT
-------------
                                X             Y             Z
Electronic contribution:     -3.43607       0.80546     -12.70532
Nuclear contribution   :      2.21030       0.63135      12.80988
                        -----------------------------------------
Total Dipole Moment    :     -1.22577       1.43681       0.10456
                        -----------------------------------------
Magnitude (a.u.)       :      1.89153
Magnitude (Debye)      :      4.80788

Rotational constants in cm-1:     0.039980     0.026547     0.019089
Rotational constants in MHz :  1198.568620   795.867393   572.288555

                             ****ORCA TERMINATED NORMALLY****
TOTAL RUN TIME: 0 days 0 hours 5 minutes 11 seconds 246 msec
