                         Program Version 5.0.0 -  RELEASE  -
|  1> !M062X D3Zero RIJCOSX def2-TZVP def2/J TightSCF
|  2>
|  3> *xyz -1 1
|  4> C          2.95263        1.86308       -3.57485
|  5> C          4.12921        0.89839       -3.41895
|  6> H          3.73369       -0.10060       -3.23763
|  7> H          4.71910        0.86256       -4.33901
|  8> C          5.01734        1.31521       -2.22130
|  9> O          4.73706        0.85411       -1.12283
| 10> O          5.92815        2.16811       -2.49136
| 11> H          2.35067        1.56005       -4.40594
| 12> H          3.32277        2.85258       -3.74453
| 13> H          2.36134        1.85149       -2.68315
| 14> *
| 15> %MaxCore 64000
| 16>
| 17> %pal nprocs 4
| 18> end
| 19>
| 20> %scf
| 21>   MaxIter 150
| 22> end
| 23>
| 24>
| 25>                          ****END OF INPUT****

CARTESIAN COORDINATES (ANGSTROEM)
---------------------------------
  C      2.952630    1.863080   -3.574850
  C      4.129210    0.898390   -3.418950
  H      3.733690   -0.100600   -3.237630
  H      4.719100    0.862560   -4.339010
  C      5.017340    1.315210   -2.221300
  O      4.737060    0.854110   -1.122830
  O      5.928150    2.168110   -2.491360
  H      2.350670    1.560050   -4.405940
  H      3.322770    2.852580   -3.744530
  H      2.361340    1.851490   -2.683150

 Total Charge           Charge          ....   -1
 Multiplicity           Mult            ....    1
 Number of Electrons    NEL             ....   40
 Basis Dimension        Dim             ....  185

ORBITAL ENERGIES
----------------

  NO   OCC          E(Eh)            E(eV)
   0   2.0000     -19.356877      -526.7274
   1   2.0000     -19.345008      -526.4044
   2   2.0000     -10.414201      -283.3848
   3   2.0000     -10.368505      -282.1414
   4   2.0000     -10.352909      -281.7170
   5   2.0000      -0.941375       -25.6161
   6   2.0000      -0.838342       -22.8124
   7   2.0000      -0.698949       -19.0194
   8   2.0000      -0.554029       -15.0759
   9   2.0000      -0.395475       -10.7614
  10   2.0000      -0.357570        -9.7300
  11   2.0000      -0.333551        -9.0764
  12   2.0000      -0.296831        -8.0772
  13   2.0000      -0.280359        -7.6290
  14   2.0000      -0.276708        -7.5296
  15   2.0000      -0.239802        -6.5254
  16   2.0000      -0.230720        -6.2782
  17   2.0000      -0.107251        -2.9184
  18   2.0000      -0.103762        -2.8235
  19   2.0000      -0.096891        -2.6365
  20   0.0000       0.217799         5.9266
  21   0.0000       0.258691         7.0393
  22   0.0000       0.278278         7.5723
  23   0.0000       0.283807         7.7228
  24   0.0000       0.309669         8.4265

MULLIKEN ATOMIC CHARGES
-----------------------
   0 C :   -0.413428
   1 C :   -0.238681
   2 H :    0.072317
   3 H :    0.077110
   4 C :    0.290089
   5 O :   -0.518585
   6 O :   -0.597608
   7 H :    0.084123
   8 H :    0.123465
   9 H :    0.121199
Sum of atomic charges:   -1.0000000

LOEWDIN ATOMIC CHARGES
----------------------
   0 C :   -0.326549
   1 C :   -0.292834
   2 H :    0.116842
   3 H :    0.117814
   4 C :   -0.698878
   5 O :   -0.072779
   6 O :   -0.163421
   7 H :    0.095449
   8 H :    0.112501
   9 H :    0.111855

  Mayer bond orders larger than 0.100000
B(  0-C ,  1-C ) :   0.9427 B(  0-C ,  7-H ) :   0.9790 B(  0-C ,  8-H ) :   0.9766
B(  0-C ,  9-H ) :   0.9784 B(  1-C ,  2-H ) :   0.9659 B(  1-C ,  3-H ) :   0.9677
B(  1-C ,  4-C ) :   0.9187 B(  4-C ,  5-O ) :   1.8737 B(  4-C ,  6-O ) :   1.7913

Dispersion correction           -0.000085620
FINAL SINGLE POINT ENERGY      -267.825849668496

DIPOLE MOMENT
-------------
                                X             Y             Z
Electronic contribution:      4.43121      -0.19602       3.91164
Nuclear contribution   :     -5.85873      -0.10793      -5.24103
                        -----------------------------------------
Total Dipole Moment    :     -1.42752      -0.30395      -1.32939
                        -----------------------------------------
Magnitude (a.u.)       :      1.97421
Magnitude (Debye)      :      5.01803

Rotational constants in cm-1:     0.292505     0.135951     0.110253
Rotational constants in MHz :  8769.065873  4075.717001  3305.311891

                             ****ORCA TERMINATED NORMALLY****
TOTAL RUN TIME: 0 days 0 hours 0 minutes 20 seconds 173 msec
