                         Program Version 5.0.0 -  RELEASE  -
|  1> !M062X D3Zero RIJCOSX def2-TZVP def2/J TightSCF
|  2>
|  3> *xyz 1 1
|  4> C          3.34350        3.35457       -3.59200
|  5> C          2.95263        1.86308       -3.57485
|  6> C          4.25587        3.70385       -4.72605
|  7> N          3.73403        4.29378       -5.80077
|  8> N          5.51504        3.40725       -4.63718
|  9> H          6.14919        3.60120       -5.39905
| 10> H          5.81358        2.89950       -3.80879
| 11> H          2.74138        4.51311       -5.82470
| 12> H          4.28755        4.52126       -6.61434
| 13> H          3.86125        3.59725       -2.66298
| 14> H          2.44649        3.97346       -3.65656
| 15> H          2.44395        1.61721       -4.48352
| 16> H          2.30781        1.67290       -2.74242
| 17> H          3.83491        1.26414       -3.48670
| 18> *
| 19> %MaxCore 64000
| 20>
| 21> %pal nprocs 4
| 22> end
| 23>
| 24> %scf
| 25>   MaxIter 150
| 26> end
| 27>
| 28>
| 29>                          ****END OF INPUT****

CARTESIAN COORDINATES (ANGSTROEM)
---------------------------------
  C      3.343500    3.354570   -3.592000
  C      2.952630    1.863080   -3.574850
  C      4.255870    3.703850   -4.726050
  N      3.734030    4.293780   -5.800770
  N      5.515040    3.407250   -4.637180
  H      6.149190    3.601200   -5.399050
  H      5.813580    2.899500   -3.808790
  H      2.741380    4.513110   -5.824700
  H      4.287550    4.521260   -6.614340
  H      3.861250    3.597250   -2.662980
  H      2.446490    3.973460   -3.656560
  H      2.443950    1.617210   -4.483520
  H      2.307810    1.672900   -2.742420
  H      3.834910    1.264140   -3.486700

 Total Charge           Charge          ....    1
 Multiplicity           Mult            ....    1
 Number of Electrons    NEL             ....   40
 Basis Dimension        Dim             ....  209

ORBITAL ENERGIES
----------------

  NO   OCC          E(Eh)            E(eV)
   0   2.0000     -14.997082      -408.0914
   1   2.0000     -14.992112      -407.9561
   2   2.0000     -10.863017      -295.5977
   3   2.0000     -10.734575      -292.1026
   4   2.0000     -10.690712      -290.9091
   5   2.0000      -1.317658       -35.8553
   6   2.0000      -1.215636       -33.0791
   7   2.0000      -1.066463       -29.0199
   8   2.0000      -0.949852       -25.8468
   9   2.0000      -0.899079       -24.4652
  10   2.0000      -0.853809       -23.2333
  11   2.0000      -0.829322       -22.5670
  12   2.0000      -0.772463       -21.0198
  13   2.0000      -0.722011       -19.6469
  14   2.0000      -0.693748       -18.8779
  15   2.0000      -0.682267       -18.5654
  16   2.0000      -0.607650       -16.5350
  17   2.0000      -0.599376       -16.3098
  18   2.0000      -0.592380       -16.1195
  19   2.0000      -0.556129       -15.1330
  20   0.0000      -0.166052        -4.5185
  21   0.0000      -0.130838        -3.5603
  22   0.0000      -0.086278        -2.3477
  23   0.0000      -0.083790        -2.2800
  24   0.0000      -0.052226        -1.4211

MULLIKEN ATOMIC CHARGES
-----------------------
   0 C :   -0.377374
   1 C :   -0.368131
   2 C :    0.461968
   3 N :   -0.430065
   4 N :   -0.387111
   5 H :    0.295440
   6 H :    0.317175
   7 H :    0.315165
   8 H :    0.293764
   9 H :    0.201315
  10 H :    0.175253
  11 H :    0.162434
  12 H :    0.188783
  13 H :    0.151385
Sum of atomic charges:    1.0000000

LOEWDIN ATOMIC CHARGES
----------------------
   0 C :   -0.222824
   1 C :   -0.258615
   2 C :   -0.291261
   3 N :    0.095622
   4 N :    0.124376
   5 H :    0.204591
   6 H :    0.218507
   7 H :    0.211338
   8 H :    0.197135
   9 H :    0.166459
  10 H :    0.161066
  11 H :    0.129562
  12 H :    0.139233
  13 H :    0.124811

  Mayer bond orders larger than 0.100000
B(  0-C ,  1-C ) :   0.9267 B(  0-C ,  2-C ) :   0.9499 B(  0-C ,  9-H ) :   0.9567
B(  0-C , 10-H ) :   0.9716 B(  1-C , 11-H ) :   0.9560 B(  1-C , 12-H ) :   0.9673
B(  1-C , 13-H ) :   0.9631 B(  2-C ,  3-N ) :   1.3919 B(  2-C ,  4-N ) :   1.4348
B(  3-N ,  7-H ) :   0.8859 B(  3-N ,  8-H ) :   0.8949 B(  4-N ,  5-H ) :   0.8936
B(  4-N ,  6-H ) :   0.8836

Dispersion correction           -0.000202321
FINAL SINGLE POINT ENERGY      -229.004464808377

DIPOLE MOMENT
-------------
                                X             Y             Z
Electronic contribution:      2.37247       2.57190      -2.27545
Nuclear contribution   :     -1.74195      -2.09431       1.58516
                        -----------------------------------------
Total Dipole Moment    :      0.63052       0.47760      -0.69028
                        -----------------------------------------
Magnitude (a.u.)       :      1.04983
Magnitude (Debye)      :      2.66847

Rotational constants in cm-1:     0.258965     0.126500     0.098780
Rotational constants in MHz :  7763.584551  3792.383135  2961.336502

                             ****ORCA TERMINATED NORMALLY****
TOTAL RUN TIME: 0 days 0 hours 0 minutes 21 seconds 702 msec
