                         Program Version 5.0.0 -  RELEASE  -
|  1> !M062X D3Zero RIJCOSX def2-TZVP def2/J TightSCF xyzfile
|  2>
|  3> *xyzfile 0 1 B.xyz
|  4>
|  5> %MaxCore 64000
|  6>
|  7> %pal nprocs 18
|  8> end
|  9>
| 10> %scf
| 11>   MaxIter 150
| 12> end
| 13>
| 14>
| 15>                          ****END OF INPUT****

CARTESIAN COORDINATES (ANGSTROEM)
---------------------------------
  C      3.343500    3.354571   -3.591998
  C      2.952633    1.863077   -3.574849
  C      4.129209    0.898394   -3.418950
  H      3.733687   -0.100605   -3.237633
  H      4.719095    0.862556   -4.339005
  C      5.017344    1.315212   -2.221305
  C      4.255868    3.703851   -4.726054
  N      3.734032    4.293783   -5.800770
  N      5.515039    3.407255   -4.637185
  H      6.149187    3.601203   -5.399053
  H      5.813584    2.899504   -3.808785
  H      2.741380    4.513109   -5.824701
  H      4.287548    4.521260   -6.614341
  H      2.278938    1.735250   -2.725496
  H      2.377466    1.625787   -4.475869
  O      4.737055    0.854112   -1.122825
  O      5.928146    2.168108   -2.491365
  H      3.861246    3.597252   -2.662979
  H      2.446493    3.973461   -3.656556

 Total Charge           Charge          ....    0
 Multiplicity           Mult            ....    1
 Number of Electrons    NEL             ....   70
 Basis Dimension        Dim             ....  339

ORBITAL ENERGIES
----------------

  NO   OCC          E(Eh)            E(eV)
   0   2.0000     -19.531686      -531.4842
   1   2.0000     -19.520101      -531.1690
   2   2.0000     -14.846549      -403.9951
   3   2.0000     -14.807506      -402.9327
   4   2.0000     -10.702482      -291.2293
   5   2.0000     -10.585502      -288.0461
   6   2.0000     -10.579896      -287.8936
   7   2.0000     -10.555178      -287.2210
   8   2.0000     -10.513260      -286.0804
   9   2.0000      -1.157957       -31.5096
  10   2.0000      -1.114946       -30.3392
  11   2.0000      -1.056706       -28.7544
  12   2.0000      -1.019813       -27.7505
  13   2.0000      -0.922011       -25.0892
  14   2.0000      -0.831243       -22.6193
  15   2.0000      -0.762299       -20.7432
  16   2.0000      -0.715339       -19.4654
  17   2.0000      -0.694555       -18.8998
  18   2.0000      -0.667182       -18.1549
  19   2.0000      -0.618029       -16.8174
  20   2.0000      -0.574684       -15.6379
  21   2.0000      -0.559825       -15.2336
  22   2.0000      -0.532573       -14.4921
  23   2.0000      -0.523477       -14.2445
  24   2.0000      -0.493305       -13.4235
  25   2.0000      -0.472642       -12.8612
  26   2.0000      -0.447005       -12.1636
  27   2.0000      -0.446290       -12.1442
  28   2.0000      -0.434476       -11.8227
  29   2.0000      -0.404094       -10.9960
  30   2.0000      -0.395074       -10.7505
  31   2.0000      -0.392697       -10.6858
  32   2.0000      -0.287151        -7.8138
  33   2.0000      -0.283146        -7.7048
  34   2.0000      -0.264473        -7.1967
  35   0.0000      -0.010404        -0.2831
  36   0.0000       0.000117         0.0032
  37   0.0000       0.038112         1.0371
  38   0.0000       0.065450         1.7810
  39   0.0000       0.084251         2.2926

MULLIKEN ATOMIC CHARGES
-----------------------
   0 C :   -0.417773
   1 C :   -0.251672
   2 C :   -0.364465
   3 H :    0.144602
   4 H :    0.139665
   5 C :    0.347978
   6 C :    0.447303
   7 N :   -0.477820
   8 N :   -0.402381
   9 H :    0.241447
  10 H :    0.348611
  11 H :    0.286892
  12 H :    0.265903
  13 H :    0.168725
  14 H :    0.134532
  15 O :   -0.426107
  16 O :   -0.575081
  17 H :    0.239984
  18 H :    0.149655
Sum of atomic charges:    0.0000000

LOEWDIN ATOMIC CHARGES
----------------------
   0 C :   -0.206096
   1 C :   -0.251852
   2 C :   -0.251821
   3 H :    0.145125
   4 H :    0.128430
   5 C :   -0.654059
   6 C :   -0.302986
   7 N :    0.046989
   8 N :    0.128614
   9 H :    0.179288
  10 H :    0.145403
  11 H :    0.194770
  12 H :    0.181538
  13 H :    0.154498
  14 H :    0.133788
  15 O :    0.002664
  16 O :   -0.096647
  17 H :    0.176229
  18 H :    0.146126

  Mayer bond orders larger than 0.100000
B(  0-C ,  1-C ) :   0.8897 B(  0-C ,  6-C ) :   0.9436 B(  0-C , 16-O ) :   0.1029
B(  0-C , 17-H ) :   0.9509 B(  0-C , 18-H ) :   0.9802 B(  1-C ,  2-C ) :   0.9414
B(  1-C , 13-H ) :   0.9666 B(  1-C , 14-H ) :   0.9722 B(  2-C ,  3-H ) :   0.9721
B(  2-C ,  4-H ) :   0.9659 B(  2-C ,  5-C ) :   0.9255 B(  5-C , 15-O ) :   1.9645
B(  5-C , 16-O ) :   1.4555 B(  6-C ,  7-N ) :   1.2752 B(  6-C ,  8-N ) :   1.5639
B(  7-N , 11-H ) :   0.9009 B(  7-N , 12-H ) :   0.9097 B(  8-N ,  9-H ) :   0.9150
B(  8-N , 10-H ) :   0.6768 B( 10-H , 16-O ) :   0.2725

Dispersion correction           -0.000558552
FINAL SINGLE POINT ENERGY      -456.498558521118

DIPOLE MOMENT
-------------
                                X             Y             Z
Electronic contribution:      3.87399       0.01330       2.59912
Nuclear contribution   :     -5.42217       2.65262      -7.07590
                        -----------------------------------------
Total Dipole Moment    :     -1.54818       2.66592      -4.47678
                        -----------------------------------------
Magnitude (a.u.)       :      5.43558
Magnitude (Debye)      :     13.81616

Rotational constants in cm-1:     0.107541     0.035862     0.030371
Rotational constants in MHz :  3223.996852  1075.120464   910.508313

                             ****ORCA TERMINATED NORMALLY****
TOTAL RUN TIME: 0 days 0 hours 0 minutes 31 seconds 649 msec
