                         Program Version 5.0.0 -  RELEASE  -
|  1> !M062X D3Zero RIJCOSX def2-TZVP def2/J TightSCF
|  2>
|  3> *xyz 0 1
|  4> C          2.95263        1.86308       -3.57485
|  5> C          4.12921        0.89839       -3.41895
|  6> H          3.73369       -0.10060       -3.23763
|  7> H          4.71910        0.86256       -4.33901
|  8> C          5.01734        1.31521       -2.22130
|  9> F          4.73706        0.85411       -1.12283
| 10> O          5.92815        2.16811       -2.49136
| 11> H          2.35067        1.56005       -4.40594
| 12> H          3.32277        2.85258       -3.74453
| 13> H          2.36134        1.85149       -2.68315
| 14> *
| 15> %MaxCore 64000
| 16>
| 17> %pal nprocs 4
| 18> end
| 19>
| 20> %scf
| 21>   MaxIter 150
| 22> end
| 23>
| 24>
| 25>                          ****END OF INPUT****

CARTESIAN COORDINATES (ANGSTROEM)
---------------------------------
  C      2.952630    1.863080   -3.574850
  C      4.129210    0.898390   -3.418950
  H      3.733690   -0.100600   -3.237630
  H      4.719100    0.862560   -4.339010
  C      5.017340    1.315210   -2.221300
  F      4.737060    0.854110   -1.122830
  O      5.928150    2.168110   -2.491360
  H      2.350670    1.560050   -4.405940
  H      3.322770    2.852580   -3.744530
  H      2.361340    1.851490   -2.683150

 Total Charge           Charge          ....    0
 Multiplicity           Mult            ....    1
 Number of Electrons    NEL             ....   40
 Basis Dimension        Dim             ....  185

ORBITAL ENERGIES
----------------

  NO   OCC          E(Eh)            E(eV)
   0   2.0000     -25.328088      -689.2123
   1   2.0000     -19.629529      -534.1466
   2   2.0000     -10.722458      -291.7729
   3   2.0000     -10.566100      -287.5182
   4   2.0000     -10.542161      -286.8668
   5   2.0000      -1.490119       -40.5482
   6   2.0000      -1.141565       -31.0636
   7   2.0000      -0.900733       -24.5102
   8   2.0000      -0.793288       -21.5865
   9   2.0000      -0.740107       -20.1393
  10   2.0000      -0.659699       -17.9513
  11   2.0000      -0.647047       -17.6070
  12   2.0000      -0.590276       -16.0622
  13   2.0000      -0.536982       -14.6120
  14   2.0000      -0.509389       -13.8612
  15   2.0000      -0.466749       -12.7009
  16   2.0000      -0.447868       -12.1871
  17   2.0000      -0.436739       -11.8843
  18   2.0000      -0.409968       -11.1558
  19   2.0000      -0.361727        -9.8431
  20   0.0000       0.016816         0.4576
  21   0.0000       0.065446         1.7809
  22   0.0000       0.104478         2.8430
  23   0.0000       0.121188         3.2977
  24   0.0000       0.134796         3.6680

MULLIKEN ATOMIC CHARGES
-----------------------
   0 C :   -0.416337
   1 C :   -0.282872
   2 H :    0.137993
   3 H :    0.159037
   4 C :    0.420239
   5 F :   -0.089213
   6 O :   -0.372675
   7 H :    0.143827
   8 H :    0.158389
   9 H :    0.141612
Sum of atomic charges:   -0.0000000

LOEWDIN ATOMIC CHARGES
----------------------
   0 C :   -0.291564
   1 C :   -0.259038
   2 H :    0.139090
   3 H :    0.151024
   4 C :   -0.499751
   5 F :    0.368112
   6 O :    0.024783
   7 H :    0.121525
   8 H :    0.125401
   9 H :    0.120419

  Mayer bond orders larger than 0.100000
B(  0-C ,  1-C ) :   0.9379 B(  0-C ,  7-H ) :   0.9736 B(  0-C ,  8-H ) :   0.9676
B(  0-C ,  9-H ) :   0.9690 B(  1-C ,  2-H ) :   0.9597 B(  1-C ,  3-H ) :   0.9633
B(  1-C ,  4-C ) :   0.9784 B(  4-C ,  5-F ) :   1.1701 B(  4-C ,  6-O ) :   2.0196

Dispersion correction           -0.000091050
FINAL SINGLE POINT ENERGY      -292.381128641533

DIPOLE MOMENT
-------------
                                X             Y             Z
Electronic contribution:      5.04323      -1.18609       6.51086
Nuclear contribution   :     -6.06116       0.51860      -6.80802
                        -----------------------------------------
Total Dipole Moment    :     -1.01793      -0.66749      -0.29716
                        -----------------------------------------
Magnitude (a.u.)       :      1.25301
Magnitude (Debye)      :      3.18489

Rotational constants in cm-1:     0.276196     0.132056     0.105465
Rotational constants in MHz :  8280.156449  3958.940601  3161.775929

                             ****ORCA TERMINATED NORMALLY****
TOTAL RUN TIME: 0 days 0 hours 0 minutes 21 seconds 438 msec
