                         Program Version 5.0.0 -  RELEASE  -
|  1> !M062X D3Zero RIJCOSX def2-TZVP def2/J TightSCF
|  2>
|  3> *xyz 0 1
|  4> C          3.34350        3.35457       -3.59200
|  5> C          2.95263        1.86308       -3.57485
|  6> C          4.25587        3.70385       -4.72605
|  7> C          3.73403        4.29378       -5.80077
|  8> N          5.51504        3.40725       -4.63718
|  9> H          6.14919        3.60120       -5.39905
| 10> H          5.81358        2.89950       -3.80879
| 11> H          2.74138        4.51311       -5.82470
| 12> H          4.28755        4.52126       -6.61434
| 13> H          3.86125        3.59725       -2.66298
| 14> H          2.44649        3.97346       -3.65656
| 15> H          2.44395        1.61721       -4.48352
| 16> H          2.30781        1.67290       -2.74242
| 17> H          3.83491        1.26414       -3.48670
| 18> *
| 19> %MaxCore 64000
| 20>
| 21> %pal nprocs 4
| 22> end
| 23>
| 24> %scf
| 25>   MaxIter 150
| 26> end
| 27>
| 28>
| 29>                          ****END OF INPUT****

CARTESIAN COORDINATES (ANGSTROEM)
---------------------------------
  C      3.343500    3.354570   -3.592000
  C      2.952630    1.863080   -3.574850
  C      4.255870    3.703850   -4.726050
  C      3.734030    4.293780   -5.800770
  N      5.515040    3.407250   -4.637180
  H      6.149190    3.601200   -5.399050
  H      5.813580    2.899500   -3.808790
  H      2.741380    4.513110   -5.824700
  H      4.287550    4.521260   -6.614340
  H      3.861250    3.597250   -2.662980
  H      2.446490    3.973460   -3.656560
  H      2.443950    1.617210   -4.483520
  H      2.307810    1.672900   -2.742420
  H      3.834910    1.264140   -3.486700

 Total Charge           Charge          ....    0
 Multiplicity           Mult            ....    1
 Number of Electrons    NEL             ....   40
 Basis Dimension        Dim             ....  209

ORBITAL ENERGIES
----------------

  NO   OCC          E(Eh)            E(eV)
   0   2.0000     -14.749390      -401.3513
   1   2.0000     -10.555591      -287.2322
   2   2.0000     -10.533671      -286.6358
   3   2.0000     -10.519592      -286.2526
   4   2.0000     -10.465545      -284.7820
   5   2.0000      -1.046591       -28.4792
   6   2.0000      -0.875523       -23.8242
   7   2.0000      -0.807449       -21.9718
   8   2.0000      -0.722821       -19.6690
   9   2.0000      -0.648273       -17.6404
  10   2.0000      -0.606947       -16.5159
  11   2.0000      -0.550574       -14.9819
  12   2.0000      -0.505522       -13.7560
  13   2.0000      -0.488422       -13.2907
  14   2.0000      -0.458683       -12.4814
  15   2.0000      -0.448450       -12.2029
  16   2.0000      -0.415781       -11.3140
  17   2.0000      -0.396334       -10.7848
  18   2.0000      -0.392941       -10.6925
  19   2.0000      -0.240057        -6.5323
  20   0.0000       0.053652         1.4599
  21   0.0000       0.083798         2.2803
  22   0.0000       0.098433         2.6785
  23   0.0000       0.109485         2.9792
  24   0.0000       0.119307         3.2465

MULLIKEN ATOMIC CHARGES
-----------------------
   0 C :   -0.365603
   1 C :   -0.365171
   2 C :    0.331776
   3 C :   -0.464189
   4 N :   -0.524011
   5 H :    0.247191
   6 H :    0.247999
   7 H :    0.105849
   8 H :    0.105572
   9 H :    0.136293
  10 H :    0.144279
  11 H :    0.143155
  12 H :    0.135865
  13 H :    0.120995
Sum of atomic charges:   -0.0000000

LOEWDIN ATOMIC CHARGES
----------------------
   0 C :   -0.241460
   1 C :   -0.293615
   2 C :   -0.380092
   3 C :   -0.280013
   4 N :    0.007021
   5 H :    0.178061
   6 H :    0.177734
   7 H :    0.104746
   8 H :    0.094222
   9 H :    0.136674
  10 H :    0.148273
  11 H :    0.120257
  12 H :    0.115387
  13 H :    0.112806

  Mayer bond orders larger than 0.100000
B(  0-C ,  1-C ) :   0.9263 B(  0-C ,  2-C ) :   0.9221 B(  0-C ,  9-H ) :   0.9858
B(  0-C , 10-H ) :   0.9952 B(  1-C , 11-H ) :   0.9715 B(  1-C , 12-H ) :   0.9799
B(  1-C , 13-H ) :   0.9708 B(  2-C ,  3-C ) :   1.7183 B(  2-C ,  4-N ) :   1.1134
B(  3-C ,  7-H ) :   1.0029 B(  3-C ,  8-H ) :   0.9973 B(  4-N ,  5-H ) :   0.9260
B(  4-N ,  6-H ) :   0.9260

Dispersion correction           -0.000198859
FINAL SINGLE POINT ENERGY      -212.536663621927

DIPOLE MOMENT
-------------
                                X             Y             Z
Electronic contribution:      2.33819       1.47384      -0.85034
Nuclear contribution   :     -1.79713      -1.86925       1.28073
                        -----------------------------------------
Total Dipole Moment    :      0.54107      -0.39540       0.43039
                        -----------------------------------------
Magnitude (a.u.)       :      0.79645
Magnitude (Debye)      :      2.02442

Rotational constants in cm-1:     0.269040     0.129645     0.102087
Rotational constants in MHz :  8065.609820  3886.645139  3060.489045

                             ****ORCA TERMINATED NORMALLY****
TOTAL RUN TIME: 0 days 0 hours 0 minutes 28 seconds 358 msec
