                         Program Version 5.0.0 -  RELEASE  -
|  1> !M062X D3Zero RIJCOSX def2-TZVP def2/J TightSCF
|  2>
|  3> *xyz 0 1
|  4> C          2.95263        1.86308       -3.57485
|  5> C          4.12921        0.89839       -3.41895
|  6> H          3.73369       -0.10060       -3.23763
|  7> H          4.71910        0.86256       -4.33901
|  8> C          5.01734        1.31521       -2.22130
|  9> O          4.73706        0.85411       -1.12283
| 10> F          5.92815        2.16811       -2.49136
| 11> H          2.35067        1.56005       -4.40594
| 12> H          3.32277        2.85258       -3.74453
| 13> H          2.36134        1.85149       -2.68315
| 14> *
| 15> %MaxCore 64000
| 16>
| 17> %pal nprocs 4
| 18> end
| 19>
| 20> %scf
| 21>   MaxIter 150
| 22> end
| 23>
| 24>
| 25>                          ****END OF INPUT****

CARTESIAN COORDINATES (ANGSTROEM)
---------------------------------
  C      2.952630    1.863080   -3.574850
  C      4.129210    0.898390   -3.418950
  H      3.733690   -0.100600   -3.237630
  H      4.719100    0.862560   -4.339010
  C      5.017340    1.315210   -2.221300
  O      4.737060    0.854110   -1.122830
  F      5.928150    2.168110   -2.491360
  H      2.350670    1.560050   -4.405940
  H      3.322770    2.852580   -3.744530
  H      2.361340    1.851490   -2.683150

 Total Charge           Charge          ....    0
 Multiplicity           Mult            ....    1
 Number of Electrons    NEL             ....   40
 Basis Dimension        Dim             ....  185

ORBITAL ENERGIES
----------------

  NO   OCC          E(Eh)            E(eV)
   0   2.0000     -25.307243      -688.6451
   1   2.0000     -19.639039      -534.4054
   2   2.0000     -10.717637      -291.6417
   3   2.0000     -10.565584      -287.5041
   4   2.0000     -10.542362      -286.8723
   5   2.0000      -1.449036       -39.4303
   6   2.0000      -1.176927       -32.0258
   7   2.0000      -0.900081       -24.4925
   8   2.0000      -0.778608       -21.1870
   9   2.0000      -0.727935       -19.8081
  10   2.0000      -0.636473       -17.3193
  11   2.0000      -0.625496       -17.0206
  12   2.0000      -0.593112       -16.1394
  13   2.0000      -0.536680       -14.6038
  14   2.0000      -0.515184       -14.0189
  15   2.0000      -0.474505       -12.9119
  16   2.0000      -0.455979       -12.4078
  17   2.0000      -0.437061       -11.8930
  18   2.0000      -0.426076       -11.5941
  19   2.0000      -0.370752       -10.0887
  20   0.0000       0.022354         0.6083
  21   0.0000       0.066079         1.7981
  22   0.0000       0.104520         2.8441
  23   0.0000       0.121720         3.3122
  24   0.0000       0.136086         3.7031

MULLIKEN ATOMIC CHARGES
-----------------------
   0 C :   -0.417961
   1 C :   -0.285824
   2 H :    0.154504
   3 H :    0.143313
   4 C :    0.403451
   5 O :   -0.311014
   6 F :   -0.130692
   7 H :    0.144143
   8 H :    0.144594
   9 H :    0.155488
Sum of atomic charges:    0.0000000

LOEWDIN ATOMIC CHARGES
----------------------
   0 C :   -0.291979
   1 C :   -0.257905
   2 H :    0.150237
   3 H :    0.140374
   4 C :   -0.490817
   5 O :    0.101518
   6 F :    0.281233
   7 H :    0.121591
   8 H :    0.120858
   9 H :    0.124889

  Mayer bond orders larger than 0.100000
B(  0-C ,  1-C ) :   0.9386 B(  0-C ,  7-H ) :   0.9738 B(  0-C ,  8-H ) :   0.9697
B(  0-C ,  9-H ) :   0.9674 B(  1-C ,  2-H ) :   0.9660 B(  1-C ,  3-H ) :   0.9582
B(  1-C ,  4-C ) :   0.9801 B(  4-C ,  5-O ) :   2.0884 B(  4-C ,  6-F ) :   1.1145

Dispersion correction           -0.000091188
FINAL SINGLE POINT ENERGY      -292.397880940750

DIPOLE MOMENT
-------------
                                X             Y             Z
Electronic contribution:      7.02656       1.00155       4.22617
Nuclear contribution   :     -7.35982      -0.91407      -5.31589
                        -----------------------------------------
Total Dipole Moment    :     -0.33326       0.08748      -1.08973
                        -----------------------------------------
Magnitude (a.u.)       :      1.14290
Magnitude (Debye)      :      2.90502

Rotational constants in cm-1:     0.275433     0.132201     0.105422
Rotational constants in MHz :  8257.268192  3963.279062  3160.465566

                             ****ORCA TERMINATED NORMALLY****
TOTAL RUN TIME: 0 days 0 hours 0 minutes 21 seconds 903 msec
