                         Program Version 5.0.0 -  RELEASE  -
|  1> !M062X D3Zero RIJCOSX def2-TZVP def2/J TightSCF
|  2>
|  3> *xyz 0 1
|  4> C          3.34350        3.35457       -3.59200
|  5> C          2.95263        1.86308       -3.57485
|  6> C          4.25587        3.70385       -4.72605
|  7> N          3.73403        4.29378       -5.80077
|  8> C          5.51504        3.40725       -4.63718
|  9> H          6.14919        3.60120       -5.39905
| 10> H          5.81358        2.89950       -3.80879
| 11> H          2.74138        4.51311       -5.82470
| 12> H          4.28755        4.52126       -6.61434
| 13> H          3.86125        3.59725       -2.66298
| 14> H          2.44649        3.97346       -3.65656
| 15> H          2.44395        1.61721       -4.48352
| 16> H          2.30781        1.67290       -2.74242
| 17> H          3.83491        1.26414       -3.48670
| 18> *
| 19> %MaxCore 64000
| 20>
| 21> %pal nprocs 4
| 22> end
| 23>
| 24> %scf
| 25>   MaxIter 150
| 26> end
| 27>
| 28>
| 29>                          ****END OF INPUT****

CARTESIAN COORDINATES (ANGSTROEM)
---------------------------------
  C      3.343500    3.354570   -3.592000
  C      2.952630    1.863080   -3.574850
  C      4.255870    3.703850   -4.726050
  N      3.734030    4.293780   -5.800770
  C      5.515040    3.407250   -4.637180
  H      6.149190    3.601200   -5.399050
  H      5.813580    2.899500   -3.808790
  H      2.741380    4.513110   -5.824700
  H      4.287550    4.521260   -6.614340
  H      3.861250    3.597250   -2.662980
  H      2.446490    3.973460   -3.656560
  H      2.443950    1.617210   -4.483520
  H      2.307810    1.672900   -2.742420
  H      3.834910    1.264140   -3.486700

 Total Charge           Charge          ....    0
 Multiplicity           Mult            ....    1
 Number of Electrons    NEL             ....   40
 Basis Dimension        Dim             ....  209

ORBITAL ENERGIES
----------------

  NO   OCC          E(Eh)            E(eV)
   0   2.0000     -14.744973      -401.2311
   1   2.0000     -10.552831      -287.1571
   2   2.0000     -10.533142      -286.6214
   3   2.0000     -10.517497      -286.1956
   4   2.0000     -10.463883      -284.7367
   5   2.0000      -1.030961       -28.0539
   6   2.0000      -0.878336       -23.9007
   7   2.0000      -0.811702       -22.0875
   8   2.0000      -0.723945       -19.6995
   9   2.0000      -0.641168       -17.4471
  10   2.0000      -0.593792       -16.1579
  11   2.0000      -0.554727       -15.0949
  12   2.0000      -0.507669       -13.8144
  13   2.0000      -0.480748       -13.0818
  14   2.0000      -0.458720       -12.4824
  15   2.0000      -0.448556       -12.2058
  16   2.0000      -0.411248       -11.1906
  17   2.0000      -0.397525       -10.8172
  18   2.0000      -0.392266       -10.6741
  19   2.0000      -0.245440        -6.6788
  20   0.0000       0.056950         1.5497
  21   0.0000       0.082604         2.2478
  22   0.0000       0.101084         2.7506
  23   0.0000       0.106141         2.8883
  24   0.0000       0.123127         3.3505

MULLIKEN ATOMIC CHARGES
-----------------------
   0 C :   -0.354599
   1 C :   -0.374286
   2 C :    0.370913
   3 N :   -0.561642
   4 C :   -0.466090
   5 H :    0.104791
   6 H :    0.112366
   7 H :    0.244797
   8 H :    0.244219
   9 H :    0.156480
  10 H :    0.117609
  11 H :    0.132213
  12 H :    0.132396
  13 H :    0.140833
Sum of atomic charges:   -0.0000000

LOEWDIN ATOMIC CHARGES
----------------------
   0 C :   -0.239922
   1 C :   -0.290982
   2 C :   -0.368764
   3 N :   -0.020055
   4 C :   -0.265257
   5 H :    0.099939
   6 H :    0.111873
   7 H :    0.170001
   8 H :    0.170159
   9 H :    0.149174
  10 H :    0.133916
  11 H :    0.117008
  12 H :    0.113968
  13 H :    0.118942

  Mayer bond orders larger than 0.100000
B(  0-C ,  1-C ) :   0.9335 B(  0-C ,  2-C ) :   0.8933 B(  0-C ,  9-H ) :   0.9961
B(  0-C , 10-H ) :   0.9924 B(  1-C , 11-H ) :   0.9714 B(  1-C , 12-H ) :   0.9802
B(  1-C , 13-H ) :   0.9731 B(  2-C ,  3-N ) :   1.0696 B(  2-C ,  4-C ) :   1.7508
B(  3-N ,  7-H ) :   0.9276 B(  3-N ,  8-H ) :   0.9264 B(  4-C ,  5-H ) :   0.9995
B(  4-C ,  6-H ) :   1.0035

Dispersion correction           -0.000199056
FINAL SINGLE POINT ENERGY      -212.537141461662

DIPOLE MOMENT
-------------
                                X             Y             Z
Electronic contribution:      0.77123       2.27056      -1.86309
Nuclear contribution   :     -1.38463      -2.07457       1.55023
                        -----------------------------------------
Total Dipole Moment    :     -0.61340       0.19599      -0.31285
                        -----------------------------------------
Magnitude (a.u.)       :      0.71593
Magnitude (Debye)      :      1.81974

Rotational constants in cm-1:     0.272312     0.128195     0.101724
Rotational constants in MHz :  8163.717141  3843.180148  3049.598073

                             ****ORCA TERMINATED NORMALLY****
TOTAL RUN TIME: 0 days 0 hours 0 minutes 29 seconds 324 msec
