                         Program Version 5.0.0 -  RELEASE  -
|  1> !M062X D3Zero RIJCOSX def2-TZVP def2/J TightSCF xyzfile
|  2>
|  3> *xyzfile 0 1 D1.xyz
|  4>
|  5> %MaxCore 64000
|  6>
|  7> %pal nprocs 18
|  8> end
|  9>
| 10> %scf
| 11>   MaxIter 150
| 12> end
| 13>
| 14>
| 15>                          ****END OF INPUT****

CARTESIAN COORDINATES (ANGSTROEM)
---------------------------------
  C      3.343500    3.354571   -3.591998
  C      2.952633    1.863077   -3.574849
  C      4.129209    0.898394   -3.418950
  H      3.733687   -0.100605   -3.237633
  H      4.719095    0.862556   -4.339005
  C      5.017344    1.315212   -2.221305
  C      4.255868    3.703851   -4.726054
  C      3.734032    4.293783   -5.800770
  N      5.515039    3.407255   -4.637185
  H      6.149187    3.601203   -5.399053
  H      5.813584    2.899504   -3.808785
  H      2.741380    4.513109   -5.824701
  H      4.287548    4.521260   -6.614341
  H      2.278938    1.735250   -2.725496
  H      2.377466    1.625787   -4.475869
  F      4.737055    0.854112   -1.122825
  O      5.928146    2.168108   -2.491365
  H      3.861246    3.597252   -2.662979
  H      2.446493    3.973461   -3.656556

 Total Charge           Charge          ....    0
 Multiplicity           Mult            ....    1
 Number of Electrons    NEL             ....   70
 Basis Dimension        Dim             ....  339

ORBITAL ENERGIES
----------------

  NO   OCC          E(Eh)            E(eV)
   0   2.0000     -25.351371      -689.8459
   1   2.0000     -19.659203      -534.9541
   2   2.0000     -14.711832      -400.3293
   3   2.0000     -10.752367      -292.5868
   4   2.0000     -10.576358      -287.7973
   5   2.0000     -10.558813      -287.3199
   6   2.0000     -10.546392      -286.9819
   7   2.0000     -10.537128      -286.7298
   8   2.0000     -10.456038      -284.5233
   9   2.0000      -1.512459       -41.1561
  10   2.0000      -1.182335       -32.1730
  11   2.0000      -1.025248       -27.8984
  12   2.0000      -0.924126       -25.1468
  13   2.0000      -0.849025       -23.1032
  14   2.0000      -0.810598       -22.0575
  15   2.0000      -0.774226       -21.0678
  16   2.0000      -0.719791       -19.5865
  17   2.0000      -0.682014       -18.5585
  18   2.0000      -0.671689       -18.2776
  19   2.0000      -0.630302       -17.1514
  20   2.0000      -0.628867       -17.1123
  21   2.0000      -0.585943       -15.9443
  22   2.0000      -0.558380       -15.1943
  23   2.0000      -0.531660       -14.4672
  24   2.0000      -0.514310       -13.9951
  25   2.0000      -0.503569       -13.7028
  26   2.0000      -0.462187       -12.5767
  27   2.0000      -0.452218       -12.3055
  28   2.0000      -0.442737       -12.0475
  29   2.0000      -0.438574       -11.9342
  30   2.0000      -0.420708       -11.4480
  31   2.0000      -0.396480       -10.7888
  32   2.0000      -0.385512       -10.4903
  33   2.0000      -0.374888       -10.2012
  34   2.0000      -0.226040        -6.1509
  35   0.0000      -0.010832        -0.2947
  36   0.0000       0.058095         1.5809
  37   0.0000       0.082218         2.2373
  38   0.0000       0.093844         2.5536
  39   0.0000       0.099486         2.7072

MULLIKEN ATOMIC CHARGES
-----------------------
   0 C :   -0.457031
   1 C :   -0.251348
   2 C :   -0.377219
   3 H :    0.162201
   4 H :    0.200333
   5 C :    0.454204
   6 C :    0.348292
   7 C :   -0.476516
   8 N :   -0.560494
   9 H :    0.229020
  10 H :    0.311253
  11 H :    0.099401
  12 H :    0.104500
  13 H :    0.153421
  14 H :    0.163003
  15 F :   -0.072832
  16 O :   -0.378450
  17 H :    0.188988
  18 H :    0.159275
Sum of atomic charges:    0.0000000

LOEWDIN ATOMIC CHARGES
----------------------
   0 C :   -0.214568
   1 C :   -0.250816
   2 C :   -0.232149
   3 H :    0.146077
   4 H :    0.158634
   5 C :   -0.466709
   6 C :   -0.380971
   7 C :   -0.293444
   8 N :    0.008271
   9 H :    0.169452
  10 H :    0.136995
  11 H :    0.101209
  12 H :    0.093782
  13 H :    0.141343
  14 H :    0.148789
  15 F :    0.382885
  16 O :    0.053769
  17 H :    0.144476
  18 H :    0.152976

  Mayer bond orders larger than 0.100000
B(  0-C ,  1-C ) :   0.8850 B(  0-C ,  6-C ) :   0.8750 B(  0-C , 17-H ) :   0.9998
B(  0-C , 18-H ) :   0.9925 B(  1-C ,  2-C ) :   0.9127 B(  1-C , 13-H ) :   0.9816
B(  1-C , 14-H ) :   0.9672 B(  2-C ,  3-H ) :   0.9657 B(  2-C ,  4-H ) :   0.9544
B(  2-C ,  5-C ) :   0.9849 B(  5-C , 15-F ) :   1.1974 B(  5-C , 16-O ) :   1.8610
B(  6-C ,  7-C ) :   1.7040 B(  6-C ,  8-N ) :   1.1424 B(  7-C , 11-H ) :   1.0003
B(  7-C , 12-H ) :   0.9987 B(  8-N ,  9-H ) :   0.9347 B(  8-N , 10-H ) :   0.8282
B( 10-H , 16-O ) :   0.1136

Dispersion correction           -0.000548324
FINAL SINGLE POINT ENERGY      -464.416152992164

DIPOLE MOMENT
-------------
                                X             Y             Z
Electronic contribution:      5.51763      -5.96115      10.54286
Nuclear contribution   :     -5.86483       4.68058     -10.07545
                        -----------------------------------------
Total Dipole Moment    :     -0.34720      -1.28057       0.46741
                        -----------------------------------------
Magnitude (a.u.)       :      1.40673
Magnitude (Debye)      :      3.57562

Rotational constants in cm-1:     0.107256     0.035474     0.030113
Rotational constants in MHz :  3215.453922  1063.481574   902.777619

                             ****ORCA TERMINATED NORMALLY****
TOTAL RUN TIME: 0 days 0 hours 0 minutes 31 seconds 715 msec
