                         Program Version 5.0.0 -  RELEASE  -
|  1> !M062X D3Zero RIJCOSX def2-TZVP def2/J TightSCF xyzfile
|  2>
|  3> *xyzfile 0 1 D2.xyz
|  4>
|  5> %MaxCore 64000
|  6>
|  7> %pal nprocs 18
|  8> end
|  9>
| 10> %scf
| 11>   MaxIter 150
| 12> end
| 13>
| 14>
| 15>                          ****END OF INPUT****

CARTESIAN COORDINATES (ANGSTROEM)
---------------------------------
  C      3.343500    3.354571   -3.591998
  C      2.952633    1.863077   -3.574849
  C      4.129209    0.898394   -3.418950
  H      3.733687   -0.100605   -3.237633
  H      4.719095    0.862556   -4.339005
  C      5.017344    1.315212   -2.221305
  C      4.255868    3.703851   -4.726054
  N      3.734032    4.293783   -5.800770
  C      5.515039    3.407255   -4.637185
  H      6.149187    3.601203   -5.399053
  H      5.813584    2.899504   -3.808785
  H      2.741380    4.513109   -5.824701
  H      4.287548    4.521260   -6.614341
  H      2.278938    1.735250   -2.725496
  H      2.377466    1.625787   -4.475869
  F      4.737055    0.854112   -1.122825
  O      5.928146    2.168108   -2.491365
  H      3.861246    3.597252   -2.662979
  H      2.446493    3.973461   -3.656556

 Total Charge           Charge          ....    0
 Multiplicity           Mult            ....    1
 Number of Electrons    NEL             ....   70
 Basis Dimension        Dim             ....  339

ORBITAL ENERGIES
----------------

  NO   OCC          E(Eh)            E(eV)
   0   2.0000     -25.332780      -689.3400
   1   2.0000     -19.632852      -534.2371
   2   2.0000     -14.735113      -400.9628
   3   2.0000     -10.729796      -291.9726
   4   2.0000     -10.563357      -287.4436
   5   2.0000     -10.554687      -287.2076
   6   2.0000     -10.540011      -286.8083
   7   2.0000     -10.536103      -286.7019
   8   2.0000     -10.432863      -283.8926
   9   2.0000      -1.494577       -40.6695
  10   2.0000      -1.156899       -31.4808
  11   2.0000      -1.022004       -27.8102
  12   2.0000      -0.917230       -24.9591
  13   2.0000      -0.847160       -23.0524
  14   2.0000      -0.796667       -21.6784
  15   2.0000      -0.776227       -21.1222
  16   2.0000      -0.708239       -19.2722
  17   2.0000      -0.666816       -18.1450
  18   2.0000      -0.656415       -17.8620
  19   2.0000      -0.630510       -17.1571
  20   2.0000      -0.608021       -16.5451
  21   2.0000      -0.575456       -15.6589
  22   2.0000      -0.550489       -14.9796
  23   2.0000      -0.536816       -14.6075
  24   2.0000      -0.520043       -14.1511
  25   2.0000      -0.488817       -13.3014
  26   2.0000      -0.458568       -12.4783
  27   2.0000      -0.455827       -12.4037
  28   2.0000      -0.428232       -11.6528
  29   2.0000      -0.419972       -11.4280
  30   2.0000      -0.413426       -11.2499
  31   2.0000      -0.389736       -10.6053
  32   2.0000      -0.381617       -10.3843
  33   2.0000      -0.338875        -9.2213
  34   2.0000      -0.232132        -6.3166
  35   0.0000       0.007847         0.2135
  36   0.0000       0.056235         1.5302
  37   0.0000       0.078192         2.1277
  38   0.0000       0.087727         2.3872
  39   0.0000       0.100977         2.7477

MULLIKEN ATOMIC CHARGES
-----------------------
   0 C :   -0.451106
   1 C :   -0.258706
   2 C :   -0.364660
   3 H :    0.156068
   4 H :    0.199733
   5 C :    0.419876
   6 C :    0.401750
   7 N :   -0.575204
   8 C :   -0.527194
   9 H :    0.095152
  10 H :    0.192285
  11 H :    0.236100
  12 H :    0.242607
  13 H :    0.155262
  14 H :    0.154987
  15 F :   -0.081809
  16 O :   -0.337762
  17 H :    0.204826
  18 H :    0.137796
Sum of atomic charges:    0.0000000

LOEWDIN ATOMIC CHARGES
----------------------
   0 C :   -0.216738
   1 C :   -0.252255
   2 C :   -0.231693
   3 H :    0.143463
   4 H :    0.159680
   5 C :   -0.480285
   6 C :   -0.379307
   7 N :   -0.029809
   8 C :   -0.252728
   9 H :    0.095672
  10 H :    0.089492
  11 H :    0.165028
  12 H :    0.168712
  13 H :    0.141016
  14 H :    0.144657
  15 F :    0.373451
  16 O :    0.068238
  17 H :    0.154631
  18 H :    0.138775

  Mayer bond orders larger than 0.100000
B(  0-C ,  1-C ) :   0.8832 B(  0-C ,  6-C ) :   0.8568 B(  0-C , 17-H ) :   1.0090
B(  0-C , 18-H ) :   0.9956 B(  1-C ,  2-C ) :   0.9159 B(  1-C , 13-H ) :   0.9870
B(  1-C , 14-H ) :   0.9683 B(  2-C ,  3-H ) :   0.9689 B(  2-C ,  4-H ) :   0.9575
B(  2-C ,  5-C ) :   0.9884 B(  5-C , 15-F ) :   1.1790 B(  5-C , 16-O ) :   1.9389
B(  6-C ,  7-N ) :   1.0334 B(  6-C ,  8-C ) :   1.7044 B(  7-N , 11-H ) :   0.9310
B(  7-N , 12-H ) :   0.9295 B(  8-C ,  9-H ) :   0.9989 B(  8-C , 10-H ) :   0.9951

Dispersion correction           -0.000551942
FINAL SINGLE POINT ENERGY      -464.390899887003

DIPOLE MOMENT
-------------
                                X             Y             Z
Electronic contribution:      4.27904      -5.15093       9.55528
Nuclear contribution   :     -5.64491       4.57111      -9.93176
                        -----------------------------------------
Total Dipole Moment    :     -1.36586      -0.57982      -0.37649
                        -----------------------------------------
Magnitude (a.u.)       :      1.53085
Magnitude (Debye)      :      3.89112

Rotational constants in cm-1:     0.109825     0.034347     0.029470
Rotational constants in MHz :  3292.465653  1029.684117   883.494260

                             ****ORCA TERMINATED NORMALLY****
TOTAL RUN TIME: 0 days 0 hours 0 minutes 32 seconds 782 msec
