                         Program Version 5.0.0 -  RELEASE  -
|  1> !M062X D3Zero RIJCOSX def2-TZVP def2/J TightSCF xyzfile
|  2>
|  3> *xyzfile 0 1 D3.xyz
|  4>
|  5> %MaxCore 64000
|  6>
|  7> %pal nprocs 18
|  8> end
|  9>
| 10> %scf
| 11>   MaxIter 150
| 12> end
| 13>
| 14>
| 15>                          ****END OF INPUT****

CARTESIAN COORDINATES (ANGSTROEM)
---------------------------------
  C      3.343500    3.354571   -3.591998
  C      2.952633    1.863077   -3.574849
  C      4.129209    0.898394   -3.418950
  H      3.733687   -0.100605   -3.237633
  H      4.719095    0.862556   -4.339005
  C      5.017344    1.315212   -2.221305
  C      4.255868    3.703851   -4.726054
  C      3.734032    4.293783   -5.800770
  N      5.515039    3.407255   -4.637185
  H      6.149187    3.601203   -5.399053
  H      5.813584    2.899504   -3.808785
  H      2.741380    4.513109   -5.824701
  H      4.287548    4.521260   -6.614341
  H      2.278938    1.735250   -2.725496
  H      2.377466    1.625787   -4.475869
  O      4.737055    0.854112   -1.122825
  F      5.928146    2.168108   -2.491365
  H      3.861246    3.597252   -2.662979
  H      2.446493    3.973461   -3.656556

 Total Charge           Charge          ....    0
 Multiplicity           Mult            ....    1
 Number of Electrons    NEL             ....   70
 Basis Dimension        Dim             ....  339

ORBITAL ENERGIES
----------------

  NO   OCC          E(Eh)            E(eV)
   0   2.0000     -25.339676      -689.5276
   1   2.0000     -19.656931      -534.8923
   2   2.0000     -14.739494      -401.0820
   3   2.0000     -10.735532      -292.1287
   4   2.0000     -10.572008      -287.6790
   5   2.0000     -10.560188      -287.3573
   6   2.0000     -10.557474      -287.2835
   7   2.0000     -10.546120      -286.9745
   8   2.0000     -10.469957      -284.9020
   9   2.0000      -1.487723       -40.4830
  10   2.0000      -1.194283       -32.4981
  11   2.0000      -1.048022       -28.5181
  12   2.0000      -0.923825       -25.1385
  13   2.0000      -0.854662       -23.2565
  14   2.0000      -0.815527       -22.1916
  15   2.0000      -0.774300       -21.0698
  16   2.0000      -0.728391       -19.8205
  17   2.0000      -0.678423       -18.4608
  18   2.0000      -0.665019       -18.0961
  19   2.0000      -0.639947       -17.4138
  20   2.0000      -0.607334       -16.5264
  21   2.0000      -0.590350       -16.0643
  22   2.0000      -0.560701       -15.2575
  23   2.0000      -0.540417       -14.7055
  24   2.0000      -0.519717       -14.1422
  25   2.0000      -0.500175       -13.6105
  26   2.0000      -0.470036       -12.7903
  27   2.0000      -0.464466       -12.6388
  28   2.0000      -0.453895       -12.3511
  29   2.0000      -0.447487       -12.1767
  30   2.0000      -0.422884       -11.5073
  31   2.0000      -0.403316       -10.9748
  32   2.0000      -0.395600       -10.7648
  33   2.0000      -0.382373       -10.4049
  34   2.0000      -0.242546        -6.6000
  35   0.0000       0.005764         0.1568
  36   0.0000       0.059069         1.6074
  37   0.0000       0.073120         1.9897
  38   0.0000       0.087514         2.3814
  39   0.0000       0.097106         2.6424

MULLIKEN ATOMIC CHARGES
-----------------------
   0 C :   -0.480093
   1 C :   -0.226160
   2 C :   -0.384128
   3 H :    0.168326
   4 H :    0.192241
   5 C :    0.401815
   6 C :    0.353960
   7 C :   -0.461417
   8 N :   -0.549562
   9 H :    0.240083
  10 H :    0.276633
  11 H :    0.104540
  12 H :    0.107895
  13 H :    0.160103
  14 H :    0.156790
  15 O :   -0.285093
  16 F :   -0.133298
  17 H :    0.193258
  18 H :    0.164108
Sum of atomic charges:    0.0000000

LOEWDIN ATOMIC CHARGES
----------------------
   0 C :   -0.214193
   1 C :   -0.248509
   2 C :   -0.233750
   3 H :    0.154844
   4 H :    0.147943
   5 C :   -0.487316
   6 C :   -0.380931
   7 C :   -0.277889
   8 N :    0.004999
   9 H :    0.174586
  10 H :    0.147056
  11 H :    0.104061
  12 H :    0.095144
  13 H :    0.146128
  14 H :    0.146812
  15 O :    0.119496
  16 F :    0.302763
  17 H :    0.143774
  18 H :    0.154982

  Mayer bond orders larger than 0.100000
B(  0-C ,  1-C ) :   0.8956 B(  0-C ,  6-C ) :   0.8683 B(  0-C , 17-H ) :   1.0011
B(  0-C , 18-H ) :   0.9917 B(  1-C ,  2-C ) :   0.9171 B(  1-C , 13-H ) :   0.9764
B(  1-C , 14-H ) :   0.9659 B(  2-C ,  3-H ) :   0.9673 B(  2-C ,  4-H ) :   0.9478
B(  2-C ,  5-C ) :   0.9683 B(  5-C , 15-O ) :   2.1146 B(  5-C , 16-F ) :   1.0235
B(  6-C ,  7-C ) :   1.7210 B(  6-C ,  8-N ) :   1.1062 B(  7-C , 11-H ) :   1.0003
B(  7-C , 12-H ) :   0.9971 B(  8-N ,  9-H ) :   0.9298 B(  8-N , 10-H ) :   0.8873

Dispersion correction           -0.000550500
FINAL SINGLE POINT ENERGY      -464.422767362660

DIPOLE MOMENT
-------------
                                X             Y             Z
Electronic contribution:      7.43680      -3.58573       8.03293
Nuclear contribution   :     -7.21688       3.18902      -8.52197
                        -----------------------------------------
Total Dipole Moment    :      0.21992      -0.39671      -0.48905
                        -----------------------------------------
Magnitude (a.u.)       :      0.66701
Magnitude (Debye)      :      1.69541

Rotational constants in cm-1:     0.103917     0.036987     0.030872
Rotational constants in MHz :  3115.342573  1108.839114   925.506342

                             ****ORCA TERMINATED NORMALLY****
TOTAL RUN TIME: 0 days 0 hours 0 minutes 22 seconds 598 msec
