                         Program Version 5.0.0 -  RELEASE  -
|  1> !wB97X-D3 def2-SVPD TightSCF RIJCOSX def2/J CPCM(Water)
|  2> * xyz -1 1
|  3> C         14.25100        9.66100       14.43900
|  4> N         14.35300        8.61200       15.27400
|  5> C         15.41100        7.63300       15.17100
|  6> C         15.17600        6.50400       14.19600
|  7> O         16.09100        5.69500       13.99100
|  8> H         13.65700        8.49900       15.99600
|  9> H         16.33000        8.15600       14.87100
| 10> C         15.63100        7.05500       16.57400
| 11> H         15.81100        7.87400       17.28400
| 12> H         16.50100        6.38300       16.56100
| 13> H         14.73900        6.49300       16.88300
| 14> N         13.96800        6.42800       13.64400
| 15> C         13.54500        5.34700       12.78000
| 16> C         13.31400        5.79800       11.33100
| 17> O         13.72200        6.91400       10.97700
| 18> H         13.30800        7.16700       13.83900
| 19> H         14.34700        4.59500       12.77100
| 20> C         12.28900        4.68500       13.37900
| 21> C         12.55200        4.05800       14.70800
| 22> O         11.88400        4.46400       15.64400
| 23> N         13.52700        3.16200       14.79900
| 24> H         11.50100        5.44200       13.48800
| 25> H         11.92300        3.91500       12.68400
| 26> H         13.76400        2.76200       15.69500
| 27> H         14.03200        2.88000       13.97200
| 28> O         12.72000        4.98200       10.59000
| 29> H         15.05846        9.63814       13.73730
| 30> H         14.29306       10.57015       15.00166
| 31> H         13.32031        9.60946       13.91358
| 32> *
| 33> %MaxCore 64000
| 34> %pal nprocs 8
| 35> end
| 36> %scf
| 37>   Convergence VeryTight
| 38>   MaxIter 150
| 39> end
| 40>
| 41>                          ****END OF INPUT****

CARTESIAN COORDINATES (ANGSTROEM)
---------------------------------
  C     14.251000    9.661000   14.439000
  N     14.353000    8.612000   15.274000
  C     15.411000    7.633000   15.171000
  C     15.176000    6.504000   14.196000
  O     16.091000    5.695000   13.991000
  H     13.657000    8.499000   15.996000
  H     16.330000    8.156000   14.871000
  C     15.631000    7.055000   16.574000
  H     15.811000    7.874000   17.284000
  H     16.501000    6.383000   16.561000
  H     14.739000    6.493000   16.883000
  N     13.968000    6.428000   13.644000
  C     13.545000    5.347000   12.780000
  C     13.314000    5.798000   11.331000
  O     13.722000    6.914000   10.977000
  H     13.308000    7.167000   13.839000
  H     14.347000    4.595000   12.771000
  C     12.289000    4.685000   13.379000
  C     12.552000    4.058000   14.708000
  O     11.884000    4.464000   15.644000
  N     13.527000    3.162000   14.799000
  H     11.501000    5.442000   13.488000
  H     11.923000    3.915000   12.684000
  H     13.764000    2.762000   15.695000
  H     14.032000    2.880000   13.972000
  O     12.720000    4.982000   10.590000
  H     15.058460    9.638140   13.737300
  H     14.293060   10.570150   15.001660
  H     13.320310    9.609460   13.913580

 Total Charge           Charge          ....   -1
 Multiplicity           Mult            ....    1
 Number of Electrons    NEL             ....  116
 Basis Dimension        Dim             ....  424

ORBITAL ENERGIES
----------------

  NO   OCC          E(Eh)            E(eV)
   0   2.0000     -19.215696      -522.8857
   1   2.0000     -19.211367      -522.7679
   2   2.0000     -19.185861      -522.0738
   3   2.0000     -19.181783      -521.9629
   4   2.0000     -14.459762      -393.4701
   5   2.0000     -14.459091      -393.4519
   6   2.0000     -14.404935      -391.9782
   7   2.0000     -10.397122      -282.9201
   8   2.0000     -10.387227      -282.6508
   9   2.0000     -10.374035      -282.2918
  10   2.0000     -10.329675      -281.0847
  11   2.0000     -10.324151      -280.9344
  12   2.0000     -10.292466      -280.0722
  13   2.0000     -10.286088      -279.8987
  14   2.0000     -10.282348      -279.7969
  15   2.0000      -1.154587       -31.4179
  16   2.0000      -1.145485       -31.1702
  17   2.0000      -1.135985       -30.9117
  18   2.0000      -1.044594       -28.4249
  19   2.0000      -1.038148       -28.2494
  20   2.0000      -1.025901       -27.9162
  21   2.0000      -1.019970       -27.7548
  22   2.0000      -0.894295       -24.3350
  23   2.0000      -0.872246       -23.7350
  24   2.0000      -0.790573       -21.5126
  25   2.0000      -0.759803       -20.6753
  26   2.0000      -0.737084       -20.0571
  27   2.0000      -0.698814       -19.0157
  28   2.0000      -0.690892       -18.8001
  29   2.0000      -0.656635       -17.8679
  30   2.0000      -0.639440       -17.4001
  31   2.0000      -0.617247       -16.7962
  32   2.0000      -0.590613       -16.0714
  33   2.0000      -0.578217       -15.7341
  34   2.0000      -0.573584       -15.6080
  35   2.0000      -0.562980       -15.3195
  36   2.0000      -0.551601       -15.0098
  37   2.0000      -0.538023       -14.6403
  38   2.0000      -0.529791       -14.4163
  39   2.0000      -0.522198       -14.2097
  40   2.0000      -0.517993       -14.0953
  41   2.0000      -0.504066       -13.7163
  42   2.0000      -0.501000       -13.6329
  43   2.0000      -0.494734       -13.4624
  44   2.0000      -0.481223       -13.0947
  45   2.0000      -0.476297       -12.9607
  46   2.0000      -0.456753       -12.4289
  47   2.0000      -0.452352       -12.3091
  48   2.0000      -0.447453       -12.1758
  49   2.0000      -0.438315       -11.9271
  50   2.0000      -0.378366       -10.2959
  51   2.0000      -0.371630       -10.1126
  52   2.0000      -0.367779       -10.0078
  53   2.0000      -0.363895        -9.9021
  54   2.0000      -0.349494        -9.5102
  55   2.0000      -0.332951        -9.0601
  56   2.0000      -0.324466        -8.8292
  57   2.0000      -0.290364        -7.9012
  58   0.0000       0.082947         2.2571
  59   0.0000       0.090424         2.4606
  60   0.0000       0.094274         2.5653
  61   0.0000       0.103983         2.8295
  62   0.0000       0.105590         2.8732

MULLIKEN ATOMIC CHARGES
-----------------------
   0 C :    1.168870
   1 N :   -0.888294
   2 C :   -0.439584
   3 C :    0.666220
   4 O :   -0.674173
   5 H :   -0.120246
   6 H :   -0.002948
   7 C :    0.637024
   8 H :    0.104673
   9 H :    0.073289
  10 H :   -0.045327
  11 N :   -0.432525
  12 C :    0.024322
  13 C :    0.687271
  14 O :   -0.753362
  15 H :   -0.227374
  16 H :   -0.005398
  17 C :    0.315098
  18 C :    0.343439
  19 O :   -0.583018
  20 N :    0.188711
  21 H :    0.137496
  22 H :    0.000865
  23 H :   -0.087440
  24 H :    0.067313
  25 O :   -0.782843
  26 H :   -0.032141
  27 H :   -0.233734
  28 H :   -0.106183
Sum of atomic charges:   -1.0000000

LOEWDIN ATOMIC CHARGES
----------------------
   0 C :    0.140324
   1 N :   -0.134602
   2 C :   -0.101899
   3 C :   -0.096949
   4 O :   -0.263913
   5 H :    0.037832
   6 H :    0.065222
   7 C :    0.156032
   8 H :    0.003404
   9 H :   -0.004492
  10 H :    0.002853
  11 N :    0.076657
  12 C :   -0.031635
  13 C :   -0.278413
  14 O :   -0.324400
  15 H :    0.041370
  16 H :    0.044207
  17 C :    0.075125
  18 C :   -0.193250
  19 O :   -0.264788
  20 N :    0.265249
  21 H :    0.045450
  22 H :    0.035657
  23 H :    0.038583
  24 H :    0.029712
  25 O :   -0.336579
  26 H :    0.003710
  27 H :   -0.014490
  28 H :   -0.015976

  Mayer bond orders larger than 0.100000
B(  0-C ,  1-N ) :   0.9983 B(  0-C ,  5-H ) :  -0.1979 B(  0-C , 26-H ) :   0.7447
B(  0-C , 27-H ) :   0.8579 B(  0-C , 28-H ) :   0.7723 B(  1-N ,  2-C ) :   1.0120
B(  1-N ,  5-H ) :   1.3052 B(  1-N ,  6-H ) :   0.1381 B(  1-N , 26-H ) :   0.1824
B(  1-N , 27-H ) :   0.1597 B(  1-N , 28-H ) :   0.2512 B(  2-C ,  3-C ) :   1.0105
B(  2-C ,  5-H ) :  -0.1033 B(  2-C ,  6-H ) :   0.7628 B(  2-C ,  7-C ) :   1.3036
B(  2-C ,  8-H ) :   0.1593 B(  2-C ,  9-H ) :   0.2505 B(  2-C , 10-H ) :   0.2097
B(  2-C , 11-N ) :   0.1266 B(  3-C ,  4-O ) :   1.4882 B(  3-C ,  6-H ) :   0.2693
B(  3-C , 11-N ) :   1.1283 B(  3-C , 15-H ) :  -0.2945 B(  4-O , 11-N ) :   0.1599
B(  7-C ,  8-H ) :   0.8093 B(  7-C ,  9-H ) :   0.7330 B(  7-C , 10-H ) :   0.8251
B( 11-N , 12-C ) :   0.8683 B( 11-N , 15-H ) :   1.3839 B( 11-N , 16-H ) :   0.2669
B( 12-C , 13-C ) :   0.7754 B( 12-C , 15-H ) :  -0.2506 B( 12-C , 16-H ) :   0.7724
B( 12-C , 17-C ) :   1.2279 B( 12-C , 21-H ) :   0.1653 B( 12-C , 22-H ) :   0.2439
B( 12-C , 25-O ) :   0.1254 B( 13-C , 14-O ) :   1.5295 B( 13-C , 25-O ) :   1.3914
B( 14-O , 25-O ) :   0.2202 B( 17-C , 18-C ) :   1.0314 B( 17-C , 21-H ) :   0.7854
B( 17-C , 22-H ) :   0.8220 B( 18-C , 19-O ) :   1.6917 B( 18-C , 20-N ) :   1.3434
B( 18-C , 21-H ) :   0.1222 B( 20-N , 23-H ) :   1.1881 B( 20-N , 24-H ) :   1.0118
B( 23-H , 24-H ) :  -0.1534

Dispersion correction           -0.013727966
FINAL SINGLE POINT ENERGY      -777.933174892911

DIPOLE MOMENT
-------------
                                X             Y             Z
Electronic contribution:     -2.95606      -8.19327      -6.93113
Nuclear contribution   :      3.79501       8.44092      12.11143
                        -----------------------------------------
Total Dipole Moment    :      0.83895       0.24765       5.18031
                        -----------------------------------------
Magnitude (a.u.)       :      5.25364
Magnitude (Debye)      :     13.35369

Rotational constants in cm-1:     0.022100     0.015649     0.011586
Rotational constants in MHz :   662.530019   469.159655   347.354256

                             ****ORCA TERMINATED NORMALLY****
TOTAL RUN TIME: 0 days 0 hours 2 minutes 54 seconds 111 msec
