                         Program Version 5.0.0 -  RELEASE  -
|  1> !wB97X-D3 def2-SVPD TightSCF RIJCOSX def2/J CPCM(Water)
|  2> * xyz 1 1
|  3> C          9.85700        4.01400        9.19900
|  4> H          9.00336        4.52344        8.80319
|  5> H         10.39701        4.67281        9.84651
|  6> H          9.53578        3.15550        9.75099
|  7> C         10.76700        3.57000        8.04700
|  8> C         11.27200        4.69300        7.13900
|  9> N         12.13700        5.62000        7.82400
| 10> C         12.68300        6.71900        7.29500
| 11> N         12.43600        7.05300        6.05300
| 12> N         13.44300        7.50300        8.09000
| 13> H         11.63600        3.05000        8.47200
| 14> H         10.21700        2.84600        7.43000
| 15> H         11.81800        4.25100        6.29300
| 16> H         10.41000        5.24000        6.73200
| 17> H         12.35000        5.42200        8.79000
| 18> H         11.83000        6.47800        5.48700
| 19> H         12.85300        7.88400        5.66100
| 20> H         13.83100        8.36200        7.72900
| 21> H         13.62200        7.23000        9.04400
| 22> *
| 23> %MaxCore 64000
| 24> %pal nprocs 8
| 25> end
| 26> %scf
| 27>   Convergence VeryTight
| 28>   MaxIter 150
| 29> end
| 30>
| 31>                          ****END OF INPUT****

CARTESIAN COORDINATES (ANGSTROEM)
---------------------------------
  C      9.857000    4.014000    9.199000
  H      9.003360    4.523440    8.803190
  H     10.397010    4.672810    9.846510
  H      9.535780    3.155500    9.750990
  C     10.767000    3.570000    8.047000
  C     11.272000    4.693000    7.139000
  N     12.137000    5.620000    7.824000
  C     12.683000    6.719000    7.295000
  N     12.436000    7.053000    6.053000
  N     13.443000    7.503000    8.090000
  H     11.636000    3.050000    8.472000
  H     10.217000    2.846000    7.430000
  H     11.818000    4.251000    6.293000
  H     10.410000    5.240000    6.732000
  H     12.350000    5.422000    8.790000
  H     11.830000    6.478000    5.487000
  H     12.853000    7.884000    5.661000
  H     13.831000    8.362000    7.729000
  H     13.622000    7.230000    9.044000

 Total Charge           Charge          ....    1
 Multiplicity           Mult            ....    1
 Number of Electrons    NEL             ....   56
 Basis Dimension        Dim             ....  236

ORBITAL ENERGIES
----------------

  NO   OCC          E(Eh)            E(eV)
   0   2.0000     -14.488637      -394.2558
   1   2.0000     -14.487783      -394.2326
   2   2.0000     -14.480821      -394.0432
   3   2.0000     -10.456420      -284.5336
   4   2.0000     -10.337977      -281.3107
   5   2.0000     -10.297976      -280.2222
   6   2.0000     -10.274408      -279.5808
   7   2.0000      -1.153850       -31.3978
   8   2.0000      -1.043654       -28.3993
   9   2.0000      -1.025458       -27.9041
  10   2.0000      -0.902755       -24.5652
  11   2.0000      -0.819663       -22.3042
  12   2.0000      -0.762378       -20.7454
  13   2.0000      -0.726531       -19.7699
  14   2.0000      -0.712582       -19.3903
  15   2.0000      -0.670527       -18.2460
  16   2.0000      -0.618277       -16.8242
  17   2.0000      -0.612370       -16.6634
  18   2.0000      -0.598757       -16.2930
  19   2.0000      -0.576505       -15.6875
  20   2.0000      -0.544277       -14.8105
  21   2.0000      -0.537476       -14.6255
  22   2.0000      -0.508852       -13.8466
  23   2.0000      -0.451715       -12.2918
  24   2.0000      -0.447755       -12.1840
  25   2.0000      -0.437588       -11.9074
  26   2.0000      -0.399338       -10.8665
  27   2.0000      -0.369948       -10.0668
  28   0.0000       0.085217         2.3189
  29   0.0000       0.088658         2.4125
  30   0.0000       0.109946         2.9918
  31   0.0000       0.113332         3.0839
  32   0.0000       0.130709         3.5568

MULLIKEN ATOMIC CHARGES
-----------------------
   0 C :    0.624393
   1 H :   -0.015599
   2 H :   -0.045229
   3 H :   -0.018486
   4 C :   -0.381878
   5 C :    0.411042
   6 N :   -0.517105
   7 C :    1.349437
   8 N :   -0.060989
   9 N :   -0.166286
  10 H :    0.011939
  11 H :   -0.029620
  12 H :   -0.041550
  13 H :    0.049627
  14 H :   -0.153852
  15 H :    0.011726
  16 H :   -0.038754
  17 H :   -0.006133
  18 H :    0.017316
Sum of atomic charges:    1.0000000

LOEWDIN ATOMIC CHARGES
----------------------
   0 C :    0.125395
   1 H :   -0.012406
   2 H :   -0.021807
   3 H :   -0.011949
   4 C :   -0.056155
   5 C :    0.044259
   6 N :    0.037110
   7 C :   -0.021126
   8 N :    0.285540
   9 N :    0.260638
  10 H :    0.031351
  11 H :    0.034201
  12 H :    0.042456
  13 H :    0.042669
  14 H :    0.057133
  15 H :    0.028451
  16 H :    0.055275
  17 H :    0.040664
  18 H :    0.038303

  Mayer bond orders larger than 0.100000
B(  0-C ,  1-H ) :   0.8314 B(  0-C ,  2-H ) :   0.8309 B(  0-C ,  3-H ) :   0.7963
B(  0-C ,  4-C ) :   1.2875 B(  1-H ,  4-C ) :   0.1779 B(  2-H ,  4-C ) :   0.2092
B(  3-H ,  4-C ) :   0.2069 B(  4-C ,  5-C ) :   1.2009 B(  4-C , 10-H ) :   0.9052
B(  4-C , 11-H ) :   0.8815 B(  5-C ,  6-N ) :   0.8802 B(  5-C , 10-H ) :   0.1268
B(  5-C , 11-H ) :   0.1963 B(  5-C , 12-H ) :   0.9269 B(  5-C , 13-H ) :   0.8581
B(  5-C , 14-H ) :  -0.1284 B(  6-N ,  7-C ) :   0.9889 B(  6-N ,  8-N ) :   0.2830
B(  6-N ,  9-N ) :   0.2657 B(  6-N , 12-H ) :   0.1523 B(  6-N , 13-H ) :   0.1600
B(  6-N , 14-H ) :   1.2423 B(  7-C ,  8-N ) :   0.9872 B(  7-C ,  9-N ) :   0.8137
B(  7-C , 14-H ) :  -0.2514 B(  7-C , 15-H ) :  -0.1777 B(  7-C , 16-H ) :  -0.1132
B(  7-C , 17-H ) :  -0.1098 B(  7-C , 18-H ) :  -0.1273 B(  8-N ,  9-N ) :   0.1543
B(  8-N , 15-H ) :   1.1228 B(  8-N , 16-H ) :   1.2475 B(  9-N , 17-H ) :   1.2141
B(  9-N , 18-H ) :   1.1621 B( 15-H , 16-H ) :  -0.1898 B( 17-H , 18-H ) :  -0.1701

Dispersion correction           -0.004802488
FINAL SINGLE POINT ENERGY      -323.515182831366

DIPOLE MOMENT
-------------
                                X             Y             Z
Electronic contribution:      5.33969       5.86822      -2.58988
Nuclear contribution   :     -3.94304      -4.06619       1.93379
                        -----------------------------------------
Total Dipole Moment    :      1.39665       1.80204      -0.65609
                        -----------------------------------------
Magnitude (a.u.)       :      2.37243
Magnitude (Debye)      :      6.03023

Rotational constants in cm-1:     0.188923     0.042349     0.037204
Rotational constants in MHz :  5663.757203  1269.604498  1115.344448

                             ****ORCA TERMINATED NORMALLY****
TOTAL RUN TIME: 0 days 0 hours 0 minutes 36 seconds 227 msec
