                         Program Version 5.0.0 -  RELEASE  -
|  1> !wB97X-D3 def2-SVPD TightSCF RIJCOSX def2/J CPCM(Water)
|  2> * xyz 0 1
|  3> C         14.25100        9.66100       14.43900
|  4> N         14.35300        8.61200       15.27400
|  5> C         15.41100        7.63300       15.17100
|  6> C         15.17600        6.50400       14.19600
|  7> O         16.09100        5.69500       13.99100
|  8> H         13.65700        8.49900       15.99600
|  9> H         16.33000        8.15600       14.87100
| 10> C         15.63100        7.05500       16.57400
| 11> H         15.81100        7.87400       17.28400
| 12> H         16.50100        6.38300       16.56100
| 13> H         14.73900        6.49300       16.88300
| 14> N         13.96800        6.42800       13.64400
| 15> C         13.54500        5.34700       12.78000
| 16> C         13.31400        5.79800       11.33100
| 17> F         13.72200        6.91400       10.97700
| 18> H         13.30800        7.16700       13.83900
| 19> H         14.34700        4.59500       12.77100
| 20> C         12.28900        4.68500       13.37900
| 21> C         12.55200        4.05800       14.70800
| 22> O         11.88400        4.46400       15.64400
| 23> N         13.52700        3.16200       14.79900
| 24> H         11.50100        5.44200       13.48800
| 25> H         11.92300        3.91500       12.68400
| 26> H         13.76400        2.76200       15.69500
| 27> H         14.03200        2.88000       13.97200
| 28> O         12.72000        4.98200       10.59000
| 29> H         15.05846        9.63814       13.73730
| 30> H         14.29306       10.57015       15.00166
| 31> H         13.32031        9.60946       13.91358
| 32> *
| 33> %MaxCore 64000
| 34> %pal nprocs 8
| 35> end
| 36> %scf
| 37>   Convergence VeryTight
| 38>   MaxIter 150
| 39> end
| 40>
| 41>                          ****END OF INPUT****

CARTESIAN COORDINATES (ANGSTROEM)
---------------------------------
  C     14.251000    9.661000   14.439000
  N     14.353000    8.612000   15.274000
  C     15.411000    7.633000   15.171000
  C     15.176000    6.504000   14.196000
  O     16.091000    5.695000   13.991000
  H     13.657000    8.499000   15.996000
  H     16.330000    8.156000   14.871000
  C     15.631000    7.055000   16.574000
  H     15.811000    7.874000   17.284000
  H     16.501000    6.383000   16.561000
  H     14.739000    6.493000   16.883000
  N     13.968000    6.428000   13.644000
  C     13.545000    5.347000   12.780000
  C     13.314000    5.798000   11.331000
  F     13.722000    6.914000   10.977000
  H     13.308000    7.167000   13.839000
  H     14.347000    4.595000   12.771000
  C     12.289000    4.685000   13.379000
  C     12.552000    4.058000   14.708000
  O     11.884000    4.464000   15.644000
  N     13.527000    3.162000   14.799000
  H     11.501000    5.442000   13.488000
  H     11.923000    3.915000   12.684000
  H     13.764000    2.762000   15.695000
  H     14.032000    2.880000   13.972000
  O     12.720000    4.982000   10.590000
  H     15.058460    9.638140   13.737300
  H     14.293060   10.570150   15.001660
  H     13.320310    9.609460   13.913580

 Total Charge           Charge          ....    0
 Multiplicity           Mult            ....    1
 Number of Electrons    NEL             ....  116
 Basis Dimension        Dim             ....  424

ORBITAL ENERGIES
----------------

  NO   OCC          E(Eh)            E(eV)
   0   2.0000     -24.890190      -677.2965
   1   2.0000     -19.271652      -524.4083
   2   2.0000     -19.222697      -523.0762
   3   2.0000     -19.222517      -523.0713
   4   2.0000     -14.477721      -393.9588
   5   2.0000     -14.465556      -393.6278
   6   2.0000     -14.408704      -392.0808
   7   2.0000     -10.492119      -285.5051
   8   2.0000     -10.406933      -283.1871
   9   2.0000     -10.399813      -282.9933
  10   2.0000     -10.373589      -282.2797
  11   2.0000     -10.329698      -281.0854
  12   2.0000     -10.311351      -280.5861
  13   2.0000     -10.288379      -279.9610
  14   2.0000     -10.285371      -279.8792
  15   2.0000      -1.445509       -39.3343
  16   2.0000      -1.164134       -31.6777
  17   2.0000      -1.161013       -31.5928
  18   2.0000      -1.155019       -31.4297
  19   2.0000      -1.060796       -28.8657
  20   2.0000      -1.033325       -28.1182
  21   2.0000      -1.028404       -27.9843
  22   2.0000      -0.917845       -24.9758
  23   2.0000      -0.880096       -23.9486
  24   2.0000      -0.829930       -22.5835
  25   2.0000      -0.778878       -21.1943
  26   2.0000      -0.762932       -20.7604
  27   2.0000      -0.747054       -20.3284
  28   2.0000      -0.716785       -19.5047
  29   2.0000      -0.702151       -19.1065
  30   2.0000      -0.688072       -18.7234
  31   2.0000      -0.668030       -18.1780
  32   2.0000      -0.654608       -17.8128
  33   2.0000      -0.644168       -17.5287
  34   2.0000      -0.625171       -17.0118
  35   2.0000      -0.598352       -16.2820
  36   2.0000      -0.585572       -15.9342
  37   2.0000      -0.578025       -15.7289
  38   2.0000      -0.570600       -15.5268
  39   2.0000      -0.557093       -15.1593
  40   2.0000      -0.538617       -14.6565
  41   2.0000      -0.534523       -14.5451
  42   2.0000      -0.530222       -14.4281
  43   2.0000      -0.519548       -14.1376
  44   2.0000      -0.506029       -13.7697
  45   2.0000      -0.492247       -13.3947
  46   2.0000      -0.487892       -13.2762
  47   2.0000      -0.483617       -13.1599
  48   2.0000      -0.465781       -12.6745
  49   2.0000      -0.461907       -12.5691
  50   2.0000      -0.456439       -12.4203
  51   2.0000      -0.445185       -12.1141
  52   2.0000      -0.421275       -11.4635
  53   2.0000      -0.384240       -10.4557
  54   2.0000      -0.376710       -10.2508
  55   2.0000      -0.370845       -10.0912
  56   2.0000      -0.364883        -9.9290
  57   2.0000      -0.294821        -8.0225
  58   0.0000       0.036867         1.0032
  59   0.0000       0.079318         2.1584
  60   0.0000       0.084768         2.3066
  61   0.0000       0.091105         2.4791
  62   0.0000       0.101781         2.7696

MULLIKEN ATOMIC CHARGES
-----------------------
   0 C :    1.156105
   1 N :   -0.881269
   2 C :   -0.448890
   3 C :    0.648717
   4 O :   -0.661822
   5 H :   -0.119544
   6 H :    0.006787
   7 C :    0.633185
   8 H :    0.108508
   9 H :    0.077187
  10 H :   -0.039159
  11 N :   -0.353064
  12 C :   -0.119664
  13 C :    1.096606
  14 F :   -0.446489
  15 H :   -0.249924
  16 H :    0.068520
  17 C :    0.293624
  18 C :    0.349313
  19 O :   -0.574262
  20 N :    0.181421
  21 H :    0.173410
  22 H :    0.031919
  23 H :   -0.082382
  24 H :    0.074043
  25 O :   -0.561557
  26 H :   -0.029280
  27 H :   -0.231017
  28 H :   -0.101022
Sum of atomic charges:   -0.0000000

LOEWDIN ATOMIC CHARGES
----------------------
   0 C :    0.141709
   1 N :   -0.133915
   2 C :   -0.098892
   3 C :   -0.086377
   4 O :   -0.246916
   5 H :    0.039203
   6 H :    0.067850
   7 C :    0.158931
   8 H :    0.005145
   9 H :   -0.002954
  10 H :    0.004131
  11 N :    0.075290
  12 C :    0.004512
  13 C :    0.049812
  14 F :   -0.003443
  15 H :    0.048236
  16 H :    0.059860
  17 C :    0.089717
  18 C :   -0.184631
  19 O :   -0.253022
  20 N :    0.270429
  21 H :    0.052938
  22 H :    0.047240
  23 H :    0.042365
  24 H :    0.033207
  25 O :   -0.156537
  26 H :    0.004550
  27 H :   -0.013463
  28 H :   -0.014974

  Mayer bond orders larger than 0.100000
B(  0-C ,  1-N ) :   1.0059 B(  0-C ,  5-H ) :  -0.1987 B(  0-C , 26-H ) :   0.7480
B(  0-C , 27-H ) :   0.8568 B(  0-C , 28-H ) :   0.7781 B(  1-N ,  2-C ) :   1.0141
B(  1-N ,  5-H ) :   1.3071 B(  1-N ,  6-H ) :   0.1371 B(  1-N , 26-H ) :   0.1821
B(  1-N , 27-H ) :   0.1605 B(  1-N , 28-H ) :   0.2488 B(  2-C ,  3-C ) :   1.0111
B(  2-C ,  5-H ) :  -0.1030 B(  2-C ,  6-H ) :   0.7686 B(  2-C ,  7-C ) :   1.3047
B(  2-C ,  8-H ) :   0.1575 B(  2-C ,  9-H ) :   0.2475 B(  2-C , 10-H ) :   0.2088
B(  2-C , 11-N ) :   0.1219 B(  3-C ,  4-O ) :   1.5205 B(  3-C ,  6-H ) :   0.2631
B(  3-C , 11-N ) :   1.1487 B(  3-C , 15-H ) :  -0.3072 B(  4-O , 11-N ) :   0.1526
B(  7-C ,  8-H ) :   0.8094 B(  7-C ,  9-H ) :   0.7342 B(  7-C , 10-H ) :   0.8269
B( 11-N , 12-C ) :   0.8967 B( 11-N , 15-H ) :   1.4050 B( 11-N , 16-H ) :   0.2623
B( 12-C , 13-C ) :   0.8820 B( 12-C , 14-F ) :   0.1232 B( 12-C , 15-H ) :  -0.2547
B( 12-C , 16-H ) :   0.7799 B( 12-C , 17-C ) :   1.2486 B( 12-C , 21-H ) :   0.1694
B( 12-C , 22-H ) :   0.2163 B( 13-C , 14-F ) :   0.6694 B( 13-C , 25-O ) :   1.7605
B( 14-F , 25-O ) :   0.1166 B( 16-H , 17-C ) :   0.1125 B( 17-C , 18-C ) :   1.0360
B( 17-C , 21-H ) :   0.7853 B( 17-C , 22-H ) :   0.8258 B( 18-C , 19-O ) :   1.6949
B( 18-C , 20-N ) :   1.3454 B( 18-C , 21-H ) :   0.1238 B( 20-N , 23-H ) :   1.1844
B( 20-N , 24-H ) :   1.0108 B( 23-H , 24-H ) :  -0.1544

Dispersion correction           -0.013530716
FINAL SINGLE POINT ENERGY      -802.354422453055

DIPOLE MOMENT
-------------
                                X             Y             Z
Electronic contribution:     -3.87593      -6.88953     -15.00246
Nuclear contribution   :      3.98630       7.50254      15.28496
                        -----------------------------------------
Total Dipole Moment    :      0.11037       0.61301       0.28250
                        -----------------------------------------
Magnitude (a.u.)       :      0.68394
Magnitude (Debye)      :      1.73843

Rotational constants in cm-1:     0.021465     0.015593     0.011380
Rotational constants in MHz :   643.515065   467.471374   341.161460

                             ****ORCA TERMINATED NORMALLY****
TOTAL RUN TIME: 0 days 0 hours 2 minutes 37 seconds 123 msec
