                         Program Version 5.0.0 -  RELEASE  -
|  1> !wB97X-D3 def2-SVPD TightSCF RIJCOSX def2/J CPCM(Water)
|  2> * xyz 0 1
|  3> C          9.85700        4.01400        9.19900
|  4> H          9.00336        4.52344        8.80319
|  5> H         10.39701        4.67281        9.84651
|  6> H          9.53578        3.15550        9.75099
|  7> C         10.76700        3.57000        8.04700
|  8> C         11.27200        4.69300        7.13900
|  9> C         12.13700        5.62000        7.82400
| 10> C         12.68300        6.71900        7.29500
| 11> N         12.43600        7.05300        6.05300
| 12> N         13.44300        7.50300        8.09000
| 13> H         11.63600        3.05000        8.47200
| 14> H         10.21700        2.84600        7.43000
| 15> H         11.81800        4.25100        6.29300
| 16> H         10.41000        5.24000        6.73200
| 17> H         12.35000        5.42200        8.79000
| 18> H         11.83000        6.47800        5.48700
| 19> H         12.85300        7.88400        5.66100
| 20> H         13.83100        8.36200        7.72900
| 21> H         13.62200        7.23000        9.04400
| 22> *
| 23> %MaxCore 64000
| 24> %pal nprocs 8
| 25> end
| 26> %scf
| 27>   Convergence VeryTight
| 28>   MaxIter 150
| 29> end
| 30>
| 31>                          ****END OF INPUT****

CARTESIAN COORDINATES (ANGSTROEM)
---------------------------------
  C      9.857000    4.014000    9.199000
  H      9.003360    4.523440    8.803190
  H     10.397010    4.672810    9.846510
  H      9.535780    3.155500    9.750990
  C     10.767000    3.570000    8.047000
  C     11.272000    4.693000    7.139000
  C     12.137000    5.620000    7.824000
  C     12.683000    6.719000    7.295000
  N     12.436000    7.053000    6.053000
  N     13.443000    7.503000    8.090000
  H     11.636000    3.050000    8.472000
  H     10.217000    2.846000    7.430000
  H     11.818000    4.251000    6.293000
  H     10.410000    5.240000    6.732000
  H     12.350000    5.422000    8.790000
  H     11.830000    6.478000    5.487000
  H     12.853000    7.884000    5.661000
  H     13.831000    8.362000    7.729000
  H     13.622000    7.230000    9.044000

 Total Charge           Charge          ....    0
 Multiplicity           Mult            ....    1
 Number of Electrons    NEL             ....   56
 Basis Dimension        Dim             ....  236

ORBITAL ENERGIES
----------------

  NO   OCC          E(Eh)            E(eV)
   0   2.0000     -14.434819      -392.7914
   1   2.0000     -14.427408      -392.5897
   2   2.0000     -10.336744      -281.2771
   3   2.0000     -10.275771      -279.6180
   4   2.0000     -10.267198      -279.3847
   5   2.0000     -10.263247      -279.2772
   6   2.0000     -10.208916      -277.7987
   7   2.0000      -1.068903       -29.0863
   8   2.0000      -0.972923       -26.4746
   9   2.0000      -0.900825       -24.5127
  10   2.0000      -0.832742       -22.6601
  11   2.0000      -0.766203       -20.8494
  12   2.0000      -0.700653       -19.0657
  13   2.0000      -0.669495       -18.2179
  14   2.0000      -0.643957       -17.5230
  15   2.0000      -0.610433       -16.6107
  16   2.0000      -0.567690       -15.4476
  17   2.0000      -0.545980       -14.8569
  18   2.0000      -0.542853       -14.7718
  19   2.0000      -0.509637       -13.8679
  20   2.0000      -0.487320       -13.2607
  21   2.0000      -0.482616       -13.1326
  22   2.0000      -0.462002       -12.5717
  23   2.0000      -0.420935       -11.4542
  24   2.0000      -0.415463       -11.3053
  25   2.0000      -0.408715       -11.1217
  26   2.0000      -0.356956        -9.7133
  27   2.0000      -0.244291        -6.6475
  28   0.0000       0.096619         2.6291
  29   0.0000       0.114421         3.1135
  30   0.0000       0.120467         3.2781
  31   0.0000       0.131740         3.5848
  32   0.0000       0.146899         3.9973

MULLIKEN ATOMIC CHARGES
-----------------------
   0 C :    0.649690
   1 H :   -0.040561
   2 H :   -0.084051
   3 H :   -0.024845
   4 C :   -0.105532
   5 C :   -0.069770
   6 C :   -0.156679
   7 C :    0.906590
   8 N :   -0.089197
   9 N :   -0.090547
  10 H :    0.020211
  11 H :   -0.078997
  12 H :   -0.062386
  13 H :    0.071874
  14 H :   -0.607467
  15 H :    0.009282
  16 H :   -0.162576
  17 H :   -0.077265
  18 H :   -0.007773
Sum of atomic charges:   -0.0000000

LOEWDIN ATOMIC CHARGES
----------------------
   0 C :    0.115904
   1 H :   -0.017505
   2 H :   -0.029492
   3 H :   -0.019139
   4 C :   -0.085670
   5 C :   -0.104147
   6 C :   -0.063407
   7 C :   -0.231135
   8 N :    0.206132
   9 N :    0.179312
  10 H :    0.022000
  11 H :    0.017795
  12 H :    0.020256
  13 H :    0.021216
  14 H :   -0.062420
  15 H :    0.002234
  16 H :    0.017719
  17 H :    0.001994
  18 H :    0.008354

  Mayer bond orders larger than 0.100000
B(  0-C ,  1-H ) :   0.8304 B(  0-C ,  2-H ) :   0.8425 B(  0-C ,  3-H ) :   0.7835
B(  0-C ,  4-C ) :   1.2865 B(  1-H ,  4-C ) :   0.1792 B(  2-H ,  4-C ) :   0.2031
B(  3-H ,  4-C ) :   0.2075 B(  4-C ,  5-C ) :   1.1562 B(  4-C ,  6-C ) :   0.1811
B(  4-C , 10-H ) :   0.8239 B(  4-C , 11-H ) :   0.8003 B(  4-C , 14-H ) :  -0.1674
B(  5-C ,  6-C ) :   1.1140 B(  5-C ,  7-C ) :  -0.1199 B(  5-C , 10-H ) :   0.1651
B(  5-C , 11-H ) :   0.2297 B(  5-C , 12-H ) :   0.8494 B(  5-C , 13-H ) :   0.7762
B(  5-C , 14-H ) :   0.4443 B(  6-C ,  7-C ) :   1.4721 B(  6-C ,  8-N ) :   0.2917
B(  6-C ,  9-N ) :   0.4037 B(  6-C , 12-H ) :   0.2124 B(  6-C , 13-H ) :   0.2353
B(  6-C , 14-H ) :   0.7511 B(  6-C , 15-H ) :  -0.1453 B(  7-C ,  8-N ) :   0.9753
B(  7-C ,  9-N ) :   0.7081 B(  7-C , 14-H ) :  -0.1335 B(  7-C , 16-H ) :  -0.1715
B(  7-C , 18-H ) :  -0.1002 B(  8-N ,  9-N ) :   0.1090 B(  8-N , 15-H ) :   1.1128
B(  8-N , 16-H ) :   1.3527 B(  9-N , 14-H ) :   0.1072 B(  9-N , 17-H ) :   1.1611
B(  9-N , 18-H ) :   1.1834 B( 15-H , 16-H ) :  -0.1847 B( 17-H , 18-H ) :  -0.1615

Dispersion correction           -0.004777964
FINAL SINGLE POINT ENERGY      -306.958576099346

DIPOLE MOMENT
-------------
                                X             Y             Z
Electronic contribution:      4.38235       5.18189      -2.52234
Nuclear contribution   :     -3.87143      -4.06671       1.96878
                        -----------------------------------------
Total Dipole Moment    :      0.51091       1.11518      -0.55357
                        -----------------------------------------
Magnitude (a.u.)       :      1.34577
Magnitude (Debye)      :      3.42068

Rotational constants in cm-1:     0.189408     0.042368     0.037215
Rotational constants in MHz :  5678.314512  1270.150189  1115.687208

                             ****ORCA TERMINATED NORMALLY****
TOTAL RUN TIME: 0 days 0 hours 0 minutes 41 seconds 306 msec
