                         Program Version 5.0.0 -  RELEASE  -
|  1> !wB97X-D3 def2-SVPD TightSCF RIJCOSX def2/J CPCM(Water)
|  2> * xyz 0 1
|  3> C         14.25100        9.66100       14.43900
|  4> N         14.35300        8.61200       15.27400
|  5> C         15.41100        7.63300       15.17100
|  6> C         15.17600        6.50400       14.19600
|  7> O         16.09100        5.69500       13.99100
|  8> H         13.65700        8.49900       15.99600
|  9> H         16.33000        8.15600       14.87100
| 10> C         15.63100        7.05500       16.57400
| 11> H         15.81100        7.87400       17.28400
| 12> H         16.50100        6.38300       16.56100
| 13> H         14.73900        6.49300       16.88300
| 14> N         13.96800        6.42800       13.64400
| 15> C         13.54500        5.34700       12.78000
| 16> C         13.31400        5.79800       11.33100
| 17> O         13.72200        6.91400       10.97700
| 18> H         13.30800        7.16700       13.83900
| 19> H         14.34700        4.59500       12.77100
| 20> C         12.28900        4.68500       13.37900
| 21> C         12.55200        4.05800       14.70800
| 22> O         11.88400        4.46400       15.64400
| 23> N         13.52700        3.16200       14.79900
| 24> H         11.50100        5.44200       13.48800
| 25> H         11.92300        3.91500       12.68400
| 26> H         13.76400        2.76200       15.69500
| 27> H         14.03200        2.88000       13.97200
| 28> F         12.72000        4.98200       10.59000
| 29> H         15.05846        9.63814       13.73730
| 30> H         14.29306       10.57015       15.00166
| 31> H         13.32031        9.60946       13.91358
| 32> *
| 33> %MaxCore 64000
| 34> %pal nprocs 8
| 35> end
| 36> %scf
| 37>   Convergence VeryTight
| 38>   MaxIter 150
| 39> end
| 40>
| 41>                          ****END OF INPUT****

CARTESIAN COORDINATES (ANGSTROEM)
---------------------------------
  C     14.251000    9.661000   14.439000
  N     14.353000    8.612000   15.274000
  C     15.411000    7.633000   15.171000
  C     15.176000    6.504000   14.196000
  O     16.091000    5.695000   13.991000
  H     13.657000    8.499000   15.996000
  H     16.330000    8.156000   14.871000
  C     15.631000    7.055000   16.574000
  H     15.811000    7.874000   17.284000
  H     16.501000    6.383000   16.561000
  H     14.739000    6.493000   16.883000
  N     13.968000    6.428000   13.644000
  C     13.545000    5.347000   12.780000
  C     13.314000    5.798000   11.331000
  O     13.722000    6.914000   10.977000
  H     13.308000    7.167000   13.839000
  H     14.347000    4.595000   12.771000
  C     12.289000    4.685000   13.379000
  C     12.552000    4.058000   14.708000
  O     11.884000    4.464000   15.644000
  N     13.527000    3.162000   14.799000
  H     11.501000    5.442000   13.488000
  H     11.923000    3.915000   12.684000
  H     13.764000    2.762000   15.695000
  H     14.032000    2.880000   13.972000
  F     12.720000    4.982000   10.590000
  H     15.058460    9.638140   13.737300
  H     14.293060   10.570150   15.001660
  H     13.320310    9.609460   13.913580

 Total Charge           Charge          ....    0
 Multiplicity           Mult            ....    1
 Number of Electrons    NEL             ....  116
 Basis Dimension        Dim             ....  424

ORBITAL ENERGIES
----------------

  NO   OCC          E(Eh)            E(eV)
   0   2.0000     -24.885421      -677.1667
   1   2.0000     -19.274962      -524.4984
   2   2.0000     -19.222958      -523.0833
   3   2.0000     -19.221902      -523.0546
   4   2.0000     -14.477659      -393.9571
   5   2.0000     -14.465754      -393.6332
   6   2.0000     -14.408523      -392.0758
   7   2.0000     -10.490839      -285.4703
   8   2.0000     -10.407433      -283.2006
   9   2.0000     -10.399404      -282.9822
  10   2.0000     -10.373720      -282.2833
  11   2.0000     -10.329610      -281.0830
  12   2.0000     -10.313192      -280.6362
  13   2.0000     -10.288177      -279.9555
  14   2.0000     -10.285235      -279.8755
  15   2.0000      -1.437162       -39.1072
  16   2.0000      -1.171482       -31.8777
  17   2.0000      -1.161934       -31.6178
  18   2.0000      -1.153420       -31.3861
  19   2.0000      -1.058657       -28.8075
  20   2.0000      -1.033177       -28.1142
  21   2.0000      -1.028265       -27.9805
  22   2.0000      -0.921819       -25.0840
  23   2.0000      -0.880634       -23.9633
  24   2.0000      -0.825388       -22.4600
  25   2.0000      -0.782264       -21.2865
  26   2.0000      -0.762109       -20.7380
  27   2.0000      -0.743853       -20.2413
  28   2.0000      -0.715759       -19.4768
  29   2.0000      -0.702643       -19.1199
  30   2.0000      -0.688467       -18.7341
  31   2.0000      -0.665240       -18.1021
  32   2.0000      -0.649868       -17.6838
  33   2.0000      -0.634275       -17.2595
  34   2.0000      -0.628165       -17.0932
  35   2.0000      -0.604403       -16.4466
  36   2.0000      -0.584239       -15.8980
  37   2.0000      -0.577952       -15.7269
  38   2.0000      -0.570270       -15.5178
  39   2.0000      -0.556412       -15.1407
  40   2.0000      -0.544269       -14.8103
  41   2.0000      -0.532634       -14.4937
  42   2.0000      -0.529644       -14.4123
  43   2.0000      -0.521772       -14.1981
  44   2.0000      -0.506912       -13.7938
  45   2.0000      -0.497724       -13.5437
  46   2.0000      -0.487694       -13.2708
  47   2.0000      -0.483481       -13.1562
  48   2.0000      -0.469515       -12.7762
  49   2.0000      -0.462198       -12.5770
  50   2.0000      -0.455951       -12.4070
  51   2.0000      -0.443125       -12.0581
  52   2.0000      -0.419844       -11.4245
  53   2.0000      -0.384489       -10.4625
  54   2.0000      -0.376200       -10.2369
  55   2.0000      -0.373684       -10.1685
  56   2.0000      -0.364245        -9.9116
  57   2.0000      -0.294608        -8.0167
  58   0.0000       0.040837         1.1112
  59   0.0000       0.079757         2.1703
  60   0.0000       0.084572         2.3013
  61   0.0000       0.090752         2.4695
  62   0.0000       0.101601         2.7647

MULLIKEN ATOMIC CHARGES
-----------------------
   0 C :    1.160610
   1 N :   -0.884698
   2 C :   -0.447590
   3 C :    0.676714
   4 O :   -0.663748
   5 H :   -0.118559
   6 H :    0.007050
   7 C :    0.634870
   8 H :    0.108552
   9 H :    0.077891
  10 H :   -0.041108
  11 N :   -0.432225
  12 C :   -0.056336
  13 C :    1.010737
  14 O :   -0.535739
  15 H :   -0.222515
  16 H :    0.072675
  17 C :    0.263965
  18 C :    0.356822
  19 O :   -0.574242
  20 N :    0.176824
  21 H :    0.176581
  22 H :    0.052379
  23 H :   -0.081343
  24 H :    0.073647
  25 F :   -0.428223
  26 H :   -0.029722
  27 H :   -0.232436
  28 H :   -0.100834
Sum of atomic charges:   -0.0000000

LOEWDIN ATOMIC CHARGES
----------------------
   0 C :    0.141968
   1 N :   -0.133794
   2 C :   -0.098233
   3 C :   -0.085082
   4 O :   -0.247615
   5 H :    0.039177
   6 H :    0.068026
   7 C :    0.158799
   8 H :    0.005083
   9 H :   -0.003013
  10 H :    0.004087
  11 N :    0.085738
  12 C :   -0.002172
  13 C :    0.043281
  14 O :   -0.145056
  15 H :    0.048516
  16 H :    0.060047
  17 C :    0.086528
  18 C :   -0.184982
  19 O :   -0.252834
  20 N :    0.270387
  21 H :    0.052928
  22 H :    0.052671
  23 H :    0.042528
  24 H :    0.032927
  25 F :   -0.016043
  26 H :    0.004577
  27 H :   -0.013492
  28 H :   -0.014949

  Mayer bond orders larger than 0.100000
B(  0-C ,  1-N ) :   1.0044 B(  0-C ,  5-H ) :  -0.1985 B(  0-C , 26-H ) :   0.7456
B(  0-C , 27-H ) :   0.8597 B(  0-C , 28-H ) :   0.7741 B(  1-N ,  2-C ) :   1.0122
B(  1-N ,  5-H ) :   1.3069 B(  1-N ,  6-H ) :   0.1385 B(  1-N , 26-H ) :   0.1829
B(  1-N , 27-H ) :   0.1599 B(  1-N , 28-H ) :   0.2502 B(  2-C ,  3-C ) :   1.0109
B(  2-C ,  5-H ) :  -0.1026 B(  2-C ,  6-H ) :   0.7645 B(  2-C ,  7-C ) :   1.3058
B(  2-C ,  8-H ) :   0.1579 B(  2-C ,  9-H ) :   0.2497 B(  2-C , 10-H ) :   0.2086
B(  2-C , 11-N ) :   0.1260 B(  3-C ,  4-O ) :   1.5044 B(  3-C ,  6-H ) :   0.2679
B(  3-C , 11-N ) :   1.1061 B(  3-C , 15-H ) :  -0.2987 B(  4-O , 11-N ) :   0.1573
B(  7-C ,  8-H ) :   0.8095 B(  7-C ,  9-H ) :   0.7324 B(  7-C , 10-H ) :   0.8270
B( 11-N , 12-C ) :   0.8941 B( 11-N , 15-H ) :   1.3967 B( 11-N , 16-H ) :   0.2793
B( 12-C , 13-C ) :   0.9010 B( 12-C , 15-H ) :  -0.2410 B( 12-C , 16-H ) :   0.7629
B( 12-C , 17-C ) :   1.2252 B( 12-C , 21-H ) :   0.1727 B( 12-C , 22-H ) :   0.2005
B( 12-C , 25-F ) :   0.1088 B( 13-C , 14-O ) :   1.8521 B( 13-C , 25-F ) :   0.6535
B( 14-O , 25-F ) :   0.1000 B( 16-H , 17-C ) :   0.1098 B( 17-C , 18-C ) :   1.0394
B( 17-C , 21-H ) :   0.7886 B( 17-C , 22-H ) :   0.8187 B( 18-C , 19-O ) :   1.6949
B( 18-C , 20-N ) :   1.3424 B( 18-C , 21-H ) :   0.1280 B( 20-N , 23-H ) :   1.1847
B( 20-N , 24-H ) :   1.0099 B( 23-H , 24-H ) :  -0.1532

Dispersion correction           -0.013629040
FINAL SINGLE POINT ENERGY      -802.358947770752

DIPOLE MOMENT
-------------
                                X             Y             Z
Electronic contribution:     -5.76512     -10.52664     -15.73432
Nuclear contribution   :      5.09768       9.64545      15.71421
                        -----------------------------------------
Total Dipole Moment    :     -0.66744      -0.88119      -0.02011
                        -----------------------------------------
Magnitude (a.u.)       :      1.10561
Magnitude (Debye)      :      2.81024

Rotational constants in cm-1:     0.021834     0.015232     0.011286
Rotational constants in MHz :   654.565515   456.649455   338.340295

                             ****ORCA TERMINATED NORMALLY****
TOTAL RUN TIME: 0 days 0 hours 2 minutes 45 seconds 914 msec
