                         Program Version 5.0.0 -  RELEASE  -
|  1> !wB97X-D3 def2-SVPD TightSCF RIJCOSX def2/J CPCM(Water)
|  2> * xyz 0 1
|  3> C          9.85700        4.01400        9.19900
|  4> H          9.00336        4.52344        8.80319
|  5> H         10.39701        4.67281        9.84651
|  6> H          9.53578        3.15550        9.75099
|  7> C         10.76700        3.57000        8.04700
|  8> C         11.27200        4.69300        7.13900
|  9> N         12.13700        5.62000        7.82400
| 10> C         12.68300        6.71900        7.29500
| 11> C         12.43600        7.05300        6.05300
| 12> N         13.44300        7.50300        8.09000
| 13> H         11.63600        3.05000        8.47200
| 14> H         10.21700        2.84600        7.43000
| 15> H         11.81800        4.25100        6.29300
| 16> H         10.41000        5.24000        6.73200
| 17> H         12.35000        5.42200        8.79000
| 18> H         11.83000        6.47800        5.48700
| 19> H         12.85300        7.88400        5.66100
| 20> H         13.83100        8.36200        7.72900
| 21> H         13.62200        7.23000        9.04400
| 22> *
| 23> %MaxCore 64000
| 24> %pal nprocs 8
| 25> end
| 26> %scf
| 27>   Convergence VeryTight
| 28>   MaxIter 150
| 29> end
| 30>
| 31>                          ****END OF INPUT****

CARTESIAN COORDINATES (ANGSTROEM)
---------------------------------
  C      9.857000    4.014000    9.199000
  H      9.003360    4.523440    8.803190
  H     10.397010    4.672810    9.846510
  H      9.535780    3.155500    9.750990
  C     10.767000    3.570000    8.047000
  C     11.272000    4.693000    7.139000
  N     12.137000    5.620000    7.824000
  C     12.683000    6.719000    7.295000
  C     12.436000    7.053000    6.053000
  N     13.443000    7.503000    8.090000
  H     11.636000    3.050000    8.472000
  H     10.217000    2.846000    7.430000
  H     11.818000    4.251000    6.293000
  H     10.410000    5.240000    6.732000
  H     12.350000    5.422000    8.790000
  H     11.830000    6.478000    5.487000
  H     12.853000    7.884000    5.661000
  H     13.831000    8.362000    7.729000
  H     13.622000    7.230000    9.044000

 Total Charge           Charge          ....    0
 Multiplicity           Mult            ....    1
 Number of Electrons    NEL             ....   56
 Basis Dimension        Dim             ....  236

ORBITAL ENERGIES
----------------

  NO   OCC          E(Eh)            E(eV)
   0   2.0000     -14.435214      -392.8021
   1   2.0000     -14.430683      -392.6788
   2   2.0000     -10.343089      -281.4498
   3   2.0000     -10.316538      -280.7273
   4   2.0000     -10.287646      -279.9411
   5   2.0000     -10.269124      -279.4371
   6   2.0000     -10.209738      -277.8211
   7   2.0000      -1.074594       -29.2412
   8   2.0000      -0.988831       -26.9074
   9   2.0000      -0.887329       -24.1455
  10   2.0000      -0.829794       -22.5798
  11   2.0000      -0.794418       -21.6172
  12   2.0000      -0.705907       -19.2087
  13   2.0000      -0.670766       -18.2525
  14   2.0000      -0.641299       -17.4506
  15   2.0000      -0.612733       -16.6733
  16   2.0000      -0.569264       -15.4904
  17   2.0000      -0.555034       -15.1032
  18   2.0000      -0.524992       -14.2858
  19   2.0000      -0.518453       -14.1078
  20   2.0000      -0.496351       -13.5064
  21   2.0000      -0.482883       -13.1399
  22   2.0000      -0.476814       -12.9748
  23   2.0000      -0.438366       -11.9285
  24   2.0000      -0.434198       -11.8151
  25   2.0000      -0.426273       -11.5995
  26   2.0000      -0.336357        -9.1527
  27   2.0000      -0.268412        -7.3039
  28   0.0000       0.094023         2.5585
  29   0.0000       0.114371         3.1122
  30   0.0000       0.116785         3.1779
  31   0.0000       0.132079         3.5941
  32   0.0000       0.148682         4.0459

MULLIKEN ATOMIC CHARGES
-----------------------
   0 C :    0.643822
   1 H :   -0.022421
   2 H :   -0.058110
   3 H :   -0.023560
   4 C :   -0.352353
   5 C :    0.431747
   6 N :   -0.482906
   7 C :    0.596956
   8 C :    0.296359
   9 N :   -0.006255
  10 H :   -0.004400
  11 H :   -0.046068
  12 H :   -0.104753
  13 H :    0.041036
  14 H :   -0.272873
  15 H :    0.077786
  16 H :   -0.609502
  17 H :   -0.030468
  18 H :   -0.074038
Sum of atomic charges:   -0.0000000

LOEWDIN ATOMIC CHARGES
----------------------
   0 C :    0.119658
   1 H :   -0.014912
   2 H :   -0.025067
   3 H :   -0.015300
   4 C :   -0.065799
   5 C :    0.022295
   6 N :   -0.024985
   7 C :   -0.243049
   8 C :    0.126136
   9 N :    0.185982
  10 H :    0.025876
  11 H :    0.028219
  12 H :    0.028815
  13 H :    0.029371
  14 H :    0.029579
  15 H :   -0.120661
  16 H :   -0.101784
  17 H :    0.012617
  18 H :    0.003011

  Mayer bond orders larger than 0.100000
B(  0-C ,  1-H ) :   0.8304 B(  0-C ,  2-H ) :   0.8298 B(  0-C ,  3-H ) :   0.7916
B(  0-C ,  4-C ) :   1.2792 B(  1-H ,  4-C ) :   0.1850 B(  2-H ,  4-C ) :   0.2163
B(  3-H ,  4-C ) :   0.2104 B(  4-C ,  5-C ) :   1.1991 B(  4-C , 10-H ) :   0.8929
B(  4-C , 11-H ) :   0.8844 B(  5-C ,  6-N ) :   0.9216 B(  5-C , 10-H ) :   0.1313
B(  5-C , 11-H ) :   0.1992 B(  5-C , 12-H ) :   0.9356 B(  5-C , 13-H ) :   0.8463
B(  5-C , 14-H ) :  -0.1377 B(  6-N ,  7-C ) :   1.0430 B(  6-N ,  8-C ) :   0.3343
B(  6-N ,  9-N ) :   0.1913 B(  6-N , 12-H ) :   0.1584 B(  6-N , 13-H ) :   0.1421
B(  6-N , 14-H ) :   1.3180 B(  7-C ,  8-C ) :   1.7114 B(  7-C ,  9-N ) :   0.9046
B(  7-C , 14-H ) :  -0.3338 B(  7-C , 15-H ) :   0.3005 B(  7-C , 16-H ) :   0.1750
B(  8-C ,  9-N ) :   0.2446 B(  8-C , 15-H ) :   0.5649 B(  8-C , 16-H ) :   0.8840
B(  9-N , 16-H ) :   0.1149 B(  9-N , 17-H ) :   1.1846 B(  9-N , 18-H ) :   1.1340
B( 17-H , 18-H ) :  -0.1643

Dispersion correction           -0.004814083
FINAL SINGLE POINT ENERGY      -306.955133838369

DIPOLE MOMENT
-------------
                                X             Y             Z
Electronic contribution:      3.95950       3.29212      -0.18409
Nuclear contribution   :     -3.80593      -3.75280       1.58083
                        -----------------------------------------
Total Dipole Moment    :      0.15356      -0.46068       1.39674
                        -----------------------------------------
Magnitude (a.u.)       :      1.47875
Magnitude (Debye)      :      3.75869

Rotational constants in cm-1:     0.194903     0.043194     0.038042
Rotational constants in MHz :  5843.059187  1294.918537  1140.461984

                             ****ORCA TERMINATED NORMALLY****
TOTAL RUN TIME: 0 days 0 hours 0 minutes 41 seconds 590 msec
