                         Program Version 5.0.0 -  RELEASE  -
|  1> !wB97X-D3 def2-SVPD TightSCF RIJCOSX def2/J CPCM(Water)
|  2> * xyz 0 1
|  3> C          9.85700        4.01400        9.19900
|  4> H          9.00336        4.52344        8.80319
|  5> H         10.39701        4.67281        9.84651
|  6> H          9.53578        3.15550        9.75099
|  7> C         10.76700        3.57000        8.04700
|  8> C         11.27200        4.69300        7.13900
|  9> N         12.13700        5.62000        7.82400
| 10> C         12.68300        6.71900        7.29500
| 11> N         12.43600        7.05300        6.05300
| 12> C         13.44300        7.50300        8.09000
| 13> H         11.63600        3.05000        8.47200
| 14> H         10.21700        2.84600        7.43000
| 15> H         11.81800        4.25100        6.29300
| 16> H         10.41000        5.24000        6.73200
| 17> H         12.35000        5.42200        8.79000
| 18> H         11.83000        6.47800        5.48700
| 19> H         12.85300        7.88400        5.66100
| 20> H         13.83100        8.36200        7.72900
| 21> H         13.62200        7.23000        9.04400
| 22> *
| 23> %MaxCore 64000
| 24> %pal nprocs 8
| 25> end
| 26> %scf
| 27>   Convergence VeryTight
| 28>   MaxIter 150
| 29> end
| 30>
| 31>                          ****END OF INPUT****

CARTESIAN COORDINATES (ANGSTROEM)
---------------------------------
  C      9.857000    4.014000    9.199000
  H      9.003360    4.523440    8.803190
  H     10.397010    4.672810    9.846510
  H      9.535780    3.155500    9.750990
  C     10.767000    3.570000    8.047000
  C     11.272000    4.693000    7.139000
  N     12.137000    5.620000    7.824000
  C     12.683000    6.719000    7.295000
  N     12.436000    7.053000    6.053000
  C     13.443000    7.503000    8.090000
  H     11.636000    3.050000    8.472000
  H     10.217000    2.846000    7.430000
  H     11.818000    4.251000    6.293000
  H     10.410000    5.240000    6.732000
  H     12.350000    5.422000    8.790000
  H     11.830000    6.478000    5.487000
  H     12.853000    7.884000    5.661000
  H     13.831000    8.362000    7.729000
  H     13.622000    7.230000    9.044000

 Total Charge           Charge          ....    0
 Multiplicity           Mult            ....    1
 Number of Electrons    NEL             ....   56
 Basis Dimension        Dim             ....  236

ORBITAL ENERGIES
----------------

  NO   OCC          E(Eh)            E(eV)
   0   2.0000     -14.437243      -392.8573
   1   2.0000     -14.434625      -392.7861
   2   2.0000     -10.347980      -281.5828
   3   2.0000     -10.318022      -280.7677
   4   2.0000     -10.288995      -279.9778
   5   2.0000     -10.269671      -279.4520
   6   2.0000     -10.206177      -277.7242
   7   2.0000      -1.083341       -29.4792
   8   2.0000      -0.995598       -27.0916
   9   2.0000      -0.892597       -24.2888
  10   2.0000      -0.831421       -22.6241
  11   2.0000      -0.774089       -21.0640
  12   2.0000      -0.708956       -19.2917
  13   2.0000      -0.693516       -18.8715
  14   2.0000      -0.647465       -17.6184
  15   2.0000      -0.599627       -16.3167
  16   2.0000      -0.572858       -15.5883
  17   2.0000      -0.557868       -15.1803
  18   2.0000      -0.536143       -14.5892
  19   2.0000      -0.512656       -13.9501
  20   2.0000      -0.492300       -13.3962
  21   2.0000      -0.483422       -13.1546
  22   2.0000      -0.479535       -13.0488
  23   2.0000      -0.437948       -11.9172
  24   2.0000      -0.435108       -11.8399
  25   2.0000      -0.427924       -11.6444
  26   2.0000      -0.347036        -9.4433
  27   2.0000      -0.254139        -6.9155
  28   0.0000       0.092612         2.5201
  29   0.0000       0.114331         3.1111
  30   0.0000       0.117333         3.1928
  31   0.0000       0.132736         3.6119
  32   0.0000       0.142696         3.8830

MULLIKEN ATOMIC CHARGES
-----------------------
   0 C :    0.633341
   1 H :   -0.019416
   2 H :   -0.056394
   3 H :   -0.024543
   4 C :   -0.371808
   5 C :    0.435175
   6 N :   -0.416448
   7 C :    0.591655
   8 N :    0.139889
   9 C :    0.358944
  10 H :    0.004688
  11 H :   -0.048088
  12 H :   -0.106317
  13 H :   -0.004735
  14 H :   -0.215146
  15 H :   -0.086755
  16 H :   -0.049716
  17 H :   -0.453637
  18 H :   -0.310690
Sum of atomic charges:    0.0000000

LOEWDIN ATOMIC CHARGES
----------------------
   0 C :    0.120613
   1 H :   -0.014620
   2 H :   -0.024167
   3 H :   -0.014865
   4 C :   -0.065244
   5 C :    0.020351
   6 N :   -0.019071
   7 C :   -0.241910
   8 N :    0.207539
   9 C :    0.102727
  10 H :    0.026970
  11 H :    0.028334
  12 H :    0.028094
  13 H :    0.029253
  14 H :    0.034318
  15 H :   -0.002114
  16 H :    0.028178
  17 H :   -0.122437
  18 H :   -0.121948

  Mayer bond orders larger than 0.100000
B(  0-C ,  1-H ) :   0.8294 B(  0-C ,  2-H ) :   0.8309 B(  0-C ,  3-H ) :   0.7956
B(  0-C ,  4-C ) :   1.2807 B(  1-H ,  4-C ) :   0.1823 B(  2-H ,  4-C ) :   0.2133
B(  3-H ,  4-C ) :   0.2062 B(  4-C ,  5-C ) :   1.2050 B(  4-C , 10-H ) :   0.8990
B(  4-C , 11-H ) :   0.8868 B(  5-C ,  6-N ) :   0.9020 B(  5-C , 10-H ) :   0.1317
B(  5-C , 11-H ) :   0.2012 B(  5-C , 12-H ) :   0.9295 B(  5-C , 13-H ) :   0.8595
B(  5-C , 14-H ) :  -0.1423 B(  6-N ,  7-C ) :   1.0512 B(  6-N ,  8-N ) :   0.1833
B(  6-N ,  9-C ) :   0.2129 B(  6-N , 12-H ) :   0.1684 B(  6-N , 13-H ) :   0.1761
B(  6-N , 14-H ) :   1.2020 B(  7-C ,  8-N ) :   1.1110 B(  7-C ,  9-C ) :   1.4959
B(  7-C , 14-H ) :  -0.2353 B(  7-C , 15-H ) :  -0.1017 B(  7-C , 17-H ) :   0.1787
B(  8-N ,  9-C ) :   0.1730 B(  8-N , 15-H ) :   1.1093 B(  8-N , 16-H ) :   1.1885
B(  9-C , 17-H ) :   0.7975 B(  9-C , 18-H ) :   0.9314 B( 15-H , 16-H ) :  -0.1784

Dispersion correction           -0.004839096
FINAL SINGLE POINT ENERGY      -306.951313446081

DIPOLE MOMENT
-------------
                                X             Y             Z
Electronic contribution:      2.56561       2.62176      -2.90085
Nuclear contribution   :     -3.58535      -3.65423       2.02704
                        -----------------------------------------
Total Dipole Moment    :     -1.01973      -1.03247      -0.87381
                        -----------------------------------------
Magnitude (a.u.)       :      1.69392
Magnitude (Debye)      :      4.30561

Rotational constants in cm-1:     0.195166     0.043459     0.038301
Rotational constants in MHz :  5850.936269  1302.869792  1148.227606

                             ****ORCA TERMINATED NORMALLY****
TOTAL RUN TIME: 0 days 0 hours 0 minutes 41 seconds 92 msec
