                         Program Version 5.0.0 -  RELEASE  -
|  1> !CAM-B3LYP RIJCOSX def2-TZVPD def2/J TightSCF
|  2> *xyz -1 1
|  3> C          4.08422        1.74208       -2.11472
|  4> C          4.26524        2.50052       -0.79589
|  5> H          4.86853        3.39267       -0.98113
|  6> H          3.30764        2.82457       -0.38781
|  7> C          4.98224        1.65026        0.24742
|  8> O          4.36806        1.38927        1.31371
|  9> O          6.12892        1.23351       -0.04562
| 10> H          3.57911        2.36849       -2.81997
| 11> H          3.50424        0.85965       -1.94198
| 12> H          5.04288        1.46841       -2.50327
| 13> *
| 14> %MaxCore 64000
| 15> %pal nprocs 8
| 16> end
| 17> %scf
| 18>   MaxIter 150
| 19> end
| 20>
| 21>
| 22>                          ****END OF INPUT****

CARTESIAN COORDINATES (ANGSTROEM)
---------------------------------
  C      4.084220    1.742080   -2.114720
  C      4.265240    2.500520   -0.795890
  H      4.868530    3.392670   -0.981130
  H      3.307640    2.824570   -0.387810
  C      4.982240    1.650260    0.247420
  O      4.368060    1.389270    1.313710
  O      6.128920    1.233510   -0.045620
  H      3.579110    2.368490   -2.819970
  H      3.504240    0.859650   -1.941980
  H      5.042880    1.468410   -2.503270

 Total Charge           Charge          ....   -1
 Multiplicity           Mult            ....    1
 Number of Electrons    NEL             ....   40
 Basis Dimension        Dim             ....  236

ORBITAL ENERGIES
----------------

  NO   OCC          E(Eh)            E(eV)
   0   2.0000     -18.933716      -515.2126
   1   2.0000     -18.933572      -515.2087
   2   2.0000     -10.128835      -275.6196
   3   2.0000     -10.080107      -274.2937
   4   2.0000     -10.069538      -274.0061
   5   2.0000      -0.903042       -24.5730
   6   2.0000      -0.808071       -21.9887
   7   2.0000      -0.689563       -18.7640
   8   2.0000      -0.554200       -15.0805
   9   2.0000      -0.395168       -10.7531
  10   2.0000      -0.364202        -9.9104
  11   2.0000      -0.331538        -9.0216
  12   2.0000      -0.300462        -8.1760
  13   2.0000      -0.283441        -7.7128
  14   2.0000      -0.277803        -7.5594
  15   2.0000      -0.245872        -6.6905
  16   2.0000      -0.229809        -6.2534
  17   2.0000      -0.112493        -3.0611
  18   2.0000      -0.107916        -2.9365
  19   2.0000      -0.095295        -2.5931
  20   0.0000       0.157996         4.2993
  21   0.0000       0.181988         4.9522
  22   0.0000       0.192615         5.2413
  23   0.0000       0.205140         5.5822
  24   0.0000       0.230585         6.2745

MULLIKEN ATOMIC CHARGES
-----------------------
   0 C :   -1.072903
   1 C :   -0.101406
   2 H :    0.202588
   3 H :    0.207798
   4 C :    0.348410
   5 O :   -0.720565
   6 O :   -0.720873
   7 H :    0.285415
   8 H :    0.306035
   9 H :    0.265501
Sum of atomic charges:   -1.0000000

LOEWDIN ATOMIC CHARGES
----------------------
   0 C :   -0.130451
   1 C :   -0.213545
   2 H :    0.094830
   3 H :    0.088374
   4 C :   -0.782721
   5 O :   -0.112800
   6 O :   -0.105421
   7 H :    0.043145
   8 H :    0.062570
   9 H :    0.056019

  Mayer bond orders larger than 0.100000
B(  0-C ,  1-C ) :   0.5316 B(  0-C ,  7-H ) :   0.9396 B(  0-C ,  8-H ) :   0.9548
B(  0-C ,  9-H ) :   1.0302 B(  1-C ,  2-H ) :   0.9687 B(  1-C ,  3-H ) :   1.0216
B(  1-C ,  4-C ) :   0.8995 B(  4-C ,  5-O ) :   1.4736 B(  4-C ,  6-O ) :   1.4823

FINAL SINGLE POINT ENERGY      -267.836881497087

DIPOLE MOMENT
-------------
                                X             Y             Z
Electronic contribution:      2.41436      -1.44383       5.07107
Nuclear contribution   :     -3.31311       2.28398      -6.76358
                        -----------------------------------------
Total Dipole Moment    :     -0.89875       0.84015      -1.69251
                        -----------------------------------------
Magnitude (a.u.)       :      2.09242
Magnitude (Debye)      :      5.31850

Rotational constants in cm-1:     0.309287     0.135287     0.107346
Rotational constants in MHz :  9272.201029  4055.789113  3218.155789

                             ****ORCA TERMINATED NORMALLY****
TOTAL RUN TIME: 0 days 0 hours 0 minutes 19 seconds 732 msec
