                         Program Version 5.0.0 -  RELEASE  -
|  1> !CAM-B3LYP RIJCOSX def2-TZVPD def2/J TightSCF
|  2> *xyz 1 1
|  3> C          3.91385       -1.65829        3.01513
|  4> N          5.03927       -0.90115        2.49282
|  5> C          6.21038       -1.41726        2.17824
|  6> N          6.53591       -2.67712        2.55608
|  7> N          7.07675       -0.70082        1.47891
|  8> H          7.95464       -1.12155        1.20755
|  9> H          6.75616        0.10664        0.96028
| 10> H          4.84217        0.01761        2.11519
| 11> H          5.99388       -3.12692        3.28278
| 12> C          3.13916       -2.37657        1.91061
| 13> H          3.26723       -0.93940        3.52069
| 14> H          4.24720       -2.35509        3.79006
| 15> H          7.49844       -2.97548        2.46878
| 16> H          2.82969       -1.66654        1.17238
| 17> H          2.27790       -2.85264        2.33072
| 18> H          3.76754       -3.11338        1.45548
| 19> *
| 20> %MaxCore 64000
| 21> %pal nprocs 8
| 22> end
| 23> %scf
| 24>   MaxIter 150
| 25> end
| 26>
| 27>
| 28>                          ****END OF INPUT****

CARTESIAN COORDINATES (ANGSTROEM)
---------------------------------
  C      3.913850   -1.658290    3.015130
  N      5.039270   -0.901150    2.492820
  C      6.210380   -1.417260    2.178240
  N      6.535910   -2.677120    2.556080
  N      7.076750   -0.700820    1.478910
  H      7.954640   -1.121550    1.207550
  H      6.756160    0.106640    0.960280
  H      4.842170    0.017610    2.115190
  H      5.993880   -3.126920    3.282780
  C      3.139160   -2.376570    1.910610
  H      3.267230   -0.939400    3.520690
  H      4.247200   -2.355090    3.790060
  H      7.498440   -2.975480    2.468780
  H      2.829690   -1.666540    1.172380
  H      2.277900   -2.852640    2.330720
  H      3.767540   -3.113380    1.455480

 Total Charge           Charge          ....    1
 Multiplicity           Mult            ....    1
 Number of Electrons    NEL             ....   48
 Basis Dimension        Dim             ....  312

ORBITAL ENERGIES
----------------

  NO   OCC          E(Eh)            E(eV)
   0   2.0000     -14.615116      -397.6975
   1   2.0000     -14.613482      -397.6531
   2   2.0000     -14.611240      -397.5921
   3   2.0000     -10.584257      -288.0123
   4   2.0000     -10.452472      -284.4262
   5   2.0000     -10.377533      -282.3870
   6   2.0000      -1.302365       -35.4392
   7   2.0000      -1.191029       -32.4096
   8   2.0000      -1.174017       -31.9466
   9   2.0000      -1.013515       -27.5791
  10   2.0000      -0.919859       -25.0306
  11   2.0000      -0.879266       -23.9260
  12   2.0000      -0.860280       -23.4094
  13   2.0000      -0.817833       -22.2544
  14   2.0000      -0.762701       -20.7542
  15   2.0000      -0.756070       -20.5737
  16   2.0000      -0.726605       -19.7719
  17   2.0000      -0.701304       -19.0834
  18   2.0000      -0.672197       -18.2914
  19   2.0000      -0.630740       -17.1633
  20   2.0000      -0.599669       -16.3178
  21   2.0000      -0.579528       -15.7698
  22   2.0000      -0.544797       -14.8247
  23   2.0000      -0.514762       -14.0074
  24   0.0000      -0.131865        -3.5882
  25   0.0000      -0.125363        -3.4113
  26   0.0000      -0.099412        -2.7051
  27   0.0000      -0.091612        -2.4929
  28   0.0000      -0.066479        -1.8090

MULLIKEN ATOMIC CHARGES
-----------------------
   0 C :   -0.518538
   1 N :   -0.156104
   2 C :    0.637377
   3 N :   -0.312565
   4 N :   -0.315173
   5 H :    0.206189
   6 H :    0.215688
   7 H :    0.196934
   8 H :    0.196662
   9 C :   -1.070935
  10 H :    0.329419
  11 H :    0.338522
  12 H :    0.209991
  13 H :    0.329945
  14 H :    0.374888
  15 H :    0.337701
Sum of atomic charges:    1.0000000

LOEWDIN ATOMIC CHARGES
----------------------
   0 C :   -0.205877
   1 N :    0.084827
   2 C :   -0.431074
   3 N :    0.212414
   4 N :    0.207975
   5 H :    0.138510
   6 H :    0.141194
   7 H :    0.170839
   8 H :    0.120945
   9 C :   -0.058527
  10 H :    0.132294
  11 H :    0.117995
  12 H :    0.135356
  13 H :    0.078461
  14 H :    0.083299
  15 H :    0.071369

  Mayer bond orders larger than 0.100000
B(  0-C ,  1-N ) :   0.8372 B(  0-C ,  2-C ) :  -0.1041 B(  0-C ,  9-C ) :   0.6479
B(  0-C , 10-H ) :   0.9284 B(  0-C , 11-H ) :   0.8871 B(  1-N ,  2-C ) :   1.2593
B(  1-N ,  7-H ) :   1.0061 B(  2-C ,  3-N ) :   1.1558 B(  2-C ,  4-N ) :   1.1287
B(  3-N ,  8-H ) :   0.9498 B(  3-N , 12-H ) :   0.9899 B(  4-N ,  5-H ) :   0.9846
B(  4-N ,  6-H ) :   0.9684 B(  9-C , 13-H ) :   0.9670 B(  9-C , 14-H ) :   0.9402
B(  9-C , 15-H ) :   0.9379

FINAL SINGLE POINT ENERGY      -284.364861687735

DIPOLE MOMENT
-------------
                                X             Y             Z
Electronic contribution:      4.69340       1.90441       0.07827
Nuclear contribution   :     -3.67981      -1.62355      -0.28562
                        -----------------------------------------
Total Dipole Moment    :      1.01359       0.28087      -0.20734
                        -----------------------------------------
Magnitude (a.u.)       :      1.07203
Magnitude (Debye)      :      2.72488

Rotational constants in cm-1:     0.222027     0.074735     0.065694
Rotational constants in MHz :  6656.200457  2240.503315  1969.451902

                             ****ORCA TERMINATED NORMALLY****
TOTAL RUN TIME: 0 days 0 hours 0 minutes 39 seconds 127 msec
