                         Program Version 5.0.0 -  RELEASE  -
|  1> !CAM-B3LYP RIJCOSX def2-TZVPD def2/J TightSCF xyzfile
|  2>
|  3> *xyzfile 0 1 B.xyz
|  4>
|  5> %MaxCore 64000
|  6>
|  7> %pal nprocs 4
|  8> end
|  9>
| 10> %scf
| 11>   MaxIter 150
| 12> end
| 13>
| 14>
| 15>                          ****END OF INPUT****

CARTESIAN COORDINATES (ANGSTROEM)
---------------------------------
  C      3.913853   -1.658291    3.015134
  N      5.039266   -0.901154    2.492821
  C      4.084215    1.742081   -2.114724
  C      4.265245    2.500518   -0.795890
  H      4.868534    3.392674   -0.981134
  H      3.307640    2.824571   -0.387809
  C      4.982240    1.650257    0.247422
  C      6.210384   -1.417261    2.178244
  N      6.535913   -2.677122    2.556078
  N      7.076754   -0.700820    1.478906
  H      7.954643   -1.121554    1.207554
  H      6.756161    0.106637    0.960278
  H      4.842168    0.017609    2.115191
  H      5.993876   -3.126918    3.282784
  H      7.498441   -2.975482    2.468776
  O      4.368065    1.389270    1.313706
  O      6.128919    1.233512   -0.045620
  C      3.139159   -2.376572    1.910609
  H      3.267235   -0.939401    3.520693
  H      4.247195   -2.355095    3.790065
  C      1.997274    0.430918   -1.399218
  C      3.412746    0.376886   -1.965497
  H      4.047407   -0.246590   -1.326706
  H      3.390774   -0.118719   -2.942839
  H      5.068475    1.598504   -2.565728
  H      3.503356    2.363939   -2.804565
  C      2.399946   -1.389579    1.009490
  H      2.440750   -3.087118    2.362976
  H      3.844475   -2.970462    1.318677
  C      2.070177   -1.936705   -0.372401
  H      1.481611   -1.061542    1.509912
  H      3.008628   -0.490001    0.897451
  C      1.322238   -0.935775   -1.256413
  H      1.472747   -2.850902   -0.283997
  H      3.003539   -2.234041   -0.862535
  H      1.376444    1.058920   -2.047420
  H      2.015341    0.929780   -0.426535
  H      0.316648   -0.787213   -0.848278
  H      1.185611   -1.379252   -2.248613

 Total Charge           Charge          ....    0
 Multiplicity           Mult            ....    1
 Number of Electrons    NEL             ....  126
 Basis Dimension        Dim             ....  805

ORBITAL ENERGIES
----------------

  NO   OCC          E(Eh)            E(eV)
   0   2.0000     -19.118091      -520.2297
   1   2.0000     -19.117004      -520.2001
   2   2.0000     -14.456063      -393.3695
   3   2.0000     -14.421223      -392.4214
   4   2.0000     -14.415427      -392.2637
   5   2.0000     -10.407709      -283.2082
   6   2.0000     -10.306558      -280.4557
   7   2.0000     -10.301445      -280.3166
   8   2.0000     -10.250611      -278.9333
   9   2.0000     -10.228236      -278.3244
  10   2.0000     -10.227635      -278.3081
  11   2.0000     -10.223998      -278.2091
  12   2.0000     -10.214897      -277.9615
  13   2.0000     -10.213468      -277.9226
  14   2.0000     -10.212813      -277.9048
  15   2.0000     -10.204652      -277.6827
  16   2.0000      -1.127358       -30.6770
  17   2.0000      -1.091975       -29.7141
  18   2.0000      -1.018144       -27.7051
  19   2.0000      -1.003953       -27.3189
  20   2.0000      -0.992900       -27.0182
  21   2.0000      -0.895242       -24.3608
  22   2.0000      -0.870230       -23.6802
  23   2.0000      -0.840749       -22.8780
  24   2.0000      -0.799555       -21.7570
  25   2.0000      -0.760324       -20.6895
  26   2.0000      -0.740744       -20.1567
  27   2.0000      -0.710408       -19.3312
  28   2.0000      -0.691068       -18.8049
  29   2.0000      -0.679724       -18.4962
  30   2.0000      -0.651309       -17.7230
  31   2.0000      -0.644249       -17.5309
  32   2.0000      -0.614513       -16.7218
  33   2.0000      -0.595372       -16.2009
  34   2.0000      -0.590840       -16.0776
  35   2.0000      -0.569989       -15.5102
  36   2.0000      -0.542206       -14.7542
  37   2.0000      -0.538222       -14.6458
  38   2.0000      -0.530125       -14.4254
  39   2.0000      -0.525996       -14.3131
  40   2.0000      -0.511201       -13.9105
  41   2.0000      -0.494216       -13.4483
  42   2.0000      -0.490887       -13.3577
  43   2.0000      -0.485183       -13.2025
  44   2.0000      -0.476338       -12.9618
  45   2.0000      -0.468850       -12.7581
  46   2.0000      -0.452444       -12.3116
  47   2.0000      -0.438925       -11.9438
  48   2.0000      -0.432942       -11.7810
  49   2.0000      -0.421223       -11.4621
  50   2.0000      -0.413806       -11.2602
  51   2.0000      -0.406428       -11.0595
  52   2.0000      -0.392218       -10.6728
  53   2.0000      -0.384003       -10.4492
  54   2.0000      -0.379748       -10.3335
  55   2.0000      -0.373619       -10.1667
  56   2.0000      -0.362919        -9.8755
  57   2.0000      -0.357930        -9.7398
  58   2.0000      -0.351044        -9.5524
  59   2.0000      -0.338995        -9.2245
  60   2.0000      -0.298152        -8.1131
  61   2.0000      -0.288314        -7.8454
  62   2.0000      -0.284790        -7.7495
  63   0.0000       0.000166         0.0045
  64   0.0000       0.027113         0.7378
  65   0.0000       0.035193         0.9577
  66   0.0000       0.045003         1.2246
  67   0.0000       0.050759         1.3812

MULLIKEN ATOMIC CHARGES
-----------------------
   0 C :   -1.041209
   1 N :   -0.133028
   2 C :   -0.710073
   3 C :   -0.407168
   4 H :    0.313751
   5 H :    0.266809
   6 C :    0.610507
   7 C :    0.477244
   8 N :   -0.316850
   9 N :   -0.248688
  10 H :    0.179656
  11 H :    0.265297
  12 H :    0.309949
  13 H :    0.179365
  14 H :    0.188019
  15 O :   -0.871811
  16 O :   -0.885277
  17 C :   -0.455706
  18 H :    0.366109
  19 H :    0.363709
  20 C :   -0.495046
  21 C :   -0.428567
  22 H :    0.227077
  23 H :    0.291266
  24 H :    0.246186
  25 H :    0.304846
  26 C :    0.091991
  27 H :    0.353689
  28 H :    0.300182
  29 C :   -0.592386
  30 H :    0.279848
  31 H :   -0.075894
  32 C :   -0.747583
  33 H :    0.284542
  34 H :    0.342537
  35 H :    0.291759
  36 H :    0.282688
  37 H :    0.295651
  38 H :    0.296610
Sum of atomic charges:   -0.0000000

LOEWDIN ATOMIC CHARGES
----------------------
   0 C :   -0.169140
   1 N :    0.101871
   2 C :   -0.204463
   3 C :   -0.125871
   4 H :    0.116492
   5 H :    0.106267
   6 C :   -0.652935
   7 C :   -0.437293
   8 N :    0.176027
   9 N :    0.207754
  10 H :    0.123914
  11 H :    0.039388
  12 H :    0.072798
  13 H :    0.102797
  14 H :    0.116215
  15 O :   -0.053279
  16 O :   -0.040236
  17 C :   -0.184976
  18 H :    0.133621
  19 H :    0.106692
  20 C :   -0.216310
  21 C :   -0.212068
  22 H :    0.105071
  23 H :    0.117023
  24 H :    0.108715
  25 H :    0.109402
  26 C :   -0.213645
  27 H :    0.115696
  28 H :    0.111915
  29 C :   -0.220849
  30 H :    0.129139
  31 H :    0.084963
  32 C :   -0.213628
  33 H :    0.112412
  34 H :    0.108984
  35 H :    0.116429
  36 H :    0.103428
  37 H :    0.109074
  38 H :    0.108605

  Mayer bond orders larger than 0.100000
B(  0-C ,  1-N ) :   0.9223 B(  0-C ,  7-C ) :  -0.1408 B(  0-C , 17-C ) :   0.6673
B(  0-C , 18-H ) :   0.8073 B(  0-C , 19-H ) :   0.9147 B(  0-C , 26-C ) :   0.1053
B(  0-C , 27-H ) :  -0.1406 B(  1-N ,  7-C ) :   1.3099 B(  1-N , 12-H ) :   0.7129
B(  1-N , 15-O ) :  -0.1359 B(  2-C ,  3-C ) :   0.7570 B(  2-C , 20-C ) :   0.1206
B(  2-C , 21-C ) :   0.8788 B(  2-C , 24-H ) :   0.9893 B(  2-C , 25-H ) :   0.9326
B(  3-C ,  4-H ) :   0.8902 B(  3-C ,  5-H ) :   1.0241 B(  3-C ,  6-C ) :   0.8901
B(  3-C , 21-C ) :  -0.1007 B(  6-C , 15-O ) :   1.3349 B(  6-C , 16-O ) :   1.1522
B(  7-C ,  8-N ) :   1.0665 B(  7-C ,  9-N ) :   1.1735 B(  7-C , 12-H ) :  -0.1019
B(  8-N , 13-H ) :   0.9675 B(  8-N , 14-H ) :   0.9923 B(  9-N , 10-H ) :   0.9921
B(  9-N , 11-H ) :   0.8317 B(  9-N , 16-O ) :  -0.1073 B( 12-H , 15-O ) :   0.1085
B( 15-O , 16-O ) :   0.1322 B( 17-C , 26-C ) :   0.5892 B( 17-C , 27-H ) :   0.9742
B( 17-C , 28-H ) :   0.8687 B( 17-C , 29-C ) :   0.3136 B( 17-C , 30-H ) :  -0.1090
B( 20-C , 21-C ) :   0.2913 B( 20-C , 22-H ) :  -0.1318 B( 20-C , 32-C ) :   0.8030
B( 20-C , 35-H ) :   0.9445 B( 20-C , 36-H ) :   1.0252 B( 21-C , 22-H ) :   1.0698
B( 21-C , 23-H ) :   0.9392 B( 21-C , 36-H ) :  -0.1204 B( 26-C , 29-C ) :   0.4379
B( 26-C , 30-H ) :   0.8827 B( 26-C , 31-H ) :   1.4041 B( 29-C , 31-H ) :  -0.1923
B( 29-C , 32-C ) :   0.8306 B( 29-C , 33-H ) :   0.9496 B( 29-C , 34-H ) :   0.9653
B( 30-H , 31-H ) :   0.1541 B( 32-C , 37-H ) :   0.9732 B( 32-C , 38-H ) :   0.9778

FINAL SINGLE POINT ENERGY      -747.704720507789

DIPOLE MOMENT
-------------
                                X             Y             Z
Electronic contribution:     12.26936       3.30094       7.67624
Nuclear contribution   :    -11.44764      -6.21818      -6.18483
                        -----------------------------------------
Total Dipole Moment    :      0.82172      -2.91724       1.49141
                        -----------------------------------------
Magnitude (a.u.)       :      3.37784
Magnitude (Debye)      :      8.58580

Rotational constants in cm-1:     0.020281     0.013510     0.009451
Rotational constants in MHz :   608.005987   405.034308   283.324538

                             ****ORCA TERMINATED NORMALLY****
TOTAL RUN TIME: 0 days 0 hours 17 minutes 8 seconds 296 msec
