                         Program Version 5.0.0 -  RELEASE  -
|  1> !CAM-B3LYP RIJCOSX def2-TZVPD def2/J TightSCF
|  2> *xyz 0 1
|  3> C          4.08422        1.74208       -2.11472
|  4> C          4.26524        2.50052       -0.79589
|  5> H          4.86853        3.39267       -0.98113
|  6> H          3.30764        2.82457       -0.38781
|  7> C          4.98224        1.65026        0.24742
|  8> F          4.36806        1.38927        1.31371
|  9> O          6.12892        1.23351       -0.04562
| 10> H          3.57911        2.36849       -2.81997
| 11> H          3.50424        0.85965       -1.94198
| 12> H          5.04288        1.46841       -2.50327
| 13> *
| 14> %MaxCore 64000
| 15> %pal nprocs 8
| 16> end
| 17> %scf
| 18>   MaxIter 150
| 19> end
| 20>
| 21>
| 22>                          ****END OF INPUT****

CARTESIAN COORDINATES (ANGSTROEM)
---------------------------------
  C      4.084220    1.742080   -2.114720
  C      4.265240    2.500520   -0.795890
  H      4.868530    3.392670   -0.981130
  H      3.307640    2.824570   -0.387810
  C      4.982240    1.650260    0.247420
  F      4.368060    1.389270    1.313710
  O      6.128920    1.233510   -0.045620
  H      3.579110    2.368490   -2.819970
  H      3.504240    0.859650   -1.941980
  H      5.042880    1.468410   -2.503270

 Total Charge           Charge          ....    0
 Multiplicity           Mult            ....    1
 Number of Electrons    NEL             ....   40
 Basis Dimension        Dim             ....  236

ORBITAL ENERGIES
----------------

  NO   OCC          E(Eh)            E(eV)
   0   2.0000     -24.828710      -675.6236
   1   2.0000     -19.207313      -522.6576
   2   2.0000     -10.427814      -283.7552
   3   2.0000     -10.277454      -279.6637
   4   2.0000     -10.248793      -278.8838
   5   2.0000      -1.402686       -38.1690
   6   2.0000      -1.118337       -30.4315
   7   2.0000      -0.886509       -24.1231
   8   2.0000      -0.770891       -20.9770
   9   2.0000      -0.717831       -19.5332
  10   2.0000      -0.626098       -17.0370
  11   2.0000      -0.611726       -16.6459
  12   2.0000      -0.584575       -15.9071
  13   2.0000      -0.538352       -14.6493
  14   2.0000      -0.507279       -13.8038
  15   2.0000      -0.469153       -12.7663
  16   2.0000      -0.449111       -12.2209
  17   2.0000      -0.443086       -12.0570
  18   2.0000      -0.414752       -11.2860
  19   2.0000      -0.364058        -9.9065
  20   0.0000       0.013222         0.3598
  21   0.0000       0.030898         0.8408
  22   0.0000       0.052852         1.4382
  23   0.0000       0.061440         1.6719
  24   0.0000       0.071930         1.9573

MULLIKEN ATOMIC CHARGES
-----------------------
   0 C :   -1.106075
   1 C :   -0.178663
   2 H :    0.247447
   3 H :    0.267944
   4 C :    0.499011
   5 F :   -0.204331
   6 O :   -0.483988
   7 H :    0.308800
   8 H :    0.341087
   9 H :    0.308768
Sum of atomic charges:   -0.0000000

LOEWDIN ATOMIC CHARGES
----------------------
   0 C :   -0.087852
   1 C :   -0.158279
   2 H :    0.122386
   3 H :    0.109432
   4 C :   -0.490333
   5 F :    0.205795
   6 O :    0.079980
   7 H :    0.069886
   8 H :    0.075450
   9 H :    0.073535

  Mayer bond orders larger than 0.100000
B(  0-C ,  1-C ) :   0.5954 B(  0-C ,  7-H ) :   0.9470 B(  0-C ,  8-H ) :   0.9171
B(  0-C ,  9-H ) :   1.0033 B(  1-C ,  2-H ) :   0.9607 B(  1-C ,  3-H ) :   0.9628
B(  1-C ,  4-C ) :   0.8956 B(  4-C ,  5-F ) :   1.0274 B(  4-C ,  6-O ) :   1.7701

FINAL SINGLE POINT ENERGY      -292.404571801287

DIPOLE MOMENT
-------------
                                X             Y             Z
Electronic contribution:      1.89936      -2.02401       8.11907
Nuclear contribution   :     -2.87511       2.61564      -8.50037
                        -----------------------------------------
Total Dipole Moment    :     -0.97575       0.59162      -0.38130
                        -----------------------------------------
Magnitude (a.u.)       :      1.20312
Magnitude (Debye)      :      3.05808

Rotational constants in cm-1:     0.297822     0.128965     0.102219
Rotational constants in MHz :  8928.481997  3866.271686  3064.463504

                             ****ORCA TERMINATED NORMALLY****
TOTAL RUN TIME: 0 days 0 hours 0 minutes 20 seconds 737 msec
