                         Program Version 5.0.0 -  RELEASE  -
|  1> !CAM-B3LYP RIJCOSX def2-TZVPD def2/J TightSCF
|  2> *xyz 0 1
|  3> C          3.91385       -1.65829        3.01513
|  4> C          5.03927       -0.90115        2.49282
|  5> C          6.21038       -1.41726        2.17824
|  6> N          6.53591       -2.67712        2.55608
|  7> N          7.07675       -0.70082        1.47891
|  8> H          7.95464       -1.12155        1.20755
|  9> H          6.75616        0.10664        0.96028
| 10> H          4.84217        0.01761        2.11519
| 11> H          5.99388       -3.12692        3.28278
| 12> C          3.13916       -2.37657        1.91061
| 13> H          3.26723       -0.93940        3.52069
| 14> H          4.24720       -2.35509        3.79006
| 15> H          7.49844       -2.97548        2.46878
| 16> H          2.82969       -1.66654        1.17238
| 17> H          2.27790       -2.85264        2.33072
| 18> H          3.76754       -3.11338        1.45548
| 19> *
| 20> %MaxCore 64000
| 21> %pal nprocs 8
| 22> end
| 23> %scf
| 24>   MaxIter 150
| 25> end
| 26>
| 27>
| 28>                          ****END OF INPUT****

CARTESIAN COORDINATES (ANGSTROEM)
---------------------------------
  C      3.913850   -1.658290    3.015130
  C      5.039270   -0.901150    2.492820
  C      6.210380   -1.417260    2.178240
  N      6.535910   -2.677120    2.556080
  N      7.076750   -0.700820    1.478910
  H      7.954640   -1.121550    1.207550
  H      6.756160    0.106640    0.960280
  H      4.842170    0.017610    2.115190
  H      5.993880   -3.126920    3.282780
  C      3.139160   -2.376570    1.910610
  H      3.267230   -0.939400    3.520690
  H      4.247200   -2.355090    3.790060
  H      7.498440   -2.975480    2.468780
  H      2.829690   -1.666540    1.172380
  H      2.277900   -2.852640    2.330720
  H      3.767540   -3.113380    1.455480

 Total Charge           Charge          ....    0
 Multiplicity           Mult            ....    1
 Number of Electrons    NEL             ....   48
 Basis Dimension        Dim             ....  312

ORBITAL ENERGIES
----------------

  NO   OCC          E(Eh)            E(eV)
   0   2.0000     -14.389975      -391.5711
   1   2.0000     -14.388046      -391.5186
   2   2.0000     -10.287907      -279.9482
   3   2.0000     -10.217742      -278.0389
   4   2.0000     -10.205358      -277.7019
   5   2.0000     -10.164677      -276.5949
   6   2.0000      -1.044457       -28.4211
   7   2.0000      -0.952091       -25.9077
   8   2.0000      -0.857585       -23.3361
   9   2.0000      -0.774680       -21.0801
  10   2.0000      -0.694339       -18.8939
  11   2.0000      -0.651153       -17.7188
  12   2.0000      -0.612131       -16.6569
  13   2.0000      -0.582856       -15.8603
  14   2.0000      -0.541777       -14.7425
  15   2.0000      -0.508080       -13.8256
  16   2.0000      -0.489517       -13.3204
  17   2.0000      -0.458261       -12.4699
  18   2.0000      -0.451031       -12.2732
  19   2.0000      -0.420652       -11.4465
  20   2.0000      -0.393972       -10.7205
  21   2.0000      -0.384796       -10.4708
  22   2.0000      -0.333247        -9.0681
  23   2.0000      -0.219510        -5.9732
  24   0.0000       0.026096         0.7101
  25   0.0000       0.051974         1.4143
  26   0.0000       0.056004         1.5240
  27   0.0000       0.067749         1.8435
  28   0.0000       0.083311         2.2670

MULLIKEN ATOMIC CHARGES
-----------------------
   0 C :   -0.551790
   1 C :   -0.322319
   2 C :    0.259941
   3 N :   -0.363930
   4 N :   -0.368258
   5 H :    0.144865
   6 H :    0.177506
   7 H :    0.284206
   8 H :    0.159760
   9 C :   -1.092105
  10 H :    0.239634
  11 H :    0.340660
  12 H :    0.146431
  13 H :    0.322327
  14 H :    0.314918
  15 H :    0.308154
Sum of atomic charges:    0.0000000

LOEWDIN ATOMIC CHARGES
----------------------
   0 C :   -0.285980
   1 C :   -0.151174
   2 C :   -0.543439
   3 N :    0.125362
   4 N :    0.108292
   5 H :    0.097195
   6 H :    0.111100
   7 H :    0.069840
   8 H :    0.093937
   9 C :   -0.104840
  10 H :    0.103391
  11 H :    0.094247
  12 H :    0.095027
  13 H :    0.066595
  14 H :    0.057888
  15 H :    0.062562

  Mayer bond orders larger than 0.100000
B(  0-C ,  1-C ) :   0.6509 B(  0-C ,  2-C ) :   0.1390 B(  0-C ,  9-C ) :   0.5597
B(  0-C , 10-H ) :   1.1237 B(  0-C , 11-H ) :   0.9239 B(  1-C ,  2-C ) :   1.3364
B(  1-C ,  7-H ) :   1.0532 B(  2-C ,  3-N ) :   0.9860 B(  2-C ,  4-N ) :   1.0493
B(  2-C ,  7-H ) :  -0.1844 B(  3-N ,  8-H ) :   0.9749 B(  3-N , 12-H ) :   1.0444
B(  4-N ,  5-H ) :   1.0365 B(  4-N ,  6-H ) :   0.9885 B(  9-C , 13-H ) :   0.9848
B(  9-C , 14-H ) :   0.9621 B(  9-C , 15-H ) :   0.9682

FINAL SINGLE POINT ENERGY      -267.879908553474

DIPOLE MOMENT
-------------
                                X             Y             Z
Electronic contribution:      4.58806       1.23532      -0.03031
Nuclear contribution   :     -3.74303      -1.46908      -0.23637
                        -----------------------------------------
Total Dipole Moment    :      0.84503      -0.23376      -0.26668
                        -----------------------------------------
Magnitude (a.u.)       :      0.91643
Magnitude (Debye)      :      2.32938

Rotational constants in cm-1:     0.225937     0.074877     0.065953
Rotational constants in MHz :  6773.424301  2244.750632  1977.214101

                             ****ORCA TERMINATED NORMALLY****
TOTAL RUN TIME: 0 days 0 hours 0 minutes 41 seconds 753 msec
