                         Program Version 5.0.0 -  RELEASE  -
|  1> !CAM-B3LYP RIJCOSX def2-TZVPD def2/J TightSCF
|  2> *xyz 0 1
|  3> C          4.08422        1.74208       -2.11472
|  4> C          4.26524        2.50052       -0.79589
|  5> H          4.86853        3.39267       -0.98113
|  6> H          3.30764        2.82457       -0.38781
|  7> C          4.98224        1.65026        0.24742
|  8> O          4.36806        1.38927        1.31371
|  9> F          6.12892        1.23351       -0.04562
| 10> H          3.57911        2.36849       -2.81997
| 11> H          3.50424        0.85965       -1.94198
| 12> H          5.04288        1.46841       -2.50327
| 13> *
| 14> %MaxCore 64000
| 15> %pal nprocs 8
| 16> end
| 17> %scf
| 18>   MaxIter 150
| 19> end
| 20>
| 21>
| 22>                          ****END OF INPUT****

CARTESIAN COORDINATES (ANGSTROEM)
---------------------------------
  C      4.084220    1.742080   -2.114720
  C      4.265240    2.500520   -0.795890
  H      4.868530    3.392670   -0.981130
  H      3.307640    2.824570   -0.387810
  C      4.982240    1.650260    0.247420
  O      4.368060    1.389270    1.313710
  F      6.128920    1.233510   -0.045620
  H      3.579110    2.368490   -2.819970
  H      3.504240    0.859650   -1.941980
  H      5.042880    1.468410   -2.503270

 Total Charge           Charge          ....    0
 Multiplicity           Mult            ....    1
 Number of Electrons    NEL             ....   40
 Basis Dimension        Dim             ....  236

ORBITAL ENERGIES
----------------

  NO   OCC          E(Eh)            E(eV)
   0   2.0000     -24.829885      -675.6555
   1   2.0000     -19.206897      -522.6462
   2   2.0000     -10.427457      -283.7455
   3   2.0000     -10.277176      -279.6562
   4   2.0000     -10.253434      -279.0101
   5   2.0000      -1.405348       -38.2415
   6   2.0000      -1.115332       -30.3497
   7   2.0000      -0.890561       -24.2334
   8   2.0000      -0.768531       -20.9128
   9   2.0000      -0.723362       -19.6837
  10   2.0000      -0.629296       -17.1240
  11   2.0000      -0.617598       -16.8057
  12   2.0000      -0.577602       -15.7173
  13   2.0000      -0.538808       -14.6617
  14   2.0000      -0.507884       -13.8202
  15   2.0000      -0.472830       -12.8664
  16   2.0000      -0.453973       -12.3532
  17   2.0000      -0.445918       -12.1340
  18   2.0000      -0.418094       -11.3769
  19   2.0000      -0.359153        -9.7730
  20   0.0000       0.015379         0.4185
  21   0.0000       0.030842         0.8393
  22   0.0000       0.052107         1.4179
  23   0.0000       0.060623         1.6496
  24   0.0000       0.071989         1.9589

MULLIKEN ATOMIC CHARGES
-----------------------
   0 C :   -1.127636
   1 C :   -0.153744
   2 H :    0.270687
   3 H :    0.235112
   4 C :    0.503757
   5 O :   -0.487425
   6 F :   -0.212081
   7 H :    0.302983
   8 H :    0.350278
   9 H :    0.318069
Sum of atomic charges:    0.0000000

LOEWDIN ATOMIC CHARGES
----------------------
   0 C :   -0.090310
   1 C :   -0.154848
   2 H :    0.118869
   3 H :    0.118358
   4 C :   -0.496390
   5 O :    0.076237
   6 F :    0.210537
   7 H :    0.070391
   8 H :    0.077100
   9 H :    0.070057

  Mayer bond orders larger than 0.100000
B(  0-C ,  1-C ) :   0.5402 B(  0-C ,  7-H ) :   0.9622 B(  0-C ,  8-H ) :   0.9403
B(  0-C ,  9-H ) :   0.9652 B(  1-C ,  2-H ) :   0.9434 B(  1-C ,  3-H ) :   1.0017
B(  1-C ,  4-C ) :   0.8981 B(  4-C ,  5-O ) :   1.7579 B(  4-C ,  6-F ) :   1.0164

FINAL SINGLE POINT ENERGY      -292.403913408455

DIPOLE MOMENT
-------------
                                X             Y             Z
Electronic contribution:      4.83421      -2.27408       5.82293
Nuclear contribution   :     -4.79499       2.78546      -7.01827
                        -----------------------------------------
Total Dipole Moment    :      0.03921       0.51139      -1.19534
                        -----------------------------------------
Magnitude (a.u.)       :      1.30073
Magnitude (Debye)      :      3.30620

Rotational constants in cm-1:     0.286098     0.133492     0.103343
Rotational constants in MHz :  8577.003657  4001.981591  3098.148068

                             ****ORCA TERMINATED NORMALLY****
TOTAL RUN TIME: 0 days 0 hours 0 minutes 20 seconds 520 msec
