                         Program Version 5.0.0 -  RELEASE  -
|  1> !CAM-B3LYP RIJCOSX def2-TZVPD def2/J TightSCF
|  2> *xyz 0 1
|  3> C          3.91385       -1.65829        3.01513
|  4> N          5.03927       -0.90115        2.49282
|  5> C          6.21038       -1.41726        2.17824
|  6> C          6.53591       -2.67712        2.55608
|  7> N          7.07675       -0.70082        1.47891
|  8> H          7.95464       -1.12155        1.20755
|  9> H          6.75616        0.10664        0.96028
| 10> H          4.84217        0.01761        2.11519
| 11> H          5.99388       -3.12692        3.28278
| 12> C          3.13916       -2.37657        1.91061
| 13> H          3.26723       -0.93940        3.52069
| 14> H          4.24720       -2.35509        3.79006
| 15> H          7.49844       -2.97548        2.46878
| 16> H          2.82969       -1.66654        1.17238
| 17> H          2.27790       -2.85264        2.33072
| 18> H          3.76754       -3.11338        1.45548
| 19> *
| 20> %MaxCore 64000
| 21> %pal nprocs 8
| 22> end
| 23> %scf
| 24>   MaxIter 150
| 25> end
| 26>
| 27>
| 28>                          ****END OF INPUT****

CARTESIAN COORDINATES (ANGSTROEM)
---------------------------------
  C      3.913850   -1.658290    3.015130
  N      5.039270   -0.901150    2.492820
  C      6.210380   -1.417260    2.178240
  C      6.535910   -2.677120    2.556080
  N      7.076750   -0.700820    1.478910
  H      7.954640   -1.121550    1.207550
  H      6.756160    0.106640    0.960280
  H      4.842170    0.017610    2.115190
  H      5.993880   -3.126920    3.282780
  C      3.139160   -2.376570    1.910610
  H      3.267230   -0.939400    3.520690
  H      4.247200   -2.355090    3.790060
  H      7.498440   -2.975480    2.468780
  H      2.829690   -1.666540    1.172380
  H      2.277900   -2.852640    2.330720
  H      3.767540   -3.113380    1.455480

 Total Charge           Charge          ....    0
 Multiplicity           Mult            ....    1
 Number of Electrons    NEL             ....   48
 Basis Dimension        Dim             ....  312

ORBITAL ENERGIES
----------------

  NO   OCC          E(Eh)            E(eV)
   0   2.0000     -14.393857      -391.6768
   1   2.0000     -14.391582      -391.6149
   2   2.0000     -10.294877      -280.1379
   3   2.0000     -10.276922      -279.6493
   4   2.0000     -10.223189      -278.1871
   5   2.0000     -10.153945      -276.3029
   6   2.0000      -1.058391       -28.8003
   7   2.0000      -0.972741       -26.4696
   8   2.0000      -0.836175       -22.7535
   9   2.0000      -0.787214       -21.4212
  10   2.0000      -0.720125       -19.5956
  11   2.0000      -0.639447       -17.4002
  12   2.0000      -0.624039       -16.9810
  13   2.0000      -0.592836       -16.1319
  14   2.0000      -0.536851       -14.6084
  15   2.0000      -0.510298       -13.8859
  16   2.0000      -0.488376       -13.2894
  17   2.0000      -0.467261       -12.7148
  18   2.0000      -0.447268       -12.1708
  19   2.0000      -0.434480       -11.8228
  20   2.0000      -0.430912       -11.7257
  21   2.0000      -0.411316       -11.1925
  22   2.0000      -0.317113        -8.6291
  23   2.0000      -0.223201        -6.0736
  24   0.0000       0.026371         0.7176
  25   0.0000       0.047745         1.2992
  26   0.0000       0.057684         1.5696
  27   0.0000       0.060385         1.6432
  28   0.0000       0.085922         2.3381

MULLIKEN ATOMIC CHARGES
-----------------------
   0 C :   -0.430754
   1 N :   -0.235889
   2 C :    0.709946
   3 C :   -1.192402
   4 N :   -0.367120
   5 H :    0.170302
   6 H :    0.162354
   7 H :    0.159873
   8 H :    0.234030
   9 C :   -1.094034
  10 H :    0.305314
  11 H :    0.293886
  12 H :    0.302409
  13 H :    0.295422
  14 H :    0.357663
  15 H :    0.329002
Sum of atomic charges:    0.0000000

LOEWDIN ATOMIC CHARGES
----------------------
   0 C :   -0.239405
   1 N :    0.010007
   2 C :   -0.565090
   3 C :    0.002181
   4 N :    0.114740
   5 H :    0.110541
   6 H :    0.101006
   7 H :    0.139527
   8 H :   -0.004779
   9 C :   -0.084896
  10 H :    0.112184
  11 H :    0.107851
  12 H :    0.003600
  13 H :    0.064475
  14 H :    0.064421
  15 H :    0.063637

  Mayer bond orders larger than 0.100000
B(  0-C ,  1-N ) :   0.7928 B(  0-C ,  9-C ) :   0.6191 B(  0-C , 10-H ) :   0.9139
B(  0-C , 11-H ) :   0.9224 B(  1-N ,  2-C ) :   1.0427 B(  1-N ,  7-H ) :   1.0345
B(  2-C ,  3-C ) :   1.1771 B(  2-C ,  4-N ) :   0.9551 B(  2-C , 12-H ) :  -0.1179
B(  3-C ,  8-H ) :   1.0547 B(  3-C , 12-H ) :   1.0344 B(  4-N ,  5-H ) :   0.9932
B(  4-N ,  6-H ) :   1.0200 B(  9-C , 13-H ) :   0.9764 B(  9-C , 14-H ) :   0.9305
B(  9-C , 15-H ) :   0.9858

FINAL SINGLE POINT ENERGY      -267.871258730925

DIPOLE MOMENT
-------------
                                X             Y             Z
Electronic contribution:      3.04941       2.80171      -0.20430
Nuclear contribution   :     -3.42552      -1.84584      -0.22295
                        -----------------------------------------
Total Dipole Moment    :     -0.37612       0.95587      -0.42725
                        -----------------------------------------
Magnitude (a.u.)       :      1.11252
Magnitude (Debye)      :      2.82780

Rotational constants in cm-1:     0.233526     0.075277     0.067092
Rotational constants in MHz :  7000.931279  2256.752901  2011.361214

                             ****ORCA TERMINATED NORMALLY****
TOTAL RUN TIME: 0 days 0 hours 0 minutes 39 seconds 502 msec
