                         Program Version 5.0.0 -  RELEASE  -
|  1> !CAM-B3LYP RIJCOSX def2-TZVPD def2/J TightSCF
|  2> *xyz 0 1
|  3> C          3.91385       -1.65829        3.01513
|  4> N          5.03927       -0.90115        2.49282
|  5> C          6.21038       -1.41726        2.17824
|  6> N          6.53591       -2.67712        2.55608
|  7> C          7.07675       -0.70082        1.47891
|  8> H          7.95464       -1.12155        1.20755
|  9> H          6.75616        0.10664        0.96028
| 10> H          4.84217        0.01761        2.11519
| 11> H          5.99388       -3.12692        3.28278
| 12> C          3.13916       -2.37657        1.91061
| 13> H          3.26723       -0.93940        3.52069
| 14> H          4.24720       -2.35509        3.79006
| 15> H          7.49844       -2.97548        2.46878
| 16> H          2.82969       -1.66654        1.17238
| 17> H          2.27790       -2.85264        2.33072
| 18> H          3.76754       -3.11338        1.45548
| 19> *
| 20> %MaxCore 64000
| 21> %pal nprocs 8
| 22> end
| 23> %scf
| 24>   MaxIter 150
| 25> end
| 26>
| 27>
| 28>                          ****END OF INPUT****

CARTESIAN COORDINATES (ANGSTROEM)
---------------------------------
  C      3.913850   -1.658290    3.015130
  N      5.039270   -0.901150    2.492820
  C      6.210380   -1.417260    2.178240
  N      6.535910   -2.677120    2.556080
  C      7.076750   -0.700820    1.478910
  H      7.954640   -1.121550    1.207550
  H      6.756160    0.106640    0.960280
  H      4.842170    0.017610    2.115190
  H      5.993880   -3.126920    3.282780
  C      3.139160   -2.376570    1.910610
  H      3.267230   -0.939400    3.520690
  H      4.247200   -2.355090    3.790060
  H      7.498440   -2.975480    2.468780
  H      2.829690   -1.666540    1.172380
  H      2.277900   -2.852640    2.330720
  H      3.767540   -3.113380    1.455480

 Total Charge           Charge          ....    0
 Multiplicity           Mult            ....    1
 Number of Electrons    NEL             ....   48
 Basis Dimension        Dim             ....  312

ORBITAL ENERGIES
----------------

  NO   OCC          E(Eh)            E(eV)
   0   2.0000     -14.389793      -391.5662
   1   2.0000     -14.389270      -391.5520
   2   2.0000     -10.291662      -280.0504
   3   2.0000     -10.285130      -279.8726
   4   2.0000     -10.230895      -278.3968
   5   2.0000     -10.152207      -276.2556
   6   2.0000      -1.053311       -28.6620
   7   2.0000      -0.965177       -26.2638
   8   2.0000      -0.853969       -23.2377
   9   2.0000      -0.783275       -21.3140
  10   2.0000      -0.708303       -19.2739
  11   2.0000      -0.674585       -18.3564
  12   2.0000      -0.608479       -16.5576
  13   2.0000      -0.569343       -15.4926
  14   2.0000      -0.547284       -14.8924
  15   2.0000      -0.509717       -13.8701
  16   2.0000      -0.502517       -13.6742
  17   2.0000      -0.474440       -12.9102
  18   2.0000      -0.448614       -12.2074
  19   2.0000      -0.438391       -11.9292
  20   2.0000      -0.427839       -11.6421
  21   2.0000      -0.423358       -11.5202
  22   2.0000      -0.320966        -8.7339
  23   2.0000      -0.222106        -6.0438
  24   0.0000       0.026483         0.7206
  25   0.0000       0.050324         1.3694
  26   0.0000       0.055001         1.4966
  27   0.0000       0.056926         1.5490
  28   0.0000       0.085867         2.3366

MULLIKEN ATOMIC CHARGES
-----------------------
   0 C :   -0.487376
   1 N :   -0.194718
   2 C :    0.686763
   3 N :   -0.378255
   4 C :   -1.120806
   5 H :    0.254770
   6 H :    0.256453
   7 H :    0.153135
   8 H :    0.145435
   9 C :   -1.058770
  10 H :    0.304823
  11 H :    0.306370
  12 H :    0.166027
  13 H :    0.285882
  14 H :    0.358638
  15 H :    0.321626
Sum of atomic charges:    0.0000000

LOEWDIN ATOMIC CHARGES
----------------------
   0 C :   -0.243313
   1 N :    0.013591
   2 C :   -0.562597
   3 N :    0.121107
   4 C :   -0.007373
   5 H :    0.005203
   6 H :    0.008067
   7 H :    0.147633
   8 H :    0.084286
   9 C :   -0.085722
  10 H :    0.112796
  11 H :    0.103169
  12 H :    0.107242
  13 H :    0.067768
  14 H :    0.063277
  15 H :    0.064865

  Mayer bond orders larger than 0.100000
B(  0-C ,  1-N ) :   0.8342 B(  0-C ,  2-C ) :  -0.1076 B(  0-C ,  9-C ) :   0.6343
B(  0-C , 10-H ) :   0.9518 B(  0-C , 11-H ) :   0.9177 B(  1-N ,  2-C ) :   1.0697
B(  1-N ,  4-C ) :   0.1005 B(  1-N ,  7-H ) :   1.0005 B(  2-C ,  3-N ) :   0.9551
B(  2-C ,  4-C ) :   1.1536 B(  2-C ,  5-H ) :  -0.1359 B(  3-N ,  8-H ) :   1.0131
B(  3-N , 12-H ) :   0.9959 B(  4-C ,  5-H ) :   1.1283 B(  4-C ,  6-H ) :   0.9882
B(  9-C , 13-H ) :   0.9939 B(  9-C , 14-H ) :   0.9502 B(  9-C , 15-H ) :   0.9648

FINAL SINGLE POINT ENERGY      -267.871230898014

DIPOLE MOMENT
-------------
                                X             Y             Z
Electronic contribution:      2.50476       0.91557       0.96320
Nuclear contribution   :     -3.31079      -1.42658      -0.45147
                        -----------------------------------------
Total Dipole Moment    :     -0.80602      -0.51102       0.51173
                        -----------------------------------------
Magnitude (a.u.)       :      1.08290
Magnitude (Debye)      :      2.75252

Rotational constants in cm-1:     0.225507     0.077571     0.068070
Rotational constants in MHz :  6760.542142  2325.533779  2040.680522

                             ****ORCA TERMINATED NORMALLY****
TOTAL RUN TIME: 0 days 0 hours 0 minutes 40 seconds 790 msec
