                         Program Version 5.0.0 -  RELEASE  -
|  1> !CAM-B3LYP RIJCOSX def2-TZVPD def2/J TightSCF xyzfile
|  2>
|  3> *xyzfile 0 1 D1.xyz
|  4>
|  5> %MaxCore 64000
|  6>
|  7> %pal nprocs 4
|  8> end
|  9>
| 10> %scf
| 11>   MaxIter 150
| 12> end
| 13>
| 14>
| 15>                          ****END OF INPUT****

CARTESIAN COORDINATES (ANGSTROEM)
---------------------------------
  C      3.913853   -1.658291    3.015134
  C      5.039266   -0.901154    2.492821
  C      4.084215    1.742081   -2.114724
  C      4.265245    2.500518   -0.795890
  H      4.868534    3.392674   -0.981134
  H      3.307640    2.824571   -0.387809
  C      4.982240    1.650257    0.247422
  C      6.210384   -1.417261    2.178244
  N      6.535913   -2.677122    2.556078
  N      7.076754   -0.700820    1.478906
  H      7.954643   -1.121554    1.207554
  H      6.756161    0.106637    0.960278
  H      4.842168    0.017609    2.115191
  H      5.993876   -3.126918    3.282784
  H      7.498441   -2.975482    2.468776
  F      4.368065    1.389270    1.313706
  O      6.128919    1.233512   -0.045620
  C      3.139159   -2.376572    1.910609
  H      3.267235   -0.939401    3.520693
  H      4.247195   -2.355095    3.790065
  C      1.997274    0.430918   -1.399218
  C      3.412746    0.376886   -1.965497
  H      4.047407   -0.246590   -1.326706
  H      3.390774   -0.118719   -2.942839
  H      5.068475    1.598504   -2.565728
  H      3.503356    2.363939   -2.804565
  C      2.399946   -1.389579    1.009490
  H      2.440750   -3.087118    2.362976
  H      3.844475   -2.970462    1.318677
  C      2.070177   -1.936705   -0.372401
  H      1.481611   -1.061542    1.509912
  H      3.008628   -0.490001    0.897451
  C      1.322238   -0.935775   -1.256413
  H      1.472747   -2.850902   -0.283997
  H      3.003539   -2.234041   -0.862535
  H      1.376444    1.058920   -2.047420
  H      2.015341    0.929780   -0.426535
  H      0.316648   -0.787213   -0.848278
  H      1.185611   -1.379252   -2.248613

 Total Charge           Charge          ....    0
 Multiplicity           Mult            ....    1
 Number of Electrons    NEL             ....  126
 Basis Dimension        Dim             ....  805

ORBITAL ENERGIES
----------------

  NO   OCC          E(Eh)            E(eV)
   0   2.0000     -24.841849      -675.9811
   1   2.0000     -19.228487      -523.2337
   2   2.0000     -14.373526      -391.1235
   3   2.0000     -14.347769      -390.4226
   4   2.0000     -10.448530      -284.3189
   5   2.0000     -10.282712      -279.8068
   6   2.0000     -10.268393      -279.4172
   7   2.0000     -10.261998      -279.2432
   8   2.0000     -10.245840      -278.8035
   9   2.0000     -10.240636      -278.6619
  10   2.0000     -10.234466      -278.4940
  11   2.0000     -10.226658      -278.2815
  12   2.0000     -10.220163      -278.1048
  13   2.0000     -10.211798      -277.8771
  14   2.0000     -10.206646      -277.7370
  15   2.0000     -10.139635      -275.9135
  16   2.0000      -1.421389       -38.6780
  17   2.0000      -1.145805       -31.1789
  18   2.0000      -1.021230       -27.7891
  19   2.0000      -0.928564       -25.2675
  20   2.0000      -0.917125       -24.9562
  21   2.0000      -0.887734       -24.1565
  22   2.0000      -0.858553       -23.3624
  23   2.0000      -0.828745       -22.5513
  24   2.0000      -0.790320       -21.5057
  25   2.0000      -0.768126       -20.9018
  26   2.0000      -0.741196       -20.1690
  27   2.0000      -0.714991       -19.4559
  28   2.0000      -0.682430       -18.5699
  29   2.0000      -0.664752       -18.0888
  30   2.0000      -0.645335       -17.5605
  31   2.0000      -0.636021       -17.3070
  32   2.0000      -0.633973       -17.2513
  33   2.0000      -0.627473       -17.0744
  34   2.0000      -0.600181       -16.3317
  35   2.0000      -0.586780       -15.9671
  36   2.0000      -0.560888       -15.2625
  37   2.0000      -0.552779       -15.0419
  38   2.0000      -0.549174       -14.9438
  39   2.0000      -0.531347       -14.4587
  40   2.0000      -0.517488       -14.0816
  41   2.0000      -0.506983       -13.7957
  42   2.0000      -0.497419       -13.5354
  43   2.0000      -0.487248       -13.2587
  44   2.0000      -0.484058       -13.1719
  45   2.0000      -0.477443       -12.9919
  46   2.0000      -0.460088       -12.5196
  47   2.0000      -0.456773       -12.4294
  48   2.0000      -0.438446       -11.9307
  49   2.0000      -0.432570       -11.7708
  50   2.0000      -0.430706       -11.7201
  51   2.0000      -0.427130       -11.6228
  52   2.0000      -0.415102       -11.2955
  53   2.0000      -0.403706       -10.9854
  54   2.0000      -0.400783       -10.9059
  55   2.0000      -0.388380       -10.5683
  56   2.0000      -0.376316       -10.2401
  57   2.0000      -0.372760       -10.1433
  58   2.0000      -0.368604       -10.0302
  59   2.0000      -0.362862        -9.8740
  60   2.0000      -0.356590        -9.7033
  61   2.0000      -0.309083        -8.4106
  62   2.0000      -0.200975        -5.4688
  63   0.0000      -0.002754        -0.0749
  64   0.0000       0.027875         0.7585
  65   0.0000       0.036883         1.0036
  66   0.0000       0.041236         1.1221
  67   0.0000       0.043846         1.1931

MULLIKEN ATOMIC CHARGES
-----------------------
   0 C :   -0.834950
   1 C :   -0.722750
   2 C :   -0.672185
   3 C :   -0.495931
   4 H :    0.321267
   5 H :    0.323126
   6 C :    0.693800
   7 C :   -0.146224
   8 N :   -0.345242
   9 N :   -0.319733
  10 H :    0.132773
  11 H :    0.239681
  12 H :    0.760284
  13 H :    0.167841
  14 H :    0.132798
  15 F :   -0.242619
  16 O :   -0.658737
  17 C :   -0.558568
  18 H :    0.253980
  19 H :    0.450869
  20 C :   -0.470236
  21 C :   -0.511223
  22 H :    0.283713
  23 H :    0.299483
  24 H :    0.283298
  25 H :    0.315775
  26 C :    0.231906
  27 H :    0.312154
  28 H :    0.336571
  29 C :   -0.577445
  30 H :    0.266591
  31 H :   -0.271111
  32 C :   -0.761147
  33 H :    0.285210
  34 H :    0.324265
  35 H :    0.281994
  36 H :    0.296972
  37 H :    0.294673
  38 H :    0.299075
Sum of atomic charges:   -0.0000000

LOEWDIN ATOMIC CHARGES
----------------------
   0 C :   -0.228433
   1 C :   -0.137848
   2 C :   -0.191829
   3 C :   -0.095003
   4 H :    0.129796
   5 H :    0.115286
   6 C :   -0.430024
   7 C :   -0.521386
   8 N :    0.125760
   9 N :    0.122494
  10 H :    0.098948
  11 H :    0.028734
  12 H :    0.032094
  13 H :    0.090823
  14 H :    0.093130
  15 F :    0.189215
  16 O :    0.090252
  17 C :   -0.203041
  18 H :    0.111423
  19 H :    0.096753
  20 C :   -0.218863
  21 C :   -0.207541
  22 H :    0.109438
  23 H :    0.123871
  24 H :    0.115826
  25 H :    0.118516
  26 C :   -0.218457
  27 H :    0.108310
  28 H :    0.113204
  29 C :   -0.218702
  30 H :    0.125902
  31 H :    0.081518
  32 C :   -0.212605
  33 H :    0.115356
  34 H :    0.110191
  35 H :    0.117258
  36 H :    0.099310
  37 H :    0.110666
  38 H :    0.109658

  Mayer bond orders larger than 0.100000
B(  0-C ,  1-C ) :   0.4056 B(  0-C , 12-H ) :  -0.1602 B(  0-C , 17-C ) :   0.6738
B(  0-C , 18-H ) :   1.0918 B(  0-C , 19-H ) :   0.9463 B(  0-C , 26-C ) :   0.1733
B(  1-C ,  7-C ) :   1.5009 B(  1-C ,  8-N ) :  -0.1268 B(  1-C , 12-H ) :   0.1431
B(  1-C , 17-C ) :  -0.1468 B(  1-C , 19-H ) :  -0.2437 B(  1-C , 26-C ) :   0.1397
B(  1-C , 31-H ) :  -0.1057 B(  2-C ,  3-C ) :   0.7608 B(  2-C , 21-C ) :   0.8702
B(  2-C , 24-H ) :   0.9734 B(  2-C , 25-H ) :   0.9368 B(  3-C ,  4-H ) :   0.8830
B(  3-C ,  5-H ) :   1.0021 B(  3-C ,  6-C ) :   0.8673 B(  3-C , 20-C ) :   0.1110
B(  6-C , 15-F ) :   0.9838 B(  6-C , 16-O ) :   1.5017 B(  7-C ,  8-N ) :   1.0465
B(  7-C ,  9-N ) :   1.1059 B(  7-C , 12-H ) :   0.1189 B(  8-N , 13-H ) :   0.9704
B(  8-N , 14-H ) :   1.0478 B(  9-N , 10-H ) :   1.0253 B(  9-N , 11-H ) :   0.8718
B( 12-H , 15-F ) :  -0.3150 B( 12-H , 16-O ) :   0.1045 B( 17-C , 26-C ) :   0.5910
B( 17-C , 27-H ) :   0.9851 B( 17-C , 28-H ) :   0.8742 B( 17-C , 29-C ) :   0.3255
B( 17-C , 30-H ) :  -0.1015 B( 20-C , 21-C ) :   0.2399 B( 20-C , 22-H ) :  -0.1410
B( 20-C , 32-C ) :   0.8481 B( 20-C , 35-H ) :   0.9528 B( 20-C , 36-H ) :   1.0402
B( 21-C , 22-H ) :   1.0645 B( 21-C , 23-H ) :   0.9242 B( 21-C , 36-H ) :  -0.1400
B( 26-C , 29-C ) :   0.4495 B( 26-C , 30-H ) :   0.8774 B( 26-C , 31-H ) :   1.3380
B( 29-C , 31-H ) :  -0.1775 B( 29-C , 32-C ) :   0.8002 B( 29-C , 33-H ) :   0.9555
B( 29-C , 34-H ) :   0.9681 B( 30-H , 31-H ) :   0.1288 B( 32-C , 37-H ) :   0.9814
B( 32-C , 38-H ) :   0.9772

FINAL SINGLE POINT ENERGY      -755.578716096475

DIPOLE MOMENT
-------------
                                X             Y             Z
Electronic contribution:     11.25913       8.98838       5.89039
Nuclear contribution   :    -11.48003      -8.36271      -6.78621
                        -----------------------------------------
Total Dipole Moment    :     -0.22090       0.62567      -0.89582
                        -----------------------------------------
Magnitude (a.u.)       :      1.11479
Magnitude (Debye)      :      2.83357

Rotational constants in cm-1:     0.020055     0.013548     0.009477
Rotational constants in MHz :   601.234832   406.162779   284.104317

                             ****ORCA TERMINATED NORMALLY****
TOTAL RUN TIME: 0 days 0 hours 18 minutes 3 seconds 554 msec
