                         Program Version 5.0.0 -  RELEASE  -
|  1> !CAM-B3LYP RIJCOSX def2-TZVPD def2/J TightSCF xyzfile
|  2>
|  3> *xyzfile 0 1 D2.xyz
|  4>
|  5> %MaxCore 64000
|  6>
|  7> %pal nprocs 4
|  8> end
|  9>
| 10> %scf
| 11>   MaxIter 150
| 12> end
| 13>
| 14>
| 15>                          ****END OF INPUT****

CARTESIAN COORDINATES (ANGSTROEM)
---------------------------------
  C      3.913853   -1.658291    3.015134
  N      5.039266   -0.901154    2.492821
  C      4.084215    1.742081   -2.114724
  C      4.265245    2.500518   -0.795890
  H      4.868534    3.392674   -0.981134
  H      3.307640    2.824571   -0.387809
  C      4.982240    1.650257    0.247422
  C      6.210384   -1.417261    2.178244
  C      6.535913   -2.677122    2.556078
  N      7.076754   -0.700820    1.478906
  H      7.954643   -1.121554    1.207554
  H      6.756161    0.106637    0.960278
  H      4.842168    0.017609    2.115191
  H      5.993876   -3.126918    3.282784
  H      7.498441   -2.975482    2.468776
  F      4.368065    1.389270    1.313706
  O      6.128919    1.233512   -0.045620
  C      3.139159   -2.376572    1.910609
  H      3.267235   -0.939401    3.520693
  H      4.247195   -2.355095    3.790065
  C      1.997274    0.430918   -1.399218
  C      3.412746    0.376886   -1.965497
  H      4.047407   -0.246590   -1.326706
  H      3.390774   -0.118719   -2.942839
  H      5.068475    1.598504   -2.565728
  H      3.503356    2.363939   -2.804565
  C      2.399946   -1.389579    1.009490
  H      2.440750   -3.087118    2.362976
  H      3.844475   -2.970462    1.318677
  C      2.070177   -1.936705   -0.372401
  H      1.481611   -1.061542    1.509912
  H      3.008628   -0.490001    0.897451
  C      1.322238   -0.935775   -1.256413
  H      1.472747   -2.850902   -0.283997
  H      3.003539   -2.234041   -0.862535
  H      1.376444    1.058920   -2.047420
  H      2.015341    0.929780   -0.426535
  H      0.316648   -0.787213   -0.848278
  H      1.185611   -1.379252   -2.248613

 Total Charge           Charge          ....    0
 Multiplicity           Mult            ....    1
 Number of Electrons    NEL             ....  126
 Basis Dimension        Dim             ....  805

ORBITAL ENERGIES
----------------

  NO   OCC          E(Eh)            E(eV)
   0   2.0000     -24.869699      -676.7389
   1   2.0000     -19.243785      -523.6500
   2   2.0000     -14.369900      -391.0248
   3   2.0000     -14.348579      -390.4447
   4   2.0000     -10.464138      -284.7437
   5   2.0000     -10.294673      -280.1323
   6   2.0000     -10.271528      -279.5025
   7   2.0000     -10.271495      -279.5016
   8   2.0000     -10.263739      -279.2905
   9   2.0000     -10.255281      -279.0604
  10   2.0000     -10.250261      -278.9238
  11   2.0000     -10.243716      -278.7457
  12   2.0000     -10.237459      -278.5754
  13   2.0000     -10.235936      -278.5340
  14   2.0000     -10.227342      -278.3001
  15   2.0000     -10.132851      -275.7289
  16   2.0000      -1.447664       -39.3929
  17   2.0000      -1.160990       -31.5921
  18   2.0000      -1.035064       -28.1655
  19   2.0000      -0.947565       -25.7845
  20   2.0000      -0.928137       -25.2559
  21   2.0000      -0.896376       -24.3916
  22   2.0000      -0.860856       -23.4251
  23   2.0000      -0.826460       -22.4891
  24   2.0000      -0.796507       -21.6740
  25   2.0000      -0.773691       -21.0532
  26   2.0000      -0.759781       -20.6747
  27   2.0000      -0.735073       -20.0024
  28   2.0000      -0.698912       -19.0184
  29   2.0000      -0.677292       -18.4301
  30   2.0000      -0.667225       -18.1561
  31   2.0000      -0.657180       -17.8828
  32   2.0000      -0.644703       -17.5433
  33   2.0000      -0.626988       -17.0612
  34   2.0000      -0.608824       -16.5669
  35   2.0000      -0.585656       -15.9365
  36   2.0000      -0.570309       -15.5189
  37   2.0000      -0.560816       -15.2606
  38   2.0000      -0.559985       -15.2380
  39   2.0000      -0.540931       -14.7195
  40   2.0000      -0.525328       -14.2949
  41   2.0000      -0.517878       -14.0922
  42   2.0000      -0.504919       -13.7395
  43   2.0000      -0.498448       -13.5635
  44   2.0000      -0.488534       -13.2937
  45   2.0000      -0.478412       -13.0183
  46   2.0000      -0.471927       -12.8418
  47   2.0000      -0.460623       -12.5342
  48   2.0000      -0.449459       -12.2304
  49   2.0000      -0.444680       -12.1004
  50   2.0000      -0.437735       -11.9114
  51   2.0000      -0.430021       -11.7015
  52   2.0000      -0.426274       -11.5995
  53   2.0000      -0.417831       -11.3698
  54   2.0000      -0.410503       -11.1704
  55   2.0000      -0.404333       -11.0025
  56   2.0000      -0.394591       -10.7374
  57   2.0000      -0.383122       -10.4253
  58   2.0000      -0.382971       -10.4212
  59   2.0000      -0.381149       -10.3716
  60   2.0000      -0.375232       -10.2106
  61   2.0000      -0.291589        -7.9345
  62   2.0000      -0.202069        -5.4986
  63   0.0000      -0.017673        -0.4809
  64   0.0000       0.018656         0.5076
  65   0.0000       0.033441         0.9100
  66   0.0000       0.035502         0.9661
  67   0.0000       0.042039         1.1439

MULLIKEN ATOMIC CHARGES
-----------------------
   0 C :   -1.024531
   1 N :   -0.320285
   2 C :   -0.682587
   3 C :   -0.502569
   4 H :    0.325066
   5 H :    0.328198
   6 C :    0.664835
   7 C :    0.684113
   8 C :   -1.270052
   9 N :   -0.364378
  10 H :    0.148061
  11 H :    0.277935
  12 H :    0.425062
  13 H :    0.247175
  14 H :    0.330252
  15 F :   -0.365313
  16 O :   -0.653181
  17 C :   -0.530226
  18 H :    0.326494
  19 H :    0.356825
  20 C :   -0.460649
  21 C :   -0.502047
  22 H :    0.271475
  23 H :    0.307459
  24 H :    0.287382
  25 H :    0.317482
  26 C :    0.205392
  27 H :    0.353223
  28 H :    0.365173
  29 C :   -0.580752
  30 H :    0.294096
  31 H :   -0.292090
  32 C :   -0.763516
  33 H :    0.302323
  34 H :    0.310145
  35 H :    0.290402
  36 H :    0.288708
  37 H :    0.305373
  38 H :    0.299529
Sum of atomic charges:    0.0000000

LOEWDIN ATOMIC CHARGES
----------------------
   0 C :   -0.186607
   1 N :    0.032357
   2 C :   -0.189715
   3 C :   -0.094222
   4 H :    0.131439
   5 H :    0.115702
   6 C :   -0.430885
   7 C :   -0.550301
   8 C :   -0.003810
   9 N :    0.129483
  10 H :    0.112071
  11 H :    0.023185
  12 H :    0.087106
  13 H :   -0.010624
  14 H :   -0.000144
  15 F :    0.194171
  16 O :    0.095086
  17 C :   -0.183552
  18 H :    0.120011
  19 H :    0.110220
  20 C :   -0.218870
  21 C :   -0.206788
  22 H :    0.109101
  23 H :    0.125361
  24 H :    0.117228
  25 H :    0.119935
  26 C :   -0.221088
  27 H :    0.115281
  28 H :    0.113736
  29 C :   -0.216459
  30 H :    0.125366
  31 H :    0.078082
  32 C :   -0.210922
  33 H :    0.117425
  34 H :    0.112438
  35 H :    0.118308
  36 H :    0.098228
  37 H :    0.111428
  38 H :    0.111242

  Mayer bond orders larger than 0.100000
B(  0-C ,  1-N ) :   0.9587 B(  0-C , 17-C ) :   0.6896 B(  0-C , 18-H ) :   0.8521
B(  0-C , 19-H ) :   0.8858 B(  0-C , 26-C ) :   0.1243 B(  1-N ,  7-C ) :   1.0317
B(  1-N ,  8-C ) :   0.1008 B(  1-N , 12-H ) :   0.6707 B(  2-C ,  3-C ) :   0.7625
B(  2-C , 21-C ) :   0.8781 B(  2-C , 24-H ) :   0.9682 B(  2-C , 25-H ) :   0.9354
B(  3-C ,  4-H ) :   0.8892 B(  3-C ,  5-H ) :   0.9935 B(  3-C ,  6-C ) :   0.8694
B(  3-C , 20-C ) :   0.1083 B(  6-C , 15-F ) :   0.9028 B(  6-C , 16-O ) :   1.5297
B(  7-C ,  8-C ) :   1.0264 B(  7-C ,  9-N ) :   0.9343 B(  7-C , 11-H ) :  -0.1025
B(  7-C , 14-H ) :  -0.1059 B(  8-C , 13-H ) :   1.1021 B(  8-C , 14-H ) :   1.0266
B(  9-N , 10-H ) :   1.0035 B(  9-N , 11-H ) :   0.8477 B( 17-C , 26-C ) :   0.5682
B( 17-C , 27-H ) :   0.9658 B( 17-C , 28-H ) :   0.8539 B( 17-C , 29-C ) :   0.3212
B( 17-C , 31-H ) :  -0.1016 B( 20-C , 21-C ) :   0.2228 B( 20-C , 22-H ) :  -0.1510
B( 20-C , 32-C ) :   0.8646 B( 20-C , 35-H ) :   0.9510 B( 20-C , 36-H ) :   1.0415
B( 21-C , 22-H ) :   1.0790 B( 21-C , 23-H ) :   0.9204 B( 21-C , 36-H ) :  -0.1468
B( 26-C , 29-C ) :   0.4579 B( 26-C , 30-H ) :   0.8688 B( 26-C , 31-H ) :   1.4057
B( 26-C , 34-H ) :  -0.1005 B( 29-C , 31-H ) :  -0.1707 B( 29-C , 32-C ) :   0.8208
B( 29-C , 33-H ) :   0.9306 B( 29-C , 34-H ) :   0.9901 B( 30-H , 31-H ) :   0.1236
B( 32-C , 37-H ) :   0.9682 B( 32-C , 38-H ) :   0.9760

FINAL SINGLE POINT ENERGY      -755.575693268177

DIPOLE MOMENT
-------------
                                X             Y             Z
Electronic contribution:      9.71616      10.57039       5.50591
Nuclear contribution   :    -11.22009      -8.67117      -6.77523
                        -----------------------------------------
Total Dipole Moment    :     -1.50393       1.89922      -1.26931
                        -----------------------------------------
Magnitude (a.u.)       :      2.73496
Magnitude (Debye)      :      6.95171

Rotational constants in cm-1:     0.020086     0.013778     0.009581
Rotational constants in MHz :   602.172053   413.051122   287.243919

                             ****ORCA TERMINATED NORMALLY****
TOTAL RUN TIME: 0 days 0 hours 16 minutes 0 seconds 865 msec
