                         Program Version 5.0.0 -  RELEASE  -
|  1> !CAM-B3LYP RIJCOSX def2-TZVPD def2/J TightSCF xyzfile
|  2>
|  3> *xyzfile 0 1 D3.xyz
|  4>
|  5> %MaxCore 64000
|  6>
|  7> %pal nprocs 4
|  8> end
|  9>
| 10> %scf
| 11>   MaxIter 150
| 12> end
| 13>
| 14>
| 15>                          ****END OF INPUT****

CARTESIAN COORDINATES (ANGSTROEM)
---------------------------------
  C      3.913853   -1.658291    3.015134
  N      5.039266   -0.901154    2.492821
  C      4.084215    1.742081   -2.114724
  C      4.265245    2.500518   -0.795890
  H      4.868534    3.392674   -0.981134
  H      3.307640    2.824571   -0.387809
  C      4.982240    1.650257    0.247422
  C      6.210384   -1.417261    2.178244
  N      6.535913   -2.677122    2.556078
  C      7.076754   -0.700820    1.478906
  H      7.954643   -1.121554    1.207554
  H      6.756161    0.106637    0.960278
  H      4.842168    0.017609    2.115191
  H      5.993876   -3.126918    3.282784
  H      7.498441   -2.975482    2.468776
  F      4.368065    1.389270    1.313706
  O      6.128919    1.233512   -0.045620
  C      3.139159   -2.376572    1.910609
  H      3.267235   -0.939401    3.520693
  H      4.247195   -2.355095    3.790065
  C      1.997274    0.430918   -1.399218
  C      3.412746    0.376886   -1.965497
  H      4.047407   -0.246590   -1.326706
  H      3.390774   -0.118719   -2.942839
  H      5.068475    1.598504   -2.565728
  H      3.503356    2.363939   -2.804565
  C      2.399946   -1.389579    1.009490
  H      2.440750   -3.087118    2.362976
  H      3.844475   -2.970462    1.318677
  C      2.070177   -1.936705   -0.372401
  H      1.481611   -1.061542    1.509912
  H      3.008628   -0.490001    0.897451
  C      1.322238   -0.935775   -1.256413
  H      1.472747   -2.850902   -0.283997
  H      3.003539   -2.234041   -0.862535
  H      1.376444    1.058920   -2.047420
  H      2.015341    0.929780   -0.426535
  H      0.316648   -0.787213   -0.848278
  H      1.185611   -1.379252   -2.248613

 Total Charge           Charge          ....    0
 Multiplicity           Mult            ....    1
 Number of Electrons    NEL             ....  126
 Basis Dimension        Dim             ....  805

ORBITAL ENERGIES
----------------

  NO   OCC          E(Eh)            E(eV)
   0   2.0000     -24.851504      -676.2438
   1   2.0000     -19.214394      -522.8502
   2   2.0000     -14.370148      -391.0316
   3   2.0000     -14.365796      -390.9132
   4   2.0000     -10.439821      -284.0820
   5   2.0000     -10.280241      -279.7396
   6   2.0000     -10.271392      -279.4988
   7   2.0000     -10.267258      -279.3863
   8   2.0000     -10.260430      -279.2005
   9   2.0000     -10.247074      -278.8371
  10   2.0000     -10.244909      -278.7781
  11   2.0000     -10.241315      -278.6803
  12   2.0000     -10.237573      -278.5785
  13   2.0000     -10.237287      -278.5708
  14   2.0000     -10.233837      -278.4769
  15   2.0000     -10.115759      -275.2638
  16   2.0000      -1.429582       -38.9009
  17   2.0000      -1.133154       -30.8347
  18   2.0000      -1.034233       -28.1429
  19   2.0000      -0.948377       -25.8067
  20   2.0000      -0.918515       -24.9941
  21   2.0000      -0.892109       -24.2755
  22   2.0000      -0.861793       -23.4506
  23   2.0000      -0.823478       -22.4080
  24   2.0000      -0.796873       -21.6840
  25   2.0000      -0.770988       -20.9796
  26   2.0000      -0.746772       -20.3207
  27   2.0000      -0.723720       -19.6934
  28   2.0000      -0.688042       -18.7226
  29   2.0000      -0.677344       -18.4315
  30   2.0000      -0.658740       -17.9252
  31   2.0000      -0.648429       -17.6446
  32   2.0000      -0.638950       -17.3867
  33   2.0000      -0.622869       -16.9491
  34   2.0000      -0.605058       -16.4645
  35   2.0000      -0.581431       -15.8215
  36   2.0000      -0.562544       -15.3076
  37   2.0000      -0.555033       -15.1032
  38   2.0000      -0.544574       -14.8186
  39   2.0000      -0.533198       -14.5091
  40   2.0000      -0.527579       -14.3562
  41   2.0000      -0.512482       -13.9454
  42   2.0000      -0.502247       -13.6668
  43   2.0000      -0.498166       -13.5558
  44   2.0000      -0.487097       -13.2546
  45   2.0000      -0.470392       -12.8000
  46   2.0000      -0.465255       -12.6602
  47   2.0000      -0.456869       -12.4320
  48   2.0000      -0.445520       -12.1232
  49   2.0000      -0.437550       -11.9063
  50   2.0000      -0.432757       -11.7759
  51   2.0000      -0.431406       -11.7392
  52   2.0000      -0.421855       -11.4793
  53   2.0000      -0.415492       -11.3061
  54   2.0000      -0.408796       -11.1239
  55   2.0000      -0.401692       -10.9306
  56   2.0000      -0.394405       -10.7323
  57   2.0000      -0.382308       -10.4031
  58   2.0000      -0.380303       -10.3486
  59   2.0000      -0.376553       -10.2465
  60   2.0000      -0.337283        -9.1779
  61   2.0000      -0.303342        -8.2544
  62   2.0000      -0.197963        -5.3868
  63   0.0000       0.002637         0.0718
  64   0.0000       0.026355         0.7172
  65   0.0000       0.036995         1.0067
  66   0.0000       0.037774         1.0279
  67   0.0000       0.041532         1.1302

MULLIKEN ATOMIC CHARGES
-----------------------
   0 C :   -1.071352
   1 N :   -0.212205
   2 C :   -0.673672
   3 C :   -0.522961
   4 H :    0.322468
   5 H :    0.322003
   6 C :    0.640377
   7 C :    0.769901
   8 N :   -0.379524
   9 C :   -1.466138
  10 H :    0.182952
  11 H :    0.510484
  12 H :    0.367046
  13 H :    0.135138
  14 H :    0.184894
  15 F :   -0.364680
  16 O :   -0.557519
  17 C :   -0.448516
  18 H :    0.323219
  19 H :    0.361222
  20 C :   -0.461705
  21 C :   -0.543521
  22 H :    0.316501
  23 H :    0.299962
  24 H :    0.284310
  25 H :    0.314942
  26 C :    0.230929
  27 H :    0.366731
  28 H :    0.341163
  29 C :   -0.605200
  30 H :    0.310644
  31 H :   -0.329331
  32 C :   -0.751788
  33 H :    0.292820
  34 H :    0.332185
  35 H :    0.286677
  36 H :    0.288035
  37 H :    0.303861
  38 H :    0.299649
Sum of atomic charges:    0.0000000

LOEWDIN ATOMIC CHARGES
----------------------
   0 C :   -0.191119
   1 N :    0.031549
   2 C :   -0.190967
   3 C :   -0.098013
   4 H :    0.129540
   5 H :    0.112913
   6 C :   -0.437284
   7 C :   -0.542260
   8 N :    0.116165
   9 C :    0.011243
  10 H :    0.013420
  11 H :   -0.047180
  12 H :    0.092178
  13 H :    0.080079
  14 H :    0.104224
  15 F :    0.189392
  16 O :    0.089412
  17 C :   -0.188320
  18 H :    0.120563
  19 H :    0.105669
  20 C :   -0.219029
  21 C :   -0.206887
  22 H :    0.109976
  23 H :    0.124269
  24 H :    0.117205
  25 H :    0.118194
  26 C :   -0.218994
  27 H :    0.112991
  28 H :    0.115316
  29 C :   -0.217160
  30 H :    0.126216
  31 H :    0.080764
  32 C :   -0.211256
  33 H :    0.116373
  34 H :    0.112426
  35 H :    0.117998
  36 H :    0.098400
  37 H :    0.110908
  38 H :    0.111084

  Mayer bond orders larger than 0.100000
B(  0-C ,  1-N ) :   0.9625 B(  0-C ,  7-C ) :  -0.1683 B(  0-C , 17-C ) :   0.6029
B(  0-C , 18-H ) :   0.8919 B(  0-C , 19-H ) :   0.9028 B(  0-C , 26-C ) :   0.1019
B(  0-C , 27-H ) :  -0.1205 B(  1-N ,  7-C ) :   1.1210 B(  1-N , 12-H ) :   0.7266
B(  2-C ,  3-C ) :   0.7736 B(  2-C , 21-C ) :   0.8999 B(  2-C , 24-H ) :   0.9644
B(  2-C , 25-H ) :   0.9343 B(  3-C ,  4-H ) :   0.8900 B(  3-C ,  5-H ) :   0.9969
B(  3-C ,  6-C ) :   0.8667 B(  3-C , 20-C ) :   0.1066 B(  6-C , 15-F ) :   0.8828
B(  6-C , 16-O ) :   1.6062 B(  7-C ,  8-N ) :   0.9364 B(  7-C ,  9-C ) :   0.9538
B(  7-C , 10-H ) :  -0.2542 B(  8-N , 13-H ) :   1.0390 B(  8-N , 14-H ) :   0.9791
B(  9-C , 10-H ) :   1.3516 B(  9-C , 11-H ) :   0.9063 B(  9-C , 16-O ) :   0.1608
B( 11-H , 16-O ) :  -0.3275 B( 12-H , 15-F ) :  -0.1060 B( 17-C , 26-C ) :   0.5910
B( 17-C , 27-H ) :   0.9825 B( 17-C , 28-H ) :   0.8474 B( 17-C , 29-C ) :   0.3261
B( 20-C , 21-C ) :   0.2074 B( 20-C , 22-H ) :  -0.1470 B( 20-C , 32-C ) :   0.8507
B( 20-C , 35-H ) :   0.9545 B( 20-C , 36-H ) :   1.0433 B( 21-C , 22-H ) :   1.0420
B( 21-C , 23-H ) :   0.9304 B( 21-C , 36-H ) :  -0.1440 B( 26-C , 29-C ) :   0.4489
B( 26-C , 30-H ) :   0.8792 B( 26-C , 31-H ) :   1.3901 B( 29-C , 31-H ) :  -0.1784
B( 29-C , 32-C ) :   0.8119 B( 29-C , 33-H ) :   0.9462 B( 29-C , 34-H ) :   0.9742
B( 30-H , 31-H ) :   0.1069 B( 32-C , 37-H ) :   0.9707 B( 32-C , 38-H ) :   0.9755

FINAL SINGLE POINT ENERGY      -755.555372762914

DIPOLE MOMENT
-------------
                                X             Y             Z
Electronic contribution:      9.42851       8.69514       6.67756
Nuclear contribution   :    -11.12616      -8.32792      -6.96231
                        -----------------------------------------
Total Dipole Moment    :     -1.69764       0.36722      -0.28475
                        -----------------------------------------
Magnitude (a.u.)       :      1.76009
Magnitude (Debye)      :      4.47380

Rotational constants in cm-1:     0.020226     0.013574     0.009520
Rotational constants in MHz :   606.360011   406.923773   285.390769

                             ****ORCA TERMINATED NORMALLY****
TOTAL RUN TIME: 0 days 0 hours 16 minutes 0 seconds 961 msec
