                         Program Version 5.0.0 -  RELEASE  -
|  1> !CAM-B3LYP RIJCOSX def2-TZVPD def2/J TightSCF xyzfile
|  2>
|  3> *xyzfile 0 1 D4.xyz
|  4>
|  5> %MaxCore 64000
|  6>
|  7> %pal nprocs 4
|  8> end
|  9>
| 10> %scf
| 11>   MaxIter 150
| 12> end
| 13>
| 14>
| 15>                          ****END OF INPUT****

CARTESIAN COORDINATES (ANGSTROEM)
---------------------------------
  C      3.913853   -1.658291    3.015134
  C      5.039266   -0.901154    2.492821
  C      4.084215    1.742081   -2.114724
  C      4.265245    2.500518   -0.795890
  H      4.868534    3.392674   -0.981134
  H      3.307640    2.824571   -0.387809
  C      4.982240    1.650257    0.247422
  C      6.210384   -1.417261    2.178244
  N      6.535913   -2.677122    2.556078
  N      7.076754   -0.700820    1.478906
  H      7.954643   -1.121554    1.207554
  H      6.756161    0.106637    0.960278
  H      4.842168    0.017609    2.115191
  H      5.993876   -3.126918    3.282784
  H      7.498441   -2.975482    2.468776
  O      4.368065    1.389270    1.313706
  F      6.128919    1.233512   -0.045620
  C      3.139159   -2.376572    1.910609
  H      3.267235   -0.939401    3.520693
  H      4.247195   -2.355095    3.790065
  C      1.997274    0.430918   -1.399218
  C      3.412746    0.376886   -1.965497
  H      4.047407   -0.246590   -1.326706
  H      3.390774   -0.118719   -2.942839
  H      5.068475    1.598504   -2.565728
  H      3.503356    2.363939   -2.804565
  C      2.399946   -1.389579    1.009490
  H      2.440750   -3.087118    2.362976
  H      3.844475   -2.970462    1.318677
  C      2.070177   -1.936705   -0.372401
  H      1.481611   -1.061542    1.509912
  H      3.008628   -0.490001    0.897451
  C      1.322238   -0.935775   -1.256413
  H      1.472747   -2.850902   -0.283997
  H      3.003539   -2.234041   -0.862535
  H      1.376444    1.058920   -2.047420
  H      2.015341    0.929780   -0.426535
  H      0.316648   -0.787213   -0.848278
  H      1.185611   -1.379252   -2.248613

 Total Charge           Charge          ....    0
 Multiplicity           Mult            ....    1
 Number of Electrons    NEL             ....  126
 Basis Dimension        Dim             ....  805

ORBITAL ENERGIES
----------------

  NO   OCC          E(Eh)            E(eV)
   0   2.0000     -24.855658      -676.3568
   1   2.0000     -19.218661      -522.9664
   2   2.0000     -14.372616      -391.0988
   3   2.0000     -14.363937      -390.8626
   4   2.0000     -10.442982      -284.1680
   5   2.0000     -10.281239      -279.7667
   6   2.0000     -10.265679      -279.3433
   7   2.0000     -10.264511      -279.3115
   8   2.0000     -10.247307      -278.8434
   9   2.0000     -10.236730      -278.5556
  10   2.0000     -10.230783      -278.3938
  11   2.0000     -10.221975      -278.1541
  12   2.0000     -10.210879      -277.8521
  13   2.0000     -10.206520      -277.7335
  14   2.0000     -10.200039      -277.5572
  15   2.0000     -10.130108      -275.6542
  16   2.0000      -1.434776       -39.0422
  17   2.0000      -1.135028       -30.8857
  18   2.0000      -1.025337       -27.9008
  19   2.0000      -0.934917       -25.4404
  20   2.0000      -0.918231       -24.9863
  21   2.0000      -0.883943       -24.0533
  22   2.0000      -0.854432       -23.2503
  23   2.0000      -0.824746       -22.4425
  24   2.0000      -0.791008       -21.5244
  25   2.0000      -0.765997       -20.8438
  26   2.0000      -0.747961       -20.3530
  27   2.0000      -0.711783       -19.3686
  28   2.0000      -0.682670       -18.5764
  29   2.0000      -0.667428       -18.1616
  30   2.0000      -0.653154       -17.7732
  31   2.0000      -0.647884       -17.6298
  32   2.0000      -0.626975       -17.0608
  33   2.0000      -0.616580       -16.7780
  34   2.0000      -0.604824       -16.4581
  35   2.0000      -0.583549       -15.8792
  36   2.0000      -0.558102       -15.1867
  37   2.0000      -0.553342       -15.0572
  38   2.0000      -0.549843       -14.9620
  39   2.0000      -0.528694       -14.3865
  40   2.0000      -0.519369       -14.1328
  41   2.0000      -0.506595       -13.7852
  42   2.0000      -0.496934       -13.5223
  43   2.0000      -0.481549       -13.1036
  44   2.0000      -0.477059       -12.9814
  45   2.0000      -0.470270       -12.7967
  46   2.0000      -0.461627       -12.5615
  47   2.0000      -0.453204       -12.3323
  48   2.0000      -0.446034       -12.1372
  49   2.0000      -0.440190       -11.9782
  50   2.0000      -0.430073       -11.7029
  51   2.0000      -0.427111       -11.6223
  52   2.0000      -0.407631       -11.0922
  53   2.0000      -0.398846       -10.8532
  54   2.0000      -0.397204       -10.8085
  55   2.0000      -0.391903       -10.6642
  56   2.0000      -0.372465       -10.1353
  57   2.0000      -0.366322        -9.9681
  58   2.0000      -0.361303        -9.8316
  59   2.0000      -0.356539        -9.7019
  60   2.0000      -0.329086        -8.9549
  61   2.0000      -0.315262        -8.5787
  62   2.0000      -0.198201        -5.3933
  63   0.0000       0.002556         0.0696
  64   0.0000       0.023940         0.6514
  65   0.0000       0.036154         0.9838
  66   0.0000       0.041814         1.1378
  67   0.0000       0.044089         1.1997

MULLIKEN ATOMIC CHARGES
-----------------------
   0 C :   -0.874451
   1 C :   -0.732787
   2 C :   -0.723343
   3 C :   -0.439602
   4 H :    0.341872
   5 H :    0.295591
   6 C :    0.612402
   7 C :   -0.186555
   8 N :   -0.350197
   9 N :   -0.338990
  10 H :    0.135872
  11 H :    0.276878
  12 H :    0.874949
  13 H :    0.171217
  14 H :    0.125406
  15 O :   -0.528918
  16 F :   -0.385668
  17 C :   -0.590679
  18 H :    0.242527
  19 H :    0.456885
  20 C :   -0.523461
  21 C :   -0.386818
  22 H :    0.232640
  23 H :    0.291032
  24 H :    0.293083
  25 H :    0.321499
  26 C :    0.244617
  27 H :    0.306828
  28 H :    0.327527
  29 C :   -0.567563
  30 H :    0.255632
  31 H :   -0.209167
  32 C :   -0.752888
  33 H :    0.280034
  34 H :    0.317723
  35 H :    0.286727
  36 H :    0.310844
  37 H :    0.293248
  38 H :    0.296055
Sum of atomic charges:   -0.0000000

LOEWDIN ATOMIC CHARGES
----------------------
   0 C :   -0.223101
   1 C :   -0.134864
   2 C :   -0.197361
   3 C :   -0.093224
   4 H :    0.125901
   5 H :    0.122651
   6 C :   -0.438163
   7 C :   -0.524495
   8 N :    0.122899
   9 N :    0.122073
  10 H :    0.098780
  11 H :    0.057632
  12 H :    0.010897
  13 H :    0.091060
  14 H :    0.090690
  15 O :    0.080027
  16 F :    0.202629
  17 C :   -0.202598
  18 H :    0.113755
  19 H :    0.095708
  20 C :   -0.215572
  21 C :   -0.208409
  22 H :    0.108758
  23 H :    0.122905
  24 H :    0.112121
  25 H :    0.118236
  26 C :   -0.216142
  27 H :    0.107505
  28 H :    0.111786
  29 C :   -0.220090
  30 H :    0.126668
  31 H :    0.081569
  32 C :   -0.212736
  33 H :    0.114395
  34 H :    0.108477
  35 H :    0.117131
  36 H :    0.103031
  37 H :    0.110884
  38 H :    0.108582

  Mayer bond orders larger than 0.100000
B(  0-C ,  1-C ) :   0.5428 B(  0-C , 12-H ) :  -0.1560 B(  0-C , 17-C ) :   0.6855
B(  0-C , 18-H ) :   1.0857 B(  0-C , 19-H ) :   0.9446 B(  0-C , 26-C ) :   0.1530
B(  1-C ,  7-C ) :   1.5259 B(  1-C ,  8-N ) :  -0.1321 B(  1-C ,  9-N ) :  -0.1063
B(  1-C , 12-H ) :   0.1952 B(  1-C , 15-O ) :   0.1555 B(  1-C , 17-C ) :  -0.1220
B(  1-C , 19-H ) :  -0.2571 B(  1-C , 31-H ) :  -0.1031 B(  2-C ,  3-C ) :   0.7118
B(  2-C , 20-C ) :   0.1093 B(  2-C , 21-C ) :   0.7965 B(  2-C , 24-H ) :   0.9901
B(  2-C , 25-H ) :   0.9218 B(  3-C ,  4-H ) :   0.8947 B(  3-C ,  5-H ) :   1.0126
B(  3-C ,  6-C ) :   0.8458 B(  3-C , 20-C ) :   0.1098 B(  3-C , 21-C ) :  -0.1536
B(  6-C , 15-O ) :   1.8125 B(  6-C , 16-F ) :   0.7039 B(  7-C ,  8-N ) :   1.0329
B(  7-C ,  9-N ) :   1.1327 B(  8-N , 13-H ) :   0.9681 B(  8-N , 14-H ) :   1.0578
B(  9-N , 10-H ) :   1.0325 B(  9-N , 11-H ) :   0.8522 B( 12-H , 15-O ) :  -0.5112
B( 15-O , 16-F ) :   0.1278 B( 17-C , 26-C ) :   0.6024 B( 17-C , 27-H ) :   0.9872
B( 17-C , 28-H ) :   0.8790 B( 17-C , 29-C ) :   0.3223 B( 17-C , 30-H ) :  -0.1006
B( 20-C , 21-C ) :   0.3207 B( 20-C , 22-H ) :  -0.1140 B( 20-C , 32-C ) :   0.8404
B( 20-C , 35-H ) :   0.9494 B( 20-C , 36-H ) :   1.0130 B( 21-C , 22-H ) :   1.0381
B( 21-C , 23-H ) :   0.9538 B( 21-C , 36-H ) :  -0.1230 B( 26-C , 29-C ) :   0.4433
B( 26-C , 30-H ) :   0.8836 B( 26-C , 31-H ) :   1.3567 B( 29-C , 31-H ) :  -0.2051
B( 29-C , 32-C ) :   0.8004 B( 29-C , 33-H ) :   0.9581 B( 29-C , 34-H ) :   0.9732
B( 30-H , 31-H ) :   0.1492 B( 32-C , 37-H ) :   0.9790 B( 32-C , 38-H ) :   0.9798

FINAL SINGLE POINT ENERGY      -755.565955891525

DIPOLE MOMENT
-------------
                                X             Y             Z
Electronic contribution:     14.24299       8.79745       3.66424
Nuclear contribution   :    -13.61164      -8.17416      -5.14068
                        -----------------------------------------
Total Dipole Moment    :      0.63135       0.62329      -1.47643
                        -----------------------------------------
Magnitude (a.u.)       :      1.72248
Magnitude (Debye)      :      4.37820

Rotational constants in cm-1:     0.019858     0.013613     0.009401
Rotational constants in MHz :   595.331791   408.100423   281.843625

                             ****ORCA TERMINATED NORMALLY****
TOTAL RUN TIME: 0 days 0 hours 17 minutes 10 seconds 249 msec
