                         Program Version 5.0.0 -  RELEASE  -
|  1> !CAM-B3LYP RIJCOSX def2-TZVPD def2/J TightSCF xyzfile
|  2>
|  3> *xyzfile 0 1 D5.xyz
|  4>
|  5> %MaxCore 64000
|  6>
|  7> %pal nprocs 4
|  8> end
|  9>
| 10> %scf
| 11>   MaxIter 150
| 12> end
| 13>
| 14>
| 15>                          ****END OF INPUT****

CARTESIAN COORDINATES (ANGSTROEM)
---------------------------------
  C      3.913853   -1.658291    3.015134
  N      5.039266   -0.901154    2.492821
  C      4.084215    1.742081   -2.114724
  C      4.265245    2.500518   -0.795890
  H      4.868534    3.392674   -0.981134
  H      3.307640    2.824571   -0.387809
  C      4.982240    1.650257    0.247422
  C      6.210384   -1.417261    2.178244
  C      6.535913   -2.677122    2.556078
  N      7.076754   -0.700820    1.478906
  H      7.954643   -1.121554    1.207554
  H      6.756161    0.106637    0.960278
  H      4.842168    0.017609    2.115191
  H      5.993876   -3.126918    3.282784
  H      7.498441   -2.975482    2.468776
  O      4.368065    1.389270    1.313706
  F      6.128919    1.233512   -0.045620
  C      3.139159   -2.376572    1.910609
  H      3.267235   -0.939401    3.520693
  H      4.247195   -2.355095    3.790065
  C      1.997274    0.430918   -1.399218
  C      3.412746    0.376886   -1.965497
  H      4.047407   -0.246590   -1.326706
  H      3.390774   -0.118719   -2.942839
  H      5.068475    1.598504   -2.565728
  H      3.503356    2.363939   -2.804565
  C      2.399946   -1.389579    1.009490
  H      2.440750   -3.087118    2.362976
  H      3.844475   -2.970462    1.318677
  C      2.070177   -1.936705   -0.372401
  H      1.481611   -1.061542    1.509912
  H      3.008628   -0.490001    0.897451
  C      1.322238   -0.935775   -1.256413
  H      1.472747   -2.850902   -0.283997
  H      3.003539   -2.234041   -0.862535
  H      1.376444    1.058920   -2.047420
  H      2.015341    0.929780   -0.426535
  H      0.316648   -0.787213   -0.848278
  H      1.185611   -1.379252   -2.248613

 Total Charge           Charge          ....    0
 Multiplicity           Mult            ....    1
 Number of Electrons    NEL             ....  126
 Basis Dimension        Dim             ....  805

ORBITAL ENERGIES
----------------

  NO   OCC          E(Eh)            E(eV)
   0   2.0000     -24.871928      -676.7996
   1   2.0000     -19.245041      -523.6842
   2   2.0000     -14.366071      -390.9207
   3   2.0000     -14.355086      -390.6218
   4   2.0000     -10.465154      -284.7713
   5   2.0000     -10.295142      -280.1451
   6   2.0000     -10.275498      -279.6105
   7   2.0000     -10.272207      -279.5210
   8   2.0000     -10.257329      -279.1161
   9   2.0000     -10.254577      -279.0412
  10   2.0000     -10.246530      -278.8223
  11   2.0000     -10.239785      -278.6387
  12   2.0000     -10.232049      -278.4282
  13   2.0000     -10.225145      -278.2403
  14   2.0000     -10.220185      -278.1054
  15   2.0000     -10.133450      -275.7452
  16   2.0000      -1.451105       -39.4866
  17   2.0000      -1.160059       -31.5668
  18   2.0000      -1.033281       -28.1170
  19   2.0000      -0.950308       -25.8592
  20   2.0000      -0.930568       -25.3220
  21   2.0000      -0.893264       -24.3069
  22   2.0000      -0.856061       -23.2946
  23   2.0000      -0.825377       -22.4596
  24   2.0000      -0.789157       -21.4740
  25   2.0000      -0.775353       -21.0984
  26   2.0000      -0.761397       -20.7187
  27   2.0000      -0.730288       -19.8721
  28   2.0000      -0.697908       -18.9910
  29   2.0000      -0.672214       -18.2919
  30   2.0000      -0.669660       -18.2224
  31   2.0000      -0.667797       -18.1717
  32   2.0000      -0.633098       -17.2275
  33   2.0000      -0.627758       -17.0822
  34   2.0000      -0.608764       -16.5653
  35   2.0000      -0.580331       -15.7916
  36   2.0000      -0.573803       -15.6140
  37   2.0000      -0.563412       -15.3312
  38   2.0000      -0.559471       -15.2240
  39   2.0000      -0.538752       -14.6602
  40   2.0000      -0.522095       -14.2069
  41   2.0000      -0.515505       -14.0276
  42   2.0000      -0.502134       -13.6637
  43   2.0000      -0.491794       -13.3824
  44   2.0000      -0.484104       -13.1732
  45   2.0000      -0.482487       -13.1291
  46   2.0000      -0.470369       -12.7994
  47   2.0000      -0.459388       -12.5006
  48   2.0000      -0.455928       -12.4064
  49   2.0000      -0.445194       -12.1143
  50   2.0000      -0.436097       -11.8668
  51   2.0000      -0.427397       -11.6301
  52   2.0000      -0.422900       -11.5077
  53   2.0000      -0.415260       -11.2998
  54   2.0000      -0.408246       -11.1089
  55   2.0000      -0.405696       -11.0396
  56   2.0000      -0.389516       -10.5993
  57   2.0000      -0.381466       -10.3802
  58   2.0000      -0.376665       -10.2496
  59   2.0000      -0.373087       -10.1522
  60   2.0000      -0.367752       -10.0071
  61   2.0000      -0.291762        -7.9392
  62   2.0000      -0.202291        -5.5046
  63   0.0000      -0.016287        -0.4432
  64   0.0000       0.016605         0.4519
  65   0.0000       0.033020         0.8985
  66   0.0000       0.036154         0.9838
  67   0.0000       0.042904         1.1675

MULLIKEN ATOMIC CHARGES
-----------------------
   0 C :   -1.002419
   1 N :   -0.289705
   2 C :   -0.736085
   3 C :   -0.428749
   4 H :    0.349138
   5 H :    0.292606
   6 C :    0.597425
   7 C :    0.688319
   8 C :   -1.268948
   9 N :   -0.382681
  10 H :    0.152969
  11 H :    0.319710
  12 H :    0.351252
  13 H :    0.244410
  14 H :    0.329021
  15 O :   -0.651154
  16 F :   -0.395988
  17 C :   -0.553689
  18 H :    0.337613
  19 H :    0.348525
  20 C :   -0.507700
  21 C :   -0.386214
  22 H :    0.221796
  23 H :    0.300469
  24 H :    0.294562
  25 H :    0.324969
  26 C :    0.205785
  27 H :    0.347956
  28 H :    0.356728
  29 C :   -0.567662
  30 H :    0.277569
  31 H :   -0.206112
  32 C :   -0.756303
  33 H :    0.297229
  34 H :    0.301684
  35 H :    0.293058
  36 H :    0.301492
  37 H :    0.303151
  38 H :    0.295973
Sum of atomic charges:   -0.0000000

LOEWDIN ATOMIC CHARGES
----------------------
   0 C :   -0.185063
   1 N :    0.030698
   2 C :   -0.194413
   3 C :   -0.090296
   4 H :    0.128334
   5 H :    0.123819
   6 C :   -0.432606
   7 C :   -0.550522
   8 C :   -0.003136
   9 N :    0.131101
  10 H :    0.112452
  11 H :    0.051780
  12 H :    0.060542
  13 H :   -0.009080
  14 H :   -0.001863
  15 O :    0.082381
  16 F :    0.206180
  17 C :   -0.184227
  18 H :    0.121635
  19 H :    0.108469
  20 C :   -0.215553
  21 C :   -0.207484
  22 H :    0.108560
  23 H :    0.124562
  24 H :    0.113715
  25 H :    0.120064
  26 C :   -0.219334
  27 H :    0.113961
  28 H :    0.112047
  29 C :   -0.218134
  30 H :    0.125927
  31 H :    0.077724
  32 C :   -0.211106
  33 H :    0.116338
  34 H :    0.110566
  35 H :    0.118126
  36 H :    0.102089
  37 H :    0.111664
  38 H :    0.110086

  Mayer bond orders larger than 0.100000
B(  0-C ,  1-N ) :   0.9337 B(  0-C , 12-H ) :  -0.1221 B(  0-C , 17-C ) :   0.6989
B(  0-C , 18-H ) :   0.8366 B(  0-C , 19-H ) :   0.8940 B(  0-C , 26-C ) :   0.1151
B(  1-N ,  7-C ) :   0.9950 B(  1-N , 12-H ) :   0.7401 B(  2-C ,  3-C ) :   0.7120
B(  2-C , 20-C ) :   0.1117 B(  2-C , 21-C ) :   0.8038 B(  2-C , 24-H ) :   0.9890
B(  2-C , 25-H ) :   0.9203 B(  3-C ,  4-H ) :   0.8932 B(  3-C ,  5-H ) :   1.0077
B(  3-C ,  6-C ) :   0.8570 B(  3-C , 20-C ) :   0.1059 B(  3-C , 21-C ) :  -0.1500
B(  6-C , 15-O ) :   1.7207 B(  6-C , 16-F ) :   0.7259 B(  7-C ,  8-C ) :   1.0303
B(  7-C ,  9-N ) :   0.9490 B(  7-C , 12-H ) :  -0.1385 B(  7-C , 14-H ) :  -0.1129
B(  8-C , 13-H ) :   1.1035 B(  8-C , 14-H ) :   1.0358 B(  9-N , 10-H ) :   1.0025
B(  9-N , 11-H ) :   0.8164 B( 15-O , 16-F ) :   0.1282 B( 17-C , 26-C ) :   0.5716
B( 17-C , 27-H ) :   0.9683 B( 17-C , 28-H ) :   0.8569 B( 17-C , 29-C ) :   0.3158
B( 17-C , 30-H ) :  -0.1007 B( 20-C , 21-C ) :   0.3019 B( 20-C , 22-H ) :  -0.1196
B( 20-C , 32-C ) :   0.8578 B( 20-C , 35-H ) :   0.9488 B( 20-C , 36-H ) :   1.0173
B( 21-C , 22-H ) :   1.0505 B( 21-C , 23-H ) :   0.9483 B( 21-C , 36-H ) :  -0.1297
B( 26-C , 29-C ) :   0.4508 B( 26-C , 30-H ) :   0.8662 B( 26-C , 31-H ) :   1.4362
B( 26-C , 34-H ) :  -0.1019 B( 29-C , 31-H ) :  -0.1986 B( 29-C , 32-C ) :   0.8161
B( 29-C , 33-H ) :   0.9343 B( 29-C , 34-H ) :   0.9960 B( 30-H , 31-H ) :   0.1520
B( 32-C , 37-H ) :   0.9673 B( 32-C , 38-H ) :   0.9784

FINAL SINGLE POINT ENERGY      -755.575366917088

DIPOLE MOMENT
-------------
                                X             Y             Z
Electronic contribution:     12.74420      10.40499       3.22194
Nuclear contribution   :    -13.35170      -8.48261      -5.12969
                        -----------------------------------------
Total Dipole Moment    :     -0.60750       1.92237      -1.90775
                        -----------------------------------------
Magnitude (a.u.)       :      2.77562
Magnitude (Debye)      :      7.05507

Rotational constants in cm-1:     0.019886     0.013843     0.009504
Rotational constants in MHz :   596.157485   415.004628   284.931121

                             ****ORCA TERMINATED NORMALLY****
TOTAL RUN TIME: 0 days 0 hours 15 minutes 56 seconds 186 msec
