                         Program Version 5.0.0 -  RELEASE  -
|  1> !CAM-B3LYP RIJCOSX def2-TZVPD def2/J TightSCF xyzfile
|  2>
|  3> *xyzfile 0 1 D6.xyz
|  4>
|  5> %MaxCore 64000
|  6>
|  7> %pal nprocs 4
|  8> end
|  9>
| 10> %scf
| 11>   MaxIter 150
| 12> end
| 13>
| 14>
| 15>                          ****END OF INPUT****

CARTESIAN COORDINATES (ANGSTROEM)
---------------------------------
  C      3.913853   -1.658291    3.015134
  N      5.039266   -0.901154    2.492821
  C      4.084215    1.742081   -2.114724
  C      4.265245    2.500518   -0.795890
  H      4.868534    3.392674   -0.981134
  H      3.307640    2.824571   -0.387809
  C      4.982240    1.650257    0.247422
  C      6.210384   -1.417261    2.178244
  N      6.535913   -2.677122    2.556078
  C      7.076754   -0.700820    1.478906
  H      7.954643   -1.121554    1.207554
  H      6.756161    0.106637    0.960278
  H      4.842168    0.017609    2.115191
  H      5.993876   -3.126918    3.282784
  H      7.498441   -2.975482    2.468776
  O      4.368065    1.389270    1.313706
  F      6.128919    1.233512   -0.045620
  C      3.139159   -2.376572    1.910609
  H      3.267235   -0.939401    3.520693
  H      4.247195   -2.355095    3.790065
  C      1.997274    0.430918   -1.399218
  C      3.412746    0.376886   -1.965497
  H      4.047407   -0.246590   -1.326706
  H      3.390774   -0.118719   -2.942839
  H      5.068475    1.598504   -2.565728
  H      3.503356    2.363939   -2.804565
  C      2.399946   -1.389579    1.009490
  H      2.440750   -3.087118    2.362976
  H      3.844475   -2.970462    1.318677
  C      2.070177   -1.936705   -0.372401
  H      1.481611   -1.061542    1.509912
  H      3.008628   -0.490001    0.897451
  C      1.322238   -0.935775   -1.256413
  H      1.472747   -2.850902   -0.283997
  H      3.003539   -2.234041   -0.862535
  H      1.376444    1.058920   -2.047420
  H      2.015341    0.929780   -0.426535
  H      0.316648   -0.787213   -0.848278
  H      1.185611   -1.379252   -2.248613

 Total Charge           Charge          ....    0
 Multiplicity           Mult            ....    1
 Number of Electrons    NEL             ....  126
 Basis Dimension        Dim             ....  805

ORBITAL ENERGIES
----------------

  NO   OCC          E(Eh)            E(eV)
   0   2.0000     -24.840656      -675.9486
   1   2.0000     -19.227867      -523.2169
   2   2.0000     -14.371603      -391.0712
   3   2.0000     -14.352258      -390.5448
   4   2.0000     -10.448094      -284.3071
   5   2.0000     -10.282784      -279.8088
   6   2.0000     -10.270962      -279.4871
   7   2.0000     -10.266023      -279.3527
   8   2.0000     -10.262827      -279.2657
   9   2.0000     -10.249954      -278.9154
  10   2.0000     -10.241849      -278.6949
  11   2.0000     -10.237882      -278.5869
  12   2.0000     -10.232328      -278.4358
  13   2.0000     -10.227234      -278.2972
  14   2.0000     -10.227017      -278.2913
  15   2.0000     -10.126941      -275.5681
  16   2.0000      -1.421528       -38.6818
  17   2.0000      -1.143240       -31.1091
  18   2.0000      -1.029480       -28.0136
  19   2.0000      -0.944676       -25.7059
  20   2.0000      -0.921253       -25.0686
  21   2.0000      -0.889568       -24.2064
  22   2.0000      -0.858097       -23.3500
  23   2.0000      -0.820987       -22.3402
  24   2.0000      -0.795143       -21.6369
  25   2.0000      -0.758786       -20.6476
  26   2.0000      -0.752409       -20.4741
  27   2.0000      -0.718478       -19.5508
  28   2.0000      -0.688600       -18.7378
  29   2.0000      -0.672018       -18.2865
  30   2.0000      -0.650391       -17.6980
  31   2.0000      -0.644866       -17.5477
  32   2.0000      -0.640693       -17.4341
  33   2.0000      -0.627742       -17.0817
  34   2.0000      -0.597559       -16.2604
  35   2.0000      -0.581506       -15.8236
  36   2.0000      -0.559381       -15.2215
  37   2.0000      -0.556279       -15.1371
  38   2.0000      -0.545681       -14.8487
  39   2.0000      -0.533482       -14.5168
  40   2.0000      -0.525515       -14.3000
  41   2.0000      -0.505888       -13.7659
  42   2.0000      -0.501624       -13.6499
  43   2.0000      -0.492825       -13.4104
  44   2.0000      -0.486484       -13.2379
  45   2.0000      -0.479515       -13.0483
  46   2.0000      -0.462702       -12.5908
  47   2.0000      -0.453006       -12.3269
  48   2.0000      -0.449158       -12.2222
  49   2.0000      -0.443741       -12.0748
  50   2.0000      -0.435213       -11.8427
  51   2.0000      -0.421406       -11.4670
  52   2.0000      -0.419452       -11.4139
  53   2.0000      -0.409101       -11.1322
  54   2.0000      -0.405841       -11.0435
  55   2.0000      -0.401500       -10.9254
  56   2.0000      -0.389975       -10.6118
  57   2.0000      -0.377730       -10.2785
  58   2.0000      -0.376371       -10.2416
  59   2.0000      -0.371846       -10.1184
  60   2.0000      -0.365787        -9.9536
  61   2.0000      -0.298450        -8.1212
  62   2.0000      -0.201739        -5.4896
  63   0.0000      -0.000313        -0.0085
  64   0.0000       0.027620         0.7516
  65   0.0000       0.038630         1.0512
  66   0.0000       0.039833         1.0839
  67   0.0000       0.040943         1.1141

MULLIKEN ATOMIC CHARGES
-----------------------
   0 C :   -1.056978
   1 N :   -0.193325
   2 C :   -0.722866
   3 C :   -0.438117
   4 H :    0.344878
   5 H :    0.287082
   6 C :    0.575143
   7 C :    0.773530
   8 N :   -0.378734
   9 C :   -1.337922
  10 H :    0.192471
  11 H :    0.400106
  12 H :    0.304389
  13 H :    0.138896
  14 H :    0.181800
  15 O :   -0.657428
  16 F :   -0.304643
  17 C :   -0.468381
  18 H :    0.333158
  19 H :    0.354577
  20 C :   -0.503866
  21 C :   -0.436576
  22 H :    0.274502
  23 H :    0.294685
  24 H :    0.288674
  25 H :    0.326533
  26 C :    0.217866
  27 H :    0.362280
  28 H :    0.331867
  29 C :   -0.591267
  30 H :    0.295818
  31 H :   -0.238737
  32 C :   -0.748501
  33 H :    0.288831
  34 H :    0.323291
  35 H :    0.290171
  36 H :    0.299121
  37 H :    0.301557
  38 H :    0.296114
Sum of atomic charges:   -0.0000000

LOEWDIN ATOMIC CHARGES
----------------------
   0 C :   -0.189247
   1 N :    0.032121
   2 C :   -0.194492
   3 C :   -0.091459
   4 H :    0.127551
   5 H :    0.121781
   6 C :   -0.432378
   7 C :   -0.541234
   8 N :    0.120069
   9 C :    0.006156
  10 H :    0.009273
  11 H :   -0.026490
  12 H :    0.065215
  13 H :    0.082201
  14 H :    0.103743
  15 O :    0.076280
  16 F :    0.197977
  17 C :   -0.188873
  18 H :    0.122320
  19 H :    0.103884
  20 C :   -0.215770
  21 C :   -0.207284
  22 H :    0.109702
  23 H :    0.123703
  24 H :    0.114281
  25 H :    0.118700
  26 C :   -0.217222
  27 H :    0.111760
  28 H :    0.113590
  29 C :   -0.218694
  30 H :    0.126825
  31 H :    0.080111
  32 C :   -0.211311
  33 H :    0.115345
  34 H :    0.110664
  35 H :    0.117820
  36 H :    0.102179
  37 H :    0.111208
  38 H :    0.109996

  Mayer bond orders larger than 0.100000
B(  0-C ,  1-N ) :   0.9562 B(  0-C ,  7-C ) :  -0.1635 B(  0-C , 17-C ) :   0.6148
B(  0-C , 18-H ) :   0.8796 B(  0-C , 19-H ) :   0.9103 B(  0-C , 27-H ) :  -0.1223
B(  1-N ,  7-C ) :   1.0840 B(  1-N , 12-H ) :   0.7758 B(  1-N , 15-O ) :  -0.1071
B(  2-C ,  3-C ) :   0.7210 B(  2-C , 20-C ) :   0.1153 B(  2-C , 21-C ) :   0.8270
B(  2-C , 24-H ) :   0.9874 B(  2-C , 25-H ) :   0.9159 B(  3-C ,  4-H ) :   0.8972
B(  3-C ,  5-H ) :   1.0085 B(  3-C ,  6-C ) :   0.8569 B(  3-C , 15-O ) :  -0.1064
B(  3-C , 20-C ) :   0.1035 B(  3-C , 21-C ) :  -0.1441 B(  6-C , 15-O ) :   1.7050
B(  6-C , 16-F ) :   0.8040 B(  7-C ,  8-N ) :   0.9363 B(  7-C ,  9-C ) :   1.0239
B(  7-C , 10-H ) :  -0.2282 B(  7-C , 12-H ) :  -0.1206 B(  8-N , 13-H ) :   1.0340
B(  8-N , 14-H ) :   0.9822 B(  9-C , 10-H ) :   1.2968 B(  9-C , 11-H ) :   0.8833
B(  9-C , 16-F ) :   0.1258 B( 11-H , 16-F ) :  -0.1698 B( 15-O , 16-F ) :   0.1286
B( 17-C , 26-C ) :   0.5911 B( 17-C , 27-H ) :   0.9856 B( 17-C , 28-H ) :   0.8500
B( 17-C , 29-C ) :   0.3239 B( 17-C , 30-H ) :  -0.1030 B( 20-C , 21-C ) :   0.2822
B( 20-C , 22-H ) :  -0.1179 B( 20-C , 32-C ) :   0.8451 B( 20-C , 35-H ) :   0.9518
B( 20-C , 36-H ) :   1.0193 B( 21-C , 22-H ) :   1.0060 B( 21-C , 23-H ) :   0.9577
B( 21-C , 36-H ) :  -0.1267 B( 26-C , 29-C ) :   0.4402 B( 26-C , 30-H ) :   0.8772
B( 26-C , 31-H ) :   1.4310 B( 29-C , 31-H ) :  -0.2038 B( 29-C , 32-C ) :   0.8077
B( 29-C , 33-H ) :   0.9485 B( 29-C , 34-H ) :   0.9812 B( 30-H , 31-H ) :   0.1348
B( 32-C , 37-H ) :   0.9706 B( 32-C , 38-H ) :   0.9782

FINAL SINGLE POINT ENERGY      -755.568903572964

DIPOLE MOMENT
-------------
                                X             Y             Z
Electronic contribution:     12.36911       8.54372       4.37623
Nuclear contribution   :    -13.25777      -8.13937      -5.31678
                        -----------------------------------------
Total Dipole Moment    :     -0.88866       0.40436      -0.94054
                        -----------------------------------------
Magnitude (a.u.)       :      1.35567
Magnitude (Debye)      :      3.44583

Rotational constants in cm-1:     0.020021     0.013636     0.009443
Rotational constants in MHz :   600.208195   408.782966   283.102361

                             ****ORCA TERMINATED NORMALLY****
TOTAL RUN TIME: 0 days 0 hours 16 minutes 9 seconds 425 msec
