                         Program Version 5.0.0 -  RELEASE  -
|  1> !TPSS D3BJ RIJCOSX def2-SVP def2/J TightSCF
|  2> *xyz -1 1
|  3> C          4.93020       -7.37532       -2.64962
|  4> C          3.84189       -6.95161       -3.63283
|  5> H          3.45814       -5.95442       -3.40712
|  6> H          2.98848       -7.64361       -3.56708
|  7> S          4.31812       -6.91593       -5.36869
|  8> O          5.40615       -5.89948       -5.51297
|  9> O          3.11191       -6.44508       -6.04379
| 10> O          4.76340       -8.23942       -5.69863
| 11> H          5.27901       -8.35440       -2.90385
| 12> H          4.53000       -7.38577       -1.65734
| 13> H          5.74437       -6.68276       -2.69856
| 14> *
| 15>
| 16> %MaxCore 64000
| 17>
| 18> %pal nprocs 4
| 19> end
| 20>
| 21> %scf
| 22>   MaxIter 150
| 23> end
| 24>
| 25>
| 26>                          ****END OF INPUT****

CARTESIAN COORDINATES (ANGSTROEM)
---------------------------------
  C      4.930200   -7.375320   -2.649620
  C      3.841890   -6.951610   -3.632830
  H      3.458140   -5.954420   -3.407120
  H      2.988480   -7.643610   -3.567080
  S      4.318120   -6.915930   -5.368690
  O      5.406150   -5.899480   -5.512970
  O      3.111910   -6.445080   -6.043790
  O      4.763400   -8.239420   -5.698630
  H      5.279010   -8.354400   -2.903850
  H      4.530000   -7.385770   -1.657340
  H      5.744370   -6.682760   -2.698560

 Total Charge           Charge          ....   -1
 Multiplicity           Mult            ....    1
 Number of Electrons    NEL             ....   58
 Basis Dimension        Dim             ....  113

ORBITAL ENERGIES
----------------

  NO   OCC          E(Eh)            E(eV)
   0   2.0000     -88.323950     -2403.4169
   1   2.0000     -18.645223      -507.3623
   2   2.0000     -18.635090      -507.0866
   3   2.0000     -18.626644      -506.8568
   4   2.0000      -9.852318      -268.0952
   5   2.0000      -9.845352      -267.9057
   6   2.0000      -7.690774      -209.2766
   7   2.0000      -5.676317      -154.4605
   8   2.0000      -5.676005      -154.4519
   9   2.0000      -5.675666      -154.4427
  10   2.0000      -0.819610       -22.3027
  11   2.0000      -0.688660       -18.7394
  12   2.0000      -0.658151       -17.9092
  13   2.0000      -0.558570       -15.1995
  14   2.0000      -0.438658       -11.9365
  15   2.0000      -0.311523        -8.4770
  16   2.0000      -0.264914        -7.2087
  17   2.0000      -0.246593        -6.7101
  18   2.0000      -0.213143        -5.7999
  19   2.0000      -0.192519        -5.2387
  20   2.0000      -0.192029        -5.2254
  21   2.0000      -0.168467        -4.5842
  22   2.0000      -0.158136        -4.3031
  23   2.0000      -0.070354        -1.9144
  24   2.0000      -0.069456        -1.8900
  25   2.0000      -0.042425        -1.1544
  26   2.0000      -0.035677        -0.9708
  27   2.0000      -0.021884        -0.5955
  28   2.0000       0.014657         0.3988
  29   0.0000       0.191348         5.2068
  30   0.0000       0.242429         6.5968
  31   0.0000       0.246344         6.7034
  32   0.0000       0.253955         6.9105
  33   0.0000       0.279129         7.5955

MULLIKEN ATOMIC CHARGES
-----------------------
   0 C :    0.041427
   1 C :   -0.098077
   2 H :   -0.000548
   3 H :   -0.005011
   4 S :    0.803716
   5 O :   -0.597925
   6 O :   -0.567962
   7 O :   -0.541317
   8 H :    0.000746
   9 H :   -0.034985
  10 H :   -0.000063
Sum of atomic charges:   -1.0000000

LOEWDIN ATOMIC CHARGES
----------------------
   0 C :   -0.064208
   1 C :   -0.185747
   2 H :    0.003879
   3 H :    0.002417
   4 S :    1.060855
   5 O :   -0.643340
   6 O :   -0.609134
   7 O :   -0.583037
   8 H :    0.010682
   9 H :   -0.002682
  10 H :    0.010315

  Mayer bond orders larger than 0.100000
B(  0-C ,  1-C ) :   1.0527 B(  0-C ,  8-H ) :   0.9646 B(  0-C ,  9-H ) :   0.9573
B(  0-C , 10-H ) :   0.9641 B(  1-C ,  2-H ) :   0.9392 B(  1-C ,  3-H ) :   0.9345
B(  1-C ,  4-S ) :   0.8557 B(  4-S ,  5-O ) :   1.5717 B(  4-S ,  6-O ) :   1.6116
B(  4-S ,  7-O ) :   1.6322

Dispersion correction           -0.012037070
FINAL SINGLE POINT ENERGY      -702.793310056076

DIPOLE MOMENT
-------------
                                X             Y             Z
Electronic contribution:     -0.33113       0.83725      -8.07097
Nuclear contribution   :      0.07504      -1.14369       9.75001
                        -----------------------------------------
Total Dipole Moment    :     -0.25609      -0.30644       1.67904
                        -----------------------------------------
Magnitude (a.u.)       :      1.72588
Magnitude (Debye)      :      4.38683

Rotational constants in cm-1:     0.160553     0.082191     0.080550
Rotational constants in MHz :  4813.250478  2464.013016  2414.833054

                             ****ORCA TERMINATED NORMALLY****
TOTAL RUN TIME: 0 days 0 hours 0 minutes 7 seconds 872 msec
