                         Program Version 5.0.0 -  RELEASE  -
|  1> !TPSS D3BJ RIJCOSX def2-SVP def2/J TightSCF
|  2> *xyz 1 1
|  3> C          5.55821       -1.99291       -6.21505
|  4> C          4.18188       -2.58967       -6.29891
|  5> N          3.14587       -1.76843       -6.48675
|  6> N          4.01910       -3.86431       -6.22743
|  7> H          4.76849       -4.59115       -5.99077
|  8> H          3.12241       -4.33339       -6.31462
|  9> H          3.28164       -0.77779       -6.56655
| 10> H          2.21255       -2.13419       -6.56225
| 11> C          6.41926       -2.54294       -5.07763
| 12> H          6.03683       -2.19819       -7.17685
| 13> H          5.46761       -0.90737       -6.12797
| 14> H          6.50056       -3.60553       -5.17358
| 15> H          5.96544       -2.30329       -4.13874
| 16> H          7.39438       -2.10494       -5.12457
| 17> *
| 18>
| 19> %MaxCore 64000
| 20>
| 21> %pal nprocs 4
| 22> end
| 23>
| 24> %scf
| 25>   MaxIter 150
| 26> end
| 27>
| 28>
| 29>                          ****END OF INPUT****

CARTESIAN COORDINATES (ANGSTROEM)
---------------------------------
  C      5.558210   -1.992910   -6.215050
  C      4.181880   -2.589670   -6.298910
  N      3.145870   -1.768430   -6.486750
  N      4.019100   -3.864310   -6.227430
  H      4.768490   -4.591150   -5.990770
  H      3.122410   -4.333390   -6.314620
  H      3.281640   -0.777790   -6.566550
  H      2.212550   -2.134190   -6.562250
  C      6.419260   -2.542940   -5.077630
  H      6.036830   -2.198190   -7.176850
  H      5.467610   -0.907370   -6.127970
  H      6.500560   -3.605530   -5.173580
  H      5.965440   -2.303290   -4.138740
  H      7.394380   -2.104940   -5.124570

 Total Charge           Charge          ....    1
 Multiplicity           Mult            ....    1
 Number of Electrons    NEL             ....   40
 Basis Dimension        Dim             ....  115

ORBITAL ENERGIES
----------------

  NO   OCC          E(Eh)            E(eV)
   0   2.0000     -14.367615      -390.9627
   1   2.0000     -14.356849      -390.6697
   2   2.0000     -10.311249      -280.5833
   3   2.0000     -10.197004      -277.4746
   4   2.0000     -10.157716      -276.4055
   5   2.0000      -1.127717       -30.6867
   6   2.0000      -1.035855       -28.1871
   7   2.0000      -0.904392       -24.6098
   8   2.0000      -0.809977       -22.0406
   9   2.0000      -0.762389       -20.7457
  10   2.0000      -0.725773       -19.7493
  11   2.0000      -0.698213       -18.9993
  12   2.0000      -0.654756       -17.8168
  13   2.0000      -0.608657       -16.5624
  14   2.0000      -0.581944       -15.8355
  15   2.0000      -0.560311       -15.2468
  16   2.0000      -0.509597       -13.8668
  17   2.0000      -0.501521       -13.6471
  18   2.0000      -0.487321       -13.2607
  19   2.0000      -0.452891       -12.3238
  20   0.0000      -0.227978        -6.2036
  21   0.0000      -0.158063        -4.3011
  22   0.0000      -0.124606        -3.3907
  23   0.0000      -0.112777        -3.0688
  24   0.0000      -0.091184        -2.4812

MULLIKEN ATOMIC CHARGES
-----------------------
   0 C :    0.005157
   1 C :   -0.057916
   2 N :    0.012407
   3 N :   -0.002795
   4 H :    0.210288
   5 H :    0.171911
   6 H :    0.178356
   7 H :    0.164030
   8 C :    0.003397
   9 H :    0.101098
  10 H :    0.052991
  11 H :    0.030294
  12 H :    0.056888
  13 H :    0.073894
Sum of atomic charges:    1.0000000

LOEWDIN ATOMIC CHARGES
----------------------
   0 C :   -0.022319
   1 C :    0.127783
   2 N :    0.105395
   3 N :    0.100054
   4 H :    0.147393
   5 H :    0.111853
   6 H :    0.113649
   7 H :    0.104475
   8 C :   -0.015418
   9 H :    0.068258
  10 H :    0.048694
  11 H :    0.022062
  12 H :    0.037308
  13 H :    0.050814

  Mayer bond orders larger than 0.100000
B(  0-C ,  1-C ) :   1.0183 B(  0-C ,  8-C ) :   1.0882 B(  0-C ,  9-H ) :   0.9088
B(  0-C , 10-H ) :   0.9225 B(  1-C ,  2-N ) :   1.4958 B(  1-C ,  3-N ) :   1.5200
B(  2-N ,  6-H ) :   0.9210 B(  2-N ,  7-H ) :   0.9333 B(  3-N ,  4-H ) :   0.9092
B(  3-N ,  5-H ) :   0.9303 B(  8-C , 11-H ) :   0.9667 B(  8-C , 12-H ) :   0.9735
B(  8-C , 13-H ) :   0.9558

Dispersion correction           -0.012359601
FINAL SINGLE POINT ENERGY      -228.909139359369

DIPOLE MOMENT
-------------
                                X             Y             Z
Electronic contribution:     -3.83897      -0.49235      -1.58322
Nuclear contribution   :      2.76041       0.12669       1.26265
                        -----------------------------------------
Total Dipole Moment    :     -1.07856      -0.36565      -0.32056
                        -----------------------------------------
Magnitude (a.u.)       :      1.18311
Magnitude (Debye)      :      3.00723

Rotational constants in cm-1:     0.280918     0.124524     0.094121
Rotational constants in MHz :  8421.697738  3733.133254  2821.684112

                             ****ORCA TERMINATED NORMALLY****
TOTAL RUN TIME: 0 days 0 hours 0 minutes 7 seconds 134 msec
