                         Program Version 5.0.0 -  RELEASE  -
|  1> !TPSS D3BJ RIJCOSX def2-TZVP def2/J TightSCF xyzfile
|  2>
|  3> *xyzfile 0 1 B.xyz
|  4>
|  5> %MaxCore 64000
|  6>
|  7> %pal nprocs 18
|  8> end
|  9>
| 10> %scf
| 11>   MaxIter 150
| 12> end
| 13>
| 14>
| 15>                          ****END OF INPUT****

CARTESIAN COORDINATES (ANGSTROEM)
---------------------------------
  C      5.558206   -1.992914   -6.215054
  C      4.930199   -7.375319   -2.649623
  C      3.841892   -6.951611   -3.632829
  H      3.458144   -5.954425   -3.407121
  H      2.988484   -7.643606   -3.567078
  S      4.318115   -6.915930   -5.368692
  C      4.181880   -2.589671   -6.298911
  N      3.145873   -1.768431   -6.486753
  N      4.019102   -3.864307   -6.227427
  H      4.768490   -4.591153   -5.990773
  H      3.122405   -4.333392   -6.314620
  H      3.281635   -0.777786   -6.566549
  H      2.212549   -2.134193   -6.562246
  O      5.406154   -5.899480   -5.512972
  O      3.111910   -6.445079   -6.043792
  C      6.419260   -2.542944   -5.077630
  C      5.872267   -5.002756   -2.427819
  C      6.173994   -6.485522   -2.606315
  H      6.734852   -6.613767   -3.534015
  H      6.821463   -6.831018   -1.793617
  H      4.469612   -7.406168   -1.655876
  H      5.230134   -8.398678   -2.885906
  C      5.896512   -2.169314   -3.694552
  H      7.428880   -2.143665   -5.208078
  H      6.505894   -3.627541   -5.175502
  C      6.807804   -2.623428   -2.551019
  H      4.894708   -2.589732   -3.557501
  H      5.778823   -1.081255   -3.635790
  C      7.111544   -4.122463   -2.520363
  H      7.751615   -2.071393   -2.614406
  H      6.345837   -2.326401   -1.604086
  H      5.362882   -4.828697   -1.471335
  H      5.174429   -4.702577   -3.211298
  H      7.778329   -4.329347   -1.677651
  H      7.673189   -4.402845   -3.417586
  O      4.763396   -8.239424   -5.698629
  H      6.036826   -2.198189   -7.176852
  H      5.467610   -0.907371   -6.127968

 Total Charge           Charge          ....    0
 Multiplicity           Mult            ....    1
 Number of Electrons    NEL             ....  136
 Basis Dimension        Dim             ....  634

ORBITAL ENERGIES
----------------

  NO   OCC          E(Eh)            E(eV)
   0   2.0000     -88.479011     -2407.6363
   1   2.0000     -18.824348      -512.2366
   2   2.0000     -18.811908      -511.8980
   3   2.0000     -18.806148      -511.7413
   4   2.0000     -14.189804      -386.1242
   5   2.0000     -14.150549      -385.0560
   6   2.0000     -10.131455      -275.6909
   7   2.0000     -10.041931      -273.2548
   8   2.0000     -10.009474      -272.3716
   9   2.0000      -9.997619      -272.0490
  10   2.0000      -9.986227      -271.7391
  11   2.0000      -9.975193      -271.4388
  12   2.0000      -9.973973      -271.4056
  13   2.0000      -9.965382      -271.1718
  14   2.0000      -9.965302      -271.1697
  15   2.0000      -9.957869      -270.9674
  16   2.0000      -7.828114      -213.0138
  17   2.0000      -5.807991      -158.0435
  18   2.0000      -5.806702      -158.0084
  19   2.0000      -5.806182      -157.9942
  20   2.0000      -1.001910       -27.2634
  21   2.0000      -0.971510       -26.4361
  22   2.0000      -0.882903       -24.0250
  23   2.0000      -0.871396       -23.7119
  24   2.0000      -0.868088       -23.6219
  25   2.0000      -0.782175       -21.2841
  26   2.0000      -0.746856       -20.3230
  27   2.0000      -0.723488       -19.6871
  28   2.0000      -0.686526       -18.6813
  29   2.0000      -0.654137       -17.8000
  30   2.0000      -0.623811       -16.9747
  31   2.0000      -0.603152       -16.4126
  32   2.0000      -0.577900       -15.7254
  33   2.0000      -0.559103       -15.2140
  34   2.0000      -0.550466       -14.9789
  35   2.0000      -0.527563       -14.3557
  36   2.0000      -0.513910       -13.9842
  37   2.0000      -0.492747       -13.4083
  38   2.0000      -0.465269       -12.6606
  39   2.0000      -0.458877       -12.4867
  40   2.0000      -0.443941       -12.0802
  41   2.0000      -0.430001       -11.7009
  42   2.0000      -0.420263       -11.4359
  43   2.0000      -0.406859       -11.0712
  44   2.0000      -0.402977       -10.9656
  45   2.0000      -0.394495       -10.7348
  46   2.0000      -0.385360       -10.4862
  47   2.0000      -0.378533       -10.3004
  48   2.0000      -0.364324        -9.9138
  49   2.0000      -0.359405        -9.7799
  50   2.0000      -0.354504        -9.6466
  51   2.0000      -0.350116        -9.5272
  52   2.0000      -0.334288        -9.0964
  53   2.0000      -0.329226        -8.9587
  54   2.0000      -0.323019        -8.7898
  55   2.0000      -0.308327        -8.3900
  56   2.0000      -0.297485        -8.0950
  57   2.0000      -0.292489        -7.9590
  58   2.0000      -0.288881        -7.8608
  59   2.0000      -0.279466        -7.6046
  60   2.0000      -0.275027        -7.4839
  61   2.0000      -0.265065        -7.2128
  62   2.0000      -0.261885        -7.1263
  63   2.0000      -0.254571        -6.9272
  64   2.0000      -0.221738        -6.0338
  65   2.0000      -0.217524        -5.9191
  66   2.0000      -0.211094        -5.7442
  67   2.0000      -0.185567        -5.0495
  68   0.0000      -0.072286        -1.9670
  69   0.0000      -0.031261        -0.8507
  70   0.0000       0.006452         0.1756
  71   0.0000       0.018179         0.4947
  72   0.0000       0.031321         0.8523

MULLIKEN ATOMIC CHARGES
-----------------------
   0 C :   -0.100142
   1 C :   -0.100904
   2 C :   -0.267032
   3 H :    0.098736
   4 H :    0.114250
   5 S :    0.812172
   6 C :    0.204234
   7 N :   -0.402633
   8 N :   -0.280216
   9 H :    0.311130
  10 H :    0.261298
  11 H :    0.264154
  12 H :    0.261146
  13 O :   -0.565091
  14 O :   -0.555437
  15 C :   -0.297561
  16 C :   -0.233212
  17 C :   -0.161499
  18 H :    0.124365
  19 H :    0.070849
  20 H :    0.067830
  21 H :    0.105610
  22 C :   -0.218586
  23 H :    0.098300
  24 H :    0.190960
  25 C :   -0.078544
  26 H :    0.113786
  27 H :    0.075678
  28 C :   -0.176791
  29 H :    0.082943
  30 H :    0.078986
  31 H :    0.068628
  32 H :    0.074407
  33 H :    0.081627
  34 H :    0.104287
  35 O :   -0.459668
  36 H :    0.141354
  37 H :    0.090585
Sum of atomic charges:   -0.0000000

LOEWDIN ATOMIC CHARGES
----------------------
   0 C :   -0.202041
   1 C :   -0.282564
   2 C :   -0.391092
   3 H :    0.120076
   4 H :    0.135328
   5 S :    0.431351
   6 C :   -0.338619
   7 N :    0.062314
   8 N :    0.128511
   9 H :    0.164917
  10 H :    0.182086
  11 H :    0.180121
  12 H :    0.179632
  13 O :   -0.353308
  14 O :   -0.357616
  15 C :   -0.247517
  16 C :   -0.267436
  17 C :   -0.267545
  18 H :    0.140969
  19 H :    0.129510
  20 H :    0.132327
  21 H :    0.140710
  22 C :   -0.265821
  23 H :    0.142258
  24 H :    0.149959
  25 C :   -0.259812
  26 H :    0.133991
  27 H :    0.130750
  28 C :   -0.262480
  29 H :    0.133031
  30 H :    0.134506
  31 H :    0.128521
  32 H :    0.128744
  33 H :    0.133213
  34 H :    0.137001
  35 O :   -0.290272
  36 H :    0.163096
  37 H :    0.143200

  Mayer bond orders larger than 0.100000
B(  0-C ,  6-C ) :   1.0108 B(  0-C , 15-C ) :   0.9957 B(  0-C , 36-H ) :   0.9150
B(  0-C , 37-H ) :   0.9489 B(  1-C ,  2-C ) :   0.9958 B(  1-C , 17-C ) :   1.0417
B(  1-C , 20-H ) :   0.9310 B(  1-C , 21-H ) :   0.9372 B(  2-C ,  3-H ) :   0.9409
B(  2-C ,  4-H ) :   0.9356 B(  2-C ,  5-S ) :   0.8972 B(  5-S , 13-O ) :   1.4750
B(  5-S , 14-O ) :   1.6827 B(  5-S , 35-O ) :   1.9063 B(  6-C ,  7-N ) :   1.3252
B(  6-C ,  8-N ) :   1.6360 B(  7-N , 11-H ) :   0.8980 B(  7-N , 12-H ) :   0.8945
B(  8-N ,  9-H ) :   0.7042 B(  8-N , 10-H ) :   0.8627 B(  9-H , 13-O ) :   0.2303
B( 15-C , 22-C ) :   1.0138 B( 15-C , 23-H ) :   0.9346 B( 15-C , 24-H ) :   0.9497
B( 16-C , 17-C ) :   1.0319 B( 16-C , 28-C ) :   1.0377 B( 16-C , 31-H ) :   0.9421
B( 16-C , 32-H ) :   0.9420 B( 17-C , 18-H ) :   0.9413 B( 17-C , 19-H ) :   0.9413
B( 22-C , 25-C ) :   1.0325 B( 22-C , 26-H ) :   0.9556 B( 22-C , 27-H ) :   0.9334
B( 25-C , 28-C ) :   1.0042 B( 25-C , 29-H ) :   0.9472 B( 25-C , 30-H ) :   0.9428
B( 28-C , 33-H ) :   0.9394 B( 28-C , 34-H ) :   0.9599

Dispersion correction           -0.057946376
FINAL SINGLE POINT ENERGY     -1128.185137034925

DIPOLE MOMENT
-------------
                                X             Y             Z
Electronic contribution:     -9.21689     -11.52705     -14.29032
Nuclear contribution   :      8.53517      16.50844      14.36520
                        -----------------------------------------
Total Dipole Moment    :     -0.68172       4.98139       0.07488
                        -----------------------------------------
Magnitude (a.u.)       :      5.02838
Magnitude (Debye)      :     12.78111

Rotational constants in cm-1:     0.017951     0.012436     0.008288
Rotational constants in MHz :   538.163255   372.824050   248.467077

                             ****ORCA TERMINATED NORMALLY****
TOTAL RUN TIME: 0 days 0 hours 0 minutes 35 seconds 836 msec
