                         Program Version 5.0.0 -  RELEASE  -
|  1> !TPSS D3BJ RIJCOSX def2-SVP def2/J TightSCF
|  2> *xyz 0 1
|  3> C          4.93020       -7.37532       -2.64962
|  4> C          3.84189       -6.95161       -3.63283
|  5> H          3.45814       -5.95442       -3.40712
|  6> H          2.98848       -7.64361       -3.56708
|  7> S          4.31812       -6.91593       -5.36869
|  8> F          5.40615       -5.89948       -5.51297
|  9> O          3.11191       -6.44508       -6.04379
| 10> O          4.76340       -8.23942       -5.69863
| 11> H          5.27901       -8.35440       -2.90385
| 12> H          4.53000       -7.38577       -1.65734
| 13> H          5.74437       -6.68276       -2.69856
| 14> *
| 15>
| 16> %MaxCore 64000
| 17>
| 18> %pal nprocs 4
| 19> end
| 20>
| 21> %scf
| 22>   MaxIter 150
| 23> end
| 24>
| 25>
| 26>                          ****END OF INPUT****

CARTESIAN COORDINATES (ANGSTROEM)
---------------------------------
  C      4.930200   -7.375320   -2.649620
  C      3.841890   -6.951610   -3.632830
  H      3.458140   -5.954420   -3.407120
  H      2.988480   -7.643610   -3.567080
  S      4.318120   -6.915930   -5.368690
  F      5.406150   -5.899480   -5.512970
  O      3.111910   -6.445080   -6.043790
  O      4.763400   -8.239420   -5.698630
  H      5.279010   -8.354400   -2.903850
  H      4.530000   -7.385770   -1.657340
  H      5.744370   -6.682760   -2.698560

 Total Charge           Charge          ....    0
 Multiplicity           Mult            ....    1
 Number of Electrons    NEL             ....   58
 Basis Dimension        Dim             ....  113

ORBITAL ENERGIES
----------------

  NO   OCC          E(Eh)            E(eV)
   0   2.0000     -88.592921     -2410.7360
   1   2.0000     -24.500005      -666.6790
   2   2.0000     -18.897318      -514.2222
   3   2.0000     -18.886971      -513.9406
   4   2.0000     -10.056612      -273.6543
   5   2.0000     -10.023650      -272.7574
   6   2.0000      -7.962507      -216.6708
   7   2.0000      -5.951933      -161.9603
   8   2.0000      -5.945848      -161.7948
   9   2.0000      -5.944227      -161.7506
  10   2.0000      -1.239198       -33.7203
  11   2.0000      -1.028652       -27.9910
  12   2.0000      -0.935923       -25.4677
  13   2.0000      -0.757565       -20.6144
  14   2.0000      -0.653347       -17.7785
  15   2.0000      -0.608716       -16.5640
  16   2.0000      -0.518231       -14.1018
  17   2.0000      -0.488180       -13.2841
  18   2.0000      -0.480939       -13.0870
  19   2.0000      -0.446505       -12.1500
  20   2.0000      -0.423785       -11.5318
  21   2.0000      -0.400328       -10.8935
  22   2.0000      -0.382925       -10.4199
  23   2.0000      -0.365974        -9.9587
  24   2.0000      -0.360101        -9.7988
  25   2.0000      -0.328799        -8.9471
  26   2.0000      -0.286376        -7.7927
  27   2.0000      -0.275997        -7.5103
  28   2.0000      -0.261446        -7.1143
  29   0.0000      -0.003366        -0.0916
  30   0.0000       0.041171         1.1203
  31   0.0000       0.054746         1.4897
  32   0.0000       0.073617         2.0032
  33   0.0000       0.080751         2.1973

MULLIKEN ATOMIC CHARGES
-----------------------
   0 C :    0.014837
   1 C :   -0.137736
   2 H :    0.066216
   3 H :    0.094079
   4 S :    0.891752
   5 F :   -0.201628
   6 O :   -0.432635
   7 O :   -0.408346
   8 H :    0.046041
   9 H :    0.038245
  10 H :    0.029175
Sum of atomic charges:    0.0000000

LOEWDIN ATOMIC CHARGES
----------------------
   0 C :   -0.049798
   1 C :   -0.146393
   2 H :    0.032010
   3 H :    0.051880
   4 S :    1.123026
   5 F :   -0.159473
   6 O :   -0.480768
   7 O :   -0.455127
   8 H :    0.028965
   9 H :    0.032767
  10 H :    0.022910

  Mayer bond orders larger than 0.100000
B(  0-C ,  1-C ) :   1.0508 B(  0-C ,  8-H ) :   0.9684 B(  0-C ,  9-H ) :   0.9596
B(  0-C , 10-H ) :   0.9725 B(  1-C ,  2-H ) :   0.9321 B(  1-C ,  3-H ) :   0.9327
B(  1-C ,  4-S ) :   0.8936 B(  4-S ,  5-F ) :   0.9678 B(  4-S ,  6-O ) :   1.7666
B(  4-S ,  7-O ) :   1.7877

Dispersion correction           -0.011463517
FINAL SINGLE POINT ENERGY      -727.320886659561

DIPOLE MOMENT
-------------
                                X             Y             Z
Electronic contribution:      1.29122       2.61655      -8.89360
Nuclear contribution   :     -0.98922      -2.24849      10.35711
                        -----------------------------------------
Total Dipole Moment    :      0.30200       0.36805       1.46351
                        -----------------------------------------
Magnitude (a.u.)       :      1.53900
Magnitude (Debye)      :      3.91184

Rotational constants in cm-1:     0.151436     0.080885     0.078670
Rotational constants in MHz :  4539.936009  2424.868817  2358.476812

                             ****ORCA TERMINATED NORMALLY****
TOTAL RUN TIME: 0 days 0 hours 0 minutes 7 seconds 675 msec
