                         Program Version 5.0.0 -  RELEASE  -
|  1> !TPSS D3BJ RIJCOSX def2-SVP def2/J TightSCF
|  2> *xyz 0 1
|  3> C          5.55821       -1.99291       -6.21505
|  4> C          4.18188       -2.58967       -6.29891
|  5> C          3.14587       -1.76843       -6.48675
|  6> N          4.01910       -3.86431       -6.22743
|  7> H          4.76849       -4.59115       -5.99077
|  8> H          3.12241       -4.33339       -6.31462
|  9> H          3.28164       -0.77779       -6.56655
| 10> H          2.21255       -2.13419       -6.56225
| 11> C          6.41926       -2.54294       -5.07763
| 12> H          6.03683       -2.19819       -7.17685
| 13> H          5.46761       -0.90737       -6.12797
| 14> H          6.50056       -3.60553       -5.17358
| 15> H          5.96544       -2.30329       -4.13874
| 16> H          7.39438       -2.10494       -5.12457
| 17> *
| 18>
| 19> %MaxCore 64000
| 20>
| 21> %pal nprocs 4
| 22> end
| 23>
| 24> %scf
| 25>   MaxIter 150
| 26> end
| 27>
| 28>
| 29>                          ****END OF INPUT****

CARTESIAN COORDINATES (ANGSTROEM)
---------------------------------
  C      5.558210   -1.992910   -6.215050
  C      4.181880   -2.589670   -6.298910
  C      3.145870   -1.768430   -6.486750
  N      4.019100   -3.864310   -6.227430
  H      4.768490   -4.591150   -5.990770
  H      3.122410   -4.333390   -6.314620
  H      3.281640   -0.777790   -6.566550
  H      2.212550   -2.134190   -6.562250
  C      6.419260   -2.542940   -5.077630
  H      6.036830   -2.198190   -7.176850
  H      5.467610   -0.907370   -6.127970
  H      6.500560   -3.605530   -5.173580
  H      5.965440   -2.303290   -4.138740
  H      7.394380   -2.104940   -5.124570

 Total Charge           Charge          ....    0
 Multiplicity           Mult            ....    1
 Number of Electrons    NEL             ....   40
 Basis Dimension        Dim             ....  115

ORBITAL ENERGIES
----------------

  NO   OCC          E(Eh)            E(eV)
   0   2.0000     -14.118847      -384.1933
   1   2.0000     -10.007893      -272.3286
   2   2.0000      -9.995310      -271.9862
   3   2.0000      -9.990048      -271.8430
   4   2.0000      -9.923299      -270.0267
   5   2.0000      -0.853757       -23.2319
   6   2.0000      -0.709663       -19.3109
   7   2.0000      -0.649275       -17.6677
   8   2.0000      -0.570696       -15.5294
   9   2.0000      -0.526374       -14.3234
  10   2.0000      -0.466515       -12.6945
  11   2.0000      -0.422583       -11.4991
  12   2.0000      -0.397076       -10.8050
  13   2.0000      -0.377834       -10.2814
  14   2.0000      -0.345474        -9.4008
  15   2.0000      -0.337707        -9.1895
  16   2.0000      -0.318078        -8.6553
  17   2.0000      -0.290199        -7.8967
  18   2.0000      -0.285372        -7.7654
  19   2.0000      -0.144434        -3.9303
  20   0.0000       0.028673         0.7802
  21   0.0000       0.042496         1.1564
  22   0.0000       0.076815         2.0902
  23   0.0000       0.082344         2.2407
  24   0.0000       0.109227         2.9722

MULLIKEN ATOMIC CHARGES
-----------------------
   0 C :    0.054005
   1 C :   -0.145317
   2 C :   -0.032060
   3 N :   -0.077304
   4 H :    0.121136
   5 H :    0.112496
   6 H :   -0.044053
   7 H :   -0.055471
   8 C :    0.010615
   9 H :    0.019287
  10 H :    0.006941
  11 H :   -0.003747
  12 H :    0.020530
  13 H :    0.012944
Sum of atomic charges:    0.0000000

LOEWDIN ATOMIC CHARGES
----------------------
   0 C :   -0.019972
   1 C :   -0.015855
   2 C :   -0.171488
   3 N :    0.002124
   4 H :    0.086275
   5 H :    0.074969
   6 H :   -0.007267
   7 H :   -0.014407
   8 C :   -0.040376
   9 H :    0.025554
  10 H :    0.030147
  11 H :    0.008093
  12 H :    0.021436
  13 H :    0.020768

  Mayer bond orders larger than 0.100000
B(  0-C ,  1-C ) :   1.0311 B(  0-C ,  8-C ) :   1.0906 B(  0-C ,  9-H ) :   0.9264
B(  0-C , 10-H ) :   0.9280 B(  1-C ,  2-C ) :   1.8252 B(  1-C ,  3-N ) :   1.2807
B(  2-C ,  6-H ) :   0.9357 B(  2-C ,  7-H ) :   0.9465 B(  3-N ,  4-H ) :   0.9421
B(  3-N ,  5-H ) :   0.9462 B(  8-C , 11-H ) :   0.9671 B(  8-C , 12-H ) :   0.9718
B(  8-C , 13-H ) :   0.9627

Dispersion correction           -0.012840611
FINAL SINGLE POINT ENERGY      -212.441538080310

DIPOLE MOMENT
-------------
                                X             Y             Z
Electronic contribution:     -2.04027      -1.14231      -1.02490
Nuclear contribution   :      2.41345       0.31141       1.16343
                        -----------------------------------------
Total Dipole Moment    :      0.37319      -0.83090       0.13853
                        -----------------------------------------
Magnitude (a.u.)       :      0.92133
Magnitude (Debye)      :      2.34183

Rotational constants in cm-1:     0.287957     0.129204     0.097498
Rotational constants in MHz :  8632.737925  3873.424745  2922.919500

                             ****ORCA TERMINATED NORMALLY****
TOTAL RUN TIME: 0 days 0 hours 0 minutes 8 seconds 273 msec
