                         Program Version 5.0.0 -  RELEASE  -
|  1> !TPSS D3BJ RIJCOSX def2-SVP def2/J TightSCF
|  2> *xyz 0 1
|  3> C          4.93020       -7.37532       -2.64962
|  4> C          3.84189       -6.95161       -3.63283
|  5> H          3.45814       -5.95442       -3.40712
|  6> H          2.98848       -7.64361       -3.56708
|  7> S          4.31812       -6.91593       -5.36869
|  8> O          5.40615       -5.89948       -5.51297
|  9> F          3.11191       -6.44508       -6.04379
| 10> O          4.76340       -8.23942       -5.69863
| 11> H          5.27901       -8.35440       -2.90385
| 12> H          4.53000       -7.38577       -1.65734
| 13> H          5.74437       -6.68276       -2.69856
| 14> *
| 15>
| 16> %MaxCore 64000
| 17>
| 18> %pal nprocs 4
| 19> end
| 20>
| 21> %scf
| 22>   MaxIter 150
| 23> end
| 24>
| 25>
| 26>                          ****END OF INPUT****

CARTESIAN COORDINATES (ANGSTROEM)
---------------------------------
  C      4.930200   -7.375320   -2.649620
  C      3.841890   -6.951610   -3.632830
  H      3.458140   -5.954420   -3.407120
  H      2.988480   -7.643610   -3.567080
  S      4.318120   -6.915930   -5.368690
  O      5.406150   -5.899480   -5.512970
  F      3.111910   -6.445080   -6.043790
  O      4.763400   -8.239420   -5.698630
  H      5.279010   -8.354400   -2.903850
  H      4.530000   -7.385770   -1.657340
  H      5.744370   -6.682760   -2.698560

 Total Charge           Charge          ....    0
 Multiplicity           Mult            ....    1
 Number of Electrons    NEL             ....   58
 Basis Dimension        Dim             ....  113

ORBITAL ENERGIES
----------------

  NO   OCC          E(Eh)            E(eV)
   0   2.0000     -88.594169     -2410.7699
   1   2.0000     -24.514666      -667.0780
   2   2.0000     -18.895707      -514.1783
   3   2.0000     -18.878208      -513.7022
   4   2.0000     -10.057469      -273.6776
   5   2.0000     -10.022549      -272.7274
   6   2.0000      -7.963727      -216.7040
   7   2.0000      -5.953352      -161.9990
   8   2.0000      -5.946908      -161.8236
   9   2.0000      -5.945260      -161.7788
  10   2.0000      -1.266651       -34.4673
  11   2.0000      -1.021788       -27.8043
  12   2.0000      -0.916399       -24.9365
  13   2.0000      -0.757144       -20.6029
  14   2.0000      -0.665789       -18.1170
  15   2.0000      -0.609572       -16.5873
  16   2.0000      -0.521126       -14.1806
  17   2.0000      -0.507268       -13.8035
  18   2.0000      -0.489966       -13.3327
  19   2.0000      -0.448820       -12.2130
  20   2.0000      -0.425817       -11.5871
  21   2.0000      -0.386941       -10.5292
  22   2.0000      -0.382531       -10.4092
  23   2.0000      -0.369978       -10.0676
  24   2.0000      -0.350468        -9.5367
  25   2.0000      -0.328889        -8.9495
  26   2.0000      -0.282995        -7.7007
  27   2.0000      -0.266207        -7.2439
  28   2.0000      -0.246676        -6.7124
  29   0.0000       0.009945         0.2706
  30   0.0000       0.031529         0.8579
  31   0.0000       0.056929         1.5491
  32   0.0000       0.063160         1.7187
  33   0.0000       0.080722         2.1965

MULLIKEN ATOMIC CHARGES
-----------------------
   0 C :    0.026644
   1 C :   -0.129672
   2 H :    0.062807
   3 H :    0.062686
   4 S :    0.882226
   5 O :   -0.460876
   6 F :   -0.170676
   7 O :   -0.405843
   8 H :    0.046216
   9 H :    0.038919
  10 H :    0.047567
Sum of atomic charges:    0.0000000

LOEWDIN ATOMIC CHARGES
----------------------
   0 C :   -0.034633
   1 C :   -0.150435
   2 H :    0.030575
   3 H :    0.031818
   4 S :    1.118308
   5 O :   -0.513159
   6 F :   -0.125123
   7 O :   -0.454003
   8 H :    0.031126
   9 H :    0.033872
  10 H :    0.031654

  Mayer bond orders larger than 0.100000
B(  0-C ,  1-C ) :   1.0752 B(  0-C ,  8-H ) :   0.9690 B(  0-C ,  9-H ) :   0.9606
B(  0-C , 10-H ) :   0.9698 B(  1-C ,  2-H ) :   0.9277 B(  1-C ,  3-H ) :   0.9245
B(  1-C ,  4-S ) :   0.8899 B(  4-S ,  5-O ) :   1.7289 B(  4-S ,  6-F ) :   1.0062
B(  4-S ,  7-O ) :   1.7839

Dispersion correction           -0.011510652
FINAL SINGLE POINT ENERGY      -727.308764152175

DIPOLE MOMENT
-------------
                                X             Y             Z
Electronic contribution:     -2.53356       1.70540      -9.78119
Nuclear contribution   :      1.40145      -1.67996      10.91024
                        -----------------------------------------
Total Dipole Moment    :     -1.13211       0.02543       1.12905
                        -----------------------------------------
Magnitude (a.u.)       :      1.59908
Magnitude (Debye)      :      4.06455

Rotational constants in cm-1:     0.155875     0.079864     0.077188
Rotational constants in MHz :  4673.017506  2394.277415  2314.027118

                             ****ORCA TERMINATED NORMALLY****
TOTAL RUN TIME: 0 days 0 hours 0 minutes 7 seconds 455 msec
