                         Program Version 5.0.0 -  RELEASE  -
|  1> !TPSS D3BJ RIJCOSX def2-SVP def2/J TightSCF
|  2> *xyz 0 1
|  3> C          5.55821       -1.99291       -6.21505
|  4> C          4.18188       -2.58967       -6.29891
|  5> N          3.14587       -1.76843       -6.48675
|  6> C          4.01910       -3.86431       -6.22743
|  7> H          4.76849       -4.59115       -5.99077
|  8> H          3.12241       -4.33339       -6.31462
|  9> H          3.28164       -0.77779       -6.56655
| 10> H          2.21255       -2.13419       -6.56225
| 11> C          6.41926       -2.54294       -5.07763
| 12> H          6.03683       -2.19819       -7.17685
| 13> H          5.46761       -0.90737       -6.12797
| 14> H          6.50056       -3.60553       -5.17358
| 15> H          5.96544       -2.30329       -4.13874
| 16> H          7.39438       -2.10494       -5.12457
| 17> *
| 18>
| 19> %MaxCore 64000
| 20>
| 21> %pal nprocs 4
| 22> end
| 23>
| 24> %scf
| 25>   MaxIter 150
| 26> end
| 27>
| 28>
| 29>                          ****END OF INPUT****

CARTESIAN COORDINATES (ANGSTROEM)
---------------------------------
  C      5.558210   -1.992910   -6.215050
  C      4.181880   -2.589670   -6.298910
  N      3.145870   -1.768430   -6.486750
  C      4.019100   -3.864310   -6.227430
  H      4.768490   -4.591150   -5.990770
  H      3.122410   -4.333390   -6.314620
  H      3.281640   -0.777790   -6.566550
  H      2.212550   -2.134190   -6.562250
  C      6.419260   -2.542940   -5.077630
  H      6.036830   -2.198190   -7.176850
  H      5.467610   -0.907370   -6.127970
  H      6.500560   -3.605530   -5.173580
  H      5.965440   -2.303290   -4.138740
  H      7.394380   -2.104940   -5.124570

 Total Charge           Charge          ....    0
 Multiplicity           Mult            ....    1
 Number of Electrons    NEL             ....   40
 Basis Dimension        Dim             ....  115

ORBITAL ENERGIES
----------------

  NO   OCC          E(Eh)            E(eV)
   0   2.0000     -14.107768      -383.8919
   1   2.0000     -10.005908      -272.2746
   2   2.0000      -9.996526      -272.0193
   3   2.0000      -9.983564      -271.6666
   4   2.0000      -9.929979      -270.2085
   5   2.0000      -0.843706       -22.9584
   6   2.0000      -0.712098       -19.3772
   7   2.0000      -0.645208       -17.5570
   8   2.0000      -0.580742       -15.8028
   9   2.0000      -0.501657       -13.6508
  10   2.0000      -0.471917       -12.8415
  11   2.0000      -0.435084       -11.8392
  12   2.0000      -0.401510       -10.9256
  13   2.0000      -0.371246       -10.1021
  14   2.0000      -0.339670        -9.2429
  15   2.0000      -0.329279        -8.9601
  16   2.0000      -0.310298        -8.4436
  17   2.0000      -0.293835        -7.9957
  18   2.0000      -0.279903        -7.6165
  19   2.0000      -0.151026        -4.1096
  20   0.0000       0.039842         1.0842
  21   0.0000       0.046840         1.2746
  22   0.0000       0.080593         2.1930
  23   0.0000       0.088521         2.4088
  24   0.0000       0.108288         2.9467

MULLIKEN ATOMIC CHARGES
-----------------------
   0 C :    0.049316
   1 C :   -0.087747
   2 N :   -0.079151
   3 C :   -0.105150
   4 H :   -0.012550
   5 H :   -0.047499
   6 H :    0.101495
   7 H :    0.106178
   8 C :    0.016222
   9 H :    0.031253
  10 H :   -0.017295
  11 H :    0.023572
  12 H :    0.015988
  13 H :    0.005369
Sum of atomic charges:    0.0000000

LOEWDIN ATOMIC CHARGES
----------------------
   0 C :   -0.022285
   1 C :   -0.008337
   2 N :   -0.000190
   3 C :   -0.172284
   4 H :    0.009289
   5 H :   -0.009330
   6 H :    0.062010
   7 H :    0.070518
   8 C :   -0.030517
   9 H :    0.032962
  10 H :    0.011683
  11 H :    0.019948
  12 H :    0.020132
  13 H :    0.016402

  Mayer bond orders larger than 0.100000
B(  0-C ,  1-C ) :   1.0002 B(  0-C ,  8-C ) :   1.1092 B(  0-C ,  9-H ) :   0.9297
B(  0-C , 10-H ) :   0.9281 B(  1-C ,  2-N ) :   1.2642 B(  1-C ,  3-C ) :   1.8596
B(  2-N ,  6-H ) :   0.9502 B(  2-N ,  7-H ) :   0.9490 B(  3-C ,  4-H ) :   0.9527
B(  3-C ,  5-H ) :   0.9457 B(  8-C , 11-H ) :   0.9697 B(  8-C , 12-H ) :   0.9728
B(  8-C , 13-H ) :   0.9611

Dispersion correction           -0.012885411
FINAL SINGLE POINT ENERGY      -212.450273843337

DIPOLE MOMENT
-------------
                                X             Y             Z
Electronic contribution:     -2.86089       0.86582      -1.30793
Nuclear contribution   :      2.61570      -0.17401       1.22349
                        -----------------------------------------
Total Dipole Moment    :     -0.24519       0.69180      -0.08444
                        -----------------------------------------
Magnitude (a.u.)       :      0.73881
Magnitude (Debye)      :      1.87790

Rotational constants in cm-1:     0.298189     0.125314     0.096441
Rotational constants in MHz :  8939.495008  3756.825352  2891.223400

                             ****ORCA TERMINATED NORMALLY****
TOTAL RUN TIME: 0 days 0 hours 0 minutes 7 seconds 788 msec
