                         Program Version 5.0.0 -  RELEASE  -
|  1> !TPSS D3BJ RIJCOSX def2-SVP def2/J TightSCF
|  2> *xyz 0 1
|  3> C          4.93020       -7.37532       -2.64962
|  4> C          3.84189       -6.95161       -3.63283
|  5> H          3.45814       -5.95442       -3.40712
|  6> H          2.98848       -7.64361       -3.56708
|  7> S          4.31812       -6.91593       -5.36869
|  8> O          5.40615       -5.89948       -5.51297
|  9> O          3.11191       -6.44508       -6.04379
| 10> F          4.76340       -8.23942       -5.69863
| 11> H          5.27901       -8.35440       -2.90385
| 12> H          4.53000       -7.38577       -1.65734
| 13> H          5.74437       -6.68276       -2.69856
| 14> *
| 15>
| 16> %MaxCore 64000
| 17>
| 18> %pal nprocs 4
| 19> end
| 20>
| 21> %scf
| 22>   MaxIter 150
| 23> end
| 24>
| 25>
| 26>                          ****END OF INPUT****

CARTESIAN COORDINATES (ANGSTROEM)
---------------------------------
  C      4.930200   -7.375320   -2.649620
  C      3.841890   -6.951610   -3.632830
  H      3.458140   -5.954420   -3.407120
  H      2.988480   -7.643610   -3.567080
  S      4.318120   -6.915930   -5.368690
  O      5.406150   -5.899480   -5.512970
  O      3.111910   -6.445080   -6.043790
  F      4.763400   -8.239420   -5.698630
  H      5.279010   -8.354400   -2.903850
  H      4.530000   -7.385770   -1.657340
  H      5.744370   -6.682760   -2.698560

 Total Charge           Charge          ....    0
 Multiplicity           Mult            ....    1
 Number of Electrons    NEL             ....   58
 Basis Dimension        Dim             ....  113

ORBITAL ENERGIES
----------------

  NO   OCC          E(Eh)            E(eV)
   0   2.0000     -88.595323     -2410.8013
   1   2.0000     -24.528068      -667.4427
   2   2.0000     -18.886497      -513.9277
   3   2.0000     -18.879344      -513.7331
   4   2.0000     -10.057523      -273.6791
   5   2.0000     -10.024502      -272.7806
   6   2.0000      -7.964901      -216.7360
   7   2.0000      -5.954838      -162.0394
   8   2.0000      -5.947804      -161.8480
   9   2.0000      -5.946283      -161.8066
  10   2.0000      -1.288829       -35.0708
  11   2.0000      -1.010514       -27.4975
  12   2.0000      -0.909090       -24.7376
  13   2.0000      -0.759498       -20.6670
  14   2.0000      -0.667963       -18.1762
  15   2.0000      -0.620792       -16.8926
  16   2.0000      -0.537564       -14.6279
  17   2.0000      -0.521354       -14.1868
  18   2.0000      -0.488306       -13.2875
  19   2.0000      -0.447908       -12.1882
  20   2.0000      -0.424447       -11.5498
  21   2.0000      -0.398966       -10.8564
  22   2.0000      -0.377831       -10.2813
  23   2.0000      -0.367176        -9.9914
  24   2.0000      -0.355526        -9.6744
  25   2.0000      -0.319734        -8.7004
  26   2.0000      -0.274323        -7.4647
  27   2.0000      -0.265031        -7.2119
  28   2.0000      -0.241102        -6.5607
  29   0.0000       0.004525         0.1231
  30   0.0000       0.034812         0.9473
  31   0.0000       0.051471         1.4006
  32   0.0000       0.066490         1.8093
  33   0.0000       0.075534         2.0554

MULLIKEN ATOMIC CHARGES
-----------------------
   0 C :    0.015125
   1 C :   -0.134322
   2 H :    0.093376
   3 H :    0.065775
   4 S :    0.875673
   5 O :   -0.456338
   6 O :   -0.425692
   7 F :   -0.145958
   8 H :    0.025828
   9 H :    0.038845
  10 H :    0.047688
Sum of atomic charges:   -0.0000000

LOEWDIN ATOMIC CHARGES
----------------------
   0 C :   -0.050045
   1 C :   -0.146131
   2 H :    0.050318
   3 H :    0.032854
   4 S :    1.114086
   5 O :   -0.509030
   6 O :   -0.475620
   7 F :   -0.100574
   8 H :    0.021522
   9 H :    0.032979
  10 H :    0.029640

  Mayer bond orders larger than 0.100000
B(  0-C ,  1-C ) :   1.0495 B(  0-C ,  8-H ) :   0.9715 B(  0-C ,  9-H ) :   0.9595
B(  0-C , 10-H ) :   0.9689 B(  1-C ,  2-H ) :   0.9344 B(  1-C ,  3-H ) :   0.9284
B(  1-C ,  4-S ) :   0.8896 B(  4-S ,  5-O ) :   1.7260 B(  4-S ,  6-O ) :   1.7604
B(  4-S ,  7-F ) :   1.0318

Dispersion correction           -0.011453405
FINAL SINGLE POINT ENERGY      -727.296948246387

DIPOLE MOMENT
-------------
                                X             Y             Z
Electronic contribution:      0.21709      -1.27076      -9.21351
Nuclear contribution   :     -0.31946       0.18980      10.55057
                        -----------------------------------------
Total Dipole Moment    :     -0.10236      -1.08097       1.33706
                        -----------------------------------------
Magnitude (a.u.)       :      1.72241
Magnitude (Debye)      :      4.37802

Rotational constants in cm-1:     0.151421     0.081183     0.078684
Rotational constants in MHz :  4539.489207  2433.790160  2358.892966

                             ****ORCA TERMINATED NORMALLY****
TOTAL RUN TIME: 0 days 0 hours 0 minutes 7 seconds 437 msec
