                         Program Version 5.0.0 -  RELEASE  -
|  1> !TPSS D3BJ RIJCOSX def2-TZVP def2/J TightSCF xyzfile
|  2>
|  3> *xyzfile 0 1 D1.xyz
|  4>
|  5> %MaxCore 64000
|  6>
|  7> %pal nprocs 18
|  8> end
|  9>
| 10> %scf
| 11>   MaxIter 150
| 12> end
| 13>
| 14>
| 15>                          ****END OF INPUT****

CARTESIAN COORDINATES (ANGSTROEM)
---------------------------------
  C      5.558206   -1.992914   -6.215054
  C      4.930199   -7.375319   -2.649623
  C      3.841892   -6.951611   -3.632829
  H      3.458144   -5.954425   -3.407121
  H      2.988484   -7.643606   -3.567078
  S      4.318115   -6.915930   -5.368692
  C      4.181880   -2.589671   -6.298911
  C      3.145873   -1.768431   -6.486753
  N      4.019102   -3.864307   -6.227427
  H      4.768490   -4.591153   -5.990773
  H      3.122405   -4.333392   -6.314620
  H      3.281635   -0.777786   -6.566549
  H      2.212549   -2.134193   -6.562246
  F      5.406154   -5.899480   -5.512972
  O      3.111910   -6.445079   -6.043792
  C      6.419260   -2.542944   -5.077630
  C      5.872267   -5.002756   -2.427819
  C      6.173994   -6.485522   -2.606315
  H      6.734852   -6.613767   -3.534015
  H      6.821463   -6.831018   -1.793617
  H      4.469612   -7.406168   -1.655876
  H      5.230134   -8.398678   -2.885906
  C      5.896512   -2.169314   -3.694552
  H      7.428880   -2.143665   -5.208078
  H      6.505894   -3.627541   -5.175502
  C      6.807804   -2.623428   -2.551019
  H      4.894708   -2.589732   -3.557501
  H      5.778823   -1.081255   -3.635790
  C      7.111544   -4.122463   -2.520363
  H      7.751615   -2.071393   -2.614406
  H      6.345837   -2.326401   -1.604086
  H      5.362882   -4.828697   -1.471335
  H      5.174429   -4.702577   -3.211298
  H      7.778329   -4.329347   -1.677651
  H      7.673189   -4.402845   -3.417586
  O      4.763396   -8.239424   -5.698629
  H      6.036826   -2.198189   -7.176852
  H      5.467610   -0.907371   -6.127968

 Total Charge           Charge          ....    0
 Multiplicity           Mult            ....    1
 Number of Electrons    NEL             ....  136
 Basis Dimension        Dim             ....  634

ORBITAL ENERGIES
----------------

  NO   OCC          E(Eh)            E(eV)
   0   2.0000     -88.599159     -2410.9057
   1   2.0000     -24.532168      -667.5542
   2   2.0000     -18.914841      -514.6990
   3   2.0000     -18.908161      -514.5172
   4   2.0000     -14.083913      -383.2428
   5   2.0000     -10.054640      -273.6007
   6   2.0000     -10.019802      -272.6527
   7   2.0000     -10.004109      -272.2256
   8   2.0000      -9.995380      -271.9881
   9   2.0000      -9.988620      -271.8042
  10   2.0000      -9.987326      -271.7690
  11   2.0000      -9.983281      -271.6589
  12   2.0000      -9.981956      -271.6228
  13   2.0000      -9.978089      -271.5176
  14   2.0000      -9.976658      -271.4787
  15   2.0000      -9.900967      -269.4190
  16   2.0000      -7.949132      -216.3069
  17   2.0000      -5.932813      -161.4401
  18   2.0000      -5.925297      -161.2355
  19   2.0000      -5.925106      -161.2303
  20   2.0000      -1.294421       -35.2230
  21   2.0000      -1.057114       -28.7655
  22   2.0000      -0.970045       -26.3963
  23   2.0000      -0.855378       -23.2760
  24   2.0000      -0.792033       -21.5523
  25   2.0000      -0.760682       -20.6992
  26   2.0000      -0.734074       -19.9752
  27   2.0000      -0.703385       -19.1401
  28   2.0000      -0.683830       -18.6080
  29   2.0000      -0.656250       -17.8575
  30   2.0000      -0.643700       -17.5160
  31   2.0000      -0.607520       -16.5315
  32   2.0000      -0.573519       -15.6062
  33   2.0000      -0.560855       -15.2616
  34   2.0000      -0.556440       -15.1415
  35   2.0000      -0.531091       -14.4517
  36   2.0000      -0.522955       -14.2303
  37   2.0000      -0.513679       -13.9779
  38   2.0000      -0.508028       -13.8241
  39   2.0000      -0.465122       -12.6566
  40   2.0000      -0.457150       -12.4397
  41   2.0000      -0.446087       -12.1386
  42   2.0000      -0.439953       -11.9717
  43   2.0000      -0.430784       -11.7222
  44   2.0000      -0.421436       -11.4679
  45   2.0000      -0.417587       -11.3631
  46   2.0000      -0.408666       -11.1204
  47   2.0000      -0.393336       -10.7032
  48   2.0000      -0.390460       -10.6250
  49   2.0000      -0.380933       -10.3657
  50   2.0000      -0.370910       -10.0930
  51   2.0000      -0.367033        -9.9875
  52   2.0000      -0.353924        -9.6308
  53   2.0000      -0.340869        -9.2755
  54   2.0000      -0.334682        -9.1072
  55   2.0000      -0.331835        -9.0297
  56   2.0000      -0.329168        -8.9571
  57   2.0000      -0.319282        -8.6881
  58   2.0000      -0.313035        -8.5181
  59   2.0000      -0.308054        -8.3826
  60   2.0000      -0.301265        -8.1978
  61   2.0000      -0.299148        -8.1402
  62   2.0000      -0.296277        -8.0621
  63   2.0000      -0.290725        -7.9110
  64   2.0000      -0.284319        -7.7367
  65   2.0000      -0.275728        -7.5029
  66   2.0000      -0.271875        -7.3981
  67   2.0000      -0.142896        -3.8884
  68   0.0000      -0.033577        -0.9137
  69   0.0000       0.008046         0.2190
  70   0.0000       0.011213         0.3051
  71   0.0000       0.021990         0.5984
  72   0.0000       0.026531         0.7220

MULLIKEN ATOMIC CHARGES
-----------------------
   0 C :   -0.084030
   1 C :   -0.118004
   2 C :   -0.286099
   3 H :    0.168416
   4 H :    0.164254
   5 S :    0.790222
   6 C :    0.125108
   7 C :   -0.431745
   8 N :   -0.453505
   9 H :    0.244449
  10 H :    0.251316
  11 H :    0.098535
  12 H :    0.086147
  13 F :   -0.110655
  14 O :   -0.410442
  15 C :   -0.261376
  16 C :   -0.272805
  17 C :   -0.195029
  18 H :    0.106556
  19 H :    0.100749
  20 H :    0.099797
  21 H :    0.127247
  22 C :   -0.205677
  23 H :    0.086424
  24 H :    0.089836
  25 C :   -0.077677
  26 H :    0.121004
  27 H :    0.085043
  28 C :   -0.165186
  29 H :    0.084189
  30 H :    0.078226
  31 H :    0.088400
  32 H :    0.082344
  33 H :    0.087166
  34 H :    0.097630
  35 O :   -0.369412
  36 H :    0.091374
  37 H :    0.087212
Sum of atomic charges:   -0.0000000

LOEWDIN ATOMIC CHARGES
----------------------
   0 C :   -0.206921
   1 C :   -0.278726
   2 C :   -0.364147
   3 H :    0.141225
   4 H :    0.155618
   5 S :    0.527597
   6 C :   -0.385906
   7 C :   -0.282547
   8 N :   -0.003240
   9 H :    0.149485
  10 H :    0.170328
  11 H :    0.095501
  12 H :    0.090712
  13 F :    0.071037
  14 O :   -0.251106
  15 C :   -0.263783
  16 C :   -0.267594
  17 C :   -0.268650
  18 H :    0.132412
  19 H :    0.139463
  20 H :    0.144969
  21 H :    0.143628
  22 C :   -0.260890
  23 H :    0.135125
  24 H :    0.123262
  25 C :   -0.261393
  26 H :    0.136676
  27 H :    0.137111
  28 C :   -0.263688
  29 H :    0.134209
  30 H :    0.133213
  31 H :    0.135289
  32 H :    0.126839
  33 H :    0.133745
  34 H :    0.133868
  35 O :   -0.221535
  36 H :    0.141914
  37 H :    0.146898

  Mayer bond orders larger than 0.100000
B(  0-C ,  6-C ) :   1.0198 B(  0-C , 15-C ) :   0.9923 B(  0-C , 36-H ) :   0.9325
B(  0-C , 37-H ) :   0.9467 B(  1-C ,  2-C ) :   0.9876 B(  1-C , 17-C ) :   1.0270
B(  1-C , 20-H ) :   0.9260 B(  1-C , 21-H ) :   0.9436 B(  2-C ,  3-H ) :   0.9289
B(  2-C ,  4-H ) :   0.9223 B(  2-C ,  5-S ) :   0.9056 B(  5-S , 13-F ) :   1.0343
B(  5-S , 14-O ) :   1.8676 B(  5-S , 35-O ) :   1.9781 B(  6-C ,  7-C ) :   1.7490
B(  6-C ,  8-N ) :   1.2529 B(  7-C , 11-H ) :   0.9770 B(  7-C , 12-H ) :   0.9725
B(  8-N ,  9-H ) :   0.8675 B(  8-N , 10-H ) :   0.8843 B( 15-C , 22-C ) :   1.0110
B( 15-C , 23-H ) :   0.9350 B( 15-C , 24-H ) :   0.9729 B( 16-C , 17-C ) :   0.9928
B( 16-C , 28-C ) :   1.0340 B( 16-C , 31-H ) :   0.9413 B( 16-C , 32-H ) :   0.9573
B( 17-C , 18-H ) :   0.9598 B( 17-C , 19-H ) :   0.9443 B( 22-C , 25-C ) :   1.0103
B( 22-C , 26-H ) :   0.9666 B( 22-C , 27-H ) :   0.9375 B( 25-C , 28-C ) :   1.0104
B( 25-C , 29-H ) :   0.9452 B( 25-C , 30-H ) :   0.9467 B( 28-C , 33-H ) :   0.9398
B( 28-C , 34-H ) :   0.9559

Dispersion correction           -0.057312747
FINAL SINGLE POINT ENERGY     -1136.062315937558

DIPOLE MOMENT
-------------
                                X             Y             Z
Electronic contribution:     -7.03997     -18.83509     -13.30184
Nuclear contribution   :      7.78491      18.17172      15.09294
                        -----------------------------------------
Total Dipole Moment    :      0.74494      -0.66337       1.79109
                        -----------------------------------------
Magnitude (a.u.)       :      2.05013
Magnitude (Debye)      :      5.21100

Rotational constants in cm-1:     0.018190     0.012573     0.008405
Rotational constants in MHz :   545.327178   376.916509   251.974803

                             ****ORCA TERMINATED NORMALLY****
TOTAL RUN TIME: 0 days 0 hours 0 minutes 33 seconds 799 msec
