                         Program Version 5.0.0 -  RELEASE  -
|  1> !TPSS D3BJ RIJCOSX def2-TZVP def2/J TightSCF xyzfile
|  2>
|  3> *xyzfile 0 1 D2.xyz
|  4>
|  5> %MaxCore 64000
|  6>
|  7> %pal nprocs 18
|  8> end
|  9>
| 10> %scf
| 11>   MaxIter 150
| 12> end
| 13>
| 14>
| 15>                          ****END OF INPUT****

CARTESIAN COORDINATES (ANGSTROEM)
---------------------------------
  C      5.558206   -1.992914   -6.215054
  C      4.930199   -7.375319   -2.649623
  C      3.841892   -6.951611   -3.632829
  H      3.458144   -5.954425   -3.407121
  H      2.988484   -7.643606   -3.567078
  S      4.318115   -6.915930   -5.368692
  C      4.181880   -2.589671   -6.298911
  N      3.145873   -1.768431   -6.486753
  C      4.019102   -3.864307   -6.227427
  H      4.768490   -4.591153   -5.990773
  H      3.122405   -4.333392   -6.314620
  H      3.281635   -0.777786   -6.566549
  H      2.212549   -2.134193   -6.562246
  F      5.406154   -5.899480   -5.512972
  O      3.111910   -6.445079   -6.043792
  C      6.419260   -2.542944   -5.077630
  C      5.872267   -5.002756   -2.427819
  C      6.173994   -6.485522   -2.606315
  H      6.734852   -6.613767   -3.534015
  H      6.821463   -6.831018   -1.793617
  H      4.469612   -7.406168   -1.655876
  H      5.230134   -8.398678   -2.885906
  C      5.896512   -2.169314   -3.694552
  H      7.428880   -2.143665   -5.208078
  H      6.505894   -3.627541   -5.175502
  C      6.807804   -2.623428   -2.551019
  H      4.894708   -2.589732   -3.557501
  H      5.778823   -1.081255   -3.635790
  C      7.111544   -4.122463   -2.520363
  H      7.751615   -2.071393   -2.614406
  H      6.345837   -2.326401   -1.604086
  H      5.362882   -4.828697   -1.471335
  H      5.174429   -4.702577   -3.211298
  H      7.778329   -4.329347   -1.677651
  H      7.673189   -4.402845   -3.417586
  O      4.763396   -8.239424   -5.698629
  H      6.036826   -2.198189   -7.176852
  H      5.467610   -0.907371   -6.127968

 Total Charge           Charge          ....    0
 Multiplicity           Mult            ....    1
 Number of Electrons    NEL             ....  136
 Basis Dimension        Dim             ....  634

ORBITAL ENERGIES
----------------

  NO   OCC          E(Eh)            E(eV)
   0   2.0000     -88.576916     -2410.3004
   1   2.0000     -24.500526      -666.6932
   2   2.0000     -18.893976      -514.1312
   3   2.0000     -18.882698      -513.8243
   4   2.0000     -14.091137      -383.4393
   5   2.0000     -10.038244      -273.1545
   6   2.0000     -10.007621      -272.3212
   7   2.0000      -9.993602      -271.9397
   8   2.0000      -9.987610      -271.7767
   9   2.0000      -9.986003      -271.7330
  10   2.0000      -9.982274      -271.6315
  11   2.0000      -9.980017      -271.5701
  12   2.0000      -9.979533      -271.5569
  13   2.0000      -9.978683      -271.5338
  14   2.0000      -9.975184      -271.4386
  15   2.0000      -9.896098      -269.2865
  16   2.0000      -7.926570      -215.6929
  17   2.0000      -5.910035      -160.8202
  18   2.0000      -5.902923      -160.6267
  19   2.0000      -5.902689      -160.6203
  20   2.0000      -1.264289       -34.4031
  21   2.0000      -1.034410       -28.1477
  22   2.0000      -0.946577       -25.7577
  23   2.0000      -0.853158       -23.2156
  24   2.0000      -0.779130       -21.2012
  25   2.0000      -0.755262       -20.5517
  26   2.0000      -0.727938       -19.8082
  27   2.0000      -0.700283       -19.0557
  28   2.0000      -0.665126       -18.0990
  29   2.0000      -0.653390       -17.7797
  30   2.0000      -0.628072       -17.0907
  31   2.0000      -0.606221       -16.4961
  32   2.0000      -0.571201       -15.5432
  33   2.0000      -0.553866       -15.0714
  34   2.0000      -0.532072       -14.4784
  35   2.0000      -0.514244       -13.9933
  36   2.0000      -0.509373       -13.8608
  37   2.0000      -0.493037       -13.4162
  38   2.0000      -0.489695       -13.3253
  39   2.0000      -0.468300       -12.7431
  40   2.0000      -0.449822       -12.2403
  41   2.0000      -0.443288       -12.0625
  42   2.0000      -0.439586       -11.9617
  43   2.0000      -0.422737       -11.5033
  44   2.0000      -0.412757       -11.2317
  45   2.0000      -0.408668       -11.1204
  46   2.0000      -0.401883       -10.9358
  47   2.0000      -0.392488       -10.6801
  48   2.0000      -0.376030       -10.2323
  49   2.0000      -0.371557       -10.1106
  50   2.0000      -0.363364        -9.8876
  51   2.0000      -0.360869        -9.8197
  52   2.0000      -0.336425        -9.1546
  53   2.0000      -0.332695        -9.0531
  54   2.0000      -0.327788        -8.9196
  55   2.0000      -0.322624        -8.7790
  56   2.0000      -0.312706        -8.5092
  57   2.0000      -0.310383        -8.4459
  58   2.0000      -0.301565        -8.2060
  59   2.0000      -0.297161        -8.0862
  60   2.0000      -0.293228        -7.9792
  61   2.0000      -0.287355        -7.8193
  62   2.0000      -0.280958        -7.6453
  63   2.0000      -0.279638        -7.6093
  64   2.0000      -0.277621        -7.5544
  65   2.0000      -0.270516        -7.3611
  66   2.0000      -0.261282        -7.1098
  67   2.0000      -0.151790        -4.1304
  68   0.0000      -0.011834        -0.3220
  69   0.0000       0.018552         0.5048
  70   0.0000       0.021757         0.5920
  71   0.0000       0.024848         0.6762
  72   0.0000       0.030937         0.8418

MULLIKEN ATOMIC CHARGES
-----------------------
   0 C :   -0.073176
   1 C :   -0.114546
   2 C :   -0.284809
   3 H :    0.164976
   4 H :    0.156518
   5 S :    0.791009
   6 C :    0.176450
   7 N :   -0.462742
   8 C :   -0.493831
   9 H :    0.138230
  10 H :    0.114898
  11 H :    0.223599
  12 H :    0.225582
  13 F :   -0.100552
  14 O :   -0.397759
  15 C :   -0.249766
  16 C :   -0.271195
  17 C :   -0.194992
  18 H :    0.106811
  19 H :    0.094612
  20 H :    0.093289
  21 H :    0.122602
  22 C :   -0.211329
  23 H :    0.077968
  24 H :    0.105641
  25 C :   -0.073613
  26 H :    0.123834
  27 H :    0.075268
  28 C :   -0.165245
  29 H :    0.081661
  30 H :    0.075234
  31 H :    0.081581
  32 H :    0.102523
  33 H :    0.083631
  34 H :    0.097637
  35 O :   -0.383269
  36 H :    0.101306
  37 H :    0.061965
Sum of atomic charges:    0.0000000

LOEWDIN ATOMIC CHARGES
----------------------
   0 C :   -0.207885
   1 C :   -0.280333
   2 C :   -0.365534
   3 H :    0.140418
   4 H :    0.152768
   5 S :    0.530518
   6 C :   -0.374736
   7 N :   -0.000643
   8 C :   -0.304576
   9 H :    0.094597
  10 H :    0.100835
  11 H :    0.157159
  12 H :    0.165714
  13 F :    0.075024
  14 O :   -0.240097
  15 C :   -0.252962
  16 C :   -0.267161
  17 C :   -0.268837
  18 H :    0.133137
  19 H :    0.137502
  20 H :    0.142488
  21 H :    0.142608
  22 C :   -0.262666
  23 H :    0.133228
  24 H :    0.132354
  25 C :   -0.261874
  26 H :    0.136614
  27 H :    0.132693
  28 C :   -0.263542
  29 H :    0.133223
  30 H :    0.132458
  31 H :    0.133576
  32 H :    0.131499
  33 H :    0.132864
  34 H :    0.134332
  35 O :   -0.233988
  36 H :    0.147511
  37 H :    0.131716

  Mayer bond orders larger than 0.100000
B(  0-C ,  6-C ) :   0.9870 B(  0-C , 15-C ) :   1.0130 B(  0-C , 36-H ) :   0.9319
B(  0-C , 37-H ) :   0.9374 B(  1-C ,  2-C ) :   0.9892 B(  1-C , 17-C ) :   1.0295
B(  1-C , 20-H ) :   0.9270 B(  1-C , 21-H ) :   0.9429 B(  2-C ,  3-H ) :   0.9315
B(  2-C ,  4-H ) :   0.9256 B(  2-C ,  5-S ) :   0.9048 B(  5-S , 13-F ) :   1.0609
B(  5-S , 14-O ) :   1.8905 B(  5-S , 35-O ) :   1.9641 B(  6-C ,  7-N ) :   1.1671
B(  6-C ,  8-C ) :   1.7797 B(  7-N , 11-H ) :   0.9173 B(  7-N , 12-H ) :   0.9106
B(  8-C ,  9-H ) :   0.9949 B(  8-C , 10-H ) :   0.9552 B( 15-C , 22-C ) :   1.0263
B( 15-C , 23-H ) :   0.9336 B( 15-C , 24-H ) :   0.9636 B( 16-C , 17-C ) :   0.9992
B( 16-C , 28-C ) :   1.0359 B( 16-C , 31-H ) :   0.9410 B( 16-C , 32-H ) :   0.9544
B( 17-C , 18-H ) :   0.9580 B( 17-C , 19-H ) :   0.9437 B( 22-C , 25-C ) :   1.0172
B( 22-C , 26-H ) :   0.9618 B( 22-C , 27-H ) :   0.9373 B( 25-C , 28-C ) :   1.0117
B( 25-C , 29-H ) :   0.9452 B( 25-C , 30-H ) :   0.9459 B( 28-C , 33-H ) :   0.9401
B( 28-C , 34-H ) :   0.9557

Dispersion correction           -0.057685356
FINAL SINGLE POINT ENERGY     -1136.055981654628

DIPOLE MOMENT
-------------
                                X             Y             Z
Electronic contribution:     -7.79790     -16.94244     -13.73666
Nuclear contribution   :      7.91684      17.85507      15.13212
                        -----------------------------------------
Total Dipole Moment    :      0.11894       0.91263       1.39546
                        -----------------------------------------
Magnitude (a.u.)       :      1.67163
Magnitude (Debye)      :      4.24894

Rotational constants in cm-1:     0.018015     0.012410     0.008313
Rotational constants in MHz :   540.084467   372.038374   249.228144

                             ****ORCA TERMINATED NORMALLY****
TOTAL RUN TIME: 0 days 0 hours 0 minutes 32 seconds 498 msec
