                         Program Version 5.0.0 -  RELEASE  -
|  1> !TPSS D3BJ RIJCOSX def2-TZVP def2/J TightSCF xyzfile
|  2>
|  3> *xyzfile 0 1 D3.xyz
|  4>
|  5> %MaxCore 64000
|  6>
|  7> %pal nprocs 18
|  8> end
|  9>
| 10> %scf
| 11>   MaxIter 150
| 12> end
| 13>
| 14>
| 15>                          ****END OF INPUT****

CARTESIAN COORDINATES (ANGSTROEM)
---------------------------------
  C      5.558206   -1.992914   -6.215054
  C      4.930199   -7.375319   -2.649623
  C      3.841892   -6.951611   -3.632829
  H      3.458144   -5.954425   -3.407121
  H      2.988484   -7.643606   -3.567078
  S      4.318115   -6.915930   -5.368692
  C      4.181880   -2.589671   -6.298911
  C      3.145873   -1.768431   -6.486753
  N      4.019102   -3.864307   -6.227427
  H      4.768490   -4.591153   -5.990773
  H      3.122405   -4.333392   -6.314620
  H      3.281635   -0.777786   -6.566549
  H      2.212549   -2.134193   -6.562246
  O      5.406154   -5.899480   -5.512972
  F      3.111910   -6.445079   -6.043792
  C      6.419260   -2.542944   -5.077630
  C      5.872267   -5.002756   -2.427819
  C      6.173994   -6.485522   -2.606315
  H      6.734852   -6.613767   -3.534015
  H      6.821463   -6.831018   -1.793617
  H      4.469612   -7.406168   -1.655876
  H      5.230134   -8.398678   -2.885906
  C      5.896512   -2.169314   -3.694552
  H      7.428880   -2.143665   -5.208078
  H      6.505894   -3.627541   -5.175502
  C      6.807804   -2.623428   -2.551019
  H      4.894708   -2.589732   -3.557501
  H      5.778823   -1.081255   -3.635790
  C      7.111544   -4.122463   -2.520363
  H      7.751615   -2.071393   -2.614406
  H      6.345837   -2.326401   -1.604086
  H      5.362882   -4.828697   -1.471335
  H      5.174429   -4.702577   -3.211298
  H      7.778329   -4.329347   -1.677651
  H      7.673189   -4.402845   -3.417586
  O      4.763396   -8.239424   -5.698629
  H      6.036826   -2.198189   -7.176852
  H      5.467610   -0.907371   -6.127968

 Total Charge           Charge          ....    0
 Multiplicity           Mult            ....    1
 Number of Electrons    NEL             ....  136
 Basis Dimension        Dim             ....  634

ORBITAL ENERGIES
----------------

  NO   OCC          E(Eh)            E(eV)
   0   2.0000     -88.608884     -2411.1703
   1   2.0000     -24.541041      -667.7957
   2   2.0000     -18.920132      -514.8430
   3   2.0000     -18.913845      -514.6719
   4   2.0000     -14.071977      -382.9180
   5   2.0000     -10.059419      -273.7307
   6   2.0000     -10.022377      -272.7227
   7   2.0000      -9.993122      -271.9267
   8   2.0000      -9.983795      -271.6729
   9   2.0000      -9.981022      -271.5974
  10   2.0000      -9.978047      -271.5165
  11   2.0000      -9.974344      -271.4157
  12   2.0000      -9.968912      -271.2679
  13   2.0000      -9.968613      -271.2597
  14   2.0000      -9.968308      -271.2514
  15   2.0000      -9.895090      -269.2591
  16   2.0000      -7.958524      -216.5625
  17   2.0000      -5.941785      -161.6842
  18   2.0000      -5.935292      -161.5075
  19   2.0000      -5.934384      -161.4828
  20   2.0000      -1.310787       -35.6683
  21   2.0000      -1.058621       -28.8065
  22   2.0000      -0.969533       -26.3823
  23   2.0000      -0.846966       -23.0471
  24   2.0000      -0.790400       -21.5079
  25   2.0000      -0.753206       -20.4958
  26   2.0000      -0.728941       -19.8355
  27   2.0000      -0.701655       -19.0930
  28   2.0000      -0.679769       -18.4975
  29   2.0000      -0.652970       -17.7682
  30   2.0000      -0.634569       -17.2675
  31   2.0000      -0.601723       -16.3737
  32   2.0000      -0.569168       -15.4879
  33   2.0000      -0.552984       -15.0475
  34   2.0000      -0.548502       -14.9255
  35   2.0000      -0.535805       -14.5800
  36   2.0000      -0.527575       -14.3560
  37   2.0000      -0.511150       -13.9091
  38   2.0000      -0.504723       -13.7342
  39   2.0000      -0.472052       -12.8452
  40   2.0000      -0.461363       -12.5543
  41   2.0000      -0.450866       -12.2687
  42   2.0000      -0.434978       -11.8364
  43   2.0000      -0.421494       -11.4694
  44   2.0000      -0.415865       -11.3163
  45   2.0000      -0.412166       -11.2156
  46   2.0000      -0.403051       -10.9676
  47   2.0000      -0.390668       -10.6306
  48   2.0000      -0.381258       -10.3746
  49   2.0000      -0.375181       -10.2092
  50   2.0000      -0.368822       -10.0362
  51   2.0000      -0.364084        -9.9072
  52   2.0000      -0.352367        -9.5884
  53   2.0000      -0.340384        -9.2623
  54   2.0000      -0.333288        -9.0692
  55   2.0000      -0.324920        -8.8415
  56   2.0000      -0.321462        -8.7474
  57   2.0000      -0.315117        -8.5748
  58   2.0000      -0.311311        -8.4712
  59   2.0000      -0.301289        -8.1985
  60   2.0000      -0.296321        -8.0633
  61   2.0000      -0.291009        -7.9187
  62   2.0000      -0.288194        -7.8422
  63   2.0000      -0.278235        -7.5712
  64   2.0000      -0.274133        -7.4595
  65   2.0000      -0.265190        -7.2162
  66   2.0000      -0.262685        -7.1480
  67   2.0000      -0.136615        -3.7175
  68   0.0000      -0.027475        -0.7476
  69   0.0000      -0.003426        -0.0932
  70   0.0000       0.017923         0.4877
  71   0.0000       0.022378         0.6089
  72   0.0000       0.029044         0.7903

MULLIKEN ATOMIC CHARGES
-----------------------
   0 C :   -0.073542
   1 C :   -0.123433
   2 C :   -0.285269
   3 H :    0.163989
   4 H :    0.147072
   5 S :    0.801610
   6 C :    0.125120
   7 C :   -0.436580
   8 N :   -0.474233
   9 H :    0.284744
  10 H :    0.201810
  11 H :    0.096396
  12 H :    0.074910
  13 O :   -0.427823
  14 F :   -0.088114
  15 C :   -0.262195
  16 C :   -0.248697
  17 C :   -0.187205
  18 H :    0.128111
  19 H :    0.092447
  20 H :    0.105258
  21 H :    0.124877
  22 C :   -0.207727
  23 H :    0.077946
  24 H :    0.130829
  25 C :   -0.076061
  26 H :    0.113717
  27 H :    0.079475
  28 C :   -0.174306
  29 H :    0.080728
  30 H :    0.072986
  31 H :    0.077997
  32 H :    0.091571
  33 H :    0.080353
  34 H :    0.103193
  35 O :   -0.359884
  36 H :    0.086899
  37 H :    0.083031
Sum of atomic charges:   -0.0000000

LOEWDIN ATOMIC CHARGES
----------------------
   0 C :   -0.205665
   1 C :   -0.267890
   2 C :   -0.369734
   3 H :    0.140177
   4 H :    0.143188
   5 S :    0.536859
   6 C :   -0.385375
   7 C :   -0.293500
   8 N :   -0.011232
   9 H :    0.145734
  10 H :    0.152656
  11 H :    0.094404
  12 H :    0.087325
  13 O :   -0.257758
  14 F :    0.097330
  15 C :   -0.261810
  16 C :   -0.266331
  17 C :   -0.265256
  18 H :    0.140388
  19 H :    0.136875
  20 H :    0.147691
  21 H :    0.144545
  22 C :   -0.261347
  23 H :    0.133264
  24 H :    0.133443
  25 C :   -0.262143
  26 H :    0.135298
  27 H :    0.134986
  28 C :   -0.262366
  29 H :    0.133243
  30 H :    0.131536
  31 H :    0.131331
  32 H :    0.130527
  33 H :    0.131806
  34 H :    0.136683
  35 O :   -0.216154
  36 H :    0.141871
  37 H :    0.145401

  Mayer bond orders larger than 0.100000
B(  0-C ,  6-C ) :   1.0241 B(  0-C , 15-C ) :   0.9936 B(  0-C , 36-H ) :   0.9279
B(  0-C , 37-H ) :   0.9477 B(  1-C ,  2-C ) :   1.0023 B(  1-C , 17-C ) :   1.0359
B(  1-C , 20-H ) :   0.9273 B(  1-C , 21-H ) :   0.9414 B(  2-C ,  3-H ) :   0.9231
B(  2-C ,  4-H ) :   0.9192 B(  2-C ,  5-S ) :   0.9173 B(  5-S , 13-O ) :   1.7234
B(  5-S , 14-F ) :   1.1220 B(  5-S , 35-O ) :   1.9882 B(  6-C ,  7-C ) :   1.7439
B(  6-C ,  8-N ) :   1.2628 B(  7-C , 11-H ) :   0.9788 B(  7-C , 12-H ) :   0.9736
B(  8-N ,  9-H ) :   0.7967 B(  8-N , 10-H ) :   0.9059 B(  9-H , 13-O ) :   0.1143
B( 15-C , 22-C ) :   1.0164 B( 15-C , 23-H ) :   0.9341 B( 15-C , 24-H ) :   0.9675
B( 16-C , 17-C ) :   1.0082 B( 16-C , 28-C ) :   1.0467 B( 16-C , 31-H ) :   0.9428
B( 16-C , 32-H ) :   0.9442 B( 17-C , 18-H ) :   0.9482 B( 17-C , 19-H ) :   0.9455
B( 22-C , 25-C ) :   1.0144 B( 22-C , 26-H ) :   0.9661 B( 22-C , 27-H ) :   0.9381
B( 25-C , 28-C ) :   1.0103 B( 25-C , 29-H ) :   0.9446 B( 25-C , 30-H ) :   0.9460
B( 28-C , 33-H ) :   0.9396 B( 28-C , 34-H ) :   0.9560

Dispersion correction           -0.057732533
FINAL SINGLE POINT ENERGY     -1136.060995788872

DIPOLE MOMENT
-------------
                                X             Y             Z
Electronic contribution:    -10.94595     -20.08431     -14.29352
Nuclear contribution   :     10.48431      18.81367      15.71750
                        -----------------------------------------
Total Dipole Moment    :     -0.46164      -1.27064       1.42397
                        -----------------------------------------
Magnitude (a.u.)       :      1.96350
Magnitude (Debye)      :      4.99082

Rotational constants in cm-1:     0.017977     0.012528     0.008321
Rotational constants in MHz :   538.924099   375.570730   249.458530

                             ****ORCA TERMINATED NORMALLY****
TOTAL RUN TIME: 0 days 0 hours 0 minutes 27 seconds 525 msec
