                         Program Version 5.0.0 -  RELEASE  -
|  1> !TPSS D3BJ RIJCOSX def2-TZVP def2/J TightSCF xyzfile
|  2>
|  3> *xyzfile 0 1 D4.xyz
|  4>
|  5> %MaxCore 64000
|  6>
|  7> %pal nprocs 18
|  8> end
|  9>
| 10> %scf
| 11>   MaxIter 150
| 12> end
| 13>
| 14>
| 15>                          ****END OF INPUT****

CARTESIAN COORDINATES (ANGSTROEM)
---------------------------------
  C      5.558206   -1.992914   -6.215054
  C      4.930199   -7.375319   -2.649623
  C      3.841892   -6.951611   -3.632829
  H      3.458144   -5.954425   -3.407121
  H      2.988484   -7.643606   -3.567078
  S      4.318115   -6.915930   -5.368692
  C      4.181880   -2.589671   -6.298911
  N      3.145873   -1.768431   -6.486753
  C      4.019102   -3.864307   -6.227427
  H      4.768490   -4.591153   -5.990773
  H      3.122405   -4.333392   -6.314620
  H      3.281635   -0.777786   -6.566549
  H      2.212549   -2.134193   -6.562246
  O      5.406154   -5.899480   -5.512972
  F      3.111910   -6.445079   -6.043792
  C      6.419260   -2.542944   -5.077630
  C      5.872267   -5.002756   -2.427819
  C      6.173994   -6.485522   -2.606315
  H      6.734852   -6.613767   -3.534015
  H      6.821463   -6.831018   -1.793617
  H      4.469612   -7.406168   -1.655876
  H      5.230134   -8.398678   -2.885906
  C      5.896512   -2.169314   -3.694552
  H      7.428880   -2.143665   -5.208078
  H      6.505894   -3.627541   -5.175502
  C      6.807804   -2.623428   -2.551019
  H      4.894708   -2.589732   -3.557501
  H      5.778823   -1.081255   -3.635790
  C      7.111544   -4.122463   -2.520363
  H      7.751615   -2.071393   -2.614406
  H      6.345837   -2.326401   -1.604086
  H      5.362882   -4.828697   -1.471335
  H      5.174429   -4.702577   -3.211298
  H      7.778329   -4.329347   -1.677651
  H      7.673189   -4.402845   -3.417586
  O      4.763396   -8.239424   -5.698629
  H      6.036826   -2.198189   -7.176852
  H      5.467610   -0.907371   -6.127968

 Total Charge           Charge          ....    0
 Multiplicity           Mult            ....    1
 Number of Electrons    NEL             ....  136
 Basis Dimension        Dim             ....  634

ORBITAL ENERGIES
----------------

  NO   OCC          E(Eh)            E(eV)
   0   2.0000     -88.584643     -2410.5107
   1   2.0000     -24.514598      -667.0761
   2   2.0000     -18.897779      -514.2347
   3   2.0000     -18.882860      -513.8288
   4   2.0000     -14.086677      -383.3180
   5   2.0000     -10.042263      -273.2639
   6   2.0000     -10.009509      -272.3726
   7   2.0000      -9.982128      -271.6275
   8   2.0000      -9.981767      -271.6177
   9   2.0000      -9.974341      -271.4156
  10   2.0000      -9.972238      -271.3584
  11   2.0000      -9.971762      -271.3455
  12   2.0000      -9.970852      -271.3207
  13   2.0000      -9.966551      -271.2036
  14   2.0000      -9.966227      -271.1948
  15   2.0000      -9.886124      -269.0151
  16   2.0000      -7.934079      -215.8973
  17   2.0000      -5.917145      -161.0137
  18   2.0000      -5.910793      -160.8408
  19   2.0000      -5.910249      -160.8260
  20   2.0000      -1.284414       -34.9507
  21   2.0000      -1.034225       -28.1427
  22   2.0000      -0.942093       -25.6357
  23   2.0000      -0.848504       -23.0890
  24   2.0000      -0.775546       -21.1037
  25   2.0000      -0.747646       -20.3445
  26   2.0000      -0.721598       -19.6357
  27   2.0000      -0.697373       -18.9765
  28   2.0000      -0.665263       -18.1027
  29   2.0000      -0.647999       -17.6330
  30   2.0000      -0.624128       -16.9834
  31   2.0000      -0.598465       -16.2851
  32   2.0000      -0.565681       -15.3930
  33   2.0000      -0.547184       -14.8896
  34   2.0000      -0.523136       -14.2353
  35   2.0000      -0.515014       -14.0142
  36   2.0000      -0.508435       -13.8352
  37   2.0000      -0.503397       -13.6981
  38   2.0000      -0.489614       -13.3231
  39   2.0000      -0.467916       -12.7326
  40   2.0000      -0.449442       -12.2299
  41   2.0000      -0.444967       -12.1082
  42   2.0000      -0.432956       -11.7813
  43   2.0000      -0.419678       -11.4200
  44   2.0000      -0.410340       -11.1659
  45   2.0000      -0.402624       -10.9560
  46   2.0000      -0.399010       -10.8576
  47   2.0000      -0.384103       -10.4520
  48   2.0000      -0.372949       -10.1485
  49   2.0000      -0.367456        -9.9990
  50   2.0000      -0.361442        -9.8354
  51   2.0000      -0.353067        -9.6074
  52   2.0000      -0.344732        -9.3806
  53   2.0000      -0.326793        -8.8925
  54   2.0000      -0.323346        -8.7987
  55   2.0000      -0.318484        -8.6664
  56   2.0000      -0.312113        -8.4930
  57   2.0000      -0.302534        -8.2324
  58   2.0000      -0.298068        -8.1109
  59   2.0000      -0.293842        -7.9958
  60   2.0000      -0.286584        -7.7983
  61   2.0000      -0.284079        -7.7302
  62   2.0000      -0.279716        -7.6115
  63   2.0000      -0.271057        -7.3758
  64   2.0000      -0.267516        -7.2795
  65   2.0000      -0.262556        -7.1445
  66   2.0000      -0.229263        -6.2386
  67   2.0000      -0.146130        -3.9764
  68   0.0000      -0.003876        -0.1055
  69   0.0000       0.010744         0.2924
  70   0.0000       0.026538         0.7221
  71   0.0000       0.027541         0.7494
  72   0.0000       0.036766         1.0005

MULLIKEN ATOMIC CHARGES
-----------------------
   0 C :   -0.067638
   1 C :   -0.117854
   2 C :   -0.282383
   3 H :    0.159993
   4 H :    0.137586
   5 S :    0.800762
   6 C :    0.147094
   7 N :   -0.463665
   8 C :   -0.486758
   9 H :    0.191582
  10 H :    0.056016
  11 H :    0.221604
  12 H :    0.218528
  13 O :   -0.417596
  14 F :   -0.081799
  15 C :   -0.246437
  16 C :   -0.252135
  17 C :   -0.187912
  18 H :    0.128285
  19 H :    0.085810
  20 H :    0.098602
  21 H :    0.119986
  22 C :   -0.215517
  23 H :    0.071489
  24 H :    0.143587
  25 C :   -0.071557
  26 H :    0.116948
  27 H :    0.069647
  28 C :   -0.172941
  29 H :    0.078310
  30 H :    0.070067
  31 H :    0.071265
  32 H :    0.115328
  33 H :    0.076982
  34 H :    0.103398
  35 O :   -0.373707
  36 H :    0.097595
  37 H :    0.057435
Sum of atomic charges:   -0.0000000

LOEWDIN ATOMIC CHARGES
----------------------
   0 C :   -0.207146
   1 C :   -0.269417
   2 C :   -0.371266
   3 H :    0.139107
   4 H :    0.139974
   5 S :    0.534383
   6 C :   -0.376970
   7 N :   -0.005209
   8 C :   -0.312460
   9 H :    0.096689
  10 H :    0.084539
  11 H :    0.155773
  12 H :    0.162081
  13 O :   -0.251544
  14 F :    0.104163
  15 C :   -0.250796
  16 C :   -0.266092
  17 C :   -0.265699
  18 H :    0.140962
  19 H :    0.134747
  20 H :    0.145024
  21 H :    0.143539
  22 C :   -0.263038
  23 H :    0.131813
  24 H :    0.142041
  25 C :   -0.262596
  26 H :    0.135348
  27 H :    0.130637
  28 C :   -0.262246
  29 H :    0.132263
  30 H :    0.130839
  31 H :    0.129607
  32 H :    0.134844
  33 H :    0.130985
  34 H :    0.137146
  35 O :   -0.229658
  36 H :    0.147452
  37 H :    0.130181

  Mayer bond orders larger than 0.100000
B(  0-C ,  6-C ) :   0.9971 B(  0-C , 15-C ) :   1.0113 B(  0-C , 36-H ) :   0.9297
B(  0-C , 37-H ) :   0.9372 B(  1-C ,  2-C ) :   1.0044 B(  1-C , 17-C ) :   1.0379
B(  1-C , 20-H ) :   0.9289 B(  1-C , 21-H ) :   0.9405 B(  2-C ,  3-H ) :   0.9265
B(  2-C ,  4-H ) :   0.9205 B(  2-C ,  5-S ) :   0.9151 B(  5-S , 13-O ) :   1.7650
B(  5-S , 14-F ) :   1.1359 B(  5-S , 35-O ) :   1.9731 B(  6-C ,  7-N ) :   1.1533
B(  6-C ,  8-C ) :   1.8220 B(  7-N , 11-H ) :   0.9167 B(  7-N , 12-H ) :   0.9141
B(  8-C ,  9-H ) :   0.9470 B(  8-C , 10-H ) :   0.9493 B( 15-C , 22-C ) :   1.0302
B( 15-C , 23-H ) :   0.9328 B( 15-C , 24-H ) :   0.9574 B( 16-C , 17-C ) :   1.0143
B( 16-C , 28-C ) :   1.0472 B( 16-C , 31-H ) :   0.9422 B( 16-C , 32-H ) :   0.9429
B( 17-C , 18-H ) :   0.9464 B( 17-C , 19-H ) :   0.9445 B( 22-C , 25-C ) :   1.0213
B( 22-C , 26-H ) :   0.9614 B( 22-C , 27-H ) :   0.9376 B( 25-C , 28-C ) :   1.0114
B( 25-C , 29-H ) :   0.9446 B( 25-C , 30-H ) :   0.9451 B( 28-C , 33-H ) :   0.9398
B( 28-C , 34-H ) :   0.9559

Dispersion correction           -0.058105660
FINAL SINGLE POINT ENERGY     -1136.048455521247

DIPOLE MOMENT
-------------
                                X             Y             Z
Electronic contribution:    -11.70251     -18.13119     -14.74057
Nuclear contribution   :     10.61624      18.49702      15.75668
                        -----------------------------------------
Total Dipole Moment    :     -1.08626       0.36584       1.01610
                        -----------------------------------------
Magnitude (a.u.)       :      1.53175
Magnitude (Debye)      :      3.89341

Rotational constants in cm-1:     0.017796     0.012372     0.008231
Rotational constants in MHz :   533.524905   370.895973   246.762347

                             ****ORCA TERMINATED NORMALLY****
TOTAL RUN TIME: 0 days 0 hours 0 minutes 43 seconds 211 msec
