                         Program Version 5.0.0 -  RELEASE  -
|  1> !TPSS D3BJ RIJCOSX def2-TZVP def2/J TightSCF xyzfile
|  2>
|  3> *xyzfile 0 1 D6.xyz
|  4>
|  5> %MaxCore 64000
|  6>
|  7> %pal nprocs 18
|  8> end
|  9>
| 10> %scf
| 11>   MaxIter 150
| 12> end
| 13>
| 14>
| 15>                          ****END OF INPUT****

CARTESIAN COORDINATES (ANGSTROEM)
---------------------------------
  C      5.558206   -1.992914   -6.215054
  C      4.930199   -7.375319   -2.649623
  C      3.841892   -6.951611   -3.632829
  H      3.458144   -5.954425   -3.407121
  H      2.988484   -7.643606   -3.567078
  S      4.318115   -6.915930   -5.368692
  C      4.181880   -2.589671   -6.298911
  N      3.145873   -1.768431   -6.486753
  C      4.019102   -3.864307   -6.227427
  H      4.768490   -4.591153   -5.990773
  H      3.122405   -4.333392   -6.314620
  H      3.281635   -0.777786   -6.566549
  H      2.212549   -2.134193   -6.562246
  O      5.406154   -5.899480   -5.512972
  O      3.111910   -6.445079   -6.043792
  C      6.419260   -2.542944   -5.077630
  C      5.872267   -5.002756   -2.427819
  C      6.173994   -6.485522   -2.606315
  H      6.734852   -6.613767   -3.534015
  H      6.821463   -6.831018   -1.793617
  H      4.469612   -7.406168   -1.655876
  H      5.230134   -8.398678   -2.885906
  C      5.896512   -2.169314   -3.694552
  H      7.428880   -2.143665   -5.208078
  H      6.505894   -3.627541   -5.175502
  C      6.807804   -2.623428   -2.551019
  H      4.894708   -2.589732   -3.557501
  H      5.778823   -1.081255   -3.635790
  C      7.111544   -4.122463   -2.520363
  H      7.751615   -2.071393   -2.614406
  H      6.345837   -2.326401   -1.604086
  H      5.362882   -4.828697   -1.471335
  H      5.174429   -4.702577   -3.211298
  H      7.778329   -4.329347   -1.677651
  H      7.673189   -4.402845   -3.417586
  F      4.763396   -8.239424   -5.698629
  H      6.036826   -2.198189   -7.176852
  H      5.467610   -0.907371   -6.127968

 Total Charge           Charge          ....    0
 Multiplicity           Mult            ....    1
 Number of Electrons    NEL             ....  136
 Basis Dimension        Dim             ....  634

ORBITAL ENERGIES
----------------

  NO   OCC          E(Eh)            E(eV)
   0   2.0000     -88.586750     -2410.5680
   1   2.0000     -24.529798      -667.4897
   2   2.0000     -18.889875      -514.0196
   3   2.0000     -18.886473      -513.9271
   4   2.0000     -14.075472      -383.0131
   5   2.0000     -10.042870      -273.2804
   6   2.0000     -10.010865      -272.4095
   7   2.0000      -9.985222      -271.7117
   8   2.0000      -9.975036      -271.4345
   9   2.0000      -9.971555      -271.3398
  10   2.0000      -9.969040      -271.2714
  11   2.0000      -9.968577      -271.2588
  12   2.0000      -9.964703      -271.1534
  13   2.0000      -9.962497      -271.0933
  14   2.0000      -9.961877      -271.0764
  15   2.0000      -9.872112      -268.6338
  16   2.0000      -7.936127      -215.9530
  17   2.0000      -5.919463      -161.0768
  18   2.0000      -5.912690      -160.8925
  19   2.0000      -5.912133      -160.8773
  20   2.0000      -1.306656       -35.5559
  21   2.0000      -1.026597       -27.9351
  22   2.0000      -0.934754       -25.4359
  23   2.0000      -0.837258       -22.7829
  24   2.0000      -0.778406       -21.1815
  25   2.0000      -0.745811       -20.2945
  26   2.0000      -0.718755       -19.5583
  27   2.0000      -0.695156       -18.9162
  28   2.0000      -0.666176       -18.1276
  29   2.0000      -0.647205       -17.6113
  30   2.0000      -0.623332       -16.9617
  31   2.0000      -0.595452       -16.2031
  32   2.0000      -0.563678       -15.3385
  33   2.0000      -0.549739       -14.9592
  34   2.0000      -0.533730       -14.5235
  35   2.0000      -0.528670       -14.3858
  36   2.0000      -0.508419       -13.8348
  37   2.0000      -0.497943       -13.5497
  38   2.0000      -0.482012       -13.1162
  39   2.0000      -0.458836       -12.4856
  40   2.0000      -0.449970       -12.2443
  41   2.0000      -0.443255       -12.0616
  42   2.0000      -0.427641       -11.6367
  43   2.0000      -0.417872       -11.3709
  44   2.0000      -0.411941       -11.2095
  45   2.0000      -0.403339       -10.9754
  46   2.0000      -0.398495       -10.8436
  47   2.0000      -0.378992       -10.3129
  48   2.0000      -0.374075       -10.1791
  49   2.0000      -0.369470       -10.0538
  50   2.0000      -0.366340        -9.9686
  51   2.0000      -0.351396        -9.5620
  52   2.0000      -0.333951        -9.0873
  53   2.0000      -0.327187        -8.9032
  54   2.0000      -0.316899        -8.6233
  55   2.0000      -0.308131        -8.3847
  56   2.0000      -0.304490        -8.2856
  57   2.0000      -0.301382        -8.2010
  58   2.0000      -0.291614        -7.9352
  59   2.0000      -0.284656        -7.7459
  60   2.0000      -0.280895        -7.6436
  61   2.0000      -0.278674        -7.5831
  62   2.0000      -0.275711        -7.5025
  63   2.0000      -0.269040        -7.3210
  64   2.0000      -0.264892        -7.2081
  65   2.0000      -0.256343        -6.9755
  66   2.0000      -0.228943        -6.2299
  67   2.0000      -0.133316        -3.6277
  68   0.0000      -0.010102        -0.2749
  69   0.0000       0.013813         0.3759
  70   0.0000       0.027432         0.7465
  71   0.0000       0.033352         0.9076
  72   0.0000       0.034864         0.9487

MULLIKEN ATOMIC CHARGES
-----------------------
   0 C :   -0.064288
   1 C :   -0.132384
   2 C :   -0.284805
   3 H :    0.179067
   4 H :    0.142104
   5 S :    0.789084
   6 C :    0.166062
   7 N :   -0.469615
   8 C :   -0.493962
   9 H :    0.180868
  10 H :    0.093338
  11 H :    0.217833
  12 H :    0.219461
  13 O :   -0.417650
  14 O :   -0.386412
  15 C :   -0.249152
  16 C :   -0.244842
  17 C :   -0.179478
  18 H :    0.113747
  19 H :    0.086878
  20 H :    0.098205
  21 H :    0.105715
  22 C :   -0.213297
  23 H :    0.067818
  24 H :    0.138719
  25 C :   -0.071137
  26 H :    0.119318
  27 H :    0.069086
  28 C :   -0.174433
  29 H :    0.077338
  30 H :    0.069632
  31 H :    0.073281
  32 H :    0.116132
  33 H :    0.076123
  34 H :    0.102508
  35 F :   -0.068518
  36 H :    0.093310
  37 H :    0.054344
Sum of atomic charges:   -0.0000000

LOEWDIN ATOMIC CHARGES
----------------------
   0 C :   -0.209448
   1 C :   -0.282618
   2 C :   -0.366201
   3 H :    0.151765
   4 H :    0.141288
   5 S :    0.526105
   6 C :   -0.382096
   7 N :   -0.009799
   8 C :   -0.294548
   9 H :    0.099373
  10 H :    0.096067
  11 H :    0.153775
  12 H :    0.162402
  13 O :   -0.253503
  14 O :   -0.235422
  15 C :   -0.252079
  16 C :   -0.265044
  17 C :   -0.269858
  18 H :    0.136118
  19 H :    0.134272
  20 H :    0.143612
  21 H :    0.135219
  22 C :   -0.262793
  23 H :    0.130451
  24 H :    0.140583
  25 C :   -0.262878
  26 H :    0.136076
  27 H :    0.130717
  28 C :   -0.262529
  29 H :    0.132044
  30 H :    0.130617
  31 H :    0.130262
  32 H :    0.136516
  33 H :    0.130452
  34 H :    0.136784
  35 F :    0.119443
  36 H :    0.145898
  37 H :    0.128978

  Mayer bond orders larger than 0.100000
B(  0-C ,  6-C ) :   0.9933 B(  0-C , 15-C ) :   1.0133 B(  0-C , 36-H ) :   0.9302
B(  0-C , 37-H ) :   0.9370 B(  1-C ,  2-C ) :   0.9893 B(  1-C , 17-C ) :   1.0146
B(  1-C , 20-H ) :   0.9297 B(  1-C , 21-H ) :   0.9510 B(  2-C ,  3-H ) :   0.9291
B(  2-C ,  4-H ) :   0.9292 B(  2-C ,  5-S ) :   0.9101 B(  5-S , 13-O ) :   1.7792
B(  5-S , 14-O ) :   1.9098 B(  5-S , 35-F ) :   1.1586 B(  6-C ,  7-N ) :   1.1457
B(  6-C ,  8-C ) :   1.7998 B(  7-N , 11-H ) :   0.9190 B(  7-N , 12-H ) :   0.9126
B(  8-C ,  9-H ) :   0.9684 B(  8-C , 10-H ) :   0.9594 B( 15-C , 22-C ) :   1.0312
B( 15-C , 23-H ) :   0.9325 B( 15-C , 24-H ) :   0.9579 B( 16-C , 17-C ) :   1.0076
B( 16-C , 28-C ) :   1.0464 B( 16-C , 31-H ) :   0.9428 B( 16-C , 32-H ) :   0.9429
B( 17-C , 18-H ) :   0.9498 B( 17-C , 19-H ) :   0.9437 B( 22-C , 25-C ) :   1.0196
B( 22-C , 26-H ) :   0.9619 B( 22-C , 27-H ) :   0.9376 B( 25-C , 28-C ) :   1.0132
B( 25-C , 29-H ) :   0.9442 B( 25-C , 30-H ) :   0.9453 B( 28-C , 33-H ) :   0.9398
B( 28-C , 34-H ) :   0.9555

Dispersion correction           -0.058219786
FINAL SINGLE POINT ENERGY     -1136.036487253840

DIPOLE MOMENT
-------------
                                X             Y             Z
Electronic contribution:     -8.88805     -21.39960     -14.17138
Nuclear contribution   :      8.67311      20.60825      15.35056
                        -----------------------------------------
Total Dipole Moment    :     -0.21494      -0.79135       1.17918
                        -----------------------------------------
Magnitude (a.u.)       :      1.43628
Magnitude (Debye)      :      3.65074

Rotational constants in cm-1:     0.017976     0.012151     0.008188
Rotational constants in MHz :   538.898457   364.286417   245.482451

                             ****ORCA TERMINATED NORMALLY****
TOTAL RUN TIME: 0 days 0 hours 0 minutes 34 seconds 825 msec
