                         Program Version 5.0.0 -  RELEASE  -
|  1> !TPSS D3BJ RIJCOSX def2-SVPD def2/J TightSCF
|  2> *xyz -1 1
|  3> C          4.90646       -3.10282       -5.95484
|  4> C          3.51177       -2.80621       -6.49228
|  5> H          2.73604       -3.37345       -5.97374
|  6> H          3.44490       -3.04083       -7.55528
|  7> S          3.00462       -1.09621       -6.38926
|  8> O          4.12886       -0.32965       -6.95372
|  9> O          1.78128       -1.00078       -7.13640
| 10> O          2.85155       -0.78368       -4.95679
| 11> H          5.62703       -2.52424       -6.49422
| 12> H          5.12164       -4.14387       -6.07654
| 13> H          4.95004       -2.84862       -4.91639
| 14> *
| 15>
| 16> %MaxCore 64000
| 17>
| 18> %pal nprocs 4
| 19> end
| 20>
| 21> %scf
| 22>   MaxIter 150
| 23> end
| 24>
| 25>
| 26>                          ****END OF INPUT****

CARTESIAN COORDINATES (ANGSTROEM)
---------------------------------
  C      4.906460   -3.102820   -5.954840
  C      3.511770   -2.806210   -6.492280
  H      2.736040   -3.373450   -5.973740
  H      3.444900   -3.040830   -7.555280
  S      3.004620   -1.096210   -6.389260
  O      4.128860   -0.329650   -6.953720
  O      1.781280   -1.000780   -7.136400
  O      2.851550   -0.783680   -4.956790
  H      5.627030   -2.524240   -6.494220
  H      5.121640   -4.143870   -6.076540
  H      4.950040   -2.848620   -4.916390

 Total Charge           Charge          ....   -1
 Multiplicity           Mult            ....    1
 Number of Electrons    NEL             ....   58
 Basis Dimension        Dim             ....  176

ORBITAL ENERGIES
----------------

  NO   OCC          E(Eh)            E(eV)
   0   2.0000     -88.364423     -2404.5182
   1   2.0000     -18.681728      -508.3557
   2   2.0000     -18.670594      -508.0527
   3   2.0000     -18.670158      -508.0408
   4   2.0000      -9.863980      -268.4125
   5   2.0000      -9.859877      -268.3009
   6   2.0000      -7.724541      -210.1954
   7   2.0000      -5.710595      -155.3932
   8   2.0000      -5.710441      -155.3890
   9   2.0000      -5.709514      -155.3638
  10   2.0000      -0.851072       -23.1589
  11   2.0000      -0.717242       -19.5171
  12   2.0000      -0.697162       -18.9707
  13   2.0000      -0.572927       -15.5901
  14   2.0000      -0.455772       -12.4022
  15   2.0000      -0.331342        -9.0163
  16   2.0000      -0.279157        -7.5962
  17   2.0000      -0.268124        -7.2960
  18   2.0000      -0.233812        -6.3624
  19   2.0000      -0.217088        -5.9073
  20   2.0000      -0.212573        -5.7844
  21   2.0000      -0.191223        -5.2034
  22   2.0000      -0.178207        -4.8493
  23   2.0000      -0.104177        -2.8348
  24   2.0000      -0.103462        -2.8153
  25   2.0000      -0.072251        -1.9660
  26   2.0000      -0.065289        -1.7766
  27   2.0000      -0.058293        -1.5862
  28   2.0000      -0.020025        -0.5449
  29   0.0000       0.132938         3.6174
  30   0.0000       0.159647         4.3442
  31   0.0000       0.168227         4.5777
  32   0.0000       0.174194         4.7401
  33   0.0000       0.195464         5.3188

MULLIKEN ATOMIC CHARGES
-----------------------
   0 C :    0.687184
   1 C :   -0.387520
   2 H :   -0.036041
   3 H :   -0.006734
   4 S :    1.250957
   5 O :   -0.805909
   6 O :   -0.764594
   7 O :   -0.803184
   8 H :   -0.021661
   9 H :   -0.082156
  10 H :   -0.030341
Sum of atomic charges:   -1.0000000

LOEWDIN ATOMIC CHARGES
----------------------
   0 C :    0.112067
   1 C :   -0.137820
   2 H :   -0.000357
   3 H :   -0.003232
   4 S :    0.837022
   5 O :   -0.577751
   6 O :   -0.563224
   7 O :   -0.581779
   8 H :   -0.025847
   9 H :   -0.038519
  10 H :   -0.020560

  Mayer bond orders larger than 0.100000
B(  0-C ,  1-C ) :   1.2748 B(  0-C ,  8-H ) :   0.8337 B(  0-C ,  9-H ) :   0.7655
B(  0-C , 10-H ) :   0.8250 B(  1-C ,  2-H ) :   0.9954 B(  1-C ,  3-H ) :   0.9929
B(  1-C ,  4-S ) :   0.9045 B(  1-C ,  8-H ) :   0.1981 B(  1-C ,  9-H ) :   0.2118
B(  1-C , 10-H ) :   0.1914 B(  4-S ,  5-O ) :   1.3025 B(  4-S ,  6-O ) :   1.3528
B(  4-S ,  7-O ) :   1.2994

Dispersion correction           -0.012123275
FINAL SINGLE POINT ENERGY      -702.851781050853

DIPOLE MOMENT
-------------
                                X             Y             Z
Electronic contribution:     -4.36108       6.41093      -0.65829
Nuclear contribution   :      5.05690      -8.21735       0.57889
                        -----------------------------------------
Total Dipole Moment    :      0.69582      -1.80643      -0.07939
                        -----------------------------------------
Magnitude (a.u.)       :      1.93743
Magnitude (Debye)      :      4.92456

Rotational constants in cm-1:     0.162547     0.083494     0.081672
Rotational constants in MHz :  4873.033504  2503.090885  2448.458543

                             ****ORCA TERMINATED NORMALLY****
TOTAL RUN TIME: 0 days 0 hours 0 minutes 9 seconds 270 msec
