                         Program Version 5.0.0 -  RELEASE  -
|  1> !TPSS D3BJ RIJCOSX def2-SVPD def2/J TightSCF
|  2> *xyz 1 1
|  3> C          4.49059        1.15590       -2.46929
|  4> N          4.30539        1.22276       -3.90832
|  5> C          4.63192        2.24637       -4.67096
|  6> N          4.54169        2.14399       -5.98714
|  7> N          5.08409        3.39358       -4.11855
|  8> H          4.92067        3.57050       -3.13587
|  9> H          5.25465        4.19739       -4.70696
| 10> H          3.82453        0.44911       -4.35093
| 11> H          4.34337        1.24932       -6.41665
| 12> H          4.67671        2.95662       -6.57411
| 13> C          5.94213        0.93950       -2.03689
| 14> H          3.86431        0.32853       -2.13661
| 15> H          4.07623        2.04999       -1.98901
| 16> H          6.32982        0.06401       -2.51451
| 17> H          5.98308        0.81426       -0.97504
| 18> H          6.52865        1.78889       -2.31873
| 19> *
| 20>
| 21> %MaxCore 64000
| 22>
| 23> %pal nprocs 4
| 24> end
| 25>
| 26> %scf
| 27>   MaxIter 150
| 28> end
| 29>
| 30>
| 31>                          ****END OF INPUT****

CARTESIAN COORDINATES (ANGSTROEM)
---------------------------------
  C      4.490590    1.155900   -2.469290
  N      4.305390    1.222760   -3.908320
  C      4.631920    2.246370   -4.670960
  N      4.541690    2.143990   -5.987140
  N      5.084090    3.393580   -4.118550
  H      4.920670    3.570500   -3.135870
  H      5.254650    4.197390   -4.706960
  H      3.824530    0.449110   -4.350930
  H      4.343370    1.249320   -6.416650
  H      4.676710    2.956620   -6.574110
  C      5.942130    0.939500   -2.036890
  H      3.864310    0.328530   -2.136610
  H      4.076230    2.049990   -1.989010
  H      6.329820    0.064010   -2.514510
  H      5.983080    0.814260   -0.975040
  H      6.528650    1.788890   -2.318730

 Total Charge           Charge          ....    1
 Multiplicity           Mult            ....    1
 Number of Electrons    NEL             ....   48
 Basis Dimension        Dim             ....  200

ORBITAL ENERGIES
----------------

  NO   OCC          E(Eh)            E(eV)
   0   2.0000     -14.341381      -390.2488
   1   2.0000     -14.340173      -390.2159
   2   2.0000     -14.338993      -390.1838
   3   2.0000     -10.323927      -280.9283
   4   2.0000     -10.209062      -277.8027
   5   2.0000     -10.138379      -275.8793
   6   2.0000      -1.139434       -31.0056
   7   2.0000      -1.036227       -28.1972
   8   2.0000      -1.021879       -27.8067
   9   2.0000      -0.869311       -23.6551
  10   2.0000      -0.790684       -21.5156
  11   2.0000      -0.749990       -20.4083
  12   2.0000      -0.738556       -20.0971
  13   2.0000      -0.696108       -18.9421
  14   2.0000      -0.649386       -17.6707
  15   2.0000      -0.647183       -17.6107
  16   2.0000      -0.616559       -16.7774
  17   2.0000      -0.582166       -15.8415
  18   2.0000      -0.563851       -15.3432
  19   2.0000      -0.518856       -14.1188
  20   2.0000      -0.494727       -13.4622
  21   2.0000      -0.476965       -12.9789
  22   2.0000      -0.437416       -11.9027
  23   2.0000      -0.414992       -11.2925
  24   0.0000      -0.195134        -5.3099
  25   0.0000      -0.167593        -4.5604
  26   0.0000      -0.134702        -3.6654
  27   0.0000      -0.128719        -3.5026
  28   0.0000      -0.107946        -2.9374

MULLIKEN ATOMIC CHARGES
-----------------------
   0 C :    0.244243
   1 N :   -0.396366
   2 C :    1.491715
   3 N :   -0.107503
   4 N :   -0.057040
   5 H :   -0.015070
   6 H :   -0.154756
   7 H :   -0.227117
   8 H :   -0.040370
   9 H :   -0.032788
  10 C :    0.600354
  11 H :   -0.293312
  12 H :    0.015158
  13 H :   -0.028217
  14 H :    0.028572
  15 H :   -0.027503
Sum of atomic charges:    1.0000000

LOEWDIN ATOMIC CHARGES
----------------------
   0 C :    0.047241
   1 N :    0.040596
   2 C :   -0.035024
   3 N :    0.263786
   4 N :    0.285475
   5 H :    0.016618
   6 H :    0.034843
   7 H :    0.060650
   8 H :    0.041384
   9 H :    0.040526
  10 C :    0.172922
  11 H :    0.037687
  12 H :    0.025660
  13 H :   -0.007211
  14 H :    0.000161
  15 H :   -0.025315

  Mayer bond orders larger than 0.100000
B(  0-C ,  1-N ) :   0.9009 B(  0-C ,  2-C ) :  -0.1088 B(  0-C ,  7-H ) :  -0.1523
B(  0-C , 10-C ) :   1.2741 B(  0-C , 11-H ) :   0.9289 B(  0-C , 12-H ) :   0.8779
B(  0-C , 13-H ) :   0.2219 B(  0-C , 14-H ) :   0.1445 B(  0-C , 15-H ) :   0.1824
B(  1-N ,  2-C ) :   0.9650 B(  1-N ,  3-N ) :   0.2818 B(  1-N ,  4-N ) :   0.2355
B(  1-N ,  7-H ) :   1.3291 B(  1-N , 11-H ) :   0.1641 B(  2-C ,  3-N ) :   0.7703
B(  2-C ,  4-N ) :   0.8606 B(  2-C ,  5-H ) :  -0.1238 B(  2-C ,  6-H ) :  -0.1774
B(  2-C ,  7-H ) :  -0.2619 B(  2-C ,  8-H ) :  -0.1765 B(  2-C ,  9-H ) :  -0.1459
B(  3-N ,  4-N ) :   0.1810 B(  3-N ,  8-H ) :   1.1978 B(  3-N ,  9-H ) :   1.2276
B(  4-N ,  5-H ) :   1.0770 B(  4-N ,  6-H ) :   1.2928 B(  5-H ,  6-H ) :  -0.1986
B(  8-H ,  9-H ) :  -0.1738 B( 10-C , 13-H ) :   0.8269 B( 10-C , 14-H ) :   0.8371
B( 10-C , 15-H ) :   0.8304

Dispersion correction           -0.015291452
FINAL SINGLE POINT ENERGY      -284.268870836699

DIPOLE MOMENT
-------------
                                X             Y             Z
Electronic contribution:     -1.79837       1.57119      -4.45154
Nuclear contribution   :      1.34333      -1.11039       3.43667
                        -----------------------------------------
Total Dipole Moment    :     -0.45505       0.46080      -1.01487
                        -----------------------------------------
Magnitude (a.u.)       :      1.20390
Magnitude (Debye)      :      3.06006

Rotational constants in cm-1:     0.227161     0.075356     0.065003
Rotational constants in MHz :  6810.114531  2259.122204  1948.738523

                             ****ORCA TERMINATED NORMALLY****
TOTAL RUN TIME: 0 days 0 hours 0 minutes 11 seconds 696 msec
