                         Program Version 5.0.0 -  RELEASE  -
|  1> !TPSS D3BJ RIJCOSX def2-SVPD def2/J TightSCF
|  2> *xyz 0 1
|  3> C          4.90646       -3.10282       -5.95484
|  4> C          3.51177       -2.80621       -6.49228
|  5> H          2.73604       -3.37345       -5.97374
|  6> H          3.44490       -3.04083       -7.55528
|  7> S          3.00462       -1.09621       -6.38926
|  8> F          4.12886       -0.32965       -6.95372
|  9> O          1.78128       -1.00078       -7.13640
| 10> O          2.85155       -0.78368       -4.95679
| 11> H          5.62703       -2.52424       -6.49422
| 12> H          5.12164       -4.14387       -6.07654
| 13> H          4.95004       -2.84862       -4.91639
| 14> *
| 15>
| 16> %MaxCore 64000
| 17>
| 18> %pal nprocs 4
| 19> end
| 20>
| 21> %scf
| 22>   MaxIter 150
| 23> end
| 24>
| 25>
| 26>                          ****END OF INPUT****

CARTESIAN COORDINATES (ANGSTROEM)
---------------------------------
  C      4.906460   -3.102820   -5.954840
  C      3.511770   -2.806210   -6.492280
  H      2.736040   -3.373450   -5.973740
  H      3.444900   -3.040830   -7.555280
  S      3.004620   -1.096210   -6.389260
  F      4.128860   -0.329650   -6.953720
  O      1.781280   -1.000780   -7.136400
  O      2.851550   -0.783680   -4.956790
  H      5.627030   -2.524240   -6.494220
  H      5.121640   -4.143870   -6.076540
  H      4.950040   -2.848620   -4.916390

 Total Charge           Charge          ....    0
 Multiplicity           Mult            ....    1
 Number of Electrons    NEL             ....   58
 Basis Dimension        Dim             ....  176

ORBITAL ENERGIES
----------------

  NO   OCC          E(Eh)            E(eV)
   0   2.0000     -88.619160     -2411.4499
   1   2.0000     -24.527164      -667.4181
   2   2.0000     -18.914377      -514.6864
   3   2.0000     -18.902880      -514.3735
   4   2.0000     -10.065637      -273.8999
   5   2.0000     -10.028499      -272.8893
   6   2.0000      -7.980458      -217.1593
   7   2.0000      -5.970681      -162.4705
   8   2.0000      -5.964323      -162.2975
   9   2.0000      -5.962422      -162.2457
  10   2.0000      -1.267724       -34.4965
  11   2.0000      -1.037592       -28.2343
  12   2.0000      -0.940178       -25.5836
  13   2.0000      -0.768310       -20.9068
  14   2.0000      -0.668363       -18.1871
  15   2.0000      -0.623650       -16.9704
  16   2.0000      -0.533414       -14.5149
  17   2.0000      -0.511389       -13.9156
  18   2.0000      -0.496101       -13.4996
  19   2.0000      -0.456332       -12.4174
  20   2.0000      -0.432563       -11.7706
  21   2.0000      -0.412059       -11.2127
  22   2.0000      -0.396557       -10.7909
  23   2.0000      -0.376053       -10.2329
  24   2.0000      -0.364440        -9.9169
  25   2.0000      -0.341291        -9.2870
  26   2.0000      -0.297722        -8.1014
  27   2.0000      -0.286707        -7.8017
  28   2.0000      -0.269158        -7.3242
  29   0.0000      -0.024191        -0.6583
  30   0.0000       0.011421         0.3108
  31   0.0000       0.021286         0.5792
  32   0.0000       0.025429         0.6920
  33   0.0000       0.031925         0.8687

MULLIKEN ATOMIC CHARGES
-----------------------
   0 C :    0.700328
   1 C :   -0.391498
   2 H :    0.016904
   3 H :    0.036766
   4 S :    1.423469
   5 F :   -0.401342
   6 O :   -0.633872
   7 O :   -0.676616
   8 H :   -0.018896
   9 H :   -0.048814
  10 H :   -0.006428
Sum of atomic charges:   -0.0000000

LOEWDIN ATOMIC CHARGES
----------------------
   0 C :    0.142810
   1 C :   -0.088645
   2 H :    0.033447
   3 H :    0.017407
   4 S :    1.099225
   5 F :   -0.263208
   6 O :   -0.448085
   7 O :   -0.464891
   8 H :   -0.013976
   9 H :   -0.008221
  10 H :   -0.005862

  Mayer bond orders larger than 0.100000
B(  0-C ,  1-C ) :   1.3013 B(  0-C ,  8-H ) :   0.8304 B(  0-C ,  9-H ) :   0.7645
B(  0-C , 10-H ) :   0.8312 B(  1-C ,  2-H ) :   0.9843 B(  1-C ,  3-H ) :   0.9854
B(  1-C ,  4-S ) :   0.9755 B(  1-C ,  8-H ) :   0.1829 B(  1-C ,  9-H ) :   0.2008
B(  1-C , 10-H ) :   0.1843 B(  4-S ,  5-F ) :   0.6448 B(  4-S ,  6-O ) :   1.5584
B(  4-S ,  7-O ) :   1.5048

Dispersion correction           -0.011527403
FINAL SINGLE POINT ENERGY      -727.354350388100

DIPOLE MOMENT
-------------
                                X             Y             Z
Electronic contribution:     -3.01640       8.18770      -1.72614
Nuclear contribution   :      4.18919      -9.36357       1.23251
                        -----------------------------------------
Total Dipole Moment    :      1.17279      -1.17587      -0.49363
                        -----------------------------------------
Magnitude (a.u.)       :      1.73256
Magnitude (Debye)      :      4.40383

Rotational constants in cm-1:     0.153152     0.082513     0.079874
Rotational constants in MHz :  4591.373714  2473.673397  2394.575279

                             ****ORCA TERMINATED NORMALLY****
TOTAL RUN TIME: 0 days 0 hours 0 minutes 9 seconds 709 msec
