                         Program Version 5.0.0 -  RELEASE  -
|  1> !TPSS D3BJ RIJCOSX def2-SVPD def2/J TightSCF
|  2> *xyz 0 1
|  3> C          4.49059        1.15590       -2.46929
|  4> C          4.30539        1.22276       -3.90832
|  5> C          4.63192        2.24637       -4.67096
|  6> N          4.54169        2.14399       -5.98714
|  7> N          5.08409        3.39358       -4.11855
|  8> H          4.92067        3.57050       -3.13587
|  9> H          5.25465        4.19739       -4.70696
| 10> H          3.82453        0.44911       -4.35093
| 11> H          4.34337        1.24932       -6.41665
| 12> H          4.67671        2.95662       -6.57411
| 13> C          5.94213        0.93950       -2.03689
| 14> H          3.86431        0.32853       -2.13661
| 15> H          4.07623        2.04999       -1.98901
| 16> H          6.32982        0.06401       -2.51451
| 17> H          5.98308        0.81426       -0.97504
| 18> H          6.52865        1.78889       -2.31873
| 19> *
| 20>
| 21> %MaxCore 64000
| 22>
| 23> %pal nprocs 4
| 24> end
| 25>
| 26> %scf
| 27>   MaxIter 150
| 28> end
| 29>
| 30>
| 31>                          ****END OF INPUT****

CARTESIAN COORDINATES (ANGSTROEM)
---------------------------------
  C      4.490590    1.155900   -2.469290
  C      4.305390    1.222760   -3.908320
  C      4.631920    2.246370   -4.670960
  N      4.541690    2.143990   -5.987140
  N      5.084090    3.393580   -4.118550
  H      4.920670    3.570500   -3.135870
  H      5.254650    4.197390   -4.706960
  H      3.824530    0.449110   -4.350930
  H      4.343370    1.249320   -6.416650
  H      4.676710    2.956620   -6.574110
  C      5.942130    0.939500   -2.036890
  H      3.864310    0.328530   -2.136610
  H      4.076230    2.049990   -1.989010
  H      6.329820    0.064010   -2.514510
  H      5.983080    0.814260   -0.975040
  H      6.528650    1.788890   -2.318730

 Total Charge           Charge          ....    0
 Multiplicity           Mult            ....    1
 Number of Electrons    NEL             ....   48
 Basis Dimension        Dim             ....  200

ORBITAL ENERGIES
----------------

  NO   OCC          E(Eh)            E(eV)
   0   2.0000     -14.119772      -384.2185
   1   2.0000     -14.117876      -384.1669
   2   2.0000     -10.035088      -273.0686
   3   2.0000      -9.974950      -271.4322
   4   2.0000      -9.965251      -271.1683
   5   2.0000      -9.919613      -269.9264
   6   2.0000      -0.885498       -24.0956
   7   2.0000      -0.801558       -21.8115
   8   2.0000      -0.706716       -19.2307
   9   2.0000      -0.633189       -17.2300
  10   2.0000      -0.563245       -15.3267
  11   2.0000      -0.527508       -14.3542
  12   2.0000      -0.495590       -13.4857
  13   2.0000      -0.462197       -12.5770
  14   2.0000      -0.432948       -11.7811
  15   2.0000      -0.395308       -10.7569
  16   2.0000      -0.377829       -10.2813
  17   2.0000      -0.349865        -9.5203
  18   2.0000      -0.340556        -9.2670
  19   2.0000      -0.310788        -8.4570
  20   2.0000      -0.290617        -7.9081
  21   2.0000      -0.281511        -7.6603
  22   2.0000      -0.224326        -6.1042
  23   2.0000      -0.129993        -3.5373
  24   0.0000       0.001595         0.0434
  25   0.0000       0.027166         0.7392
  26   0.0000       0.037383         1.0172
  27   0.0000       0.046785         1.2731
  28   0.0000       0.063630         1.7315

MULLIKEN ATOMIC CHARGES
-----------------------
   0 C :   -0.209159
   1 C :   -0.417941
   2 C :    1.158824
   3 N :   -0.058667
   4 N :   -0.042886
   5 H :   -0.036640
   6 H :   -0.258188
   7 H :   -0.361263
   8 H :   -0.040977
   9 H :   -0.157555
  10 C :    0.577534
  11 H :   -0.023864
  12 H :   -0.043363
  13 H :   -0.028752
  14 H :   -0.007701
  15 H :   -0.049401
Sum of atomic charges:   -0.0000000

LOEWDIN ATOMIC CHARGES
----------------------
   0 C :   -0.096989
   1 C :   -0.036407
   2 C :   -0.215825
   3 N :    0.177450
   4 N :    0.206937
   5 H :   -0.013270
   6 H :   -0.014604
   7 H :   -0.053017
   8 H :    0.008204
   9 H :   -0.010696
  10 C :    0.128407
  11 H :    0.010175
  12 H :   -0.000336
  13 H :   -0.022440
  14 H :   -0.031646
  15 H :   -0.035944

  Mayer bond orders larger than 0.100000
B(  0-C ,  1-C ) :   1.2365 B(  0-C ,  7-H ) :   0.2866 B(  0-C , 10-C ) :   1.2484
B(  0-C , 11-H ) :   0.8390 B(  0-C , 12-H ) :   0.8799 B(  0-C , 13-H ) :   0.1764
B(  0-C , 14-H ) :   0.1603 B(  0-C , 15-H ) :   0.2091 B(  1-C ,  2-C ) :   1.4160
B(  1-C ,  3-N ) :   0.4290 B(  1-C ,  4-N ) :   0.2276 B(  1-C ,  7-H ) :   1.0133
B(  1-C , 11-H ) :   0.2763 B(  1-C , 12-H ) :   0.1621 B(  2-C ,  3-N ) :   0.7456
B(  2-C ,  4-N ) :   0.8886 B(  2-C ,  6-H ) :  -0.1842 B(  2-C ,  8-H ) :  -0.1020
B(  3-N ,  4-N ) :   0.1289 B(  3-N ,  8-H ) :   1.1809 B(  3-N ,  9-H ) :   1.2501
B(  4-N ,  5-H ) :   1.0591 B(  4-N ,  6-H ) :   1.3486 B(  5-H ,  6-H ) :  -0.1811
B(  8-H ,  9-H ) :  -0.1623 B( 10-C , 13-H ) :   0.8646 B( 10-C , 14-H ) :   0.8343
B( 10-C , 15-H ) :   0.8263

Dispersion correction           -0.015909588
FINAL SINGLE POINT ENERGY      -267.792262018686

DIPOLE MOMENT
-------------
                                X             Y             Z
Electronic contribution:     -1.26479       1.96370      -4.13927
Nuclear contribution   :      1.23062      -1.24683       3.43056
                        -----------------------------------------
Total Dipole Moment    :     -0.03418       0.71687      -0.70871
                        -----------------------------------------
Magnitude (a.u.)       :      1.00863
Magnitude (Debye)      :      2.56373

Rotational constants in cm-1:     0.231477     0.075416     0.065327
Rotational constants in MHz :  6939.497385  2260.912204  1958.442932

                             ****ORCA TERMINATED NORMALLY****
TOTAL RUN TIME: 0 days 0 hours 0 minutes 13 seconds 262 msec
