                         Program Version 5.0.0 -  RELEASE  -
|  1> !TPSS D3BJ RIJCOSX def2-SVPD def2/J TightSCF
|  2> *xyz 0 1
|  3> C          4.90646       -3.10282       -5.95484
|  4> C          3.51177       -2.80621       -6.49228
|  5> H          2.73604       -3.37345       -5.97374
|  6> H          3.44490       -3.04083       -7.55528
|  7> S          3.00462       -1.09621       -6.38926
|  8> O          4.12886       -0.32965       -6.95372
|  9> F          1.78128       -1.00078       -7.13640
| 10> O          2.85155       -0.78368       -4.95679
| 11> H          5.62703       -2.52424       -6.49422
| 12> H          5.12164       -4.14387       -6.07654
| 13> H          4.95004       -2.84862       -4.91639
| 14> *
| 15>
| 16> %MaxCore 64000
| 17>
| 18> %pal nprocs 4
| 19> end
| 20>
| 21> %scf
| 22>   MaxIter 150
| 23> end
| 24>
| 25>
| 26>                          ****END OF INPUT****

CARTESIAN COORDINATES (ANGSTROEM)
---------------------------------
  C      4.906460   -3.102820   -5.954840
  C      3.511770   -2.806210   -6.492280
  H      2.736040   -3.373450   -5.973740
  H      3.444900   -3.040830   -7.555280
  S      3.004620   -1.096210   -6.389260
  O      4.128860   -0.329650   -6.953720
  F      1.781280   -1.000780   -7.136400
  O      2.851550   -0.783680   -4.956790
  H      5.627030   -2.524240   -6.494220
  H      5.121640   -4.143870   -6.076540
  H      4.950040   -2.848620   -4.916390

 Total Charge           Charge          ....    0
 Multiplicity           Mult            ....    1
 Number of Electrons    NEL             ....   58
 Basis Dimension        Dim             ....  176

ORBITAL ENERGIES
----------------

  NO   OCC          E(Eh)            E(eV)
   0   2.0000     -88.621072     -2411.5020
   1   2.0000     -24.544787      -667.8976
   2   2.0000     -18.903016      -514.3772
   3   2.0000     -18.902918      -514.3745
   4   2.0000     -10.066483      -273.9229
   5   2.0000     -10.024668      -272.7851
   6   2.0000      -7.982338      -217.2105
   7   2.0000      -5.972727      -162.5262
   8   2.0000      -5.965985      -162.3427
   9   2.0000      -5.964181      -162.2936
  10   2.0000      -1.297986       -35.3200
  11   2.0000      -1.024471       -27.8773
  12   2.0000      -0.926827       -25.2202
  13   2.0000      -0.765657       -20.8346
  14   2.0000      -0.681831       -18.5536
  15   2.0000      -0.625084       -17.0094
  16   2.0000      -0.536037       -14.5863
  17   2.0000      -0.532723       -14.4961
  18   2.0000      -0.506869       -13.7926
  19   2.0000      -0.457438       -12.4475
  20   2.0000      -0.435688       -11.8557
  21   2.0000      -0.397109       -10.8059
  22   2.0000      -0.393474       -10.7070
  23   2.0000      -0.374320       -10.1858
  24   2.0000      -0.356297        -9.6953
  25   2.0000      -0.336357        -9.1527
  26   2.0000      -0.286548        -7.7974
  27   2.0000      -0.284316        -7.7366
  28   2.0000      -0.258243        -7.0272
  29   0.0000      -0.019842        -0.5399
  30   0.0000       0.000183         0.0050
  31   0.0000       0.022468         0.6114
  32   0.0000       0.027915         0.7596
  33   0.0000       0.032935         0.8962

MULLIKEN ATOMIC CHARGES
-----------------------
   0 C :    0.683523
   1 C :   -0.418109
   2 H :    0.018708
   3 H :    0.046798
   4 S :    1.446799
   5 O :   -0.669050
   6 F :   -0.386332
   7 O :   -0.666917
   8 H :    0.000154
   9 H :   -0.045306
  10 H :   -0.010267
Sum of atomic charges:   -0.0000000

LOEWDIN ATOMIC CHARGES
----------------------
   0 C :    0.158320
   1 C :   -0.101268
   2 H :    0.019133
   3 H :    0.014999
   4 S :    1.103464
   5 O :   -0.464876
   6 F :   -0.248564
   7 O :   -0.465884
   8 H :   -0.007341
   9 H :   -0.005724
  10 H :   -0.002259

  Mayer bond orders larger than 0.100000
B(  0-C ,  1-C ) :   1.3491 B(  0-C ,  8-H ) :   0.8287 B(  0-C ,  9-H ) :   0.7682
B(  0-C , 10-H ) :   0.8226 B(  1-C ,  2-H ) :   0.9734 B(  1-C ,  3-H ) :   0.9617
B(  1-C ,  4-S ) :   0.9478 B(  1-C ,  8-H ) :   0.1912 B(  1-C ,  9-H ) :   0.1977
B(  1-C , 10-H ) :   0.1845 B(  4-S ,  5-O ) :   1.5037 B(  4-S ,  6-F ) :   0.6890
B(  4-S ,  7-O ) :   1.4954

Dispersion correction           -0.011596351
FINAL SINGLE POINT ENERGY      -727.339219268985

DIPOLE MOMENT
-------------
                                X             Y             Z
Electronic contribution:     -6.91844       7.08314      -2.02685
Nuclear contribution   :      6.63544      -8.66423       1.42287
                        -----------------------------------------
Total Dipole Moment    :     -0.28299      -1.58109      -0.60398
                        -----------------------------------------
Magnitude (a.u.)       :      1.71602
Magnitude (Debye)      :      4.36178

Rotational constants in cm-1:     0.158118     0.080978     0.078216
Rotational constants in MHz :  4740.271775  2427.649826  2344.849020

                             ****ORCA TERMINATED NORMALLY****
TOTAL RUN TIME: 0 days 0 hours 0 minutes 9 seconds 726 msec
