                         Program Version 5.0.0 -  RELEASE  -
|  1> !TPSS D3BJ RIJCOSX def2-SVPD def2/J TightSCF
|  2> *xyz 0 1
|  3> C          4.49059        1.15590       -2.46929
|  4> N          4.30539        1.22276       -3.90832
|  5> C          4.63192        2.24637       -4.67096
|  6> C          4.54169        2.14399       -5.98714
|  7> N          5.08409        3.39358       -4.11855
|  8> H          4.92067        3.57050       -3.13587
|  9> H          5.25465        4.19739       -4.70696
| 10> H          3.82453        0.44911       -4.35093
| 11> H          4.34337        1.24932       -6.41665
| 12> H          4.67671        2.95662       -6.57411
| 13> C          5.94213        0.93950       -2.03689
| 14> H          3.86431        0.32853       -2.13661
| 15> H          4.07623        2.04999       -1.98901
| 16> H          6.32982        0.06401       -2.51451
| 17> H          5.98308        0.81426       -0.97504
| 18> H          6.52865        1.78889       -2.31873
| 19> *
| 20>
| 21> %MaxCore 64000
| 22>
| 23> %pal nprocs 4
| 24> end
| 25>
| 26> %scf
| 27>   MaxIter 150
| 28> end
| 29>
| 30>
| 31>                          ****END OF INPUT****

CARTESIAN COORDINATES (ANGSTROEM)
---------------------------------
  C      4.490590    1.155900   -2.469290
  N      4.305390    1.222760   -3.908320
  C      4.631920    2.246370   -4.670960
  C      4.541690    2.143990   -5.987140
  N      5.084090    3.393580   -4.118550
  H      4.920670    3.570500   -3.135870
  H      5.254650    4.197390   -4.706960
  H      3.824530    0.449110   -4.350930
  H      4.343370    1.249320   -6.416650
  H      4.676710    2.956620   -6.574110
  C      5.942130    0.939500   -2.036890
  H      3.864310    0.328530   -2.136610
  H      4.076230    2.049990   -1.989010
  H      6.329820    0.064010   -2.514510
  H      5.983080    0.814260   -0.975040
  H      6.528650    1.788890   -2.318730

 Total Charge           Charge          ....    0
 Multiplicity           Mult            ....    1
 Number of Electrons    NEL             ....   48
 Basis Dimension        Dim             ....  200

ORBITAL ENERGIES
----------------

  NO   OCC          E(Eh)            E(eV)
   0   2.0000     -14.117073      -384.1451
   1   2.0000     -14.116669      -384.1341
   2   2.0000     -10.041549      -273.2444
   3   2.0000     -10.035742      -273.0864
   4   2.0000      -9.990850      -271.8649
   5   2.0000      -9.910896      -269.6892
   6   2.0000      -0.892719       -24.2921
   7   2.0000      -0.811627       -22.0855
   8   2.0000      -0.707332       -19.2475
   9   2.0000      -0.640415       -17.4266
  10   2.0000      -0.575871       -15.6702
  11   2.0000      -0.547180       -14.8895
  12   2.0000      -0.488286       -13.2869
  13   2.0000      -0.453103       -12.3296
  14   2.0000      -0.438063       -11.9203
  15   2.0000      -0.406350       -11.0573
  16   2.0000      -0.381396       -10.3783
  17   2.0000      -0.360729        -9.8159
  18   2.0000      -0.342256        -9.3133
  19   2.0000      -0.335763        -9.1366
  20   2.0000      -0.322130        -8.7656
  21   2.0000      -0.314782        -8.5656
  22   2.0000      -0.215031        -5.8513
  23   2.0000      -0.130696        -3.5564
  24   0.0000       0.000443         0.0120
  25   0.0000       0.025632         0.6975
  26   0.0000       0.033491         0.9113
  27   0.0000       0.041934         1.1411
  28   0.0000       0.060989         1.6596

MULLIKEN ATOMIC CHARGES
-----------------------
   0 C :    0.240348
   1 N :   -0.311956
   2 C :    0.826820
   3 C :    0.186302
   4 N :    0.093131
   5 H :   -0.114140
   6 H :   -0.189246
   7 H :   -0.276909
   8 H :   -0.233556
   9 H :   -0.322368
  10 C :    0.589183
  11 H :   -0.347278
  12 H :   -0.032260
  13 H :   -0.045737
  14 H :   -0.027069
  15 H :   -0.035266
Sum of atomic charges:    0.0000000

LOEWDIN ATOMIC CHARGES
----------------------
   0 C :    0.014453
   1 N :   -0.019352
   2 C :   -0.235039
   3 C :    0.143000
   4 N :    0.203396
   5 H :   -0.027810
   6 H :    0.002961
   7 H :    0.035052
   8 H :   -0.100421
   9 H :   -0.102748
  10 C :    0.143796
  11 H :    0.015507
  12 H :    0.004649
  13 H :   -0.019647
  14 H :   -0.024709
  15 H :   -0.033089

  Mayer bond orders larger than 0.100000
B(  0-C ,  1-N ) :   0.9060 B(  0-C ,  7-H ) :  -0.1614 B(  0-C , 10-C ) :   1.2493
B(  0-C , 11-H ) :   0.9409 B(  0-C , 12-H ) :   0.8834 B(  0-C , 13-H ) :   0.2282
B(  0-C , 14-H ) :   0.1583 B(  0-C , 15-H ) :   0.1948 B(  1-N ,  2-C ) :   1.0211
B(  1-N ,  3-C ) :   0.2376 B(  1-N ,  4-N ) :   0.1852 B(  1-N ,  7-H ) :   1.3001
B(  1-N , 11-H ) :   0.1664 B(  1-N , 12-H ) :   0.1233 B(  2-C ,  3-C ) :   1.2811
B(  2-C ,  4-N ) :   0.8929 B(  2-C ,  6-H ) :  -0.1234 B(  2-C ,  7-H ) :  -0.2230
B(  2-C ,  9-H ) :   0.1263 B(  3-C ,  4-N ) :   0.2207 B(  3-C ,  8-H ) :   0.8897
B(  3-C ,  9-H ) :   0.8462 B(  4-N ,  5-H ) :   1.0581 B(  4-N ,  6-H ) :   1.2423
B(  5-H ,  6-H ) :  -0.1832 B(  8-H ,  9-H ) :   0.1082 B( 10-C , 13-H ) :   0.8278
B( 10-C , 14-H ) :   0.8555 B( 10-C , 15-H ) :   0.8327

Dispersion correction           -0.015764985
FINAL SINGLE POINT ENERGY      -267.786422027974

DIPOLE MOMENT
-------------
                                X             Y             Z
Electronic contribution:     -1.41789       1.07678      -1.97131
Nuclear contribution   :      1.28075      -1.05140       2.98955
                        -----------------------------------------
Total Dipole Moment    :     -0.13715       0.02538       1.01824
                        -----------------------------------------
Magnitude (a.u.)       :      1.02775
Magnitude (Debye)      :      2.61233

Rotational constants in cm-1:     0.229858     0.078444     0.067377
Rotational constants in MHz :  6890.979812  2351.691803  2019.910665

                             ****ORCA TERMINATED NORMALLY****
TOTAL RUN TIME: 0 days 0 hours 0 minutes 12 seconds 429 msec
