                         Program Version 5.0.0 -  RELEASE  -
|  1> !TPSS D3BJ RIJCOSX def2-SVPD def2/J TightSCF
|  2> *xyz 0 1
|  3> C          4.90646       -3.10282       -5.95484
|  4> C          3.51177       -2.80621       -6.49228
|  5> H          2.73604       -3.37345       -5.97374
|  6> H          3.44490       -3.04083       -7.55528
|  7> S          3.00462       -1.09621       -6.38926
|  8> O          4.12886       -0.32965       -6.95372
|  9> O          1.78128       -1.00078       -7.13640
| 10> F          2.85155       -0.78368       -4.95679
| 11> H          5.62703       -2.52424       -6.49422
| 12> H          5.12164       -4.14387       -6.07654
| 13> H          4.95004       -2.84862       -4.91639
| 14> *
| 15>
| 16> %MaxCore 64000
| 17>
| 18> %pal nprocs 4
| 19> end
| 20>
| 21> %scf
| 22>   MaxIter 150
| 23> end
| 24>
| 25>
| 26>                          ****END OF INPUT****

CARTESIAN COORDINATES (ANGSTROEM)
---------------------------------
  C      4.906460   -3.102820   -5.954840
  C      3.511770   -2.806210   -6.492280
  H      2.736040   -3.373450   -5.973740
  H      3.444900   -3.040830   -7.555280
  S      3.004620   -1.096210   -6.389260
  O      4.128860   -0.329650   -6.953720
  O      1.781280   -1.000780   -7.136400
  F      2.851550   -0.783680   -4.956790
  H      5.627030   -2.524240   -6.494220
  H      5.121640   -4.143870   -6.076540
  H      4.950040   -2.848620   -4.916390

 Total Charge           Charge          ....    0
 Multiplicity           Mult            ....    1
 Number of Electrons    NEL             ....   58
 Basis Dimension        Dim             ....  176

ORBITAL ENERGIES
----------------

  NO   OCC          E(Eh)            E(eV)
   0   2.0000     -88.619212     -2411.4513
   1   2.0000     -24.526750      -667.4068
   2   2.0000     -18.914564      -514.6914
   3   2.0000     -18.903292      -514.3847
   4   2.0000     -10.065522      -273.8968
   5   2.0000     -10.025639      -272.8115
   6   2.0000      -7.980498      -217.1604
   7   2.0000      -5.970680      -162.4705
   8   2.0000      -5.964371      -162.2988
   9   2.0000      -5.962502      -162.2479
  10   2.0000      -1.266769       -34.4705
  11   2.0000      -1.037697       -28.2372
  12   2.0000      -0.941812       -25.6280
  13   2.0000      -0.766122       -20.8472
  14   2.0000      -0.667747       -18.1703
  15   2.0000      -0.622505       -16.9392
  16   2.0000      -0.530863       -14.4455
  17   2.0000      -0.510154       -13.8820
  18   2.0000      -0.497868       -13.5477
  19   2.0000      -0.455010       -12.3814
  20   2.0000      -0.435100       -11.8397
  21   2.0000      -0.412145       -11.2150
  22   2.0000      -0.393414       -10.7054
  23   2.0000      -0.372069       -10.1245
  24   2.0000      -0.364556        -9.9201
  25   2.0000      -0.339669        -9.2429
  26   2.0000      -0.297766        -8.1026
  27   2.0000      -0.287250        -7.8165
  28   2.0000      -0.270774        -7.3681
  29   0.0000      -0.023919        -0.6509
  30   0.0000       0.008342         0.2270
  31   0.0000       0.019413         0.5282
  32   0.0000       0.026463         0.7201
  33   0.0000       0.031219         0.8495

MULLIKEN ATOMIC CHARGES
-----------------------
   0 C :    0.711401
   1 C :   -0.406631
   2 H :    0.010782
   3 H :    0.046903
   4 S :    1.429287
   5 O :   -0.680083
   6 O :   -0.636554
   7 F :   -0.401015
   8 H :    0.003254
   9 H :   -0.046874
  10 H :   -0.030470
Sum of atomic charges:    0.0000000

LOEWDIN ATOMIC CHARGES
----------------------
   0 C :    0.143646
   1 C :   -0.090334
   2 H :    0.018862
   3 H :    0.030028
   4 S :    1.100707
   5 O :   -0.462888
   6 O :   -0.448428
   7 F :   -0.263479
   8 H :   -0.009580
   9 H :   -0.008549
  10 H :   -0.009985

  Mayer bond orders larger than 0.100000
B(  0-C ,  1-C ) :   1.3093 B(  0-C ,  8-H ) :   0.8363 B(  0-C ,  9-H ) :   0.7616
B(  0-C , 10-H ) :   0.8197 B(  1-C ,  2-H ) :   0.9803 B(  1-C ,  3-H ) :   0.9819
B(  1-C ,  4-S ) :   0.9787 B(  1-C ,  8-H ) :   0.1922 B(  1-C ,  9-H ) :   0.1983
B(  1-C , 10-H ) :   0.1837 B(  4-S ,  5-O ) :   1.5115 B(  4-S ,  6-O ) :   1.5561
B(  4-S ,  7-F ) :   0.6335

Dispersion correction           -0.011546626
FINAL SINGLE POINT ENERGY      -727.354782958253

DIPOLE MOMENT
-------------
                                X             Y             Z
Electronic contribution:     -5.14874       7.44217       1.60825
Nuclear contribution   :      5.52019      -8.89046      -0.84835
                        -----------------------------------------
Total Dipole Moment    :      0.37144      -1.44828       0.75990
                        -----------------------------------------
Magnitude (a.u.)       :      1.67718
Magnitude (Debye)      :      4.26306

Rotational constants in cm-1:     0.153332     0.082132     0.079755
Rotational constants in MHz :  4596.775407  2462.251277  2391.008596

                             ****ORCA TERMINATED NORMALLY****
TOTAL RUN TIME: 0 days 0 hours 0 minutes 9 seconds 497 msec
