                         Program Version 5.0.0 -  RELEASE  -
|  1> !TPSS D3BJ RIJCOSX def2-SVPD def2/J TightSCF
|  2> *xyz 0 1
|  3> C          4.49059        1.15590       -2.46929
|  4> N          4.30539        1.22276       -3.90832
|  5> C          4.63192        2.24637       -4.67096
|  6> N          4.54169        2.14399       -5.98714
|  7> C          5.08409        3.39358       -4.11855
|  8> H          4.92067        3.57050       -3.13587
|  9> H          5.25465        4.19739       -4.70696
| 10> H          3.82453        0.44911       -4.35093
| 11> H          4.34337        1.24932       -6.41665
| 12> H          4.67671        2.95662       -6.57411
| 13> C          5.94213        0.93950       -2.03689
| 14> H          3.86431        0.32853       -2.13661
| 15> H          4.07623        2.04999       -1.98901
| 16> H          6.32982        0.06401       -2.51451
| 17> H          5.98308        0.81426       -0.97504
| 18> H          6.52865        1.78889       -2.31873
| 19> *
| 20>
| 21> %MaxCore 64000
| 22>
| 23> %pal nprocs 4
| 24> end
| 25>
| 26> %scf
| 27>   MaxIter 150
| 28> end
| 29>
| 30>
| 31>                          ****END OF INPUT****

CARTESIAN COORDINATES (ANGSTROEM)
---------------------------------
  C      4.490590    1.155900   -2.469290
  N      4.305390    1.222760   -3.908320
  C      4.631920    2.246370   -4.670960
  N      4.541690    2.143990   -5.987140
  C      5.084090    3.393580   -4.118550
  H      4.920670    3.570500   -3.135870
  H      5.254650    4.197390   -4.706960
  H      3.824530    0.449110   -4.350930
  H      4.343370    1.249320   -6.416650
  H      4.676710    2.956620   -6.574110
  C      5.942130    0.939500   -2.036890
  H      3.864310    0.328530   -2.136610
  H      4.076230    2.049990   -1.989010
  H      6.329820    0.064010   -2.514510
  H      5.983080    0.814260   -0.975040
  H      6.528650    1.788890   -2.318730

 Total Charge           Charge          ....    0
 Multiplicity           Mult            ....    1
 Number of Electrons    NEL             ....   48
 Basis Dimension        Dim             ....  200

ORBITAL ENERGIES
----------------

  NO   OCC          E(Eh)            E(eV)
   0   2.0000     -14.120472      -384.2376
   1   2.0000     -14.119545      -384.2123
   2   2.0000     -10.038654      -273.1657
   3   2.0000     -10.033685      -273.0305
   4   2.0000      -9.981043      -271.5980
   5   2.0000      -9.912682      -269.7378
   6   2.0000      -0.896513       -24.3954
   7   2.0000      -0.818208       -22.2646
   8   2.0000      -0.689935       -18.7741
   9   2.0000      -0.644959       -17.5502
  10   2.0000      -0.585109       -15.9216
  11   2.0000      -0.512370       -13.9423
  12   2.0000      -0.505424       -13.7533
  13   2.0000      -0.476562       -12.9679
  14   2.0000      -0.427233       -11.6256
  15   2.0000      -0.397891       -10.8272
  16   2.0000      -0.370061       -10.0699
  17   2.0000      -0.354325        -9.6417
  18   2.0000      -0.342023        -9.3069
  19   2.0000      -0.326941        -8.8965
  20   2.0000      -0.320388        -8.7182
  21   2.0000      -0.309970        -8.4347
  22   2.0000      -0.211659        -5.7595
  23   2.0000      -0.132683        -3.6105
  24   0.0000       0.002015         0.0548
  25   0.0000       0.025046         0.6815
  26   0.0000       0.032779         0.8920
  27   0.0000       0.045320         1.2332
  28   0.0000       0.065101         1.7715

MULLIKEN ATOMIC CHARGES
-----------------------
   0 C :    0.238411
   1 N :   -0.369816
   2 C :    0.758311
   3 N :    0.011391
   4 C :    0.255270
   5 H :   -0.087706
   6 H :   -0.452439
   7 H :   -0.344659
   8 H :   -0.160374
   9 H :   -0.063077
  10 C :    0.600611
  11 H :   -0.334833
  12 H :    0.074523
  13 H :   -0.066087
  14 H :   -0.010535
  15 H :   -0.048989
Sum of atomic charges:    0.0000000

LOEWDIN ATOMIC CHARGES
----------------------
   0 C :    0.021584
   1 N :   -0.025069
   2 C :   -0.234460
   3 N :    0.182608
   4 C :    0.163791
   5 H :   -0.116359
   6 H :   -0.108056
   7 H :    0.019492
   8 H :   -0.008917
   9 H :    0.008839
  10 C :    0.147592
  11 H :    0.014453
  12 H :    0.013230
  13 H :   -0.023205
  14 H :   -0.023446
  15 H :   -0.032076

  Mayer bond orders larger than 0.100000
B(  0-C ,  1-N ) :   0.9031 B(  0-C ,  2-C ) :  -0.1094 B(  0-C ,  5-H ) :   0.1135
B(  0-C ,  7-H ) :  -0.1561 B(  0-C , 10-C ) :   1.2287 B(  0-C , 11-H ) :   0.9749
B(  0-C , 12-H ) :   0.8556 B(  0-C , 13-H ) :   0.2162 B(  0-C , 14-H ) :   0.1521
B(  0-C , 15-H ) :   0.1872 B(  1-N ,  2-C ) :   0.9360 B(  1-N ,  3-N ) :   0.1954
B(  1-N ,  4-C ) :   0.3604 B(  1-N ,  7-H ) :   1.4286 B(  1-N , 11-H ) :   0.1425
B(  2-C ,  3-N ) :   0.8702 B(  2-C ,  4-C ) :   1.6142 B(  2-C ,  5-H ) :   0.2422
B(  2-C ,  6-H ) :   0.1767 B(  2-C ,  7-H ) :  -0.3089 B(  2-C ,  8-H ) :  -0.1019
B(  3-N ,  4-C ) :   0.2651 B(  3-N ,  8-H ) :   1.2175 B(  3-N ,  9-H ) :   1.2070
B(  4-C ,  5-H ) :   0.6959 B(  4-C ,  6-H ) :   0.9041 B(  5-H ,  6-H ) :   0.1370
B(  8-H ,  9-H ) :  -0.1633 B( 10-C , 13-H ) :   0.8286 B( 10-C , 14-H ) :   0.8451
B( 10-C , 15-H ) :   0.8474

Dispersion correction           -0.015869460
FINAL SINGLE POINT ENERGY      -267.786186228160

DIPOLE MOMENT
-------------
                                X             Y             Z
Electronic contribution:     -1.88674      -0.10701      -3.83010
Nuclear contribution   :      1.39581      -0.78630       3.38596
                        -----------------------------------------
Total Dipole Moment    :     -0.49093      -0.89331      -0.44413
                        -----------------------------------------
Magnitude (a.u.)       :      1.11188
Magnitude (Debye)      :      2.82617

Rotational constants in cm-1:     0.239249     0.075811     0.066261
Rotational constants in MHz :  7172.504830  2272.756282  1986.457543

                             ****ORCA TERMINATED NORMALLY****
TOTAL RUN TIME: 0 days 0 hours 0 minutes 13 seconds 248 msec
