                         Program Version 5.0.0 -  RELEASE  -
|  1> !TPSS D3BJ RIJCOSX def2-SVPD def2/J TightSCF xyzfile
|  2>
|  3> *xyzfile 0 1 D5.xyz
|  4>
|  5> %MaxCore 64000
|  6>
|  7> %pal nprocs 4
|  8> end
|  9>
| 10> %scf
| 11>   MaxIter 150
| 12> end
| 13>
| 14>
| 15>                          ****END OF INPUT****

CARTESIAN COORDINATES (ANGSTROEM)
---------------------------------
  C      4.490588    1.155899   -2.469290
  N      4.305394    1.222762   -3.908317
  C      4.906458   -3.102816   -5.954844
  C      3.511771   -2.806215   -6.492283
  H      2.736044   -3.373445   -5.973736
  H      3.444904   -3.040831   -7.555281
  S      3.004618   -1.096206   -6.389259
  C      4.631918    2.246365   -4.670958
  C      4.541686    2.143990   -5.987139
  N      5.084086    3.393584   -4.118545
  H      4.920675    3.570501   -3.135870
  H      5.254652    4.197390   -4.706956
  H      3.824530    0.449113   -4.350926
  H      4.343373    1.249318   -6.416646
  H      4.676712    2.956624   -6.574113
  O      4.128856   -0.329647   -6.953717
  F      1.781285   -1.000779   -7.136399
  C      5.942129    0.939500   -2.036893
  H      3.864305    0.328532   -2.136611
  H      4.076233    2.049994   -1.989010
  C      6.462677   -3.117775   -3.944671
  C      5.024977   -3.025679   -4.437625
  H      4.423321   -3.818693   -3.977648
  H      4.579350   -2.087131   -4.108727
  H      5.201533   -4.100207   -6.296905
  H      5.605922   -2.397822   -6.413368
  C      6.559957   -0.356290   -2.559086
  H      5.967976    0.952567   -0.942444
  H      6.547184    1.788331   -2.368849
  C      6.006283   -1.615917   -1.899301
  H      7.642360   -0.318000   -2.402059
  H      6.414855   -0.403433   -3.642587
  C      6.608718   -2.917014   -2.435655
  H      6.190324   -1.561115   -0.820948
  H      4.919250   -1.651245   -2.016586
  H      7.066975   -2.374258   -4.475514
  H      6.887808   -4.089747   -4.215332
  H      6.135197   -3.755573   -1.915159
  H      7.671142   -2.955503   -2.172291
  O      2.851546   -0.783683   -4.956789

 Total Charge           Charge          ....    0
 Multiplicity           Mult            ....    1
 Number of Electrons    NEL             ....  144
 Basis Dimension        Dim             ....  540

ORBITAL ENERGIES
----------------

  NO   OCC          E(Eh)            E(eV)
   0   2.0000     -88.636579     -2411.9239
   1   2.0000     -24.554608      -668.1648
   2   2.0000     -18.922902      -514.9183
   3   2.0000     -18.912498      -514.6352
   4   2.0000     -14.093119      -383.4933
   5   2.0000     -14.076802      -383.0493
   6   2.0000     -10.069920      -274.0165
   7   2.0000     -10.032131      -272.9882
   8   2.0000     -10.016754      -272.5697
   9   2.0000     -10.006195      -272.2824
  10   2.0000     -10.004892      -272.2470
  11   2.0000      -9.999481      -272.0997
  12   2.0000      -9.995248      -271.9845
  13   2.0000      -9.989889      -271.8387
  14   2.0000      -9.984018      -271.6789
  15   2.0000      -9.982736      -271.6441
  16   2.0000      -9.873447      -268.6702
  17   2.0000      -7.996333      -217.5913
  18   2.0000      -5.986774      -162.9084
  19   2.0000      -5.980303      -162.7323
  20   2.0000      -5.978146      -162.6736
  21   2.0000      -1.306693       -35.5569
  22   2.0000      -1.042104       -28.3571
  23   2.0000      -0.945076       -25.7168
  24   2.0000      -0.863583       -23.4993
  25   2.0000      -0.785861       -21.3844
  26   2.0000      -0.781497       -21.2656
  27   2.0000      -0.745989       -20.2994
  28   2.0000      -0.718781       -19.5590
  29   2.0000      -0.690887       -18.8000
  30   2.0000      -0.666927       -18.1480
  31   2.0000      -0.640592       -17.4314
  32   2.0000      -0.612718       -16.6729
  33   2.0000      -0.587782       -15.9944
  34   2.0000      -0.567652       -15.4466
  35   2.0000      -0.545723       -14.8499
  36   2.0000      -0.539752       -14.6874
  37   2.0000      -0.535622       -14.5750
  38   2.0000      -0.526701       -14.3323
  39   2.0000      -0.510522       -13.8920
  40   2.0000      -0.499376       -13.5887
  41   2.0000      -0.466817       -12.7027
  42   2.0000      -0.459944       -12.5157
  43   2.0000      -0.448457       -12.2031
  44   2.0000      -0.434432       -11.8215
  45   2.0000      -0.430138       -11.7047
  46   2.0000      -0.421584       -11.4719
  47   2.0000      -0.418872       -11.3981
  48   2.0000      -0.406410       -11.0590
  49   2.0000      -0.402892       -10.9632
  50   2.0000      -0.390828       -10.6350
  51   2.0000      -0.385920       -10.5014
  52   2.0000      -0.373038       -10.1509
  53   2.0000      -0.356599        -9.7036
  54   2.0000      -0.349395        -9.5075
  55   2.0000      -0.347660        -9.4603
  56   2.0000      -0.338724        -9.2171
  57   2.0000      -0.331929        -9.0322
  58   2.0000      -0.321257        -8.7418
  59   2.0000      -0.318239        -8.6597
  60   2.0000      -0.316533        -8.6133
  61   2.0000      -0.305909        -8.3242
  62   2.0000      -0.301963        -8.2168
  63   2.0000      -0.295266        -8.0346
  64   2.0000      -0.288257        -7.8439
  65   2.0000      -0.279813        -7.6141
  66   2.0000      -0.276122        -7.5137
  67   2.0000      -0.274542        -7.4707
  68   2.0000      -0.269518        -7.3340
  69   2.0000      -0.252620        -6.8741
  70   2.0000      -0.187951        -5.1144
  71   2.0000      -0.102590        -2.7916
  72   0.0000      -0.025509        -0.6941
  73   0.0000      -0.007320        -0.1992
  74   0.0000       0.013581         0.3696
  75   0.0000       0.014690         0.3997
  76   0.0000       0.018758         0.5104

MULLIKEN ATOMIC CHARGES
-----------------------
   0 C :    0.932628
   1 N :    0.201623
   2 C :    0.111526
   3 C :    0.206272
   4 H :    0.074303
   5 H :    0.054838
   6 S :    1.567010
   7 C :    1.072156
   8 C :    0.340934
   9 N :    0.184639
  10 H :   -0.062450
  11 H :   -0.227887
  12 H :   -0.919096
  13 H :   -0.221893
  14 H :   -0.657476
  15 O :   -0.719529
  16 F :   -0.514001
  17 C :    0.233164
  18 H :   -0.284814
  19 H :   -0.170948
  20 C :   -0.047846
  21 C :    0.165900
  22 H :    0.060824
  23 H :   -0.438149
  24 H :   -0.059194
  25 H :    0.095701
  26 C :    0.105303
  27 H :   -0.141102
  28 H :   -0.010512
  29 C :   -0.205011
  30 H :   -0.133216
  31 H :   -0.097603
  32 C :    0.579810
  33 H :   -0.322360
  34 H :    0.188790
  35 H :    0.155612
  36 H :   -0.311404
  37 H :   -0.014636
  38 H :    0.032057
  39 O :   -0.803961
Sum of atomic charges:    0.0000000

LOEWDIN ATOMIC CHARGES
----------------------
   0 C :    0.066043
   1 N :    0.014687
   2 C :   -0.010925
   3 C :   -0.046354
   4 H :    0.023897
   5 H :    0.019448
   6 S :    1.176885
   7 C :   -0.211179
   8 C :    0.173415
   9 N :    0.198582
  10 H :   -0.032471
  11 H :   -0.002333
  12 H :   -0.084730
  13 H :   -0.191758
  14 H :   -0.101249
  15 O :   -0.432754
  16 F :   -0.231383
  17 C :   -0.014536
  18 H :    0.011765
  19 H :    0.003260
  20 C :   -0.026135
  21 C :   -0.017544
  22 H :    0.036444
  23 H :   -0.015976
  24 H :    0.036408
  25 H :    0.029957
  26 C :   -0.022200
  27 H :    0.013865
  28 H :    0.006810
  29 C :   -0.030721
  30 H :    0.021697
  31 H :    0.007714
  32 C :   -0.022013
  33 H :    0.019286
  34 H :    0.002283
  35 H :    0.016944
  36 H :    0.019081
  37 H :    0.016910
  38 H :    0.018985
  39 O :   -0.440104

  Mayer bond orders larger than 0.100000
B(  0-C ,  1-N ) :   0.9761 B(  0-C , 12-H ) :  -0.4471 B(  0-C , 17-C ) :   1.0877
B(  0-C , 18-H ) :   0.6795 B(  0-C , 19-H ) :   0.8691 B(  0-C , 26-C ) :   0.1253
B(  0-C , 27-H ) :   0.1201 B(  0-C , 28-H ) :   0.1030 B(  1-N ,  7-C ) :   1.0976
B(  1-N ,  8-C ) :   0.1589 B(  1-N ,  9-N ) :   0.3122 B(  1-N , 12-H ) :   0.9179
B(  1-N , 18-H ) :   0.2474 B(  2-C ,  3-C ) :   1.2787 B(  2-C ,  5-H ) :   0.2594
B(  2-C , 20-C ) :   0.1222 B(  2-C , 21-C ) :   1.1548 B(  2-C , 24-H ) :   0.8258
B(  2-C , 25-H ) :   0.8618 B(  3-C ,  4-H ) :   0.8995 B(  3-C ,  5-H ) :   0.6924
B(  3-C ,  6-S ) :   0.9520 B(  3-C , 16-F ) :   0.1180 B(  3-C , 21-C ) :   0.1227
B(  3-C , 25-H ) :   0.1085 B(  6-S , 15-O ) :   1.4339 B(  6-S , 16-F ) :   0.4538
B(  6-S , 39-O ) :   1.3420 B(  7-C ,  8-C ) :   1.1591 B(  7-C ,  9-N ) :   0.7533
B(  7-C , 11-H ) :  -0.1025 B(  7-C , 12-H ) :  -0.7097 B(  7-C , 14-H ) :   0.1055
B(  8-C ,  9-N ) :   0.3387 B(  8-C , 13-H ) :   0.5329 B(  8-C , 14-H ) :   0.9099
B(  9-N , 10-H ) :   0.9802 B(  9-N , 11-H ) :   1.2531 B( 10-H , 11-H ) :  -0.1801
B( 13-H , 14-H ) :  -0.2114 B( 13-H , 15-O ) :   0.1089 B( 15-O , 39-O ) :   0.1088
B( 16-F , 39-O ) :   0.1135 B( 17-C , 18-H ) :   0.1146 B( 17-C , 19-H ) :   0.1036
B( 17-C , 26-C ) :   1.2205 B( 17-C , 27-H ) :   0.9503 B( 17-C , 28-H ) :   0.7401
B( 17-C , 31-H ) :   0.1269 B( 18-H , 19-H ) :  -0.1670 B( 20-C , 21-C ) :   1.2346
B( 20-C , 22-H ) :   0.1085 B( 20-C , 23-H ) :   0.1256 B( 20-C , 29-C ) :   0.1323
B( 20-C , 32-C ) :   1.1496 B( 20-C , 35-H ) :   0.8453 B( 20-C , 36-H ) :   0.9750
B( 20-C , 37-H ) :   0.1169 B( 20-C , 38-H ) :   0.1988 B( 21-C , 22-H ) :   0.7227
B( 21-C , 23-H ) :   0.8722 B( 21-C , 24-H ) :   0.1842 B( 21-C , 36-H ) :   0.1876
B( 22-H , 23-H ) :   0.2077 B( 23-H , 34-H ) :   0.1136 B( 26-C , 28-H ) :   0.1885
B( 26-C , 29-C ) :   1.2258 B( 26-C , 30-H ) :   0.8735 B( 26-C , 31-H ) :   0.9124
B( 26-C , 33-H ) :   0.1356 B( 29-C , 30-H ) :   0.1509 B( 29-C , 31-H ) :   0.1093
B( 29-C , 32-C ) :   1.1425 B( 29-C , 33-H ) :   1.0585 B( 29-C , 34-H ) :   0.8243
B( 29-C , 37-H ) :   0.2628 B( 29-C , 38-H ) :   0.1321 B( 32-C , 37-H ) :   0.6859
B( 32-C , 38-H ) :   0.7114

Dispersion correction           -0.061016835
FINAL SINGLE POINT ENERGY     -1190.411215562385

DIPOLE MOMENT
-------------
                                X             Y             Z
Electronic contribution:    -20.56737       2.68007     -20.17863
Nuclear contribution   :     20.03262      -4.53368      20.24480
                        -----------------------------------------
Total Dipole Moment    :     -0.53475      -1.85362       0.06617
                        -----------------------------------------
Magnitude (a.u.)       :      1.93034
Magnitude (Debye)      :      4.90654

Rotational constants in cm-1:     0.014367     0.012055     0.007393
Rotational constants in MHz :   430.711297   361.391195   221.649333

                             ****ORCA TERMINATED NORMALLY****
TOTAL RUN TIME: 0 days 0 hours 1 minutes 51 seconds 462 msec
