                         Program Version 5.0.0 -  RELEASE  -
|  1> !TPSS D3BJ RIJCOSX def2-SVPD def2/J TightSCF xyzfile
|  2>
|  3> *xyzfile 0 1 D7.xyz
|  4>
|  5> %MaxCore 64000
|  6>
|  7> %pal nprocs 4
|  8> end
|  9>
| 10> %scf
| 11>   MaxIter 150
| 12> end
| 13>
| 14>
| 15>                          ****END OF INPUT****

CARTESIAN COORDINATES (ANGSTROEM)
---------------------------------
  C      4.490588    1.155899   -2.469290
  C      4.305394    1.222762   -3.908317
  C      4.906458   -3.102816   -5.954844
  C      3.511771   -2.806215   -6.492283
  H      2.736044   -3.373445   -5.973736
  H      3.444904   -3.040831   -7.555281
  S      3.004618   -1.096206   -6.389259
  C      4.631918    2.246365   -4.670958
  N      4.541686    2.143990   -5.987139
  N      5.084086    3.393584   -4.118545
  H      4.920675    3.570501   -3.135870
  H      5.254652    4.197390   -4.706956
  H      3.824530    0.449113   -4.350926
  H      4.343373    1.249318   -6.416646
  H      4.676712    2.956624   -6.574113
  O      4.128856   -0.329647   -6.953717
  O      1.781285   -1.000779   -7.136399
  C      5.942129    0.939500   -2.036893
  H      3.864305    0.328532   -2.136611
  H      4.076233    2.049994   -1.989010
  C      6.462677   -3.117775   -3.944671
  C      5.024977   -3.025679   -4.437625
  H      4.423321   -3.818693   -3.977648
  H      4.579350   -2.087131   -4.108727
  H      5.201533   -4.100207   -6.296905
  H      5.605922   -2.397822   -6.413368
  C      6.559957   -0.356290   -2.559086
  H      5.967976    0.952567   -0.942444
  H      6.547184    1.788331   -2.368849
  C      6.006283   -1.615917   -1.899301
  H      7.642360   -0.318000   -2.402059
  H      6.414855   -0.403433   -3.642587
  C      6.608718   -2.917014   -2.435655
  H      6.190324   -1.561115   -0.820948
  H      4.919250   -1.651245   -2.016586
  H      7.066975   -2.374258   -4.475514
  H      6.887808   -4.089747   -4.215332
  H      6.135197   -3.755573   -1.915159
  H      7.671142   -2.955503   -2.172291
  F      2.851546   -0.783683   -4.956789

 Total Charge           Charge          ....    0
 Multiplicity           Mult            ....    1
 Number of Electrons    NEL             ....  144
 Basis Dimension        Dim             ....  540

ORBITAL ENERGIES
----------------

  NO   OCC          E(Eh)            E(eV)
   0   2.0000     -88.632329     -2411.8083
   1   2.0000     -24.533193      -667.5821
   2   2.0000     -18.923658      -514.9389
   3   2.0000     -18.920114      -514.8425
   4   2.0000     -14.109204      -383.9310
   5   2.0000     -14.087343      -383.3361
   6   2.0000     -10.066504      -273.9235
   7   2.0000     -10.028486      -272.8890
   8   2.0000     -10.022687      -272.7312
   9   2.0000     -10.009912      -272.3836
  10   2.0000     -10.000285      -272.1216
  11   2.0000      -9.993786      -271.9448
  12   2.0000      -9.986175      -271.7376
  13   2.0000      -9.977373      -271.4981
  14   2.0000      -9.972335      -271.3610
  15   2.0000      -9.969525      -271.2846
  16   2.0000      -9.904712      -269.5209
  17   2.0000      -7.992077      -217.4755
  18   2.0000      -5.982330      -162.7875
  19   2.0000      -5.976287      -162.6230
  20   2.0000      -5.973989      -162.5605
  21   2.0000      -1.275637       -34.7119
  22   2.0000      -1.049588       -28.5607
  23   2.0000      -0.957739       -26.0614
  24   2.0000      -0.869226       -23.6528
  25   2.0000      -0.784970       -21.3601
  26   2.0000      -0.780136       -21.2286
  27   2.0000      -0.745139       -20.2763
  28   2.0000      -0.717726       -19.5303
  29   2.0000      -0.694280       -18.8923
  30   2.0000      -0.661060       -17.9884
  31   2.0000      -0.648217       -17.6389
  32   2.0000      -0.613499       -16.6942
  33   2.0000      -0.588774       -16.0214
  34   2.0000      -0.568903       -15.4806
  35   2.0000      -0.539756       -14.6875
  36   2.0000      -0.533060       -14.5053
  37   2.0000      -0.526648       -14.3308
  38   2.0000      -0.521972       -14.2036
  39   2.0000      -0.503299       -13.6955
  40   2.0000      -0.496763       -13.5176
  41   2.0000      -0.480012       -13.0618
  42   2.0000      -0.454901       -12.3785
  43   2.0000      -0.444336       -12.0910
  44   2.0000      -0.443115       -12.0578
  45   2.0000      -0.433672       -11.8008
  46   2.0000      -0.430783       -11.7222
  47   2.0000      -0.417040       -11.3482
  48   2.0000      -0.409183       -11.1344
  49   2.0000      -0.399887       -10.8815
  50   2.0000      -0.389384       -10.5957
  51   2.0000      -0.384191       -10.4544
  52   2.0000      -0.380297       -10.3484
  53   2.0000      -0.362463        -9.8631
  54   2.0000      -0.354117        -9.6360
  55   2.0000      -0.344363        -9.3706
  56   2.0000      -0.338606        -9.2139
  57   2.0000      -0.334653        -9.1064
  58   2.0000      -0.324333        -8.8256
  59   2.0000      -0.318669        -8.6714
  60   2.0000      -0.309243        -8.4149
  61   2.0000      -0.306089        -8.3291
  62   2.0000      -0.299144        -8.1401
  63   2.0000      -0.293761        -7.9936
  64   2.0000      -0.293286        -7.9807
  65   2.0000      -0.285392        -7.7659
  66   2.0000      -0.283843        -7.7238
  67   2.0000      -0.270874        -7.3709
  68   2.0000      -0.264895        -7.2081
  69   2.0000      -0.260312        -7.0834
  70   2.0000      -0.207691        -5.6516
  71   2.0000      -0.119128        -3.2416
  72   0.0000      -0.023261        -0.6330
  73   0.0000       0.002826         0.0769
  74   0.0000       0.010163         0.2766
  75   0.0000       0.012047         0.3278
  76   0.0000       0.019129         0.5205

MULLIKEN ATOMIC CHARGES
-----------------------
   0 C :    0.080030
   1 C :    0.181297
   2 C :    0.183148
   3 C :    0.208342
   4 H :    0.064917
   5 H :    0.053247
   6 S :    1.495140
   7 C :    1.071059
   8 N :    0.173145
   9 N :   -0.022717
  10 H :   -0.038870
  11 H :   -0.271279
  12 H :   -0.618171
  13 H :   -0.201965
  14 H :   -0.211674
  15 O :   -0.711797
  16 O :   -0.699580
  17 C :    0.329280
  18 H :    0.117055
  19 H :   -0.200667
  20 C :   -0.056063
  21 C :    0.226482
  22 H :    0.057861
  23 H :   -0.528437
  24 H :   -0.058828
  25 H :    0.101048
  26 C :    0.033206
  27 H :   -0.044500
  28 H :   -0.090197
  29 C :   -0.141469
  30 H :   -0.089245
  31 H :   -0.034182
  32 C :    0.572932
  33 H :   -0.310057
  34 H :    0.135432
  35 H :    0.155869
  36 H :   -0.314040
  37 H :   -0.016000
  38 H :    0.031205
  39 F :   -0.610958
Sum of atomic charges:   -0.0000000

LOEWDIN ATOMIC CHARGES
----------------------
   0 C :   -0.041532
   1 C :   -0.018619
   2 C :   -0.025356
   3 C :   -0.035203
   4 H :    0.026474
   5 H :    0.032455
   6 S :    1.145890
   7 C :   -0.187483
   8 N :    0.210541
   9 N :    0.208107
  10 H :   -0.015724
  11 H :   -0.014933
  12 H :   -0.118270
  13 H :   -0.113615
  14 H :   -0.006782
  15 O :   -0.429686
  16 O :   -0.427491
  17 C :   -0.022798
  18 H :    0.003182
  19 H :    0.000447
  20 C :   -0.025286
  21 C :   -0.021842
  22 H :    0.035997
  23 H :   -0.013847
  24 H :    0.033819
  25 H :    0.026455
  26 C :   -0.023547
  27 H :    0.010763
  28 H :    0.007217
  29 C :   -0.029716
  30 H :    0.020339
  31 H :    0.004346
  32 C :   -0.023096
  33 H :    0.019575
  34 H :    0.001013
  35 H :    0.016894
  36 H :    0.020095
  37 H :    0.016289
  38 H :    0.018827
  39 F :   -0.263899

  Mayer bond orders larger than 0.100000
B(  0-C ,  1-C ) :   1.1505 B(  0-C , 12-H ) :   0.7909 B(  0-C , 17-C ) :   1.1072
B(  0-C , 18-H ) :   0.7048 B(  0-C , 19-H ) :   0.9301 B(  0-C , 27-H ) :   0.1849
B(  0-C , 28-H ) :   0.1663 B(  0-C , 30-H ) :  -0.1004 B(  1-C ,  7-C ) :   1.5859
B(  1-C ,  8-N ) :   0.3662 B(  1-C ,  9-N ) :   0.3310 B(  1-C , 10-H ) :  -0.1128
B(  1-C , 12-H ) :  -0.3674 B(  1-C , 17-C ) :   0.1082 B(  1-C , 18-H ) :   0.3315
B(  1-C , 19-H ) :   0.1848 B(  2-C ,  3-C ) :   1.2460 B(  2-C ,  5-H ) :   0.2351
B(  2-C , 20-C ) :   0.1184 B(  2-C , 21-C ) :   1.1529 B(  2-C , 24-H ) :   0.8184
B(  2-C , 25-H ) :   0.8685 B(  3-C ,  4-H ) :   0.9130 B(  3-C ,  5-H ) :   0.7253
B(  3-C ,  6-S ) :   0.9460 B(  3-C , 16-O ) :   0.1081 B(  3-C , 21-C ) :   0.1204
B(  3-C , 25-H ) :   0.1090 B(  6-S , 15-O ) :   1.3776 B(  6-S , 16-O ) :   1.4229
B(  6-S , 39-F ) :   0.6569 B(  7-C ,  8-N ) :   0.7645 B(  7-C ,  9-N ) :   0.7801
B(  7-C , 11-H ) :  -0.1895 B(  7-C , 12-H ) :  -0.1325 B(  7-C , 13-H ) :  -0.2457
B(  7-C , 14-H ) :  -0.1827 B(  8-N ,  9-N ) :   0.1144 B(  8-N , 13-H ) :   1.1561
B(  8-N , 14-H ) :   1.3710 B(  9-N , 10-H ) :   1.0637 B(  9-N , 11-H ) :   1.3554
B( 10-H , 11-H ) :  -0.1860 B( 11-H , 12-H ) :  -0.1106 B( 12-H , 18-H ) :  -0.1680
B( 12-H , 39-F ) :   0.1758 B( 13-H , 14-H ) :  -0.2571 B( 16-O , 39-F ) :   0.1083
B( 17-C , 18-H ) :   0.1243 B( 17-C , 26-C ) :   1.2961 B( 17-C , 27-H ) :   0.8151
B( 17-C , 28-H ) :   0.7278 B( 17-C , 30-H ) :   0.1091 B( 17-C , 31-H ) :   0.1610
B( 18-H , 19-H ) :  -0.1048 B( 20-C , 21-C ) :   1.2362 B( 20-C , 22-H ) :   0.1060
B( 20-C , 23-H ) :   0.1458 B( 20-C , 29-C ) :   0.1329 B( 20-C , 32-C ) :   1.1451
B( 20-C , 35-H ) :   0.8437 B( 20-C , 36-H ) :   0.9843 B( 20-C , 37-H ) :   0.1123
B( 20-C , 38-H ) :   0.2016 B( 21-C , 22-H ) :   0.7238 B( 21-C , 23-H ) :   0.7905
B( 21-C , 24-H ) :   0.1802 B( 21-C , 36-H ) :   0.1846 B( 22-H , 23-H ) :   0.2228
B( 23-H , 34-H ) :   0.1144 B( 26-C , 27-H ) :   0.1311 B( 26-C , 28-H ) :   0.2047
B( 26-C , 29-C ) :   1.2184 B( 26-C , 30-H ) :   0.8425 B( 26-C , 31-H ) :   0.8908
B( 26-C , 33-H ) :   0.1325 B( 29-C , 30-H ) :   0.1332 B( 29-C , 32-C ) :   1.1334
B( 29-C , 33-H ) :   1.0409 B( 29-C , 34-H ) :   0.8398 B( 29-C , 37-H ) :   0.2650
B( 29-C , 38-H ) :   0.1330 B( 32-C , 37-H ) :   0.6909 B( 32-C , 38-H ) :   0.7103

Dispersion correction           -0.060802082
FINAL SINGLE POINT ENERGY     -1190.435809572507

DIPOLE MOMENT
-------------
                                X             Y             Z
Electronic contribution:    -18.42379       4.05605     -18.05837
Nuclear contribution   :     18.74089      -4.92611      17.99644
                        -----------------------------------------
Total Dipole Moment    :      0.31711      -0.87006      -0.06193
                        -----------------------------------------
Magnitude (a.u.)       :      0.92811
Magnitude (Debye)      :      2.35907

Rotational constants in cm-1:     0.014210     0.012324     0.007480
Rotational constants in MHz :   425.991442   369.455467   224.259162

                             ****ORCA TERMINATED NORMALLY****
TOTAL RUN TIME: 0 days 0 hours 1 minutes 55 seconds 516 msec
