                         Program Version 5.0.0 -  RELEASE  -
|  1> !TPSS D3BJ RIJCOSX def2-SVPD def2/J TightSCF
|  2> *xyz -1 1
|  3> C         -0.15102        0.25496       -4.09426
|  4> C         -0.72184       -0.99951       -3.43931
|  5> H         -1.08340       -1.69755       -4.20566
|  6> H         -1.58106       -0.72385       -2.82049
|  7> C          0.28725       -1.71177       -2.52740
|  8> H          1.13178       -2.06738       -3.15940
|  9> H         -0.20414       -2.63733       -2.17048
| 10> O          0.71050       -0.92751       -1.48177
| 11> H         -0.89787        0.70479       -4.71455
| 12> H          0.69695       -0.00870       -4.69119
| 13> H          0.14812        0.94842       -3.33628
| 14> *
| 15> %MaxCore 64000
| 16>
| 17> %pal nprocs 4
| 18> end
| 19>
| 20> %scf
| 21>   MaxIter 150
| 22> end
| 23>
| 24>
| 25>                          ****END OF INPUT****

CARTESIAN COORDINATES (ANGSTROEM)
---------------------------------
  C     -0.151020    0.254960   -4.094260
  C     -0.721840   -0.999510   -3.439310
  H     -1.083400   -1.697550   -4.205660
  H     -1.581060   -0.723850   -2.820490
  C      0.287250   -1.711770   -2.527400
  H      1.131780   -2.067380   -3.159400
  H     -0.204140   -2.637330   -2.170480
  O      0.710500   -0.927510   -1.481770
  H     -0.897870    0.704790   -4.714550
  H      0.696950   -0.008700   -4.691190
  H      0.148120    0.948420   -3.336280

 Total Charge           Charge          ....   -1
 Multiplicity           Mult            ....    1
 Number of Electrons    NEL             ....   34
 Basis Dimension        Dim             ....  139

ORBITAL ENERGIES
----------------

  NO   OCC          E(Eh)            E(eV)
   0   2.0000     -18.576828      -505.5012
   1   2.0000      -9.819992      -267.2156
   2   2.0000      -9.817774      -267.1552
   3   2.0000      -9.809302      -266.9247
   4   2.0000      -0.610752       -16.6194
   5   2.0000      -0.521048       -14.1784
   6   2.0000      -0.411482       -11.1970
   7   2.0000      -0.315195        -8.5769
   8   2.0000      -0.233452        -6.3526
   9   2.0000      -0.225510        -6.1365
  10   2.0000      -0.180596        -4.9143
  11   2.0000      -0.150579        -4.0975
  12   2.0000      -0.124016        -3.3746
  13   2.0000      -0.117371        -3.1938
  14   2.0000      -0.072509        -1.9731
  15   2.0000       0.063126         1.7177
  16   2.0000       0.066975         1.8225
  17   0.0000       0.156609         4.2615
  18   0.0000       0.182088         4.9549
  19   0.0000       0.197067         5.3625
  20   0.0000       0.223862         6.0916
  21   0.0000       0.239960         6.5297

MULLIKEN ATOMIC CHARGES
-----------------------
   0 C :    0.533003
   1 C :   -0.598195
   2 H :   -0.033617
   3 H :   -0.028923
   4 C :    0.435331
   5 H :   -0.111454
   6 H :   -0.163866
   7 O :   -0.903836
   8 H :   -0.070524
   9 H :   -0.052519
  10 H :   -0.005401
Sum of atomic charges:   -1.0000000

LOEWDIN ATOMIC CHARGES
----------------------
   0 C :    0.092811
   1 C :   -0.110673
   2 H :   -0.019163
   3 H :   -0.002616
   4 C :   -0.210599
   5 H :   -0.035431
   6 H :   -0.042747
   7 O :   -0.542976
   8 H :   -0.053454
   9 H :   -0.039154
  10 H :   -0.035996

  Mayer bond orders larger than 0.100000
B(  0-C ,  1-C ) :   1.2497 B(  0-C ,  8-H ) :   0.8129 B(  0-C ,  9-H ) :   0.8500
B(  0-C , 10-H ) :   0.8466 B(  1-C ,  2-H ) :   1.0322 B(  1-C ,  3-H ) :   0.9972
B(  1-C ,  4-C ) :   1.0371 B(  1-C ,  5-H ) :   0.1326 B(  1-C ,  6-H ) :   0.1539
B(  1-C ,  7-O ) :   0.2122 B(  1-C ,  8-H ) :   0.1937 B(  1-C ,  9-H ) :   0.1940
B(  1-C , 10-H ) :   0.2034 B(  2-H ,  4-C ) :   0.1035 B(  3-H ,  4-C ) :   0.1367
B(  4-C ,  5-H ) :   0.9662 B(  4-C ,  6-H ) :   0.9630 B(  4-C ,  7-O ) :   1.0886

Dispersion correction           -0.008096787
FINAL SINGLE POINT ENERGY      -193.648295342011

DIPOLE MOMENT
-------------
                                X             Y             Z
Electronic contribution:      1.09104      -0.16378       2.87320
Nuclear contribution   :     -1.95025       0.39850      -4.64834
                        -----------------------------------------
Total Dipole Moment    :     -0.85921       0.23472      -1.77513
                        -----------------------------------------
Magnitude (a.u.)       :      1.98606
Magnitude (Debye)      :      5.04817

Rotational constants in cm-1:     0.507767     0.175836     0.148827
Rotational constants in MHz : 15222.471408  5271.439482  4461.706759

                             ****ORCA TERMINATED NORMALLY****
TOTAL RUN TIME: 0 days 0 hours 0 minutes 6 seconds 814 msec
