                         Program Version 5.0.0 -  RELEASE  -
|  1> !TPSS D3BJ RIJCOSX def2-SVPD def2/J TightSCF
|  2> *xyz 1 1
|  3> C          3.48828        1.60092       -1.52204
|  4> C          4.34297        1.31342       -2.75683
|  5> N          2.81029        0.42878       -1.01420
|  6> H          5.13203        0.60499       -2.48447
|  7> C          3.53590        0.74925       -3.92460
|  8> H          4.84125        2.24214       -3.05408
|  9> H          2.71455        2.33145       -1.76030
| 10> H          4.09099        2.06315       -0.73338
| 11> C          3.29098       -0.41802       -0.12908
| 12> N          2.51754       -1.43202        0.23936
| 13> N          4.53549       -0.28441        0.39580
| 14> H          5.04363        0.57189        0.22290
| 15> H          4.72335       -0.73327        1.28180
| 16> H          1.93479        0.10230       -1.40379
| 17> H          1.67464       -1.50562       -0.31610
| 18> H          2.92850       -2.21850        0.72549
| 19> H          4.18704        0.56990       -4.75451
| 20> H          2.78096        1.45217       -4.20898
| 21> H          3.07436       -0.16949       -3.62832
| 22> *
| 23> %MaxCore 64000
| 24>
| 25> %pal nprocs 4
| 26> end
| 27>
| 28> %scf
| 29>   MaxIter 150
| 30> end
| 31>
| 32>
| 33>                          ****END OF INPUT****

CARTESIAN COORDINATES (ANGSTROEM)
---------------------------------
  C      3.488280    1.600920   -1.522040
  C      4.342970    1.313420   -2.756830
  N      2.810290    0.428780   -1.014200
  H      5.132030    0.604990   -2.484470
  C      3.535900    0.749250   -3.924600
  H      4.841250    2.242140   -3.054080
  H      2.714550    2.331450   -1.760300
  H      4.090990    2.063150   -0.733380
  C      3.290980   -0.418020   -0.129080
  N      2.517540   -1.432020    0.239360
  N      4.535490   -0.284410    0.395800
  H      5.043630    0.571890    0.222900
  H      4.723350   -0.733270    1.281800
  H      1.934790    0.102300   -1.403790
  H      1.674640   -1.505620   -0.316100
  H      2.928500   -2.218500    0.725490
  H      4.187040    0.569900   -4.754510
  H      2.780960    1.452170   -4.208980
  H      3.074360   -0.169490   -3.628320

 Total Charge           Charge          ....    1
 Multiplicity           Mult            ....    1
 Number of Electrons    NEL             ....   56
 Basis Dimension        Dim             ....  236

ORBITAL ENERGIES
----------------

  NO   OCC          E(Eh)            E(eV)
   0   2.0000     -14.342610      -390.2823
   1   2.0000     -14.340105      -390.2141
   2   2.0000     -14.337609      -390.1462
   3   2.0000     -10.321023      -280.8493
   4   2.0000     -10.207362      -277.7564
   5   2.0000     -10.145021      -276.0601
   6   2.0000     -10.118713      -275.3442
   7   2.0000      -1.141769       -31.0691
   8   2.0000      -1.035942       -28.1894
   9   2.0000      -1.023560       -27.8525
  10   2.0000      -0.880251       -23.9528
  11   2.0000      -0.805569       -21.9206
  12   2.0000      -0.772585       -21.0231
  13   2.0000      -0.732794       -19.9403
  14   2.0000      -0.718227       -19.5439
  15   2.0000      -0.682296       -18.5662
  16   2.0000      -0.647496       -17.6193
  17   2.0000      -0.640131       -17.4189
  18   2.0000      -0.611214       -16.6320
  19   2.0000      -0.592033       -16.1100
  20   2.0000      -0.559346       -15.2206
  21   2.0000      -0.541327       -14.7303
  22   2.0000      -0.514508       -14.0005
  23   2.0000      -0.468051       -12.7363
  24   2.0000      -0.455230       -12.3874
  25   2.0000      -0.449085       -12.2202
  26   2.0000      -0.437400       -11.9023
  27   2.0000      -0.412474       -11.2240
  28   0.0000      -0.196796        -5.3551
  29   0.0000      -0.170324        -4.6348
  30   0.0000      -0.139742        -3.8026
  31   0.0000      -0.121726        -3.3123
  32   0.0000      -0.098893        -2.6910

MULLIKEN ATOMIC CHARGES
-----------------------
   0 C :    0.755108
   1 C :   -0.367449
   2 N :   -0.541863
   3 H :    0.002942
   4 C :    0.647004
   5 H :   -0.061911
   6 H :   -0.218466
   7 H :   -0.060359
   8 C :    1.373610
   9 N :   -0.040662
  10 N :    0.008583
  11 H :   -0.034122
  12 H :   -0.134755
  13 H :   -0.192357
  14 H :    0.022068
  15 H :   -0.062442
  16 H :   -0.044601
  17 H :    0.040283
  18 H :   -0.090610
Sum of atomic charges:    1.0000000

LOEWDIN ATOMIC CHARGES
----------------------
   0 C :    0.083803
   1 C :   -0.042151
   2 N :    0.046526
   3 H :    0.018412
   4 C :    0.146945
   5 H :    0.034801
   6 H :    0.040886
   7 H :    0.024854
   8 C :   -0.034811
   9 N :    0.266252
  10 N :    0.286307
  11 H :    0.008290
  12 H :    0.033530
  13 H :    0.054175
  14 H :    0.032327
  15 H :    0.044364
  16 H :   -0.004976
  17 H :   -0.009492
  18 H :   -0.030041

  Mayer bond orders larger than 0.100000
B(  0-C ,  1-C ) :   1.0898 B(  0-C ,  2-N ) :   0.9066 B(  0-C ,  6-H ) :   0.8196
B(  0-C ,  7-H ) :   0.8726 B(  0-C , 13-H ) :  -0.2261 B(  1-C ,  3-H ) :   0.9266
B(  1-C ,  4-C ) :   1.3219 B(  1-C ,  5-H ) :   0.9988 B(  1-C ,  6-H ) :   0.1223
B(  1-C , 16-H ) :   0.2027 B(  1-C , 17-H ) :   0.1889 B(  1-C , 18-H ) :   0.1870
B(  2-N ,  6-H ) :   0.2139 B(  2-N ,  7-H ) :   0.1141 B(  2-N ,  8-C ) :   0.9571
B(  2-N ,  9-N ) :   0.3072 B(  2-N , 10-N ) :   0.2196 B(  2-N , 13-H ) :   1.3302
B(  4-C , 16-H ) :   0.8212 B(  4-C , 17-H ) :   0.7887 B(  4-C , 18-H ) :   0.8463
B(  8-C ,  9-N ) :   0.8603 B(  8-C , 10-N ) :   0.9192 B(  8-C , 11-H ) :  -0.1051
B(  8-C , 12-H ) :  -0.1230 B(  8-C , 13-H ) :  -0.2684 B(  8-C , 14-H ) :  -0.1057
B(  9-N , 10-N ) :   0.1503 B(  9-N , 14-H ) :   1.0596 B(  9-N , 15-H ) :   1.1964
B( 10-N , 11-H ) :   1.0313 B( 10-N , 12-H ) :   1.2563 B( 11-H , 12-H ) :  -0.1568
B( 14-H , 15-H ) :  -0.1374

Dispersion correction           -0.019454595
FINAL SINGLE POINT ENERGY      -323.563360061898

DIPOLE MOMENT
-------------
                                X             Y             Z
Electronic contribution:     -1.33743      -2.87698       6.35123
Nuclear contribution   :      1.03951       2.07316      -5.00363
                        -----------------------------------------
Total Dipole Moment    :     -0.29792      -0.80382       1.34760
                        -----------------------------------------
Magnitude (a.u.)       :      1.59716
Magnitude (Debye)      :      4.05965

Rotational constants in cm-1:     0.160664     0.048801     0.043832
Rotational constants in MHz :  4816.589604  1463.007061  1314.037102

                             ****ORCA TERMINATED NORMALLY****
TOTAL RUN TIME: 0 days 0 hours 0 minutes 15 seconds 890 msec
