                         Program Version 5.0.0 -  RELEASE  -
|  1> !TPSS D3BJ RIJCOSX def2-SVPD def2/J TightSCF xyzfile
|  2>
|  3> *xyzfile 0 1 B.xyz
|  4>
|  5> %MaxCore 64000
|  6>
|  7> %pal nprocs 4
|  8> end
|  9>
| 10> %scf
| 11>   MaxIter 150
| 12> end
| 13>
| 14>
| 15>                          ****END OF INPUT****

CARTESIAN COORDINATES (ANGSTROEM)
---------------------------------
  C      3.488276    1.600919   -1.522040
  C      4.342970    1.313419   -2.756826
  N      2.810285    0.428783   -1.014196
  H      5.132033    0.604994   -2.484466
  C      3.535896    0.749253   -3.924604
  H      4.841247    2.242136   -3.054083
  H      2.991617   -0.132199   -3.574137
  H      4.225505    0.392784   -4.695962
  C      2.564776    1.750890   -4.544523
  H      1.918749    2.171679   -3.769419
  C      1.686235    1.161657   -5.650111
  H      3.132494    2.594775   -4.951604
  C      0.839616   -0.037582   -5.220473
  H      2.323886    0.866395   -6.490796
  H      1.029518    1.951850   -6.029329
  C     -0.151019    0.254955   -4.094256
  H      1.499442   -0.857141   -4.922958
  H      0.290097   -0.410143   -6.091131
  H      0.328265    0.833022   -3.299125
  C     -0.721843   -0.999513   -3.439309
  H     -0.957367    0.884951   -4.485450
  H     -1.083403   -1.697555   -4.205656
  H     -1.581056   -0.723848   -2.820490
  C      0.287250   -1.711771   -2.527405
  H      1.131780   -2.067380   -3.159396
  H     -0.204137   -2.637326   -2.170480
  O      0.710505   -0.927506   -1.481767
  H      2.714548    2.331455   -1.760302
  H      4.090991    2.063151   -0.733382
  C      3.290978   -0.418021   -0.129083
  N      2.517536   -1.432017    0.239360
  N      4.535490   -0.284410    0.395800
  H      5.043627    0.571888    0.222899
  H      4.723346   -0.733273    1.281800
  H      1.934787    0.102305   -1.403788
  H      1.674638   -1.505616   -0.316095
  H      2.928503   -2.218502    0.725494

 Total Charge           Charge          ....    0
 Multiplicity           Mult            ....    1
 Number of Electrons    NEL             ....  112
 Basis Dimension        Dim             ....  467

ORBITAL ENERGIES
----------------

  NO   OCC          E(Eh)            E(eV)
   0   2.0000     -18.775064      -510.8955
   1   2.0000     -14.176108      -385.7515
   2   2.0000     -14.136234      -384.6665
   3   2.0000     -14.131492      -384.5375
   4   2.0000     -10.135866      -275.8109
   5   2.0000     -10.054808      -273.6052
   6   2.0000     -10.010567      -272.4014
   7   2.0000      -9.993991      -271.9503
   8   2.0000      -9.988491      -271.8007
   9   2.0000      -9.981528      -271.6112
  10   2.0000      -9.981481      -271.6099
  11   2.0000      -9.970128      -271.3010
  12   2.0000      -9.959864      -271.0217
  13   2.0000      -9.947917      -270.6966
  14   2.0000      -0.956355       -26.0238
  15   2.0000      -0.858392       -23.3580
  16   2.0000      -0.839593       -22.8465
  17   2.0000      -0.808403       -21.9978
  18   2.0000      -0.746768       -20.3206
  19   2.0000      -0.714075       -19.4310
  20   2.0000      -0.677822       -18.4445
  21   2.0000      -0.643066       -17.4987
  22   2.0000      -0.604197       -16.4410
  23   2.0000      -0.595286       -16.1986
  24   2.0000      -0.559324       -15.2200
  25   2.0000      -0.549366       -14.9490
  26   2.0000      -0.544409       -14.8141
  27   2.0000      -0.516865       -14.0646
  28   2.0000      -0.495296       -13.4777
  29   2.0000      -0.474814       -12.9204
  30   2.0000      -0.464500       -12.6397
  31   2.0000      -0.451022       -12.2729
  32   2.0000      -0.440112       -11.9761
  33   2.0000      -0.429416       -11.6850
  34   2.0000      -0.419006       -11.4017
  35   2.0000      -0.408336       -11.1114
  36   2.0000      -0.394728       -10.7411
  37   2.0000      -0.378824       -10.3083
  38   2.0000      -0.373219       -10.1558
  39   2.0000      -0.355873        -9.6838
  40   2.0000      -0.352201        -9.5839
  41   2.0000      -0.340624        -9.2688
  42   2.0000      -0.322509        -8.7759
  43   2.0000      -0.316937        -8.6243
  44   2.0000      -0.307944        -8.3796
  45   2.0000      -0.297386        -8.0923
  46   2.0000      -0.287359        -7.8194
  47   2.0000      -0.277676        -7.5559
  48   2.0000      -0.272586        -7.4174
  49   2.0000      -0.267450        -7.2777
  50   2.0000      -0.256288        -6.9739
  51   2.0000      -0.251046        -6.8313
  52   2.0000      -0.247265        -6.7284
  53   2.0000      -0.230939        -6.2842
  54   2.0000      -0.141905        -3.8614
  55   2.0000      -0.134643        -3.6638
  56   0.0000      -0.023025        -0.6265
  57   0.0000      -0.018755        -0.5104
  58   0.0000       0.008180         0.2226
  59   0.0000       0.024952         0.6790
  60   0.0000       0.025072         0.6823

MULLIKEN ATOMIC CHARGES
-----------------------
   0 C :    1.138672
   1 C :    0.226826
   2 N :    0.092046
   3 H :   -0.043183
   4 C :    0.286696
   5 H :   -0.083014
   6 H :   -0.323265
   7 H :   -0.104225
   8 C :   -0.136543
   9 H :    0.090469
  10 C :    0.564858
  11 H :   -0.201698
  12 C :   -0.063860
  13 H :   -0.014793
  14 H :   -0.104811
  15 C :    0.133362
  16 H :   -0.009441
  17 H :   -0.191033
  18 H :   -0.265181
  19 C :    0.204851
  20 H :   -0.085477
  21 H :   -0.022432
  22 H :   -0.014686
  23 C :    0.641458
  24 H :   -0.142945
  25 H :   -0.263243
  26 O :   -0.906591
  27 H :   -0.259363
  28 H :   -0.265706
  29 C :    1.220377
  30 N :    0.277882
  31 N :    0.100139
  32 H :   -0.075594
  33 H :   -0.167332
  34 H :   -0.858962
  35 H :   -0.190898
  36 H :   -0.183363
Sum of atomic charges:    0.0000000

LOEWDIN ATOMIC CHARGES
----------------------
   0 C :    0.083410
   1 C :   -0.009242
   2 N :    0.072787
   3 H :    0.012191
   4 C :   -0.015840
   5 H :    0.020636
   6 H :    0.002811
   7 H :    0.025005
   8 C :   -0.027106
   9 H :   -0.004388
  10 C :   -0.024044
  11 H :    0.018619
  12 C :   -0.026822
  13 H :    0.015374
  14 H :    0.017225
  15 C :   -0.023879
  16 H :   -0.006891
  17 H :    0.017837
  18 H :   -0.007725
  19 C :   -0.023956
  20 H :    0.016527
  21 H :    0.014200
  22 H :    0.016241
  23 C :   -0.059184
  24 H :   -0.007582
  25 H :    0.002500
  26 O :   -0.411917
  27 H :    0.019197
  28 H :    0.006093
  29 C :   -0.040878
  30 N :    0.270499
  31 N :    0.245905
  32 H :   -0.016857
  33 H :    0.007205
  34 H :   -0.089150
  35 H :   -0.102780
  36 H :    0.013978

  Mayer bond orders larger than 0.100000
B(  0-C ,  1-C ) :   1.0439 B(  0-C ,  2-N ) :   0.8602 B(  0-C , 27-H ) :   0.7045
B(  0-C , 28-H ) :   0.8092 B(  0-C , 34-H ) :  -0.5545 B(  1-C ,  3-H ) :   0.7666
B(  1-C ,  4-C ) :   1.2148 B(  1-C ,  5-H ) :   0.9248 B(  1-C ,  6-H ) :   0.1112
B(  1-C , 27-H ) :   0.1125 B(  1-C , 28-H ) :   0.1270 B(  2-N , 27-H ) :   0.2078
B(  2-N , 28-H ) :   0.1022 B(  2-N , 29-C ) :   1.1925 B(  2-N , 30-N ) :   0.1059
B(  2-N , 31-N ) :   0.2149 B(  2-N , 34-H ) :   1.1054 B(  3-H ,  4-C ) :   0.1839
B(  4-C ,  6-H ) :   0.8410 B(  4-C ,  7-H ) :   0.7834 B(  4-C ,  8-C ) :   1.1926
B(  4-C , 11-H ) :   0.1596 B(  6-H ,  8-C ) :   0.1734 B(  7-H ,  8-C ) :   0.1424
B(  8-C ,  9-H ) :   0.8259 B(  8-C , 10-C ) :   1.1783 B(  8-C , 11-H ) :   0.9404
B(  8-C , 12-C ) :   0.1131 B(  8-C , 13-H ) :   0.1165 B(  8-C , 14-H ) :   0.2780
B( 10-C , 12-C ) :   1.1799 B( 10-C , 13-H ) :   0.7166 B( 10-C , 14-H ) :   0.6997
B( 12-C , 13-H ) :   0.2180 B( 12-C , 14-H ) :   0.1252 B( 12-C , 15-C ) :   1.2152
B( 12-C , 16-H ) :   0.8863 B( 12-C , 17-H ) :   0.8751 B( 12-C , 18-H ) :   0.1523
B( 12-C , 20-H ) :   0.1953 B( 13-H , 14-H ) :  -0.1093 B( 15-C , 16-H ) :   0.1065
B( 15-C , 17-H ) :   0.2462 B( 15-C , 18-H ) :   0.8784 B( 15-C , 19-C ) :   1.1984
B( 15-C , 20-H ) :   0.7926 B( 15-C , 21-H ) :   0.1147 B( 15-C , 22-H ) :   0.2031
B( 18-H , 19-C ) :   0.1819 B( 19-C , 21-H ) :   0.8124 B( 19-C , 22-H ) :   0.7434
B( 19-C , 23-C ) :   1.1051 B( 19-C , 24-H ) :   0.1156 B( 19-C , 25-H ) :   0.1236
B( 19-C , 26-O ) :   0.1271 B( 21-H , 23-C ) :   0.1575 B( 22-H , 23-C ) :   0.1610
B( 23-C , 24-H ) :   0.8899 B( 23-C , 25-H ) :   0.9363 B( 23-C , 26-O ) :   0.9495
B( 26-O , 34-H ) :   0.1442 B( 26-O , 35-H ) :   0.2951 B( 27-H , 34-H ) :   0.1352
B( 29-C , 30-N ) :   0.8660 B( 29-C , 31-N ) :   0.8758 B( 29-C , 32-H ) :  -0.1091
B( 29-C , 34-H ) :  -0.7145 B( 29-C , 35-H ) :  -0.1504 B( 29-C , 36-H ) :  -0.1280
B( 30-N , 31-N ) :   0.1424 B( 30-N , 35-H ) :   0.9730 B( 30-N , 36-H ) :   1.2521
B( 31-N , 32-H ) :   1.0476 B( 31-N , 33-H ) :   1.2141 B( 32-H , 33-H ) :  -0.1474
B( 35-H , 36-H ) :  -0.1723

Dispersion correction           -0.050218907
FINAL SINGLE POINT ENERGY      -634.122703791719

DIPOLE MOMENT
-------------
                                X             Y             Z
Electronic contribution:      3.54273      -2.06181      11.32093
Nuclear contribution   :     -0.74583       2.62534      -9.91488
                        -----------------------------------------
Total Dipole Moment    :      2.79690       0.56354       1.40605
                        -----------------------------------------
Magnitude (a.u.)       :      3.18076
Magnitude (Debye)      :      8.08484

Rotational constants in cm-1:     0.027028     0.016098     0.010898
Rotational constants in MHz :   810.278072   482.590922   326.703462

                             ****ORCA TERMINATED NORMALLY****
TOTAL RUN TIME: 0 days 0 hours 1 minutes 18 seconds 669 msec
