                         Program Version 5.0.0 -  RELEASE  -
|  1> !TPSS D3BJ RIJCOSX def2-SVPD def2/J TightSCF
|  2> *xyz 0 1
|  3> C         -0.15102        0.25496       -4.09426
|  4> C         -0.72184       -0.99951       -3.43931
|  5> H         -1.08340       -1.69755       -4.20566
|  6> H         -1.58106       -0.72385       -2.82049
|  7> C          0.28725       -1.71177       -2.52740
|  8> H          1.13178       -2.06738       -3.15940
|  9> H         -0.20414       -2.63733       -2.17048
| 10> F          0.71050       -0.92751       -1.48177
| 11> H         -0.89787        0.70479       -4.71455
| 12> H          0.69695       -0.00870       -4.69119
| 13> H          0.14812        0.94842       -3.33628
| 14> *
| 15> %MaxCore 64000
| 16>
| 17> %pal nprocs 4
| 18> end
| 19>
| 20> %scf
| 21>   MaxIter 150
| 22> end
| 23>
| 24>
| 25>                          ****END OF INPUT****

CARTESIAN COORDINATES (ANGSTROEM)
---------------------------------
  C     -0.151020    0.254960   -4.094260
  C     -0.721840   -0.999510   -3.439310
  H     -1.083400   -1.697550   -4.205660
  H     -1.581060   -0.723850   -2.820490
  C      0.287250   -1.711770   -2.527400
  H      1.131780   -2.067380   -3.159400
  H     -0.204140   -2.637330   -2.170480
  F      0.710500   -0.927510   -1.481770
  H     -0.897870    0.704790   -4.714550
  H      0.696950   -0.008700   -4.691190
  H      0.148120    0.948420   -3.336280

 Total Charge           Charge          ....    0
 Multiplicity           Mult            ....    1
 Number of Electrons    NEL             ....   34
 Basis Dimension        Dim             ....  139

ORBITAL ENERGIES
----------------

  NO   OCC          E(Eh)            E(eV)
   0   2.0000     -24.416275      -664.4006
   1   2.0000     -10.077718      -274.2287
   2   2.0000     -10.007559      -272.3195
   3   2.0000      -9.989732      -271.8344
   4   2.0000      -1.105636       -30.0859
   5   2.0000      -0.726704       -19.7746
   6   2.0000      -0.632024       -17.1982
   7   2.0000      -0.544657       -14.8209
   8   2.0000      -0.462624       -12.5886
   9   2.0000      -0.444077       -12.0839
  10   2.0000      -0.422742       -11.5034
  11   2.0000      -0.394572       -10.7368
  12   2.0000      -0.356529        -9.7017
  13   2.0000      -0.334875        -9.1124
  14   2.0000      -0.318837        -8.6760
  15   2.0000      -0.287984        -7.8364
  16   2.0000      -0.285349        -7.7647
  17   0.0000       0.011135         0.3030
  18   0.0000       0.037704         1.0260
  19   0.0000       0.045843         1.2475
  20   0.0000       0.053812         1.4643
  21   0.0000       0.076333         2.0771

MULLIKEN ATOMIC CHARGES
-----------------------
   0 C :    0.562031
   1 C :   -0.548752
   2 H :   -0.036418
   3 H :   -0.043667
   4 C :    0.707401
   5 H :   -0.018622
   6 H :   -0.060535
   7 F :   -0.457984
   8 H :   -0.048272
   9 H :   -0.041061
  10 H :   -0.014120
Sum of atomic charges:    0.0000000

LOEWDIN ATOMIC CHARGES
----------------------
   0 C :    0.130255
   1 C :   -0.060698
   2 H :    0.023875
   3 H :    0.019263
   4 C :    0.100770
   5 H :    0.030304
   6 H :    0.023643
   7 F :   -0.204607
   8 H :   -0.022669
   9 H :   -0.020875
  10 H :   -0.019262

  Mayer bond orders larger than 0.100000
B(  0-C ,  1-C ) :   1.3013 B(  0-C ,  8-H ) :   0.8270 B(  0-C ,  9-H ) :   0.8385
B(  0-C , 10-H ) :   0.8404 B(  1-C ,  2-H ) :   0.9748 B(  1-C ,  3-H ) :   0.9733
B(  1-C ,  4-C ) :   1.1824 B(  1-C ,  6-H ) :   0.1163 B(  1-C ,  8-H ) :   0.1808
B(  1-C ,  9-H ) :   0.1716 B(  1-C , 10-H ) :   0.1810 B(  4-C ,  5-H ) :   0.9179
B(  4-C ,  6-H ) :   0.9122 B(  4-C ,  7-F ) :   0.6966

Dispersion correction           -0.007638960
FINAL SINGLE POINT ENERGY      -218.259197540290

DIPOLE MOMENT
-------------
                                X             Y             Z
Electronic contribution:      2.48028      -0.80340       5.77704
Nuclear contribution   :     -2.76068       0.49992      -6.33880
                        -----------------------------------------
Total Dipole Moment    :     -0.28040      -0.30348      -0.56176
                        -----------------------------------------
Magnitude (a.u.)       :      0.69736
Magnitude (Debye)      :      1.77254

Rotational constants in cm-1:     0.493380     0.165620     0.140427
Rotational constants in MHz : 14791.174622  4965.163858  4209.902284

                             ****ORCA TERMINATED NORMALLY****
TOTAL RUN TIME: 0 days 0 hours 0 minutes 5 seconds 636 msec
