                         Program Version 5.0.0 -  RELEASE  -
|  1> !TPSS D3BJ RIJCOSX def2-SVPD def2/J TightSCF
|  2> *xyz 0 1
|  3> C          3.48828        1.60092       -1.52204
|  4> C          4.34297        1.31342       -2.75683
|  5> C          2.81029        0.42878       -1.01420
|  6> H          5.13203        0.60499       -2.48447
|  7> C          3.53590        0.74925       -3.92460
|  8> H          4.84125        2.24214       -3.05408
|  9> H          2.71455        2.33145       -1.76030
| 10> H          4.09099        2.06315       -0.73338
| 11> C          3.29098       -0.41802       -0.12908
| 12> N          2.51754       -1.43202        0.23936
| 13> N          4.53549       -0.28441        0.39580
| 14> H          5.04363        0.57189        0.22290
| 15> H          4.72335       -0.73327        1.28180
| 16> H          1.93479        0.10230       -1.40379
| 17> H          1.67464       -1.50562       -0.31610
| 18> H          2.92850       -2.21850        0.72549
| 19> H          4.18704        0.56990       -4.75451
| 20> H          2.78096        1.45217       -4.20898
| 21> H          3.07436       -0.16949       -3.62832
| 22> *
| 23> %MaxCore 64000
| 24>
| 25> %pal nprocs 4
| 26> end
| 27>
| 28> %scf
| 29>   MaxIter 150
| 30> end
| 31>
| 32>
| 33>                          ****END OF INPUT****

CARTESIAN COORDINATES (ANGSTROEM)
---------------------------------
  C      3.488280    1.600920   -1.522040
  C      4.342970    1.313420   -2.756830
  C      2.810290    0.428780   -1.014200
  H      5.132030    0.604990   -2.484470
  C      3.535900    0.749250   -3.924600
  H      4.841250    2.242140   -3.054080
  H      2.714550    2.331450   -1.760300
  H      4.090990    2.063150   -0.733380
  C      3.290980   -0.418020   -0.129080
  N      2.517540   -1.432020    0.239360
  N      4.535490   -0.284410    0.395800
  H      5.043630    0.571890    0.222900
  H      4.723350   -0.733270    1.281800
  H      1.934790    0.102300   -1.403790
  H      1.674640   -1.505620   -0.316100
  H      2.928500   -2.218500    0.725490
  H      4.187040    0.569900   -4.754510
  H      2.780960    1.452170   -4.208980
  H      3.074360   -0.169490   -3.628320

 Total Charge           Charge          ....    0
 Multiplicity           Mult            ....    1
 Number of Electrons    NEL             ....   56
 Basis Dimension        Dim             ....  236

ORBITAL ENERGIES
----------------

  NO   OCC          E(Eh)            E(eV)
   0   2.0000     -14.120375      -384.2349
   1   2.0000     -14.116544      -384.1307
   2   2.0000     -10.034359      -273.0488
   3   2.0000      -9.978408      -271.5263
   4   2.0000      -9.977866      -271.5116
   5   2.0000      -9.970340      -271.3067
   6   2.0000      -9.924875      -270.0696
   7   2.0000      -0.886235       -24.1157
   8   2.0000      -0.803679       -21.8692
   9   2.0000      -0.722479       -19.6597
  10   2.0000      -0.660740       -17.9796
  11   2.0000      -0.601398       -16.3649
  12   2.0000      -0.542767       -14.7694
  13   2.0000      -0.521522       -14.1913
  14   2.0000      -0.492880       -13.4120
  15   2.0000      -0.461868       -12.5681
  16   2.0000      -0.425728       -11.5847
  17   2.0000      -0.401120       -10.9150
  18   2.0000      -0.397109       -10.8059
  19   2.0000      -0.367081        -9.9888
  20   2.0000      -0.348464        -9.4822
  21   2.0000      -0.335025        -9.1165
  22   2.0000      -0.322201        -8.7675
  23   2.0000      -0.293372        -7.9831
  24   2.0000      -0.280419        -7.6306
  25   2.0000      -0.278960        -7.5909
  26   2.0000      -0.226229        -6.1560
  27   2.0000      -0.134722        -3.6660
  28   0.0000       0.001958         0.0533
  29   0.0000       0.028044         0.7631
  30   0.0000       0.029534         0.8037
  31   0.0000       0.045287         1.2323
  32   0.0000       0.056019         1.5244

MULLIKEN ATOMIC CHARGES
-----------------------
   0 C :    0.280106
   1 C :   -0.345304
   2 C :   -0.299268
   3 H :   -0.055376
   4 C :    0.636095
   5 H :   -0.047101
   6 H :   -0.026320
   7 H :   -0.064612
   8 C :    0.709213
   9 N :   -0.065411
  10 N :   -0.057548
  11 H :   -0.012739
  12 H :   -0.235212
  13 H :   -0.216543
  14 H :    0.081855
  15 H :   -0.183780
  16 H :   -0.043973
  17 H :    0.022070
  18 H :   -0.076152
Sum of atomic charges:   -0.0000000

LOEWDIN ATOMIC CHARGES
----------------------
   0 C :   -0.053599
   1 C :   -0.070175
   2 C :   -0.033615
   3 H :    0.012101
   4 C :    0.127585
   5 H :    0.008700
   6 H :    0.012483
   7 H :    0.001241
   8 C :   -0.217091
   9 N :    0.177128
  10 N :    0.207390
  11 H :   -0.021589
  12 H :   -0.016575
  13 H :   -0.049503
  14 H :    0.000911
  15 H :   -0.007638
  16 H :   -0.026340
  17 H :   -0.021560
  18 H :   -0.029857

  Mayer bond orders larger than 0.100000
B(  0-C ,  1-C ) :   1.0998 B(  0-C ,  2-C ) :   1.1155 B(  0-C ,  3-H ) :   0.1367
B(  0-C ,  5-H ) :   0.1076 B(  0-C ,  6-H ) :   0.8209 B(  0-C ,  7-H ) :   0.8578
B(  0-C , 13-H ) :   0.2419 B(  1-C ,  3-H ) :   0.9613 B(  1-C ,  4-C ) :   1.3191
B(  1-C ,  5-H ) :   0.9426 B(  1-C , 16-H ) :   0.2199 B(  1-C , 17-H ) :   0.2088
B(  1-C , 18-H ) :   0.2178 B(  2-C ,  6-H ) :   0.1814 B(  2-C ,  7-H ) :   0.2522
B(  2-C ,  8-C ) :   1.6830 B(  2-C ,  9-N ) :   0.3551 B(  2-C , 10-N ) :   0.1944
B(  2-C , 11-H ) :  -0.1151 B(  2-C , 13-H ) :   0.9083 B(  4-C , 16-H ) :   0.7740
B(  4-C , 17-H ) :   0.7960 B(  4-C , 18-H ) :   0.8339 B(  8-C ,  9-N ) :   0.8062
B(  8-C , 10-N ) :   0.8885 B(  8-C , 13-H ) :   0.2129 B(  9-N , 10-N ) :   0.1310
B(  9-N , 14-H ) :   1.0123 B(  9-N , 15-H ) :   1.2237 B( 10-N , 11-H ) :   0.9905
B( 10-N , 12-H ) :   1.2814 B( 11-H , 12-H ) :  -0.1314 B( 14-H , 15-H ) :  -0.1326

Dispersion correction           -0.020161384
FINAL SINGLE POINT ENERGY      -307.090183312877

DIPOLE MOMENT
-------------
                                X             Y             Z
Electronic contribution:     -0.69926      -2.67413       5.56827
Nuclear contribution   :      0.88816       2.11069      -4.95634
                        -----------------------------------------
Total Dipole Moment    :      0.18890      -0.56344       0.61193
                        -----------------------------------------
Magnitude (a.u.)       :      0.85300
Magnitude (Debye)      :      2.16815

Rotational constants in cm-1:     0.162296     0.048922     0.043870
Rotational constants in MHz :  4865.524396  1466.649652  1315.198467

                             ****ORCA TERMINATED NORMALLY****
TOTAL RUN TIME: 0 days 0 hours 0 minutes 16 seconds 707 msec
