                         Program Version 5.0.0 -  RELEASE  -
|  1> !TPSS D3BJ RIJCOSX def2-SVPD def2/J TightSCF
|  2> *xyz 0 1
|  3> C          3.48828        1.60092       -1.52204
|  4> C          4.34297        1.31342       -2.75683
|  5> N          2.81029        0.42878       -1.01420
|  6> H          5.13203        0.60499       -2.48447
|  7> C          3.53590        0.74925       -3.92460
|  8> H          4.84125        2.24214       -3.05408
|  9> H          2.71455        2.33145       -1.76030
| 10> H          4.09099        2.06315       -0.73338
| 11> C          3.29098       -0.41802       -0.12908
| 12> C          2.51754       -1.43202        0.23936
| 13> N          4.53549       -0.28441        0.39580
| 14> H          5.04363        0.57189        0.22290
| 15> H          4.72335       -0.73327        1.28180
| 16> H          1.93479        0.10230       -1.40379
| 17> H          1.67464       -1.50562       -0.31610
| 18> H          2.92850       -2.21850        0.72549
| 19> H          4.18704        0.56990       -4.75451
| 20> H          2.78096        1.45217       -4.20898
| 21> H          3.07436       -0.16949       -3.62832
| 22> *
| 23> %MaxCore 64000
| 24>
| 25> %pal nprocs 4
| 26> end
| 27>
| 28> %scf
| 29>   MaxIter 150
| 30> end
| 31>
| 32>
| 33>                          ****END OF INPUT****

CARTESIAN COORDINATES (ANGSTROEM)
---------------------------------
  C      3.488280    1.600920   -1.522040
  C      4.342970    1.313420   -2.756830
  N      2.810290    0.428780   -1.014200
  H      5.132030    0.604990   -2.484470
  C      3.535900    0.749250   -3.924600
  H      4.841250    2.242140   -3.054080
  H      2.714550    2.331450   -1.760300
  H      4.090990    2.063150   -0.733380
  C      3.290980   -0.418020   -0.129080
  C      2.517540   -1.432020    0.239360
  N      4.535490   -0.284410    0.395800
  H      5.043630    0.571890    0.222900
  H      4.723350   -0.733270    1.281800
  H      1.934790    0.102300   -1.403790
  H      1.674640   -1.505620   -0.316100
  H      2.928500   -2.218500    0.725490
  H      4.187040    0.569900   -4.754510
  H      2.780960    1.452170   -4.208980
  H      3.074360   -0.169490   -3.628320

 Total Charge           Charge          ....    0
 Multiplicity           Mult            ....    1
 Number of Electrons    NEL             ....   56
 Basis Dimension        Dim             ....  236

ORBITAL ENERGIES
----------------

  NO   OCC          E(Eh)            E(eV)
   0   2.0000     -14.118602      -384.1867
   1   2.0000     -14.118300      -384.1785
   2   2.0000     -10.041960      -273.2556
   3   2.0000     -10.036052      -273.0949
   4   2.0000     -10.002328      -272.1772
   5   2.0000      -9.991304      -271.8772
   6   2.0000      -9.910984      -269.6916
   7   2.0000      -0.895500       -24.3678
   8   2.0000      -0.815026       -22.1780
   9   2.0000      -0.728676       -19.8283
  10   2.0000      -0.666626       -18.1398
  11   2.0000      -0.612821       -16.6757
  12   2.0000      -0.555972       -15.1288
  13   2.0000      -0.540496       -14.7076
  14   2.0000      -0.487529       -13.2663
  15   2.0000      -0.457710       -12.4549
  16   2.0000      -0.438182       -11.9235
  17   2.0000      -0.413385       -11.2488
  18   2.0000      -0.403579       -10.9819
  19   2.0000      -0.373459       -10.1623
  20   2.0000      -0.348221        -9.4756
  21   2.0000      -0.344902        -9.3853
  22   2.0000      -0.339103        -9.2275
  23   2.0000      -0.315637        -8.5889
  24   2.0000      -0.312203        -8.4955
  25   2.0000      -0.307123        -8.3572
  26   2.0000      -0.219194        -5.9646
  27   2.0000      -0.131385        -3.5752
  28   0.0000       0.000757         0.0206
  29   0.0000       0.018118         0.4930
  30   0.0000       0.028629         0.7790
  31   0.0000       0.038890         1.0583
  32   0.0000       0.050960         1.3867

MULLIKEN ATOMIC CHARGES
-----------------------
   0 C :    0.756730
   1 C :   -0.393790
   2 N :   -0.357962
   3 H :   -0.001916
   4 C :    0.645607
   5 H :   -0.098173
   6 H :   -0.286497
   7 H :   -0.098743
   8 C :    0.639296
   9 C :    0.345211
  10 N :    0.057619
  11 H :   -0.165143
  12 H :   -0.137079
  13 H :   -0.251040
  14 H :   -0.159731
  15 H :   -0.375000
  16 H :   -0.067489
  17 H :    0.029783
  18 H :   -0.081684
Sum of atomic charges:    0.0000000

LOEWDIN ATOMIC CHARGES
----------------------
   0 C :    0.054455
   1 C :   -0.060721
   2 N :   -0.015033
   3 H :    0.013567
   4 C :    0.130299
   5 H :    0.013985
   6 H :    0.016885
   7 H :    0.007313
   8 C :   -0.229011
   9 C :    0.140695
  10 N :    0.205265
  11 H :   -0.035963
  12 H :    0.002109
  13 H :    0.030646
  14 H :   -0.105468
  15 H :   -0.098337
  16 H :   -0.021958
  17 H :   -0.021425
  18 H :   -0.027303

  Mayer bond orders larger than 0.100000
B(  0-C ,  1-C ) :   1.0790 B(  0-C ,  2-N ) :   0.9144 B(  0-C ,  3-H ) :   0.1085
B(  0-C ,  6-H ) :   0.8187 B(  0-C ,  7-H ) :   0.8836 B(  0-C , 13-H ) :  -0.2497
B(  1-C ,  3-H ) :   0.9325 B(  1-C ,  4-C ) :   1.2978 B(  1-C ,  5-H ) :   1.0119
B(  1-C ,  6-H ) :   0.1322 B(  1-C , 16-H ) :   0.2107 B(  1-C , 17-H ) :   0.1954
B(  1-C , 18-H ) :   0.2028 B(  2-N ,  6-H ) :   0.2256 B(  2-N ,  7-H ) :   0.1266
B(  2-N ,  8-C ) :   1.0392 B(  2-N ,  9-C ) :   0.2738 B(  2-N , 10-N ) :   0.1364
B(  2-N , 13-H ) :   1.2696 B(  4-C , 16-H ) :   0.8128 B(  4-C , 17-H ) :   0.7895
B(  4-C , 18-H ) :   0.8473 B(  8-C ,  9-C ) :   1.5877 B(  8-C , 10-N ) :   0.8523
B(  8-C , 13-H ) :  -0.2063 B(  8-C , 14-H ) :   0.2356 B(  8-C , 15-H ) :   0.2001
B(  9-C , 10-N ) :   0.2130 B(  9-C , 14-H ) :   0.8134 B(  9-C , 15-H ) :   0.7748
B( 10-N , 11-H ) :   1.0362 B( 10-N , 12-H ) :   1.2149 B( 11-H , 12-H ) :  -0.1423

Dispersion correction           -0.019946292
FINAL SINGLE POINT ENERGY      -307.080035681021

DIPOLE MOMENT
-------------
                                X             Y             Z
Electronic contribution:     -0.29860      -0.81834       4.28720
Nuclear contribution   :      0.82404       1.70307      -4.68174
                        -----------------------------------------
Total Dipole Moment    :      0.52543       0.88474      -0.39454
                        -----------------------------------------
Magnitude (a.u.)       :      1.10204
Magnitude (Debye)      :      2.80117

Rotational constants in cm-1:     0.164049     0.050262     0.045260
Rotational constants in MHz :  4918.051182  1506.829450  1356.872102

                             ****ORCA TERMINATED NORMALLY****
TOTAL RUN TIME: 0 days 0 hours 0 minutes 16 seconds 374 msec
