                         Program Version 5.0.0 -  RELEASE  -
|  1> !TPSS D3BJ RIJCOSX def2-SVPD def2/J TightSCF
|  2> *xyz 0 1
|  3> C          3.48828        1.60092       -1.52204
|  4> C          4.34297        1.31342       -2.75683
|  5> N          2.81029        0.42878       -1.01420
|  6> H          5.13203        0.60499       -2.48447
|  7> C          3.53590        0.74925       -3.92460
|  8> H          4.84125        2.24214       -3.05408
|  9> H          2.71455        2.33145       -1.76030
| 10> H          4.09099        2.06315       -0.73338
| 11> C          3.29098       -0.41802       -0.12908
| 12> N          2.51754       -1.43202        0.23936
| 13> C          4.53549       -0.28441        0.39580
| 14> H          5.04363        0.57189        0.22290
| 15> H          4.72335       -0.73327        1.28180
| 16> H          1.93479        0.10230       -1.40379
| 17> H          1.67464       -1.50562       -0.31610
| 18> H          2.92850       -2.21850        0.72549
| 19> H          4.18704        0.56990       -4.75451
| 20> H          2.78096        1.45217       -4.20898
| 21> H          3.07436       -0.16949       -3.62832
| 22> *
| 23> %MaxCore 64000
| 24>
| 25> %pal nprocs 4
| 26> end
| 27>
| 28> %scf
| 29>   MaxIter 150
| 30> end
| 31>
| 32>
| 33>                          ****END OF INPUT****

CARTESIAN COORDINATES (ANGSTROEM)
---------------------------------
  C      3.488280    1.600920   -1.522040
  C      4.342970    1.313420   -2.756830
  N      2.810290    0.428780   -1.014200
  H      5.132030    0.604990   -2.484470
  C      3.535900    0.749250   -3.924600
  H      4.841250    2.242140   -3.054080
  H      2.714550    2.331450   -1.760300
  H      4.090990    2.063150   -0.733380
  C      3.290980   -0.418020   -0.129080
  N      2.517540   -1.432020    0.239360
  C      4.535490   -0.284410    0.395800
  H      5.043630    0.571890    0.222900
  H      4.723350   -0.733270    1.281800
  H      1.934790    0.102300   -1.403790
  H      1.674640   -1.505620   -0.316100
  H      2.928500   -2.218500    0.725490
  H      4.187040    0.569900   -4.754510
  H      2.780960    1.452170   -4.208980
  H      3.074360   -0.169490   -3.628320

 Total Charge           Charge          ....    0
 Multiplicity           Mult            ....    1
 Number of Electrons    NEL             ....   56
 Basis Dimension        Dim             ....  236

ORBITAL ENERGIES
----------------

  NO   OCC          E(Eh)            E(eV)
   0   2.0000     -14.124330      -384.3426
   1   2.0000     -14.121286      -384.2597
   2   2.0000     -10.038714      -273.1673
   3   2.0000     -10.035034      -273.0671
   4   2.0000      -9.995385      -271.9882
   5   2.0000      -9.988000      -271.7873
   6   2.0000      -9.912902      -269.7438
   7   2.0000      -0.904495       -24.6126
   8   2.0000      -0.820540       -22.3280
   9   2.0000      -0.717327       -19.5195
  10   2.0000      -0.647683       -17.6244
  11   2.0000      -0.636638       -17.3238
  12   2.0000      -0.556799       -15.1513
  13   2.0000      -0.507924       -13.8213
  14   2.0000      -0.497402       -13.5350
  15   2.0000      -0.484666       -13.1884
  16   2.0000      -0.431920       -11.7531
  17   2.0000      -0.409645       -11.1470
  18   2.0000      -0.399306       -10.8657
  19   2.0000      -0.365366        -9.9421
  20   2.0000      -0.358390        -9.7523
  21   2.0000      -0.339513        -9.2386
  22   2.0000      -0.330977        -9.0063
  23   2.0000      -0.311336        -8.4719
  24   2.0000      -0.308361        -8.3909
  25   2.0000      -0.301234        -8.1970
  26   2.0000      -0.214440        -5.8352
  27   2.0000      -0.135232        -3.6798
  28   0.0000      -0.006106        -0.1661
  29   0.0000       0.023256         0.6328
  30   0.0000       0.031709         0.8628
  31   0.0000       0.038895         1.0584
  32   0.0000       0.052014         1.4154

MULLIKEN ATOMIC CHARGES
-----------------------
   0 C :    0.722051
   1 C :   -0.361509
   2 N :   -0.547967
   3 H :   -0.015036
   4 C :    0.629165
   5 H :   -0.091087
   6 H :   -0.274985
   7 H :    0.039296
   8 C :    0.716551
   9 N :    0.019772
  10 C :    0.368445
  11 H :   -0.078741
  12 H :   -0.520412
  13 H :   -0.297403
  14 H :   -0.109186
  15 H :   -0.071132
  16 H :   -0.066791
  17 H :    0.022306
  18 H :   -0.083338
Sum of atomic charges:    0.0000000

LOEWDIN ATOMIC CHARGES
----------------------
   0 C :    0.063505
   1 C :   -0.052204
   2 N :   -0.016785
   3 H :    0.016488
   4 C :    0.126260
   5 H :    0.016431
   6 H :    0.016865
   7 H :    0.015866
   8 C :   -0.236542
   9 N :    0.188301
  10 C :    0.162820
  11 H :   -0.127759
  12 H :   -0.109889
  13 H :    0.017522
  14 H :   -0.015373
  15 H :    0.012957
  16 H :   -0.022678
  17 H :   -0.023450
  18 H :   -0.032334

  Mayer bond orders larger than 0.100000
B(  0-C ,  1-C ) :   1.0726 B(  0-C ,  2-N ) :   0.8931 B(  0-C ,  3-H ) :   0.1250
B(  0-C ,  6-H ) :   0.8706 B(  0-C ,  7-H ) :   0.8491 B(  0-C , 13-H ) :  -0.2235
B(  1-C ,  3-H ) :   0.9378 B(  1-C ,  4-C ) :   1.2935 B(  1-C ,  5-H ) :   1.0105
B(  1-C ,  6-H ) :   0.1169 B(  1-C , 16-H ) :   0.2093 B(  1-C , 17-H ) :   0.1920
B(  1-C , 18-H ) :   0.1945 B(  2-N ,  6-H ) :   0.1833 B(  2-N ,  7-H ) :   0.1052
B(  2-N ,  8-C ) :   0.8076 B(  2-N ,  9-N ) :   0.2081 B(  2-N , 10-C ) :   0.3954
B(  2-N , 13-H ) :   1.3914 B(  4-C , 16-H ) :   0.8149 B(  4-C , 17-H ) :   0.7941
B(  4-C , 18-H ) :   0.8558 B(  6-H ,  7-H ) :  -0.1134 B(  8-C ,  9-N ) :   0.8347
B(  8-C , 10-C ) :   1.6711 B(  8-C , 11-H ) :   0.2871 B(  8-C , 12-H ) :   0.2088
B(  8-C , 13-H ) :  -0.2837 B(  9-N , 10-C ) :   0.2736 B(  9-N , 14-H ) :   1.0684
B(  9-N , 15-H ) :   1.1888 B( 10-C , 11-H ) :   0.6584 B( 10-C , 12-H ) :   0.8086
B( 14-H , 15-H ) :  -0.1249

Dispersion correction           -0.020046397
FINAL SINGLE POINT ENERGY      -307.080069817231

DIPOLE MOMENT
-------------
                                X             Y             Z
Electronic contribution:     -2.19650      -2.02858       4.08735
Nuclear contribution   :      1.26608       1.95446      -4.64747
                        -----------------------------------------
Total Dipole Moment    :     -0.93043      -0.07412      -0.56013
                        -----------------------------------------
Magnitude (a.u.)       :      1.08854
Magnitude (Debye)      :      2.76685

Rotational constants in cm-1:     0.166109     0.049557     0.044716
Rotational constants in MHz :  4979.835529  1485.675017  1340.540851

                             ****ORCA TERMINATED NORMALLY****
TOTAL RUN TIME: 0 days 0 hours 0 minutes 15 seconds 851 msec
