                         Program Version 5.0.0 -  RELEASE  -
|  1> !M062X D3Zero RIJCOSX def2-TZVPD def2/J TightSCF
|  2> *xyz -1 1
|  3> C         -0.72184       -0.99951       -3.43931
|  4> C          0.28725       -1.71177       -2.52740
|  5> H          1.13178       -2.06738       -3.15940
|  6> H         -0.20414       -2.63733       -2.17048
|  7> O          0.71050       -0.92751       -1.48177
|  8> H         -1.01315       -1.65739       -4.23129
|  9> H         -0.27123       -0.12142       -3.85259
| 10> H         -1.58442       -0.72333       -2.86958
| 11> *
| 12> %MaxCore 64000
| 13>
| 14> %pal nprocs 4
| 15> end
| 16>
| 17> %scf
| 18>   MaxIter 150
| 19> end
| 20>
| 21>
| 22>                          ****END OF INPUT****

CARTESIAN COORDINATES (ANGSTROEM)
---------------------------------
  C     -0.721840   -0.999510   -3.439310
  C      0.287250   -1.711770   -2.527400
  H      1.131780   -2.067380   -3.159400
  H     -0.204140   -2.637330   -2.170480
  O      0.710500   -0.927510   -1.481770
  H     -1.013150   -1.657390   -4.231290
  H     -0.271230   -0.121420   -3.852590
  H     -1.584420   -0.723330   -2.869580

 Total Charge           Charge          ....   -1
 Multiplicity           Mult            ....    1
 Number of Electrons    NEL             ....   26
 Basis Dimension        Dim             ....  159

ORBITAL ENERGIES
----------------

  NO   OCC          E(Eh)            E(eV)
   0   2.0000     -19.287987      -524.8528
   1   2.0000     -10.345456      -281.5142
   2   2.0000     -10.322062      -280.8776
   3   2.0000      -0.790461       -21.5095
   4   2.0000      -0.620197       -16.8764
   5   2.0000      -0.455232       -12.3875
   6   2.0000      -0.317904        -8.6506
   7   2.0000      -0.294462        -8.0127
   8   2.0000      -0.235403        -6.4056
   9   2.0000      -0.218980        -5.9587
  10   2.0000      -0.176232        -4.7955
  11   2.0000      -0.034546        -0.9400
  12   2.0000      -0.032838        -0.8936
  13   0.0000       0.168015         4.5719
  14   0.0000       0.187386         5.0990
  15   0.0000       0.218784         5.9534
  16   0.0000       0.219340         5.9686
  17   0.0000       0.240254         6.5377

MULLIKEN ATOMIC CHARGES
-----------------------
   0 C :   -0.995610
   1 C :   -0.277064
   2 H :    0.221506
   3 H :    0.219195
   4 O :   -0.978487
   5 H :    0.308247
   6 H :    0.251265
   7 H :    0.250947
Sum of atomic charges:   -1.0000000

LOEWDIN ATOMIC CHARGES
----------------------
   0 C :   -0.175051
   1 C :   -0.621367
   2 H :    0.062315
   3 H :    0.059248
   4 O :   -0.437973
   5 H :    0.029948
   6 H :    0.041186
   7 H :    0.041694

  Mayer bond orders larger than 0.100000
B(  0-C ,  1-C ) :   0.6965 B(  0-C ,  4-O ) :   0.3614 B(  0-C ,  5-H ) :   0.9768
B(  0-C ,  6-H ) :   1.0062 B(  0-C ,  7-H ) :   1.0087 B(  1-C ,  2-H ) :   1.0427
B(  1-C ,  3-H ) :   1.0486 B(  1-C ,  4-O ) :   0.7872

Dispersion correction           -0.000014978
FINAL SINGLE POINT ENERGY      -154.409257134985

DIPOLE MOMENT
-------------
                                X             Y             Z
Electronic contribution:      1.43412       0.66539       2.30155
Nuclear contribution   :     -2.24828      -1.06600      -3.62481
                        -----------------------------------------
Total Dipole Moment    :     -0.81416      -0.40061      -1.32326
                        -----------------------------------------
Magnitude (a.u.)       :      1.60448
Magnitude (Debye)      :      4.07826

Rotational constants in cm-1:     1.278116     0.325414     0.286672
Rotational constants in MHz : 38316.964654  9755.653004  8594.216906

                             ****ORCA TERMINATED NORMALLY****
TOTAL RUN TIME: 0 days 0 hours 0 minutes 18 seconds 781 msec
