                         Program Version 5.0.0 -  RELEASE  -
|  1> !M062X D3Zero RIJCOSX def2-TZVPD def2/J TightSCF
|  2> *xyz 1 1
|  3> C          3.48828        1.60092       -1.52204
|  4> C          4.34297        1.31342       -2.75683
|  5> N          2.81029        0.42878       -1.01420
|  6> H          2.71455        2.33145       -1.76030
|  7> H          4.09099        2.06315       -0.73338
|  8> C          3.29098       -0.41802       -0.12908
|  9> N          2.51754       -1.43202        0.23936
| 10> N          4.53549       -0.28441        0.39580
| 11> H          5.04363        0.57189        0.22290
| 12> H          4.72335       -0.73327        1.28180
| 13> H          1.93479        0.10230       -1.40379
| 14> H          1.67464       -1.50562       -0.31610
| 15> H          2.92850       -2.21850        0.72549
| 16> H          3.73575        0.86277       -3.51385
| 17> H          5.13754        0.64699       -2.49333
| 18> H          4.75374        2.22930       -3.12740
| 19> *
| 20> %MaxCore 64000
| 21>
| 22> %pal nprocs 4
| 23> end
| 24>
| 25> %scf
| 26>   MaxIter 150
| 27> end
| 28>
| 29>
| 30>                          ****END OF INPUT****

CARTESIAN COORDINATES (ANGSTROEM)
---------------------------------
  C      3.488280    1.600920   -1.522040
  C      4.342970    1.313420   -2.756830
  N      2.810290    0.428780   -1.014200
  H      2.714550    2.331450   -1.760300
  H      4.090990    2.063150   -0.733380
  C      3.290980   -0.418020   -0.129080
  N      2.517540   -1.432020    0.239360
  N      4.535490   -0.284410    0.395800
  H      5.043630    0.571890    0.222900
  H      4.723350   -0.733270    1.281800
  H      1.934790    0.102300   -1.403790
  H      1.674640   -1.505620   -0.316100
  H      2.928500   -2.218500    0.725490
  H      3.735750    0.862770   -3.513850
  H      5.137540    0.646990   -2.493330
  H      4.753740    2.229300   -3.127400

 Total Charge           Charge          ....    1
 Multiplicity           Mult            ....    1
 Number of Electrons    NEL             ....   48
 Basis Dimension        Dim             ....  312

ORBITAL ENERGIES
----------------

  NO   OCC          E(Eh)            E(eV)
   0   2.0000     -14.977901      -407.5694
   1   2.0000     -14.971919      -407.4066
   2   2.0000     -14.970271      -407.3618
   3   2.0000     -10.877004      -295.9783
   4   2.0000     -10.747430      -292.4524
   5   2.0000     -10.670715      -290.3649
   6   2.0000      -1.334772       -36.3210
   7   2.0000      -1.214518       -33.0487
   8   2.0000      -1.199460       -32.6390
   9   2.0000      -1.030649       -28.0454
  10   2.0000      -0.926378       -25.2080
  11   2.0000      -0.892527       -24.2869
  12   2.0000      -0.858485       -23.3606
  13   2.0000      -0.825147       -22.4534
  14   2.0000      -0.762218       -20.7410
  15   2.0000      -0.753888       -20.5143
  16   2.0000      -0.724764       -19.7218
  17   2.0000      -0.715880       -19.4801
  18   2.0000      -0.672230       -18.2923
  19   2.0000      -0.628914       -17.1136
  20   2.0000      -0.598655       -16.2902
  21   2.0000      -0.577696       -15.7199
  22   2.0000      -0.545750       -14.8506
  23   2.0000      -0.513909       -13.9842
  24   0.0000      -0.145698        -3.9646
  25   0.0000      -0.134003        -3.6464
  26   0.0000      -0.114994        -3.1291
  27   0.0000      -0.104790        -2.8515
  28   0.0000      -0.077959        -2.1214

MULLIKEN ATOMIC CHARGES
-----------------------
   0 C :   -0.672149
   1 C :   -0.977632
   2 N :   -0.284402
   3 H :    0.323793
   4 H :    0.382967
   5 C :    1.078843
   6 N :   -0.579584
   7 N :   -0.596308
   8 H :    0.277182
   9 H :    0.288994
  10 H :    0.252477
  11 H :    0.237414
  12 H :    0.275062
  13 H :    0.334437
  14 H :    0.315414
  15 H :    0.343492
Sum of atomic charges:    1.0000000

LOEWDIN ATOMIC CHARGES
----------------------
   0 C :   -0.206129
   1 C :   -0.055947
   2 N :    0.078478
   3 H :    0.132855
   4 H :    0.123282
   5 C :   -0.429294
   6 N :    0.199493
   7 N :    0.209210
   8 H :    0.119189
   9 H :    0.137856
  10 H :    0.170943
  11 H :    0.138600
  12 H :    0.146247
  13 H :    0.079364
  14 H :    0.072475
  15 H :    0.083378

  Mayer bond orders larger than 0.100000
B(  0-C ,  1-C ) :   0.5941 B(  0-C ,  2-N ) :   0.7847 B(  0-C ,  3-H ) :   0.9558
B(  0-C ,  4-H ) :   0.8631 B(  0-C ,  5-C ) :  -0.1229 B(  0-C ,  7-N ) :   0.1054
B(  1-C , 13-H ) :   0.9742 B(  1-C , 14-H ) :   0.9342 B(  1-C , 15-H ) :   0.9741
B(  2-N ,  5-C ) :   1.1742 B(  2-N , 10-H ) :   0.9871 B(  5-C ,  6-N ) :   0.9923
B(  5-C ,  7-N ) :   1.0074 B(  6-N , 11-H ) :   0.9642 B(  6-N , 12-H ) :   0.9438
B(  7-N ,  8-H ) :   0.8991 B(  7-N ,  9-H ) :   0.9397

Dispersion correction           -0.000318319
FINAL SINGLE POINT ENERGY      -284.368803786647

DIPOLE MOMENT
-------------
                                X             Y             Z
Electronic contribution:     -1.91761      -2.99026       3.72095
Nuclear contribution   :      1.59382       2.33278      -3.02574
                        -----------------------------------------
Total Dipole Moment    :     -0.32380      -0.65749       0.69521
                        -----------------------------------------
Magnitude (a.u.)       :      1.01017
Magnitude (Debye)      :      2.56766

Rotational constants in cm-1:     0.232230     0.073139     0.063030
Rotational constants in MHz :  6962.079716  2192.649203  1889.578947

                             ****ORCA TERMINATED NORMALLY****
TOTAL RUN TIME: 0 days 0 hours 1 minutes 1 seconds 217 msec
