                         Program Version 5.0.0 -  RELEASE  -
|  1> !M062X D3Zero RIJCOSX def2-TZVPD def2/J TightSCF xyzfile
|  2>
|  3> *xyzfile 0 1 B.xyz
|  4>
|  5> %MaxCore 64000
|  6>
|  7> %pal nprocs 4
|  8> end
|  9>
| 10> %scf
| 11>   MaxIter 150
| 12> end
| 13>
| 14>
| 15>                          ****END OF INPUT****

CARTESIAN COORDINATES (ANGSTROEM)
---------------------------------
  C      3.488276    1.600919   -1.522040
  C      4.342970    1.313419   -2.756826
  N      2.810285    0.428783   -1.014196
  H      5.132033    0.604994   -2.484466
  C      3.535896    0.749253   -3.924604
  H      4.841247    2.242136   -3.054083
  H      2.991617   -0.132199   -3.574137
  H      4.225505    0.392784   -4.695962
  C      2.564776    1.750890   -4.544523
  H      1.918749    2.171679   -3.769419
  C      1.686235    1.161657   -5.650111
  H      3.132494    2.594775   -4.951604
  C      0.839616   -0.037582   -5.220473
  H      2.323886    0.866395   -6.490796
  H      1.029518    1.951850   -6.029329
  C     -0.151019    0.254955   -4.094256
  H      1.499442   -0.857141   -4.922958
  H      0.290097   -0.410143   -6.091131
  H      0.328265    0.833022   -3.299125
  C     -0.721843   -0.999513   -3.439309
  H     -0.957367    0.884951   -4.485450
  H     -1.083403   -1.697555   -4.205656
  H     -1.581056   -0.723848   -2.820490
  C      0.287250   -1.711771   -2.527405
  H      1.131780   -2.067380   -3.159396
  H     -0.204137   -2.637326   -2.170480
  O      0.710505   -0.927506   -1.481767
  H      2.714548    2.331455   -1.760302
  H      4.090991    2.063151   -0.733382
  C      3.290978   -0.418021   -0.129083
  N      2.517536   -1.432017    0.239360
  N      4.535490   -0.284410    0.395800
  H      5.043627    0.571888    0.222899
  H      4.723346   -0.733273    1.281800
  H      1.934787    0.102305   -1.403788
  H      1.674638   -1.505616   -0.316095
  H      2.928503   -2.218502    0.725494

 Total Charge           Charge          ....    0
 Multiplicity           Mult            ....    1
 Number of Electrons    NEL             ....  112
 Basis Dimension        Dim             ....  728

ORBITAL ENERGIES
----------------

  NO   OCC          E(Eh)            E(eV)
   0   2.0000     -19.494099      -530.4614
   1   2.0000     -14.807769      -402.9399
   2   2.0000     -14.770225      -401.9182
   3   2.0000     -14.762191      -401.6996
   4   2.0000     -10.690578      -290.9054
   5   2.0000     -10.590369      -288.1786
   6   2.0000     -10.544265      -286.9240
   7   2.0000     -10.526987      -286.4539
   8   2.0000     -10.520980      -286.2904
   9   2.0000     -10.514159      -286.1048
  10   2.0000     -10.512647      -286.0637
  11   2.0000     -10.502140      -285.7778
  12   2.0000     -10.491549      -285.4896
  13   2.0000     -10.479242      -285.1547
  14   2.0000      -1.147824       -31.2339
  15   2.0000      -1.036372       -28.2011
  16   2.0000      -1.016656       -27.6646
  17   2.0000      -0.998892       -27.1812
  18   2.0000      -0.911645       -24.8071
  19   2.0000      -0.875801       -23.8318
  20   2.0000      -0.835691       -22.7403
  21   2.0000      -0.794961       -21.6320
  22   2.0000      -0.751269       -20.4431
  23   2.0000      -0.735295       -20.0084
  24   2.0000      -0.695786       -18.9333
  25   2.0000      -0.682121       -18.5615
  26   2.0000      -0.675678       -18.3861
  27   2.0000      -0.642917       -17.4947
  28   2.0000      -0.625112       -17.0102
  29   2.0000      -0.597581       -16.2610
  30   2.0000      -0.585710       -15.9380
  31   2.0000      -0.568124       -15.4594
  32   2.0000      -0.555056       -15.1039
  33   2.0000      -0.541332       -14.7304
  34   2.0000      -0.531413       -14.4605
  35   2.0000      -0.525888       -14.3101
  36   2.0000      -0.503308       -13.6957
  37   2.0000      -0.488455       -13.2915
  38   2.0000      -0.480601       -13.0778
  39   2.0000      -0.460505       -12.5310
  40   2.0000      -0.454757       -12.3746
  41   2.0000      -0.443351       -12.0642
  42   2.0000      -0.424122       -11.5410
  43   2.0000      -0.416082       -11.3222
  44   2.0000      -0.408936       -11.1277
  45   2.0000      -0.396458       -10.7882
  46   2.0000      -0.383195       -10.4273
  47   2.0000      -0.374969       -10.2034
  48   2.0000      -0.371562       -10.1107
  49   2.0000      -0.369508       -10.0548
  50   2.0000      -0.349077        -9.4989
  51   2.0000      -0.344912        -9.3855
  52   2.0000      -0.338556        -9.2126
  53   2.0000      -0.326487        -8.8842
  54   2.0000      -0.246554        -6.7091
  55   2.0000      -0.241318        -6.5666
  56   0.0000      -0.010516        -0.2861
  57   0.0000       0.013780         0.3750
  58   0.0000       0.022421         0.6101
  59   0.0000       0.028618         0.7787
  60   0.0000       0.037464         1.0194

MULLIKEN ATOMIC CHARGES
-----------------------
   0 C :   -1.282747
   1 C :   -0.602541
   2 N :   -0.219662
   3 H :    0.320652
   4 C :   -0.174154
   5 H :    0.384976
   6 H :    0.008859
   7 H :    0.377521
   8 C :   -0.412149
   9 H :    0.235132
  10 C :   -1.134767
  11 H :    0.346316
  12 C :   -0.479063
  13 H :    0.372975
  14 H :    0.380339
  15 C :   -0.145278
  16 H :    0.192595
  17 H :    0.388668
  18 H :    0.045328
  19 C :   -1.023444
  20 H :    0.351373
  21 H :    0.372471
  22 H :    0.388326
  23 C :   -0.406390
  24 H :    0.247021
  25 H :    0.327161
  26 O :   -1.246157
  27 H :    0.333666
  28 H :    0.422021
  29 C :    0.922725
  30 N :   -0.622692
  31 N :   -0.642370
  32 H :    0.275474
  33 H :    0.278081
  34 H :    0.733950
  35 H :    0.445275
  36 H :    0.240509
Sum of atomic charges:    0.0000000

LOEWDIN ATOMIC CHARGES
----------------------
   0 C :   -0.175223
   1 C :   -0.189502
   2 N :    0.091413
   3 H :    0.109764
   4 C :   -0.208560
   5 H :    0.116360
   6 H :    0.103069
   7 H :    0.121566
   8 C :   -0.221576
   9 H :    0.096980
  10 C :   -0.216292
  11 H :    0.115428
  12 C :   -0.224498
  13 H :    0.109878
  14 H :    0.111622
  15 C :   -0.222646
  16 H :    0.094434
  17 H :    0.114125
  18 H :    0.094173
  19 C :   -0.209527
  20 H :    0.113264
  21 H :    0.109329
  22 H :    0.107783
  23 C :   -0.408089
  24 H :    0.097223
  25 H :    0.100248
  26 O :   -0.335495
  27 H :    0.122049
  28 H :    0.112538
  29 C :   -0.441835
  30 N :    0.180533
  31 N :    0.167259
  32 H :    0.099479
  33 H :    0.116902
  34 H :    0.072677
  35 H :    0.050879
  36 H :    0.124268

  Mayer bond orders larger than 0.100000
B(  0-C ,  1-C ) :   0.6745 B(  0-C ,  2-N ) :   1.0093 B(  0-C ,  5-H ) :  -0.1168
B(  0-C , 27-H ) :   0.9506 B(  0-C , 28-H ) :   0.8329 B(  0-C , 29-C ) :  -0.2440
B(  0-C , 31-N ) :   0.1355 B(  0-C , 34-H ) :  -0.3108 B(  1-C ,  3-H ) :   0.9384
B(  1-C ,  4-C ) :   0.7061 B(  1-C ,  5-H ) :   0.9651 B(  1-C ,  8-C ) :   0.1808
B(  2-N , 26-O ) :  -0.1009 B(  2-N , 29-C ) :   1.1723 B(  2-N , 34-H ) :   0.5870
B(  4-C ,  6-H ) :   1.1475 B(  4-C ,  7-H ) :   0.8812 B(  4-C ,  8-C ) :   0.2939
B(  4-C ,  9-H ) :  -0.1584 B(  4-C , 10-C ) :   0.1716 B(  6-H ,  8-C ) :  -0.1181
B(  8-C ,  9-H ) :   1.0775 B(  8-C , 10-C ) :   0.6336 B(  8-C , 11-H ) :   0.9202
B( 10-C , 12-C ) :   0.6145 B( 10-C , 13-H ) :   0.9752 B( 10-C , 14-H ) :   0.9612
B( 10-C , 15-C ) :   0.1711 B( 12-C , 15-C ) :   0.2874 B( 12-C , 16-H ) :   1.1030
B( 12-C , 17-H ) :   0.8818 B( 12-C , 18-H ) :  -0.1156 B( 12-C , 19-C ) :   0.2416
B( 15-C , 16-H ) :  -0.1634 B( 15-C , 18-H ) :   1.0593 B( 15-C , 19-C ) :   0.6871
B( 15-C , 20-H ) :   0.9062 B( 15-C , 26-O ) :  -0.1374 B( 18-H , 26-O ) :   0.1367
B( 19-C , 21-H ) :   0.9730 B( 19-C , 22-H ) :   0.9114 B( 19-C , 23-C ) :   0.8171
B( 19-C , 26-O ) :   0.2600 B( 23-C , 24-H ) :   1.0582 B( 23-C , 25-H ) :   0.9541
B( 23-C , 26-O ) :   0.5967 B( 26-O , 30-N ) :  -0.1078 B( 26-O , 34-H ) :  -0.2671
B( 26-O , 35-H ) :   0.1863 B( 29-C , 30-N ) :   1.1517 B( 29-C , 31-N ) :   0.9522
B( 30-N , 35-H ) :   0.6148 B( 30-N , 36-H ) :   0.9795 B( 31-N , 32-H ) :   0.9184
B( 31-N , 33-H ) :   0.9455

Dispersion correction           -0.002354121
FINAL SINGLE POINT ENERGY      -634.339514054187

DIPOLE MOMENT
-------------
                                X             Y             Z
Electronic contribution:      3.61597      -2.05093      11.33489
Nuclear contribution   :     -0.74583       2.62534      -9.91488
                        -----------------------------------------
Total Dipole Moment    :      2.87015       0.57441       1.42001
                        -----------------------------------------
Magnitude (a.u.)       :      3.25332
Magnitude (Debye)      :      8.26929

Rotational constants in cm-1:     0.027028     0.016098     0.010898
Rotational constants in MHz :   810.278072   482.590922   326.703462

                             ****ORCA TERMINATED NORMALLY****
TOTAL RUN TIME: 0 days 0 hours 7 minutes 57 seconds 775 msec
