                         Program Version 5.0.0 -  RELEASE  -
|  1> !M062X D3Zero RIJCOSX def2-TZVPD def2/J TightSCF
|  2> *xyz 0 1
|  3> C         -0.72184       -0.99951       -3.43931
|  4> C          0.28725       -1.71177       -2.52740
|  5> H          1.13178       -2.06738       -3.15940
|  6> H         -0.20414       -2.63733       -2.17048
|  7> F          0.71050       -0.92751       -1.48177
|  8> H         -1.01315       -1.65739       -4.23129
|  9> H         -0.27123       -0.12142       -3.85259
| 10> H         -1.58442       -0.72333       -2.86958
| 11> *
| 12> %MaxCore 64000
| 13>
| 14> %pal nprocs 4
| 15> end
| 16>
| 17> %scf
| 18>   MaxIter 150
| 19> end
| 20>
| 21>
| 22>                          ****END OF INPUT****

CARTESIAN COORDINATES (ANGSTROEM)
---------------------------------
  C     -0.721840   -0.999510   -3.439310
  C      0.287250   -1.711770   -2.527400
  H      1.131780   -2.067380   -3.159400
  H     -0.204140   -2.637330   -2.170480
  F      0.710500   -0.927510   -1.481770
  H     -1.013150   -1.657390   -4.231290
  H     -0.271230   -0.121420   -3.852590
  H     -1.584420   -0.723330   -2.869580

 Total Charge           Charge          ....    0
 Multiplicity           Mult            ....    1
 Number of Electrons    NEL             ....   26
 Basis Dimension        Dim             ....  159

ORBITAL ENERGIES
----------------

  NO   OCC          E(Eh)            E(eV)
   0   2.0000     -25.232336      -686.6068
   1   2.0000     -10.614934      -288.8470
   2   2.0000     -10.529023      -286.5093
   3   2.0000      -1.340996       -36.4904
   4   2.0000      -0.864171       -23.5153
   5   2.0000      -0.723047       -19.6751
   6   2.0000      -0.589303       -16.0358
   7   2.0000      -0.581388       -15.8204
   8   2.0000      -0.545260       -14.8373
   9   2.0000      -0.483029       -13.1439
  10   2.0000      -0.468649       -12.7526
  11   2.0000      -0.407243       -11.0816
  12   2.0000      -0.400401       -10.8955
  13   0.0000       0.019465         0.5297
  14   0.0000       0.043024         1.1707
  15   0.0000       0.065302         1.7770
  16   0.0000       0.066094         1.7985
  17   0.0000       0.094265         2.5651

MULLIKEN ATOMIC CHARGES
-----------------------
   0 C :   -0.991152
   1 C :   -0.101515
   2 H :    0.252483
   3 H :    0.248893
   4 F :   -0.313998
   5 H :    0.318663
   6 H :    0.293042
   7 H :    0.293584
Sum of atomic charges:   -0.0000000

LOEWDIN ATOMIC CHARGES
----------------------
   0 C :   -0.086652
   1 C :   -0.281037
   2 H :    0.115435
   3 H :    0.111665
   4 F :   -0.059750
   5 H :    0.068005
   6 H :    0.065962
   7 H :    0.066371

  Mayer bond orders larger than 0.100000
B(  0-C ,  1-C ) :   0.6925 B(  0-C ,  4-F ) :   0.1178 B(  0-C ,  5-H ) :   0.9497
B(  0-C ,  6-H ) :   0.9555 B(  0-C ,  7-H ) :   0.9575 B(  1-C ,  2-H ) :   0.9780
B(  1-C ,  3-H ) :   0.9848 B(  1-C ,  4-F ) :   0.6884

Dispersion correction           -0.000019027
FINAL SINGLE POINT ENERGY      -179.052592792094

DIPOLE MOMENT
-------------
                                X             Y             Z
Electronic contribution:      2.69523       1.03761       4.20879
Nuclear contribution   :     -2.97459      -1.40206      -4.79987
                        -----------------------------------------
Total Dipole Moment    :     -0.27937      -0.36445      -0.59108
                        -----------------------------------------
Magnitude (a.u.)       :      0.74849
Magnitude (Debye)      :      1.90252

Rotational constants in cm-1:     1.257024     0.302702     0.267953
Rotational constants in MHz : 37684.643733  9074.792567  8033.038070

                             ****ORCA TERMINATED NORMALLY****
TOTAL RUN TIME: 0 days 0 hours 0 minutes 15 seconds 365 msec
