                         Program Version 5.0.0 -  RELEASE  -
|  1> !M062X D3Zero RIJCOSX def2-TZVPD def2/J TightSCF
|  2> *xyz 0 1
|  3> C          3.48828        1.60092       -1.52204
|  4> C          4.34297        1.31342       -2.75683
|  5> C          2.81029        0.42878       -1.01420
|  6> H          2.71455        2.33145       -1.76030
|  7> H          4.09099        2.06315       -0.73338
|  8> C          3.29098       -0.41802       -0.12908
|  9> N          2.51754       -1.43202        0.23936
| 10> N          4.53549       -0.28441        0.39580
| 11> H          5.04363        0.57189        0.22290
| 12> H          4.72335       -0.73327        1.28180
| 13> H          1.93479        0.10230       -1.40379
| 14> H          1.67464       -1.50562       -0.31610
| 15> H          2.92850       -2.21850        0.72549
| 16> H          3.73575        0.86277       -3.51385
| 17> H          5.13754        0.64699       -2.49333
| 18> H          4.75374        2.22930       -3.12740
| 19> *
| 20> %MaxCore 64000
| 21>
| 22> %pal nprocs 4
| 23> end
| 24>
| 25> %scf
| 26>   MaxIter 150
| 27> end
| 28>
| 29>
| 30>                          ****END OF INPUT****

CARTESIAN COORDINATES (ANGSTROEM)
---------------------------------
  C      3.488280    1.600920   -1.522040
  C      4.342970    1.313420   -2.756830
  C      2.810290    0.428780   -1.014200
  H      2.714550    2.331450   -1.760300
  H      4.090990    2.063150   -0.733380
  C      3.290980   -0.418020   -0.129080
  N      2.517540   -1.432020    0.239360
  N      4.535490   -0.284410    0.395800
  H      5.043630    0.571890    0.222900
  H      4.723350   -0.733270    1.281800
  H      1.934790    0.102300   -1.403790
  H      1.674640   -1.505620   -0.316100
  H      2.928500   -2.218500    0.725490
  H      3.735750    0.862770   -3.513850
  H      5.137540    0.646990   -2.493330
  H      4.753740    2.229300   -3.127400

 Total Charge           Charge          ....    0
 Multiplicity           Mult            ....    1
 Number of Electrons    NEL             ....   48
 Basis Dimension        Dim             ....  312

ORBITAL ENERGIES
----------------

  NO   OCC          E(Eh)            E(eV)
   0   2.0000     -14.748615      -401.3302
   1   2.0000     -14.743848      -401.2005
   2   2.0000     -10.578821      -287.8643
   3   2.0000     -10.511764      -286.0396
   4   2.0000     -10.499052      -285.6937
   5   2.0000     -10.460997      -284.6582
   6   2.0000      -1.071018       -29.1439
   7   2.0000      -0.975589       -26.5471
   8   2.0000      -0.875487       -23.8232
   9   2.0000      -0.789656       -21.4876
  10   2.0000      -0.701188       -19.0803
  11   2.0000      -0.659149       -17.9363
  12   2.0000      -0.612149       -16.6574
  13   2.0000      -0.585655       -15.9365
  14   2.0000      -0.533990       -14.5306
  15   2.0000      -0.508884       -13.8474
  16   2.0000      -0.487059       -13.2535
  17   2.0000      -0.470592       -12.8055
  18   2.0000      -0.448442       -12.2027
  19   2.0000      -0.416563       -11.3353
  20   2.0000      -0.394847       -10.7443
  21   2.0000      -0.382763       -10.4155
  22   2.0000      -0.333459        -9.0739
  23   2.0000      -0.216788        -5.8991
  24   0.0000       0.013127         0.3572
  25   0.0000       0.036321         0.9883
  26   0.0000       0.039335         1.0704
  27   0.0000       0.050591         1.3766
  28   0.0000       0.064672         1.7598

MULLIKEN ATOMIC CHARGES
-----------------------
   0 C :   -0.774365
   1 C :   -1.034429
   2 C :   -0.424186
   3 H :    0.280398
   4 H :    0.350998
   5 C :    0.925407
   6 N :   -0.666996
   7 N :   -0.670212
   8 H :    0.248408
   9 H :    0.250260
  10 H :    0.145621
  11 H :    0.221341
  12 H :    0.234959
  13 H :    0.322891
  14 H :    0.297245
  15 H :    0.292659
Sum of atomic charges:   -0.0000000

LOEWDIN ATOMIC CHARGES
----------------------
   0 C :   -0.287272
   1 C :   -0.104947
   2 C :   -0.148038
   3 H :    0.105370
   4 H :    0.100697
   5 C :   -0.543466
   6 N :    0.092765
   7 N :    0.119404
   8 H :    0.092791
   9 H :    0.098220
  10 H :    0.069952
  11 H :    0.109699
  12 H :    0.104722
  13 H :    0.067667
  14 H :    0.063926
  15 H :    0.058512

  Mayer bond orders larger than 0.100000
B(  0-C ,  1-C ) :   0.5145 B(  0-C ,  2-C ) :   0.5808 B(  0-C ,  3-H ) :   1.0673
B(  0-C ,  4-H ) :   0.9092 B(  0-C ,  5-C ) :   0.2257 B(  1-C , 13-H ) :   0.9938
B(  1-C , 14-H ) :   0.9849 B(  1-C , 15-H ) :   0.9838 B(  2-C ,  3-H ) :  -0.1172
B(  2-C ,  4-H ) :  -0.1137 B(  2-C ,  5-C ) :   1.1604 B(  2-C , 10-H ) :   1.2580
B(  5-C ,  6-N ) :   0.8654 B(  5-C ,  7-N ) :   0.7886 B(  5-C , 10-H ) :  -0.3433
B(  6-N , 11-H ) :   0.9768 B(  6-N , 12-H ) :   0.9883 B(  7-N ,  8-H ) :   0.9257
B(  7-N ,  9-H ) :   0.9685

Dispersion correction           -0.000316540
FINAL SINGLE POINT ENERGY      -267.892493415196

DIPOLE MOMENT
-------------
                                X             Y             Z
Electronic contribution:     -1.27722      -2.89000       3.61710
Nuclear contribution   :      1.44676       2.38443      -3.07370
                        -----------------------------------------
Total Dipole Moment    :      0.16955      -0.50558       0.54340
                        -----------------------------------------
Magnitude (a.u.)       :      0.76134
Magnitude (Debye)      :      1.93517

Rotational constants in cm-1:     0.235977     0.073199     0.063283
Rotational constants in MHz :  7074.404583  2194.453291  1897.179599

                             ****ORCA TERMINATED NORMALLY****
TOTAL RUN TIME: 0 days 0 hours 1 minutes 2 seconds 498 msec
