                         Program Version 5.0.0 -  RELEASE  -
|  1> !M062X D3Zero RIJCOSX def2-TZVPD def2/J TightSCF
|  2> *xyz 0 1
|  3> C          3.48828        1.60092       -1.52204
|  4> C          4.34297        1.31342       -2.75683
|  5> N          2.81029        0.42878       -1.01420
|  6> H          2.71455        2.33145       -1.76030
|  7> H          4.09099        2.06315       -0.73338
|  8> C          3.29098       -0.41802       -0.12908
|  9> C          2.51754       -1.43202        0.23936
| 10> N          4.53549       -0.28441        0.39580
| 11> H          5.04363        0.57189        0.22290
| 12> H          4.72335       -0.73327        1.28180
| 13> H          1.93479        0.10230       -1.40379
| 14> H          1.67464       -1.50562       -0.31610
| 15> H          2.92850       -2.21850        0.72549
| 16> H          3.73575        0.86277       -3.51385
| 17> H          5.13754        0.64699       -2.49333
| 18> H          4.75374        2.22930       -3.12740
| 19> *
| 20> %MaxCore 64000
| 21>
| 22> %pal nprocs 4
| 23> end
| 24>
| 25> %scf
| 26>   MaxIter 150
| 27> end
| 28>
| 29>
| 30>                          ****END OF INPUT****

CARTESIAN COORDINATES (ANGSTROEM)
---------------------------------
  C      3.488280    1.600920   -1.522040
  C      4.342970    1.313420   -2.756830
  N      2.810290    0.428780   -1.014200
  H      2.714550    2.331450   -1.760300
  H      4.090990    2.063150   -0.733380
  C      3.290980   -0.418020   -0.129080
  C      2.517540   -1.432020    0.239360
  N      4.535490   -0.284410    0.395800
  H      5.043630    0.571890    0.222900
  H      4.723350   -0.733270    1.281800
  H      1.934790    0.102300   -1.403790
  H      1.674640   -1.505620   -0.316100
  H      2.928500   -2.218500    0.725490
  H      3.735750    0.862770   -3.513850
  H      5.137540    0.646990   -2.493330
  H      4.753740    2.229300   -3.127400

 Total Charge           Charge          ....    0
 Multiplicity           Mult            ....    1
 Number of Electrons    NEL             ....   48
 Basis Dimension        Dim             ....  312

ORBITAL ENERGIES
----------------

  NO   OCC          E(Eh)            E(eV)
   0   2.0000     -14.748878      -401.3374
   1   2.0000     -14.748342      -401.3228
   2   2.0000     -10.583162      -287.9825
   3   2.0000     -10.579012      -287.8696
   4   2.0000     -10.524366      -286.3826
   5   2.0000     -10.445524      -284.2372
   6   2.0000      -1.082308       -29.4511
   7   2.0000      -0.989573       -26.9277
   8   2.0000      -0.873756       -23.7761
   9   2.0000      -0.796648       -21.6779
  10   2.0000      -0.716902       -19.5079
  11   2.0000      -0.678701       -18.4684
  12   2.0000      -0.610919       -16.6239
  13   2.0000      -0.573495       -15.6056
  14   2.0000      -0.548388       -14.9224
  15   2.0000      -0.508765       -13.8442
  16   2.0000      -0.501814       -13.6551
  17   2.0000      -0.472637       -12.8611
  18   2.0000      -0.445544       -12.1239
  19   2.0000      -0.435855       -11.8602
  20   2.0000      -0.430024       -11.7016
  21   2.0000      -0.420248       -11.4355
  22   2.0000      -0.323603        -8.8057
  23   2.0000      -0.215558        -5.8656
  24   0.0000       0.010584         0.2880
  25   0.0000       0.034810         0.9472
  26   0.0000       0.038865         1.0576
  27   0.0000       0.040060         1.0901
  28   0.0000       0.068790         1.8719

MULLIKEN ATOMIC CHARGES
-----------------------
   0 C :   -0.685141
   1 C :   -0.989172
   2 N :   -0.311939
   3 H :    0.317913
   4 H :    0.366801
   5 C :    0.917530
   6 C :   -1.093993
   7 N :   -0.661661
   8 H :    0.256193
   9 H :    0.264846
  10 H :    0.239226
  11 H :    0.201431
  12 H :    0.244218
  13 H :    0.294081
  14 H :    0.299186
  15 H :    0.340481
Sum of atomic charges:    0.0000000

LOEWDIN ATOMIC CHARGES
----------------------
   0 C :   -0.245234
   1 C :   -0.085486
   2 N :    0.003616
   3 H :    0.113387
   4 H :    0.108782
   5 C :   -0.562733
   6 C :   -0.005809
   7 N :    0.115293
   8 H :    0.084126
   9 H :    0.109844
  10 H :    0.148132
  11 H :    0.008129
  12 H :    0.010546
  13 H :    0.068112
  14 H :    0.065333
  15 H :    0.063962

  Mayer bond orders larger than 0.100000
B(  0-C ,  1-C ) :   0.5758 B(  0-C ,  2-N ) :   0.7755 B(  0-C ,  3-H ) :   0.9826
B(  0-C ,  4-H ) :   0.8927 B(  0-C ,  5-C ) :  -0.1248 B(  0-C ,  7-N ) :   0.1115
B(  1-C , 13-H ) :   1.0040 B(  1-C , 14-H ) :   0.9738 B(  1-C , 15-H ) :   0.9742
B(  2-N ,  5-C ) :   0.9868 B(  2-N , 10-H ) :   0.9589 B(  5-C ,  6-C ) :   1.1497
B(  5-C ,  7-N ) :   0.8428 B(  5-C , 11-H ) :  -0.1179 B(  5-C , 12-H ) :  -0.1190
B(  6-C ,  7-N ) :   0.1049 B(  6-C , 11-H ) :   1.0749 B(  6-C , 12-H ) :   1.0920
B(  7-N ,  8-H ) :   0.9329 B(  7-N ,  9-H ) :   0.9421

Dispersion correction           -0.000312887
FINAL SINGLE POINT ENERGY      -267.879994375357

DIPOLE MOMENT
-------------
                                X             Y             Z
Electronic contribution:     -0.88070      -1.05889       2.41191
Nuclear contribution   :      1.38466       1.98967      -2.80776
                        -----------------------------------------
Total Dipole Moment    :      0.50396       0.93078      -0.39585
                        -----------------------------------------
Magnitude (a.u.)       :      1.13006
Magnitude (Debye)      :      2.87237

Rotational constants in cm-1:     0.235618     0.075969     0.065309
Rotational constants in MHz :  7063.646698  2277.495424  1957.925383

                             ****ORCA TERMINATED NORMALLY****
TOTAL RUN TIME: 0 days 0 hours 1 minutes 4 seconds 782 msec
