                         Program Version 5.0.0 -  RELEASE  -
|  1> !M062X D3Zero RIJCOSX def2-TZVPD def2/J TightSCF
|  2> *xyz 0 1
|  3> C          3.48828        1.60092       -1.52204
|  4> C          4.34297        1.31342       -2.75683
|  5> N          2.81029        0.42878       -1.01420
|  6> H          2.71455        2.33145       -1.76030
|  7> H          4.09099        2.06315       -0.73338
|  8> C          3.29098       -0.41802       -0.12908
|  9> N          2.51754       -1.43202        0.23936
| 10> C          4.53549       -0.28441        0.39580
| 11> H          5.04363        0.57189        0.22290
| 12> H          4.72335       -0.73327        1.28180
| 13> H          1.93479        0.10230       -1.40379
| 14> H          1.67464       -1.50562       -0.31610
| 15> H          2.92850       -2.21850        0.72549
| 16> H          3.73575        0.86277       -3.51385
| 17> H          5.13754        0.64699       -2.49333
| 18> H          4.75374        2.22930       -3.12740
| 19> *
| 20> %MaxCore 64000
| 21>
| 22> %pal nprocs 4
| 23> end
| 24>
| 25> %scf
| 26>   MaxIter 150
| 27> end
| 28>
| 29>
| 30>                          ****END OF INPUT****

CARTESIAN COORDINATES (ANGSTROEM)
---------------------------------
  C      3.488280    1.600920   -1.522040
  C      4.342970    1.313420   -2.756830
  N      2.810290    0.428780   -1.014200
  H      2.714550    2.331450   -1.760300
  H      4.090990    2.063150   -0.733380
  C      3.290980   -0.418020   -0.129080
  N      2.517540   -1.432020    0.239360
  C      4.535490   -0.284410    0.395800
  H      5.043630    0.571890    0.222900
  H      4.723350   -0.733270    1.281800
  H      1.934790    0.102300   -1.403790
  H      1.674640   -1.505620   -0.316100
  H      2.928500   -2.218500    0.725490
  H      3.735750    0.862770   -3.513850
  H      5.137540    0.646990   -2.493330
  H      4.753740    2.229300   -3.127400

 Total Charge           Charge          ....    0
 Multiplicity           Mult            ....    1
 Number of Electrons    NEL             ....   48
 Basis Dimension        Dim             ....  312

ORBITAL ENERGIES
----------------

  NO   OCC          E(Eh)            E(eV)
   0   2.0000     -14.755264      -401.5112
   1   2.0000     -14.750262      -401.3750
   2   2.0000     -10.586427      -288.0713
   3   2.0000     -10.571868      -287.6751
   4   2.0000     -10.516951      -286.1808
   5   2.0000     -10.447780      -284.2985
   6   2.0000      -1.091821       -29.7100
   7   2.0000      -0.995276       -27.0828
   8   2.0000      -0.853319       -23.2200
   9   2.0000      -0.801187       -21.8014
  10   2.0000      -0.731681       -19.9100
  11   2.0000      -0.643601       -17.5133
  12   2.0000      -0.617994       -16.8165
  13   2.0000      -0.605294       -16.4709
  14   2.0000      -0.536742       -14.6055
  15   2.0000      -0.509667       -13.8687
  16   2.0000      -0.500045       -13.6069
  17   2.0000      -0.460763       -12.5380
  18   2.0000      -0.445235       -12.1155
  19   2.0000      -0.435102       -11.8397
  20   2.0000      -0.427220       -11.6252
  21   2.0000      -0.410598       -11.1729
  22   2.0000      -0.316797        -8.6205
  23   2.0000      -0.219092        -5.9618
  24   0.0000       0.010295         0.2801
  25   0.0000       0.031286         0.8513
  26   0.0000       0.040837         1.1112
  27   0.0000       0.044015         1.1977
  28   0.0000       0.069067         1.8794

MULLIKEN ATOMIC CHARGES
-----------------------
   0 C :   -0.609884
   1 C :   -1.016654
   2 N :   -0.330508
   3 H :    0.316795
   4 H :    0.341450
   5 C :    0.980024
   6 N :   -0.636682
   7 C :   -1.132048
   8 H :    0.203147
   9 H :    0.244948
  10 H :    0.246484
  11 H :    0.197736
  12 H :    0.254826
  13 H :    0.307249
  14 H :    0.308529
  15 H :    0.324587
Sum of atomic charges:    0.0000000

LOEWDIN ATOMIC CHARGES
----------------------
   0 C :   -0.239900
   1 C :   -0.082352
   2 N :    0.001657
   3 H :    0.112901
   4 H :    0.113932
   5 C :   -0.569996
   6 N :    0.105942
   7 C :    0.006868
   8 H :   -0.010054
   9 H :    0.003532
  10 H :    0.141290
  11 H :    0.101080
  12 H :    0.118181
  13 H :    0.065574
  14 H :    0.066325
  15 H :    0.065020

  Mayer bond orders larger than 0.100000
B(  0-C ,  1-C ) :   0.5783 B(  0-C ,  2-N ) :   0.7608 B(  0-C ,  3-H ) :   0.9286
B(  0-C ,  4-H ) :   0.9148 B(  0-C ,  7-C ) :   0.1540 B(  1-C , 13-H ) :   0.9810
B(  1-C , 14-H ) :   0.9787 B(  1-C , 15-H ) :   0.9752 B(  2-N ,  5-C ) :   0.9686
B(  2-N , 10-H ) :   0.9887 B(  5-C ,  6-N ) :   0.8312 B(  5-C ,  7-C ) :   1.1977
B(  5-C ,  9-H ) :  -0.1566 B(  6-N ,  7-C ) :   0.1048 B(  6-N , 11-H ) :   1.0104
B(  6-N , 12-H ) :   0.9588 B(  7-C ,  8-H ) :   1.0519 B(  7-C ,  9-H ) :   1.1128

Dispersion correction           -0.000313964
FINAL SINGLE POINT ENERGY      -267.880722467727

DIPOLE MOMENT
-------------
                                X             Y             Z
Electronic contribution:     -2.78010      -2.27039       2.19043
Nuclear contribution   :      1.81275       2.23313      -2.77458
                        -----------------------------------------
Total Dipole Moment    :     -0.96735      -0.03726      -0.58415
                        -----------------------------------------
Magnitude (a.u.)       :      1.13065
Magnitude (Debye)      :      2.87389

Rotational constants in cm-1:     0.245202     0.073668     0.064348
Rotational constants in MHz :  7350.977980  2208.513334  1929.108541

                             ****ORCA TERMINATED NORMALLY****
TOTAL RUN TIME: 0 days 0 hours 1 minutes 2 seconds 964 msec
