                         Program Version 5.0.0 -  RELEASE  -
|  1> !M062X D3Zero RIJCOSX def2-TZVPD def2/J TightSCF xyzfile
|  2>
|  3> *xyzfile 0 1 D1.xyz
|  4>
|  5> %MaxCore 64000
|  6>
|  7> %pal nprocs 4
|  8> end
|  9>
| 10> %scf
| 11>   MaxIter 150
| 12> end
| 13>
| 14>
| 15>                          ****END OF INPUT****

CARTESIAN COORDINATES (ANGSTROEM)
---------------------------------
  C      3.488276    1.600919   -1.522040
  C      4.342970    1.313419   -2.756826
  C      2.810285    0.428783   -1.014196
  H      5.132033    0.604994   -2.484466
  C      3.535896    0.749253   -3.924604
  H      4.841247    2.242136   -3.054083
  H      2.991617   -0.132199   -3.574137
  H      4.225505    0.392784   -4.695962
  C      2.564776    1.750890   -4.544523
  H      1.918749    2.171679   -3.769419
  C      1.686235    1.161657   -5.650111
  H      3.132494    2.594775   -4.951604
  C      0.839616   -0.037582   -5.220473
  H      2.323886    0.866395   -6.490796
  H      1.029518    1.951850   -6.029329
  C     -0.151019    0.254955   -4.094256
  H      1.499442   -0.857141   -4.922958
  H      0.290097   -0.410143   -6.091131
  H      0.328265    0.833022   -3.299125
  C     -0.721843   -0.999513   -3.439309
  H     -0.957367    0.884951   -4.485450
  H     -1.083403   -1.697555   -4.205656
  H     -1.581056   -0.723848   -2.820490
  C      0.287250   -1.711771   -2.527405
  H      1.131780   -2.067380   -3.159396
  H     -0.204137   -2.637326   -2.170480
  F      0.710505   -0.927506   -1.481767
  H      2.714548    2.331455   -1.760302
  H      4.090991    2.063151   -0.733382
  C      3.290978   -0.418021   -0.129083
  N      2.517536   -1.432017    0.239360
  N      4.535490   -0.284410    0.395800
  H      5.043627    0.571888    0.222899
  H      4.723346   -0.733273    1.281800
  H      1.934787    0.102305   -1.403788
  H      1.674638   -1.505616   -0.316095
  H      2.928503   -2.218502    0.725494

 Total Charge           Charge          ....    0
 Multiplicity           Mult            ....    1
 Number of Electrons    NEL             ....  112
 Basis Dimension        Dim             ....  728

ORBITAL ENERGIES
----------------

  NO   OCC          E(Eh)            E(eV)
   0   2.0000     -25.261733      -687.4067
   1   2.0000     -14.734548      -400.9474
   2   2.0000     -14.718138      -400.5009
   3   2.0000     -10.626636      -289.1655
   4   2.0000     -10.561936      -287.4049
   5   2.0000     -10.546366      -286.9812
   6   2.0000     -10.531661      -286.5811
   7   2.0000     -10.527281      -286.4619
   8   2.0000     -10.522812      -286.3403
   9   2.0000     -10.515187      -286.1328
  10   2.0000     -10.509912      -285.9892
  11   2.0000     -10.505158      -285.8599
  12   2.0000     -10.498726      -285.6849
  13   2.0000     -10.434636      -283.9409
  14   2.0000      -1.381366       -37.5889
  15   2.0000      -1.053493       -28.6670
  16   2.0000      -0.959152       -26.0998
  17   2.0000      -0.920253       -25.0414
  18   2.0000      -0.895140       -24.3580
  19   2.0000      -0.864285       -23.5184
  20   2.0000      -0.828607       -22.5475
  21   2.0000      -0.787423       -21.4269
  22   2.0000      -0.759050       -20.6548
  23   2.0000      -0.722376       -19.6569
  24   2.0000      -0.689113       -18.7517
  25   2.0000      -0.673320       -18.3220
  26   2.0000      -0.648266       -17.6402
  27   2.0000      -0.629296       -17.1240
  28   2.0000      -0.622237       -16.9319
  29   2.0000      -0.602364       -16.3912
  30   2.0000      -0.590385       -16.0652
  31   2.0000      -0.579600       -15.7717
  32   2.0000      -0.561540       -15.2803
  33   2.0000      -0.537284       -14.6203
  34   2.0000      -0.528172       -14.3723
  35   2.0000      -0.512415       -13.9435
  36   2.0000      -0.507352       -13.8057
  37   2.0000      -0.494226       -13.4486
  38   2.0000      -0.482671       -13.1341
  39   2.0000      -0.472412       -12.8550
  40   2.0000      -0.463634       -12.6161
  41   2.0000      -0.448462       -12.2033
  42   2.0000      -0.437841       -11.9142
  43   2.0000      -0.432860       -11.7787
  44   2.0000      -0.425399       -11.5757
  45   2.0000      -0.421439       -11.4679
  46   2.0000      -0.400648       -10.9022
  47   2.0000      -0.393094       -10.6966
  48   2.0000      -0.381618       -10.3844
  49   2.0000      -0.379247       -10.3198
  50   2.0000      -0.373633       -10.1671
  51   2.0000      -0.358960        -9.7678
  52   2.0000      -0.353536        -9.6202
  53   2.0000      -0.348556        -9.4847
  54   2.0000      -0.316423        -8.6103
  55   2.0000      -0.200056        -5.4438
  56   0.0000       0.012046         0.3278
  57   0.0000       0.021758         0.5921
  58   0.0000       0.023854         0.6491
  59   0.0000       0.028696         0.7809
  60   0.0000       0.040852         1.1116

MULLIKEN ATOMIC CHARGES
-----------------------
   0 C :   -1.056638
   1 C :   -0.738125
   2 C :   -0.121495
   3 H :    0.342158
   4 C :   -0.162329
   5 H :    0.331514
   6 H :   -0.046811
   7 H :    0.374575
   8 C :   -0.373679
   9 H :    0.202363
  10 C :   -1.153667
  11 H :    0.346767
  12 C :   -0.459390
  13 H :    0.380789
  14 H :    0.377650
  15 C :   -0.200013
  16 H :    0.224796
  17 H :    0.379894
  18 H :    0.117538
  19 C :   -1.020928
  20 H :    0.353048
  21 H :    0.383011
  22 H :    0.398137
  23 C :   -0.344181
  24 H :    0.314963
  25 H :    0.342022
  26 F :   -0.577549
  27 H :    0.250488
  28 H :    0.442281
  29 C :    0.433996
  30 N :   -0.712052
  31 N :   -0.701800
  32 H :    0.264706
  33 H :    0.248957
  34 H :    0.495546
  35 H :    0.446704
  36 H :    0.216753
Sum of atomic charges:    0.0000000

LOEWDIN ATOMIC CHARGES
----------------------
   0 C :   -0.229343
   1 C :   -0.206812
   2 C :   -0.126640
   3 H :    0.111508
   4 C :   -0.215111
   5 H :    0.108621
   6 H :    0.095209
   7 H :    0.117933
   8 C :   -0.219209
   9 H :    0.097791
  10 C :   -0.214471
  11 H :    0.117248
  12 C :   -0.222551
  13 H :    0.111950
  14 H :    0.111817
  15 C :   -0.211393
  16 H :    0.095362
  17 H :    0.115302
  18 H :    0.104726
  19 C :   -0.180710
  20 H :    0.120542
  21 H :    0.123232
  22 H :    0.114836
  23 C :   -0.191110
  24 H :    0.127335
  25 H :    0.125330
  26 F :   -0.093791
  27 H :    0.103926
  28 H :    0.104426
  29 C :   -0.522366
  30 N :    0.106163
  31 N :    0.118731
  32 H :    0.090189
  33 H :    0.095625
  34 H :    0.039950
  35 H :    0.071117
  36 H :    0.104639

  Mayer bond orders larger than 0.100000
B(  0-C ,  1-C ) :   0.7102 B(  0-C ,  2-C ) :   0.4167 B(  0-C ,  4-C ) :  -0.1109
B(  0-C ,  5-H ) :  -0.1394 B(  0-C , 27-H ) :   1.0947 B(  0-C , 28-H ) :   0.9323
B(  0-C , 29-C ) :   0.2559 B(  1-C ,  2-C ) :  -0.1011 B(  1-C ,  3-H ) :   0.9692
B(  1-C ,  4-C ) :   0.8116 B(  1-C ,  5-H ) :   0.9895 B(  1-C ,  8-C ) :   0.1667
B(  2-C ,  4-C ) :   0.1076 B(  2-C , 26-F ) :   0.5011 B(  2-C , 28-H ) :  -0.2308
B(  2-C , 29-C ) :   1.6646 B(  2-C , 34-H ) :   1.1180 B(  4-C ,  6-H ) :   1.2476
B(  4-C ,  7-H ) :   0.8646 B(  4-C ,  8-C ) :   0.2710 B(  4-C ,  9-H ) :  -0.1562
B(  4-C , 10-C ) :   0.1682 B(  6-H ,  8-C ) :  -0.1883 B(  8-C ,  9-H ) :   1.1029
B(  8-C , 10-C ) :   0.5971 B(  8-C , 11-H ) :   0.9157 B(  8-C , 12-C ) :  -0.1009
B( 10-C , 12-C ) :   0.6815 B( 10-C , 13-H ) :   0.9702 B( 10-C , 14-H ) :   0.9589
B( 10-C , 15-C ) :   0.1717 B( 12-C , 15-C ) :   0.2651 B( 12-C , 16-H ) :   1.0675
B( 12-C , 17-H ) :   0.8985 B( 12-C , 18-H ) :  -0.1205 B( 12-C , 19-C ) :   0.2123
B( 15-C , 16-H ) :  -0.1659 B( 15-C , 18-H ) :   1.0864 B( 15-C , 19-C ) :   0.6239
B( 15-C , 20-H ) :   0.9079 B( 19-C , 21-H ) :   0.9461 B( 19-C , 22-H ) :   0.9151
B( 19-C , 23-C ) :   0.7631 B( 19-C , 26-F ) :   0.1852 B( 23-C , 24-H ) :   0.9803
B( 23-C , 25-H ) :   0.9233 B( 23-C , 26-F ) :   0.5585 B( 26-F , 29-C ) :   0.1176
B( 26-F , 34-H ) :  -0.8543 B( 29-C , 30-N ) :   0.9312 B( 29-C , 31-N ) :   0.7957
B( 30-N , 35-H ) :   0.7214 B( 30-N , 36-H ) :   1.0157 B( 31-N , 32-H ) :   0.9362
B( 31-N , 33-H ) :   0.9682

Dispersion correction           -0.002330389
FINAL SINGLE POINT ENERGY      -642.268305187858

DIPOLE MOMENT
-------------
                                X             Y             Z
Electronic contribution:     -1.58846      -4.82262      10.67101
Nuclear contribution   :      1.15699       3.94991     -10.89335
                        -----------------------------------------
Total Dipole Moment    :     -0.43148      -0.87271      -0.22235
                        -----------------------------------------
Magnitude (a.u.)       :      0.99862
Magnitude (Debye)      :      2.53828

Rotational constants in cm-1:     0.026548     0.016177     0.010851
Rotational constants in MHz :   795.884848   484.988695   325.313537

                             ****ORCA TERMINATED NORMALLY****
TOTAL RUN TIME: 0 days 0 hours 7 minutes 45 seconds 530 msec
