                         Program Version 5.0.0 -  RELEASE  -
|  1> !M062X D3Zero RIJCOSX def2-TZVPD def2/J TightSCF xyzfile
|  2>
|  3> *xyzfile 0 1 D2.xyz
|  4>
|  5> %MaxCore 64000
|  6>
|  7> %pal nprocs 4
|  8> end
|  9>
| 10> %scf
| 11>   MaxIter 150
| 12> end
| 13>
| 14>
| 15>                          ****END OF INPUT****

CARTESIAN COORDINATES (ANGSTROEM)
---------------------------------
  C      3.488276    1.600919   -1.522040
  C      4.342970    1.313419   -2.756826
  N      2.810285    0.428783   -1.014196
  H      5.132033    0.604994   -2.484466
  C      3.535896    0.749253   -3.924604
  H      4.841247    2.242136   -3.054083
  H      2.991617   -0.132199   -3.574137
  H      4.225505    0.392784   -4.695962
  C      2.564776    1.750890   -4.544523
  H      1.918749    2.171679   -3.769419
  C      1.686235    1.161657   -5.650111
  H      3.132494    2.594775   -4.951604
  C      0.839616   -0.037582   -5.220473
  H      2.323886    0.866395   -6.490796
  H      1.029518    1.951850   -6.029329
  C     -0.151019    0.254955   -4.094256
  H      1.499442   -0.857141   -4.922958
  H      0.290097   -0.410143   -6.091131
  H      0.328265    0.833022   -3.299125
  C     -0.721843   -0.999513   -3.439309
  H     -0.957367    0.884951   -4.485450
  H     -1.083403   -1.697555   -4.205656
  H     -1.581056   -0.723848   -2.820490
  C      0.287250   -1.711771   -2.527405
  H      1.131780   -2.067380   -3.159396
  H     -0.204137   -2.637326   -2.170480
  F      0.710505   -0.927506   -1.481767
  H      2.714548    2.331455   -1.760302
  H      4.090991    2.063151   -0.733382
  C      3.290978   -0.418021   -0.129083
  C      2.517536   -1.432017    0.239360
  N      4.535490   -0.284410    0.395800
  H      5.043627    0.571888    0.222899
  H      4.723346   -0.733273    1.281800
  H      1.934787    0.102305   -1.403788
  H      1.674638   -1.505616   -0.316095
  H      2.928503   -2.218502    0.725494

 Total Charge           Charge          ....    0
 Multiplicity           Mult            ....    1
 Number of Electrons    NEL             ....  112
 Basis Dimension        Dim             ....  728

ORBITAL ENERGIES
----------------

  NO   OCC          E(Eh)            E(eV)
   0   2.0000     -25.259436      -687.3442
   1   2.0000     -14.732795      -400.8997
   2   2.0000     -14.722547      -400.6209
   3   2.0000     -10.625478      -289.1339
   4   2.0000     -10.564516      -287.4751
   5   2.0000     -10.563295      -287.4419
   6   2.0000     -10.548199      -287.0311
   7   2.0000     -10.538485      -286.7668
   8   2.0000     -10.534621      -286.6616
   9   2.0000     -10.532631      -286.6075
  10   2.0000     -10.529474      -286.5215
  11   2.0000     -10.527622      -286.4712
  12   2.0000     -10.526837      -286.4498
  13   2.0000     -10.418769      -283.5091
  14   2.0000      -1.378982       -37.5240
  15   2.0000      -1.063823       -28.9481
  16   2.0000      -0.973868       -26.5003
  17   2.0000      -0.927862       -25.2484
  18   2.0000      -0.899366       -24.4730
  19   2.0000      -0.871095       -23.7037
  20   2.0000      -0.823348       -22.4044
  21   2.0000      -0.798602       -21.7311
  22   2.0000      -0.762245       -20.7418
  23   2.0000      -0.732676       -19.9371
  24   2.0000      -0.697301       -18.9745
  25   2.0000      -0.680431       -18.5155
  26   2.0000      -0.659893       -17.9566
  27   2.0000      -0.640259       -17.4223
  28   2.0000      -0.621912       -16.9231
  29   2.0000      -0.606329       -16.4991
  30   2.0000      -0.587645       -15.9906
  31   2.0000      -0.577924       -15.7261
  32   2.0000      -0.557747       -15.1771
  33   2.0000      -0.546410       -14.8686
  34   2.0000      -0.541051       -14.7227
  35   2.0000      -0.524588       -14.2748
  36   2.0000      -0.508880       -13.8473
  37   2.0000      -0.500634       -13.6229
  38   2.0000      -0.497590       -13.5401
  39   2.0000      -0.481093       -13.0912
  40   2.0000      -0.464109       -12.6290
  41   2.0000      -0.448724       -12.2104
  42   2.0000      -0.439720       -11.9654
  43   2.0000      -0.436493       -11.8776
  44   2.0000      -0.431574       -11.7437
  45   2.0000      -0.424263       -11.5448
  46   2.0000      -0.410236       -11.1631
  47   2.0000      -0.404239       -10.9999
  48   2.0000      -0.400357       -10.8943
  49   2.0000      -0.390962       -10.6386
  50   2.0000      -0.385003       -10.4765
  51   2.0000      -0.374695       -10.1960
  52   2.0000      -0.372247       -10.1293
  53   2.0000      -0.368492       -10.0272
  54   2.0000      -0.306121        -8.3300
  55   2.0000      -0.196649        -5.3511
  56   0.0000       0.013009         0.3540
  57   0.0000       0.017264         0.4698
  58   0.0000       0.021985         0.5982
  59   0.0000       0.025482         0.6934
  60   0.0000       0.038957         1.0601

MULLIKEN ATOMIC CHARGES
-----------------------
   0 C :   -1.279003
   1 C :   -0.663410
   2 N :   -0.306042
   3 H :    0.335562
   4 C :   -0.181725
   5 H :    0.414025
   6 H :    0.011124
   7 H :    0.374940
   8 C :   -0.375702
   9 H :    0.212356
  10 C :   -1.157961
  11 H :    0.353010
  12 C :   -0.468727
  13 H :    0.379822
  14 H :    0.380293
  15 C :   -0.226299
  16 H :    0.227401
  17 H :    0.379840
  18 H :    0.136739
  19 C :   -1.004498
  20 H :    0.360953
  21 H :    0.379720
  22 H :    0.394651
  23 C :   -0.327101
  24 H :    0.298257
  25 H :    0.353601
  26 F :   -0.639870
  27 H :    0.322748
  28 H :    0.416955
  29 C :    0.968253
  30 C :   -0.838454
  31 N :   -0.675101
  32 H :    0.263260
  33 H :    0.283366
  34 H :    0.585703
  35 H :    0.093668
  36 H :    0.217646
Sum of atomic charges:    0.0000000

LOEWDIN ATOMIC CHARGES
----------------------
   0 C :   -0.193258
   1 C :   -0.192224
   2 N :    0.029655
   3 H :    0.112158
   4 C :   -0.212743
   5 H :    0.113197
   6 H :    0.097488
   7 H :    0.120519
   8 C :   -0.221352
   9 H :    0.095772
  10 C :   -0.212910
  11 H :    0.118012
  12 C :   -0.221866
  13 H :    0.113129
  14 H :    0.113017
  15 C :   -0.213239
  16 H :    0.095735
  17 H :    0.116772
  18 H :    0.101783
  19 C :   -0.180814
  20 H :    0.120898
  21 H :    0.123601
  22 H :    0.115369
  23 C :   -0.189108
  24 H :    0.127199
  25 H :    0.129358
  26 F :   -0.095350
  27 H :    0.112099
  28 H :    0.112230
  29 C :   -0.542920
  30 C :    0.010272
  31 N :    0.113259
  32 H :    0.081344
  33 H :    0.107173
  34 H :    0.099096
  35 H :   -0.015588
  36 H :    0.012235

  Mayer bond orders larger than 0.100000
B(  0-C ,  1-C ) :   0.6920 B(  0-C ,  2-N ) :   1.0483 B(  0-C ,  5-H ) :  -0.1257
B(  0-C , 27-H ) :   0.9645 B(  0-C , 28-H ) :   0.8642 B(  0-C , 29-C ) :  -0.2854
B(  0-C , 31-N ) :   0.1742 B(  0-C , 34-H ) :  -0.2961 B(  1-C ,  3-H ) :   0.9419
B(  1-C ,  4-C ) :   0.7482 B(  1-C ,  5-H ) :   0.9621 B(  1-C ,  8-C ) :   0.1803
B(  2-N , 29-C ) :   0.7771 B(  2-N , 34-H ) :   0.6915 B(  4-C ,  6-H ) :   1.1917
B(  4-C ,  7-H ) :   0.8825 B(  4-C ,  8-C ) :   0.2669 B(  4-C ,  9-H ) :  -0.1619
B(  4-C , 10-C ) :   0.1704 B(  6-H ,  8-C ) :  -0.1548 B(  8-C ,  9-H ) :   1.0989
B(  8-C , 10-C ) :   0.6173 B(  8-C , 11-H ) :   0.9106 B( 10-C , 12-C ) :   0.6722
B( 10-C , 13-H ) :   0.9716 B( 10-C , 14-H ) :   0.9597 B( 10-C , 15-C ) :   0.1803
B( 12-C , 15-C ) :   0.2775 B( 12-C , 16-H ) :   1.0687 B( 12-C , 17-H ) :   0.8952
B( 12-C , 18-H ) :  -0.1175 B( 12-C , 19-C ) :   0.2074 B( 15-C , 16-H ) :  -0.1640
B( 15-C , 18-H ) :   1.0725 B( 15-C , 19-C ) :   0.6681 B( 15-C , 20-H ) :   0.9027
B( 19-C , 21-H ) :   0.9519 B( 19-C , 22-H ) :   0.9131 B( 19-C , 23-C ) :   0.7643
B( 19-C , 26-F ) :   0.1772 B( 23-C , 24-H ) :   0.9994 B( 23-C , 25-H ) :   0.9064
B( 23-C , 26-F ) :   0.5809 B( 26-F , 30-C ) :   0.1400 B( 26-F , 34-H ) :  -0.1430
B( 29-C , 30-C ) :   1.1954 B( 29-C , 31-N ) :   0.7784 B( 29-C , 36-H ) :  -0.2011
B( 30-C , 31-N ) :   0.1315 B( 30-C , 35-H ) :   0.9901 B( 30-C , 36-H ) :   1.2471
B( 31-N , 32-H ) :   0.9525 B( 31-N , 33-H ) :   0.9404

Dispersion correction           -0.002338839
FINAL SINGLE POINT ENERGY      -642.255833107207

DIPOLE MOMENT
-------------
                                X             Y             Z
Electronic contribution:     -1.28110      -3.14137       9.42948
Nuclear contribution   :      1.09892       3.58083     -10.64472
                        -----------------------------------------
Total Dipole Moment    :     -0.18218       0.43947      -1.21524
                        -----------------------------------------
Magnitude (a.u.)       :      1.30504
Magnitude (Debye)      :      3.31714

Rotational constants in cm-1:     0.026768     0.016312     0.010954
Rotational constants in MHz :   802.489946   489.033275   328.388904

                             ****ORCA TERMINATED NORMALLY****
TOTAL RUN TIME: 0 days 0 hours 7 minutes 42 seconds 153 msec
