                         Program Version 5.0.0 -  RELEASE  -
|  1> !M062X D3Zero RIJCOSX def2-TZVPD def2/J TightSCF xyzfile
|  2>
|  3> *xyzfile 0 1 D3.xyz
|  4>
|  5> %MaxCore 64000
|  6>
|  7> %pal nprocs 4
|  8> end
|  9>
| 10> %scf
| 11>   MaxIter 150
| 12> end
| 13>
| 14>
| 15>                          ****END OF INPUT****

CARTESIAN COORDINATES (ANGSTROEM)
---------------------------------
  C      3.488276    1.600919   -1.522040
  C      4.342970    1.313419   -2.756826
  N      2.810285    0.428783   -1.014196
  H      5.132033    0.604994   -2.484466
  C      3.535896    0.749253   -3.924604
  H      4.841247    2.242136   -3.054083
  H      2.991617   -0.132199   -3.574137
  H      4.225505    0.392784   -4.695962
  C      2.564776    1.750890   -4.544523
  H      1.918749    2.171679   -3.769419
  C      1.686235    1.161657   -5.650111
  H      3.132494    2.594775   -4.951604
  C      0.839616   -0.037582   -5.220473
  H      2.323886    0.866395   -6.490796
  H      1.029518    1.951850   -6.029329
  C     -0.151019    0.254955   -4.094256
  H      1.499442   -0.857141   -4.922958
  H      0.290097   -0.410143   -6.091131
  H      0.328265    0.833022   -3.299125
  C     -0.721843   -0.999513   -3.439309
  H     -0.957367    0.884951   -4.485450
  H     -1.083403   -1.697555   -4.205656
  H     -1.581056   -0.723848   -2.820490
  C      0.287250   -1.711771   -2.527405
  H      1.131780   -2.067380   -3.159396
  H     -0.204137   -2.637326   -2.170480
  F      0.710505   -0.927506   -1.481767
  H      2.714548    2.331455   -1.760302
  H      4.090991    2.063151   -0.733382
  C      3.290978   -0.418021   -0.129083
  N      2.517536   -1.432017    0.239360
  C      4.535490   -0.284410    0.395800
  H      5.043627    0.571888    0.222899
  H      4.723346   -0.733273    1.281800
  H      1.934787    0.102305   -1.403788
  H      1.674638   -1.505616   -0.316095
  H      2.928503   -2.218502    0.725494

 Total Charge           Charge          ....    0
 Multiplicity           Mult            ....    1
 Number of Electrons    NEL             ....  112
 Basis Dimension        Dim             ....  728

ORBITAL ENERGIES
----------------

  NO   OCC          E(Eh)            E(eV)
   0   2.0000     -25.288577      -688.1372
   1   2.0000     -14.726881      -400.7388
   2   2.0000     -14.720901      -400.5761
   3   2.0000     -10.643261      -289.6179
   4   2.0000     -10.567296      -287.5507
   5   2.0000     -10.559988      -287.3519
   6   2.0000     -10.555750      -287.2366
   7   2.0000     -10.545818      -286.9663
   8   2.0000     -10.539515      -286.7948
   9   2.0000     -10.534605      -286.6612
  10   2.0000     -10.529046      -286.5099
  11   2.0000     -10.525421      -286.4113
  12   2.0000     -10.520102      -286.2665
  13   2.0000     -10.429942      -283.8131
  14   2.0000      -1.406937       -38.2847
  15   2.0000      -1.070000       -29.1162
  16   2.0000      -0.974718       -26.5234
  17   2.0000      -0.933958       -25.4143
  18   2.0000      -0.902910       -24.5694
  19   2.0000      -0.867289       -23.6001
  20   2.0000      -0.823233       -22.4013
  21   2.0000      -0.787379       -21.4257
  22   2.0000      -0.783049       -21.3078
  23   2.0000      -0.743536       -20.2326
  24   2.0000      -0.707293       -19.2464
  25   2.0000      -0.678611       -18.4660
  26   2.0000      -0.658589       -17.9211
  27   2.0000      -0.648499       -17.6466
  28   2.0000      -0.640641       -17.4327
  29   2.0000      -0.608496       -16.5580
  30   2.0000      -0.601876       -16.3779
  31   2.0000      -0.587217       -15.9790
  32   2.0000      -0.568760       -15.4767
  33   2.0000      -0.551169       -14.9981
  34   2.0000      -0.537478       -14.6255
  35   2.0000      -0.525560       -14.3012
  36   2.0000      -0.508964       -13.8496
  37   2.0000      -0.507169       -13.8008
  38   2.0000      -0.499311       -13.5870
  39   2.0000      -0.477514       -12.9938
  40   2.0000      -0.470871       -12.8130
  41   2.0000      -0.452052       -12.3010
  42   2.0000      -0.446405       -12.1473
  43   2.0000      -0.437601       -11.9077
  44   2.0000      -0.435889       -11.8611
  45   2.0000      -0.424297       -11.5457
  46   2.0000      -0.416606       -11.3364
  47   2.0000      -0.413135       -11.2420
  48   2.0000      -0.402085       -10.9413
  49   2.0000      -0.398820       -10.8524
  50   2.0000      -0.390311       -10.6209
  51   2.0000      -0.375212       -10.2100
  52   2.0000      -0.374376       -10.1873
  53   2.0000      -0.366483        -9.9725
  54   2.0000      -0.294507        -8.0140
  55   2.0000      -0.200967        -5.4686
  56   0.0000       0.005297         0.1441
  57   0.0000       0.014146         0.3849
  58   0.0000       0.021004         0.5715
  59   0.0000       0.024777         0.6742
  60   0.0000       0.038459         1.0465

MULLIKEN ATOMIC CHARGES
-----------------------
   0 C :   -1.196072
   1 C :   -0.720599
   2 N :   -0.364981
   3 H :    0.353527
   4 C :   -0.144665
   5 H :    0.383389
   6 H :   -0.020586
   7 H :    0.378282
   8 C :   -0.359958
   9 H :    0.194714
  10 C :   -1.171975
  11 H :    0.354872
  12 C :   -0.461782
  13 H :    0.380988
  14 H :    0.381025
  15 C :   -0.227526
  16 H :    0.228125
  17 H :    0.381597
  18 H :    0.143132
  19 C :   -1.030155
  20 H :    0.356371
  21 H :    0.379323
  22 H :    0.400811
  23 C :   -0.312896
  24 H :    0.305090
  25 H :    0.351875
  26 F :   -0.603406
  27 H :    0.317079
  28 H :    0.400043
  29 C :    0.954312
  30 N :   -0.739728
  31 C :   -1.222326
  32 H :    0.212998
  33 H :    0.260166
  34 H :    0.713284
  35 H :    0.507579
  36 H :    0.238071
Sum of atomic charges:    0.0000000

LOEWDIN ATOMIC CHARGES
----------------------
   0 C :   -0.187839
   1 C :   -0.185852
   2 N :    0.028037
   3 H :    0.113595
   4 C :   -0.214291
   5 H :    0.114970
   6 H :    0.094886
   7 H :    0.120403
   8 C :   -0.221441
   9 H :    0.095409
  10 C :   -0.212644
  11 H :    0.118659
  12 C :   -0.221769
  13 H :    0.113577
  14 H :    0.113090
  15 C :   -0.212046
  16 H :    0.095415
  17 H :    0.116951
  18 H :    0.102236
  19 C :   -0.178940
  20 H :    0.122111
  21 H :    0.125425
  22 H :    0.116114
  23 C :   -0.186353
  24 H :    0.128773
  25 H :    0.128893
  26 F :   -0.084152
  27 H :    0.111781
  28 H :    0.116926
  29 C :   -0.554355
  30 N :    0.116157
  31 C :    0.002581
  32 H :   -0.014232
  33 H :   -0.000512
  34 H :    0.095242
  35 H :    0.065409
  36 H :    0.117787

  Mayer bond orders larger than 0.100000
B(  0-C ,  1-C ) :   0.7689 B(  0-C ,  2-N ) :   0.9719 B(  0-C , 27-H ) :   0.9440
B(  0-C , 28-H ) :   0.8613 B(  0-C , 29-C ) :  -0.2126 B(  0-C , 31-C ) :   0.2169
B(  0-C , 34-H ) :  -0.3529 B(  1-C ,  2-N ) :   0.1039 B(  1-C ,  3-H ) :   0.9583
B(  1-C ,  4-C ) :   0.7198 B(  1-C ,  5-H ) :   0.9499 B(  1-C ,  8-C ) :   0.1718
B(  2-N , 29-C ) :   0.8321 B(  2-N , 34-H ) :   0.5404 B(  4-C ,  6-H ) :   1.1863
B(  4-C ,  7-H ) :   0.8882 B(  4-C ,  8-C ) :   0.2814 B(  4-C ,  9-H ) :  -0.1691
B(  4-C , 10-C ) :   0.1640 B(  6-H ,  8-C ) :  -0.1640 B(  8-C ,  9-H ) :   1.1066
B(  8-C , 10-C ) :   0.6106 B(  8-C , 11-H ) :   0.9120 B( 10-C , 12-C ) :   0.6764
B( 10-C , 13-H ) :   0.9729 B( 10-C , 14-H ) :   0.9591 B( 10-C , 15-C ) :   0.1843
B( 12-C , 15-C ) :   0.2667 B( 12-C , 16-H ) :   1.0655 B( 12-C , 17-H ) :   0.8963
B( 12-C , 18-H ) :  -0.1169 B( 12-C , 19-C ) :   0.2028 B( 15-C , 16-H ) :  -0.1694
B( 15-C , 18-H ) :   1.0720 B( 15-C , 19-C ) :   0.6460 B( 15-C , 20-H ) :   0.9079
B( 19-C , 21-H ) :   0.9438 B( 19-C , 22-H ) :   0.9160 B( 19-C , 23-C ) :   0.7783
B( 19-C , 26-F ) :   0.2004 B( 23-C , 24-H ) :   0.9982 B( 23-C , 25-H ) :   0.9046
B( 23-C , 26-F ) :   0.5352 B( 26-F , 34-H ) :  -0.1809 B( 29-C , 30-N ) :   0.8974
B( 29-C , 31-C ) :   1.1120 B( 29-C , 33-H ) :  -0.1708 B( 30-N , 31-C ) :   0.1076
B( 30-N , 35-H ) :   0.6729 B( 30-N , 36-H ) :   0.9888 B( 31-C , 32-H ) :   1.0842
B( 31-C , 33-H ) :   1.1455

Dispersion correction           -0.002349069
FINAL SINGLE POINT ENERGY      -642.268144094174

DIPOLE MOMENT
-------------
                                X             Y             Z
Electronic contribution:     -3.20438      -4.28499       9.07650
Nuclear contribution   :      1.49917       3.80845     -10.61369
                        -----------------------------------------
Total Dipole Moment    :     -1.70521      -0.47654      -1.53719
                        -----------------------------------------
Magnitude (a.u.)       :      2.34474
Magnitude (Debye)      :      5.95984

Rotational constants in cm-1:     0.026547     0.016542     0.011018
Rotational constants in MHz :   795.873737   495.912559   330.323979

                             ****ORCA TERMINATED NORMALLY****
TOTAL RUN TIME: 0 days 0 hours 7 minutes 39 seconds 441 msec
