                         Program Version 5.0.0 -  RELEASE  -
|  1> !wB97X-D3 RIJCOSX def2-TZVP def2/J TightSCF
|  2> *xyz -1 1
|  3> C         -0.95121        1.33498       -0.97250
|  4> C         -0.77455        2.78833       -0.54394
|  5> H         -1.35261        3.45937       -1.19259
|  6> H         -1.17101        2.90233        0.46997
|  7> C          0.69721        3.22791       -0.52513
|  8> O          1.48929        2.37470        0.19919
|  9> H          0.71600        4.26403       -0.13077
| 10> H          1.03615        3.33092       -1.58367
| 11> H         -0.56808        1.20618       -1.96322
| 12> H         -1.99081        1.08225       -0.95647
| 13> H         -0.41866        0.69710       -0.29841
| 14> *
| 15>
| 16> %MaxCore 64000
| 17> %pal nprocs 18
| 18> end
| 19>
| 20> %scf
| 21>   MaxIter 150
| 22> end
| 23>
| 24>
| 25>                          ****END OF INPUT****

CARTESIAN COORDINATES (ANGSTROEM)
---------------------------------
  C     -0.951210    1.334980   -0.972500
  C     -0.774550    2.788330   -0.543940
  H     -1.352610    3.459370   -1.192590
  H     -1.171010    2.902330    0.469970
  C      0.697210    3.227910   -0.525130
  O      1.489290    2.374700    0.199190
  H      0.716000    4.264030   -0.130770
  H      1.036150    3.330920   -1.583670
  H     -0.568080    1.206180   -1.963220
  H     -1.990810    1.082250   -0.956470
  H     -0.418660    0.697100   -0.298410

 Total Charge           Charge          ....   -1
 Multiplicity           Mult            ....    1
 Number of Electrons    NEL             ....   34
 Basis Dimension        Dim             ....  166

ORBITAL ENERGIES
----------------

  NO   OCC          E(Eh)            E(eV)
   0   2.0000     -18.877475      -513.6822
   1   2.0000     -10.083049      -274.3737
   2   2.0000     -10.081646      -274.3355
   3   2.0000     -10.076693      -274.2008
   4   2.0000      -0.786609       -21.4047
   5   2.0000      -0.692171       -18.8349
   6   2.0000      -0.574613       -15.6360
   7   2.0000      -0.465855       -12.6766
   8   2.0000      -0.371089       -10.0979
   9   2.0000      -0.360601        -9.8124
  10   2.0000      -0.308056        -8.3826
  11   2.0000      -0.278756        -7.5853
  12   2.0000      -0.248332        -6.7575
  13   2.0000      -0.237686        -6.4678
  14   2.0000      -0.195449        -5.3184
  15   2.0000      -0.052409        -1.4261
  16   2.0000      -0.049433        -1.3451
  17   0.0000       0.276008         7.5106
  18   0.0000       0.308159         8.3854
  19   0.0000       0.322444         8.7742
  20   0.0000       0.342449         9.3185
  21   0.0000       0.350150         9.5281

MULLIKEN ATOMIC CHARGES
-----------------------
   0 C :   -0.276683
   1 C :   -0.047684
   2 H :   -0.023561
   3 H :    0.013357
   4 C :    0.087018
   5 O :   -0.793903
   6 H :   -0.067221
   7 H :   -0.081446
   8 H :    0.053180
   9 H :    0.039002
  10 H :    0.097940
Sum of atomic charges:   -1.0000000

LOEWDIN ATOMIC CHARGES
----------------------
   0 C :   -0.335782
   1 C :   -0.332278
   2 H :    0.095855
   3 H :    0.109028
   4 C :   -0.523434
   5 O :   -0.430703
   6 H :    0.060449
   7 H :    0.056057
   8 H :    0.100752
   9 H :    0.087917
  10 H :    0.112138

  Mayer bond orders larger than 0.100000
B(  0-C ,  1-C ) :   0.9784 B(  0-C ,  8-H ) :   0.9771 B(  0-C ,  9-H ) :   0.9773
B(  0-C , 10-H ) :   0.9685 B(  1-C ,  2-H ) :   0.9457 B(  1-C ,  3-H ) :   0.9688
B(  1-C ,  4-C ) :   0.9383 B(  1-C ,  5-O ) :  -0.1293 B(  4-C ,  5-O ) :   1.5467
B(  4-C ,  6-H ) :   0.9310 B(  4-C ,  7-H ) :   0.9172

Dispersion correction           -0.001936047
FINAL SINGLE POINT ENERGY      -193.752831869587

DIPOLE MOMENT
-------------
                                X             Y             Z
Electronic contribution:      2.61025      -0.02888       1.53909
Nuclear contribution   :     -4.35230      -0.04018      -2.29108
                        -----------------------------------------
Total Dipole Moment    :     -1.74205      -0.06907      -0.75199
                        -----------------------------------------
Magnitude (a.u.)       :      1.89868
Magnitude (Debye)      :      4.82607

Rotational constants in cm-1:     0.489965     0.184028     0.151025
Rotational constants in MHz : 14688.769521  5517.006179  4527.605157

                             ****ORCA TERMINATED NORMALLY****
TOTAL RUN TIME: 0 days 0 hours 0 minutes 10 seconds 385 msec
