                         Program Version 5.0.0 -  RELEASE  -
|  1> !wB97X-D3 RIJCOSX def2-TZVP def2/J TightSCF
|  2> *xyz 1 1
|  3> C          3.95643        0.50147       -0.37910
|  4> H          3.16840        0.02920        0.20738
|  5> N          3.80389        1.96157       -0.15675
|  6> C          3.84232        0.14849       -1.85406
|  7> H          4.92323        0.17798        0.00937
|  8> H          4.62002        0.69450       -2.40215
|  9> H          4.09601       -0.91093       -1.95510
| 10> C          2.47562        0.41271       -2.48538
| 11> H          4.20643        2.24441        0.74536
| 12> H          2.80827        2.21132       -0.09610
| 13> H          4.28076        2.50155       -0.89104
| 14> H          2.49958        0.13290       -3.51787
| 15> H          2.23992        1.45318       -2.40319
| 16> H          1.73061       -0.16300       -1.97702
| 17> *
| 18>
| 19> %MaxCore 64000
| 20> %pal nprocs 18
| 21> end
| 22>
| 23> %scf
| 24>   MaxIter 150
| 25> end
| 26>
| 27>
| 28>                          ****END OF INPUT****

CARTESIAN COORDINATES (ANGSTROEM)
---------------------------------
  C      3.956430    0.501470   -0.379100
  H      3.168400    0.029200    0.207380
  N      3.803890    1.961570   -0.156750
  C      3.842320    0.148490   -1.854060
  H      4.923230    0.177980    0.009370
  H      4.620020    0.694500   -2.402150
  H      4.096010   -0.910930   -1.955100
  C      2.475620    0.412710   -2.485380
  H      4.206430    2.244410    0.745360
  H      2.808270    2.211320   -0.096100
  H      4.280760    2.501550   -0.891040
  H      2.499580    0.132900   -3.517870
  H      2.239920    1.453180   -2.403190
  H      1.730610   -0.163000   -1.977020

 Total Charge           Charge          ....    1
 Multiplicity           Mult            ....    1
 Number of Electrons    NEL             ....   34
 Basis Dimension        Dim             ....  184

ORBITAL ENERGIES
----------------

  NO   OCC          E(Eh)            E(eV)
   0   2.0000     -14.753231      -401.4558
   1   2.0000     -10.521579      -286.3067
   2   2.0000     -10.452530      -284.4278
   3   2.0000     -10.416575      -283.4494
   4   2.0000      -1.329715       -36.1834
   5   2.0000      -1.089673       -29.6515
   6   2.0000      -0.996187       -27.1076
   7   2.0000      -0.912859       -24.8402
   8   2.0000      -0.891444       -24.2574
   9   2.0000      -0.875956       -23.8360
  10   2.0000      -0.789122       -21.4731
  11   2.0000      -0.730776       -19.8854
  12   2.0000      -0.706765       -19.2321
  13   2.0000      -0.683056       -18.5869
  14   2.0000      -0.619018       -16.8443
  15   2.0000      -0.613508       -16.6944
  16   2.0000      -0.606559       -16.5053
  17   0.0000      -0.104811        -2.8521
  18   0.0000      -0.047367        -1.2889
  19   0.0000      -0.043634        -1.1874
  20   0.0000      -0.024022        -0.6537
  21   0.0000       0.006631         0.1804

MULLIKEN ATOMIC CHARGES
-----------------------
   0 C :   -0.210159
   1 H :    0.197600
   2 N :   -0.326064
   3 C :   -0.260658
   4 H :    0.200783
   5 H :    0.148923
   6 H :    0.168436
   7 C :   -0.355434
   8 H :    0.341053
   9 H :    0.343645
  10 H :    0.335618
  11 H :    0.174442
  12 H :    0.094763
  13 H :    0.147051
Sum of atomic charges:    1.0000000

LOEWDIN ATOMIC CHARGES
----------------------
   0 C :   -0.260354
   1 H :    0.153258
   2 N :    0.170504
   3 C :   -0.290886
   4 H :    0.155004
   5 H :    0.146373
   6 H :    0.162925
   7 C :   -0.286372
   8 H :    0.223975
   9 H :    0.225065
  10 H :    0.224301
  11 H :    0.137956
  12 H :    0.110311
  13 H :    0.127940

  Mayer bond orders larger than 0.100000
B(  0-C ,  1-H ) :   0.9631 B(  0-C ,  2-N ) :   0.8517 B(  0-C ,  3-C ) :   0.9790
B(  0-C ,  4-H ) :   0.9553 B(  2-N ,  8-H ) :   0.8750 B(  2-N ,  9-H ) :   0.8733
B(  2-N , 10-H ) :   0.8672 B(  3-C ,  5-H ) :   0.9674 B(  3-C ,  6-H ) :   0.9539
B(  3-C ,  7-C ) :   0.9562 B(  7-C , 11-H ) :   0.9677 B(  7-C , 12-H ) :   0.9808
B(  7-C , 13-H ) :   0.9634

Dispersion correction           -0.002857464
FINAL SINGLE POINT ENERGY      -174.869476842119

DIPOLE MOMENT
-------------
                                X             Y             Z
Electronic contribution:      1.02315       1.18266       1.84617
Nuclear contribution   :     -0.57302       0.26376      -0.39709
                        -----------------------------------------
Total Dipole Moment    :      0.45013       1.44642       1.44908
                        -----------------------------------------
Magnitude (a.u.)       :      2.09633
Magnitude (Debye)      :      5.32844

Rotational constants in cm-1:     0.449370     0.157244     0.134525
Rotational constants in MHz : 13471.775278  4714.062641  4032.958796

                             ****ORCA TERMINATED NORMALLY****
TOTAL RUN TIME: 0 days 0 hours 0 minutes 9 seconds 343 msec
