                         Program Version 5.0.0 -  RELEASE  -
|  1> !wB97X-D3 RIJCOSX def2-TZVP def2/J TightSCF xyzfile
|  2>
|  3> *xyzfile 0 1 B.xyz
|  4>
|  5> %MaxCore 64000
|  6>
|  7> %pal nprocs 18
|  8> end
|  9>
| 10> %scf
| 11>   MaxIter 150
| 12> end
| 13>
| 14>
| 15>                          ****END OF INPUT****

CARTESIAN COORDINATES (ANGSTROEM)
---------------------------------
  C      3.956426    0.501466   -0.379100
  H      3.168398    0.029201    0.207383
  N      3.803893    1.961572   -0.156747
  C      3.842322    0.148490   -1.854058
  H      4.923231    0.177982    0.009371
  H      4.620021    0.694502   -2.402150
  H      4.096015   -0.910930   -1.955103
  C      2.475619    0.412708   -2.485377
  H      2.174689    1.445076   -2.287971
  C      1.383931   -0.532740   -1.995203
  H      2.575613    0.318574   -3.571460
  H      1.264698   -0.412309   -0.915491
  H      1.705223   -1.566885   -2.164984
  C      0.031398   -0.317260   -2.677791
  C     -0.587292    1.060853   -2.436460
  H     -0.662815   -1.089530   -2.329985
  H      0.149465   -0.478040   -3.755648
  H      0.104376    1.828590   -2.793130
  C     -0.951213    1.334978   -0.972500
  H     -1.478832    1.161355   -3.062484
  H     -0.317007    0.741648   -0.311389
  H     -1.980916    1.012842   -0.788958
  C     -0.774550    2.788332   -0.543943
  H     -1.352609    3.459372   -1.192585
  H     -1.171014    2.902331    0.469968
  C      0.697208    3.227911   -0.525126
  O      1.489294    2.374703    0.199189
  H      0.715998    4.264030   -0.130774
  H      1.036148    3.330920   -1.583669
  H      4.206425    2.244406    0.745359
  H      2.808269    2.211323   -0.096097
  H      4.280757    2.501552   -0.891037

 Total Charge           Charge          ....    0
 Multiplicity           Mult            ....    1
 Number of Electrons    NEL             ....   90
 Basis Dimension        Dim             ....  467

ORBITAL ENERGIES
----------------

  NO   OCC          E(Eh)            E(eV)
   0   2.0000     -19.093229      -519.5532
   1   2.0000     -14.503299      -394.6548
   2   2.0000     -10.342650      -281.4378
   3   2.0000     -10.298164      -280.2273
   4   2.0000     -10.271849      -279.5112
   5   2.0000     -10.259358      -279.1713
   6   2.0000     -10.254770      -279.0465
   7   2.0000     -10.253677      -279.0167
   8   2.0000     -10.240933      -278.6700
   9   2.0000     -10.227405      -278.3018
  10   2.0000     -10.219883      -278.0972
  11   2.0000      -1.106930       -30.1211
  12   2.0000      -1.001575       -27.2542
  13   2.0000      -0.935161       -25.4470
  14   2.0000      -0.895108       -24.3571
  15   2.0000      -0.855828       -23.2883
  16   2.0000      -0.811869       -22.0921
  17   2.0000      -0.772910       -21.0319
  18   2.0000      -0.732043       -19.9199
  19   2.0000      -0.704085       -19.1591
  20   2.0000      -0.675441       -18.3797
  21   2.0000      -0.671578       -18.2746
  22   2.0000      -0.654150       -17.8003
  23   2.0000      -0.615343       -16.7443
  24   2.0000      -0.592672       -16.1274
  25   2.0000      -0.569205       -15.4889
  26   2.0000      -0.567549       -15.4438
  27   2.0000      -0.536960       -14.6114
  28   2.0000      -0.521520       -14.1913
  29   2.0000      -0.516772       -14.0621
  30   2.0000      -0.497831       -13.5467
  31   2.0000      -0.487565       -13.2673
  32   2.0000      -0.476956       -12.9786
  33   2.0000      -0.458542       -12.4776
  34   2.0000      -0.449717       -12.2374
  35   2.0000      -0.437308       -11.8998
  36   2.0000      -0.429194       -11.6790
  37   2.0000      -0.417616       -11.3639
  38   2.0000      -0.406345       -11.0572
  39   2.0000      -0.400896       -10.9089
  40   2.0000      -0.380076       -10.3424
  41   2.0000      -0.373956       -10.1758
  42   2.0000      -0.370128       -10.0717
  43   2.0000      -0.270628        -7.3642
  44   2.0000      -0.263880        -7.1805
  45   0.0000       0.074453         2.0260
  46   0.0000       0.114980         3.1288
  47   0.0000       0.120137         3.2691
  48   0.0000       0.133298         3.6272
  49   0.0000       0.145854         3.9689

MULLIKEN ATOMIC CHARGES
-----------------------
   0 C :   -0.176052
   1 H :    0.174431
   2 N :   -0.298720
   3 C :   -0.230834
   4 H :    0.136390
   5 H :    0.123543
   6 H :    0.118505
   7 C :   -0.202207
   8 H :    0.098000
   9 C :   -0.215369
  10 H :    0.105940
  11 H :    0.112916
  12 H :    0.092230
  13 C :   -0.166913
  14 C :   -0.229287
  15 H :    0.098579
  16 H :    0.092665
  17 H :    0.097515
  18 C :   -0.137407
  19 H :    0.094553
  20 H :    0.086377
  21 H :    0.084014
  22 C :   -0.125734
  23 H :    0.063808
  24 H :    0.074645
  25 C :   -0.001249
  26 O :   -0.737952
  27 H :    0.035299
  28 H :    0.005942
  29 H :    0.278085
  30 H :    0.282190
  31 H :    0.266097
Sum of atomic charges:    0.0000000

LOEWDIN ATOMIC CHARGES
----------------------
   0 C :   -0.275150
   1 H :    0.147246
   2 N :    0.141058
   3 C :   -0.274533
   4 H :    0.129628
   5 H :    0.135055
   6 H :    0.146552
   7 C :   -0.265839
   8 H :    0.139775
   9 C :   -0.269711
  10 H :    0.137642
  11 H :    0.136033
  12 H :    0.131672
  13 C :   -0.268954
  14 C :   -0.264371
  15 H :    0.135680
  16 H :    0.131377
  17 H :    0.130571
  18 C :   -0.271620
  19 H :    0.130561
  20 H :    0.136809
  21 H :    0.126453
  22 C :   -0.283762
  23 H :    0.124717
  24 H :    0.129881
  25 C :   -0.473179
  26 O :   -0.286155
  27 H :    0.094854
  28 H :    0.079501
  29 H :    0.195066
  30 H :    0.083401
  31 H :    0.189740

  Mayer bond orders larger than 0.100000
B(  0-C ,  1-H ) :   0.9749 B(  0-C ,  2-N ) :   0.8802 B(  0-C ,  3-C ) :   0.9829
B(  0-C ,  4-H ) :   0.9724 B(  2-N , 29-H ) :   0.9067 B(  2-N , 30-H ) :   0.6436
B(  2-N , 31-H ) :   0.9014 B(  3-C ,  5-H ) :   0.9900 B(  3-C ,  6-H ) :   0.9734
B(  3-C ,  7-C ) :   0.9600 B(  7-C ,  8-H ) :   0.9853 B(  7-C ,  9-C ) :   0.9395
B(  7-C , 10-H ) :   0.9707 B(  9-C , 11-H ) :   0.9795 B(  9-C , 12-H ) :   0.9682
B(  9-C , 13-C ) :   0.9949 B( 13-C , 14-C ) :   0.9599 B( 13-C , 15-H ) :   0.9752
B( 13-C , 16-H ) :   0.9847 B( 14-C , 17-H ) :   0.9985 B( 14-C , 18-C ) :   0.9417
B( 14-C , 19-H ) :   0.9701 B( 18-C , 20-H ) :   0.9699 B( 18-C , 21-H ) :   0.9696
B( 18-C , 22-C ) :   0.9886 B( 22-C , 23-H ) :   0.9695 B( 22-C , 24-H ) :   0.9649
B( 22-C , 25-C ) :   0.9730 B( 25-C , 26-O ) :   1.1852 B( 25-C , 27-H ) :   0.9680
B( 25-C , 28-H ) :   0.9608 B( 26-O , 30-H ) :   0.4142

Dispersion correction           -0.014836133
FINAL SINGLE POINT ENERGY      -485.597087143228

DIPOLE MOMENT
-------------
                                X             Y             Z
Electronic contribution:      2.16834       0.90640       2.58922
Nuclear contribution   :      0.61785      -1.47632      -2.91844
                        -----------------------------------------
Total Dipole Moment    :      2.78619      -0.56992      -0.32922
                        -----------------------------------------
Magnitude (a.u.)       :      2.86287
Magnitude (Debye)      :      7.27685

Rotational constants in cm-1:     0.040993     0.027400     0.018162
Rotational constants in MHz :  1228.944366   821.418004   544.476857

                             ****ORCA TERMINATED NORMALLY****
TOTAL RUN TIME: 0 days 0 hours 1 minutes 8 seconds 403 msec
