                         Program Version 5.0.0 -  RELEASE  -
|  1> !wB97X-D3 RIJCOSX def2-TZVP def2/J TightSCF
|  2> *xyz 0 1
|  3> C         -0.95121        1.33498       -0.97250
|  4> C         -0.77455        2.78833       -0.54394
|  5> H         -1.35261        3.45937       -1.19259
|  6> H         -1.17101        2.90233        0.46997
|  7> C          0.69721        3.22791       -0.52513
|  8> F          1.48929        2.37470        0.19919
|  9> H          0.71600        4.26403       -0.13077
| 10> H          1.03615        3.33092       -1.58367
| 11> H         -0.56808        1.20618       -1.96322
| 12> H         -1.99081        1.08225       -0.95647
| 13> H         -0.41866        0.69710       -0.29841
| 14> *
| 15>
| 16> %MaxCore 64000
| 17> %pal nprocs 18
| 18> end
| 19>
| 20> %scf
| 21>   MaxIter 150
| 22> end
| 23>
| 24>
| 25>                          ****END OF INPUT****

CARTESIAN COORDINATES (ANGSTROEM)
---------------------------------
  C     -0.951210    1.334980   -0.972500
  C     -0.774550    2.788330   -0.543940
  H     -1.352610    3.459370   -1.192590
  H     -1.171010    2.902330    0.469970
  C      0.697210    3.227910   -0.525130
  F      1.489290    2.374700    0.199190
  H      0.716000    4.264030   -0.130770
  H      1.036150    3.330920   -1.583670
  H     -0.568080    1.206180   -1.963220
  H     -1.990810    1.082250   -0.956470
  H     -0.418660    0.697100   -0.298410

 Total Charge           Charge          ....    0
 Multiplicity           Mult            ....    1
 Number of Electrons    NEL             ....   34
 Basis Dimension        Dim             ....  166

ORBITAL ENERGIES
----------------

  NO   OCC          E(Eh)            E(eV)
   0   2.0000     -24.769862      -674.0222
   1   2.0000     -10.351033      -281.6659
   2   2.0000     -10.279144      -279.7097
   3   2.0000     -10.257360      -279.1170
   4   2.0000      -1.312804       -35.7232
   5   2.0000      -0.905761       -24.6470
   6   2.0000      -0.803529       -21.8651
   7   2.0000      -0.705001       -19.1841
   8   2.0000      -0.610415       -16.6102
   9   2.0000      -0.595078       -16.1929
  10   2.0000      -0.571324       -15.5465
  11   2.0000      -0.535196       -14.5634
  12   2.0000      -0.496259       -13.5039
  13   2.0000      -0.470636       -12.8067
  14   2.0000      -0.448834       -12.2134
  15   2.0000      -0.419051       -11.4030
  16   2.0000      -0.417460       -11.3597
  17   0.0000       0.118907         3.2356
  18   0.0000       0.152306         4.1445
  19   0.0000       0.163294         4.4435
  20   0.0000       0.177435         4.8282
  21   0.0000       0.186210         5.0670

MULLIKEN ATOMIC CHARGES
-----------------------
   0 C :   -0.330193
   1 C :   -0.195515
   2 H :    0.099586
   3 H :    0.098963
   4 C :    0.039680
   5 F :   -0.238121
   6 H :    0.095759
   7 H :    0.087017
   8 H :    0.100740
   9 H :    0.114829
  10 H :    0.127252
Sum of atomic charges:   -0.0000000

LOEWDIN ATOMIC CHARGES
----------------------
   0 C :   -0.305627
   1 C :   -0.304430
   2 H :    0.137388
   3 H :    0.134117
   4 C :   -0.346161
   5 F :    0.096300
   6 H :    0.119361
   7 H :    0.119031
   8 H :    0.114906
   9 H :    0.115539
  10 H :    0.119577

  Mayer bond orders larger than 0.100000
B(  0-C ,  1-C ) :   0.9799 B(  0-C ,  8-H ) :   0.9757 B(  0-C ,  9-H ) :   0.9792
B(  0-C , 10-H ) :   0.9767 B(  1-C ,  2-H ) :   0.9594 B(  1-C ,  3-H ) :   0.9723
B(  1-C ,  4-C ) :   0.9974 B(  4-C ,  5-F ) :   0.9835 B(  4-C ,  6-H ) :   0.9746
B(  4-C ,  7-H ) :   0.9699

Dispersion correction           -0.001927792
FINAL SINGLE POINT ENERGY      -218.402808462525

DIPOLE MOMENT
-------------
                                X             Y             Z
Electronic contribution:      5.52570       0.34480       2.75637
Nuclear contribution   :     -6.00193       0.02246      -3.08821
                        -----------------------------------------
Total Dipole Moment    :     -0.47623       0.36727      -0.33184
                        -----------------------------------------
Magnitude (a.u.)       :      0.68687
Magnitude (Debye)      :      1.74589

Rotational constants in cm-1:     0.475356     0.173608     0.142756
Rotational constants in MHz : 14250.818869  5204.623090  4279.716550

                             ****ORCA TERMINATED NORMALLY****
TOTAL RUN TIME: 0 days 0 hours 0 minutes 7 seconds 751 msec
