                         Program Version 5.0.0 -  RELEASE  -
|  1> !wB97X-D3 RIJCOSX def2-TZVP def2/J TightSCF
|  2> *xyz 0 1
|  3> C          3.95643        0.50147       -0.37910
|  4> H          3.16840        0.02920        0.20738
|  5> C          3.80389        1.96157       -0.15675
|  6> C          3.84232        0.14849       -1.85406
|  7> H          4.92323        0.17798        0.00937
|  8> H          4.62002        0.69450       -2.40215
|  9> H          4.09601       -0.91093       -1.95510
| 10> C          2.47562        0.41271       -2.48538
| 11> H          4.20643        2.24441        0.74536
| 12> H          2.80827        2.21132       -0.09610
| 13> H          4.28076        2.50155       -0.89104
| 14> H          2.49958        0.13290       -3.51787
| 15> H          2.23992        1.45318       -2.40319
| 16> H          1.73061       -0.16300       -1.97702
| 17> *
| 18>
| 19> %MaxCore 64000
| 20> %pal nprocs 18
| 21> end
| 22>
| 23> %scf
| 24>   MaxIter 150
| 25> end
| 26>
| 27>
| 28>                          ****END OF INPUT****

CARTESIAN COORDINATES (ANGSTROEM)
---------------------------------
  C      3.956430    0.501470   -0.379100
  H      3.168400    0.029200    0.207380
  C      3.803890    1.961570   -0.156750
  C      3.842320    0.148490   -1.854060
  H      4.923230    0.177980    0.009370
  H      4.620020    0.694500   -2.402150
  H      4.096010   -0.910930   -1.955100
  C      2.475620    0.412710   -2.485380
  H      4.206430    2.244410    0.745360
  H      2.808270    2.211320   -0.096100
  H      4.280760    2.501550   -0.891040
  H      2.499580    0.132900   -3.517870
  H      2.239920    1.453180   -2.403190
  H      1.730610   -0.163000   -1.977020

 Total Charge           Charge          ....    0
 Multiplicity           Mult            ....    1
 Number of Electrons    NEL             ....   34
 Basis Dimension        Dim             ....  184

ORBITAL ENERGIES
----------------

  NO   OCC          E(Eh)            E(eV)
   0   2.0000     -10.262647      -279.2608
   1   2.0000     -10.257946      -279.1329
   2   2.0000     -10.251558      -278.9591
   3   2.0000     -10.230682      -278.3910
   4   2.0000      -0.919856       -25.0306
   5   2.0000      -0.844075       -22.9684
   6   2.0000      -0.756655       -20.5896
   7   2.0000      -0.675338       -18.3769
   8   2.0000      -0.567200       -15.4343
   9   2.0000      -0.563579       -15.3358
  10   2.0000      -0.525059       -14.2876
  11   2.0000      -0.486481       -13.2378
  12   2.0000      -0.478935       -13.0325
  13   2.0000      -0.457660       -12.4536
  14   2.0000      -0.416251       -11.3268
  15   2.0000      -0.412458       -11.2235
  16   2.0000      -0.410243       -11.1633
  17   0.0000       0.119565         3.2535
  18   0.0000       0.154020         4.1911
  19   0.0000       0.160449         4.3660
  20   0.0000       0.161915         4.4059
  21   0.0000       0.185322         5.0429

MULLIKEN ATOMIC CHARGES
-----------------------
   0 C :   -0.139846
   1 H :    0.084146
   2 C :   -0.362769
   3 C :   -0.189947
   4 H :    0.092615
   5 H :    0.094607
   6 H :    0.091750
   7 C :   -0.342887
   8 H :    0.114132
   9 H :    0.117160
  10 H :    0.105018
  11 H :    0.115978
  12 H :    0.114850
  13 H :    0.105192
Sum of atomic charges:   -0.0000000

LOEWDIN ATOMIC CHARGES
----------------------
   0 C :   -0.300868
   1 H :    0.134262
   2 C :   -0.302882
   3 C :   -0.297342
   4 H :    0.132857
   5 H :    0.132092
   6 H :    0.130821
   7 C :   -0.301779
   8 H :    0.108920
   9 H :    0.109518
  10 H :    0.109683
  11 H :    0.115091
  12 H :    0.114887
  13 H :    0.114740

  Mayer bond orders larger than 0.100000
B(  0-C ,  1-H ) :   0.9801 B(  0-C ,  2-C ) :   0.9489 B(  0-C ,  3-C ) :   0.9819
B(  0-C ,  4-H ) :   0.9776 B(  2-C ,  8-H ) :   0.9854 B(  2-C ,  9-H ) :   0.9862
B(  2-C , 10-H ) :   0.9813 B(  3-C ,  5-H ) :   0.9826 B(  3-C ,  6-H ) :   0.9782
B(  3-C ,  7-C ) :   0.9700 B(  7-C , 11-H ) :   0.9815 B(  7-C , 12-H ) :   0.9813
B(  7-C , 13-H ) :   0.9762

Dispersion correction           -0.002757932
FINAL SINGLE POINT ENERGY      -158.455394411104

DIPOLE MOMENT
-------------
                                X             Y             Z
Electronic contribution:      0.49838      -0.62798       0.09806
Nuclear contribution   :     -0.48267       0.62853      -0.07145
                        -----------------------------------------
Total Dipole Moment    :      0.01571       0.00055       0.02661
                        -----------------------------------------
Magnitude (a.u.)       :      0.03090
Magnitude (Debye)      :      0.07855

Rotational constants in cm-1:     0.457318     0.164089     0.140183
Rotational constants in MHz : 13710.038687  4919.250587  4202.581436

                             ****ORCA TERMINATED NORMALLY****
TOTAL RUN TIME: 0 days 0 hours 0 minutes 9 seconds 121 msec
