                         Program Version 5.0.0 -  RELEASE  -
|  1> !wB97X-D3 RIJCOSX def2-SVPD def2/J TightSCF
|  2> *xyz -1 1
|  3> C         -1.10433        0.25137       -2.86006
|  4> C         -0.71189        0.84252       -4.21834
|  5> H          0.15463        1.49980       -4.13091
|  6> H         -1.53813        1.45922       -4.58267
|  7> C         -0.39762       -0.20587       -5.28802
|  8> O          0.61717       -0.00535       -5.99827
|  9> O         -1.13317       -1.22138       -5.34147
| 10> H         -1.95489       -0.38644       -2.98099
| 11> H         -1.34603        1.04362       -2.18269
| 12> H         -0.28606       -0.31581       -2.46809
| 13> *
| 14>
| 15> %MaxCore 64000
| 16>
| 17> %pal nprocs 18
| 18> end
| 19>
| 20> %scf
| 21>   MaxIter 150
| 22> end
| 23>
| 24>
| 25>                          ****END OF INPUT****

CARTESIAN COORDINATES (ANGSTROEM)
---------------------------------
  C     -1.104330    0.251370   -2.860060
  C     -0.711890    0.842520   -4.218340
  H      0.154630    1.499800   -4.130910
  H     -1.538130    1.459220   -4.582670
  C     -0.397620   -0.205870   -5.288020
  O      0.617170   -0.005350   -5.998270
  O     -1.133170   -1.221380   -5.341470
  H     -1.954890   -0.386440   -2.980990
  H     -1.346030    1.043620   -2.182690
  H     -0.286060   -0.315810   -2.468090

 Total Charge           Charge          ....   -1
 Multiplicity           Mult            ....    1
 Number of Electrons    NEL             ....   40
 Basis Dimension        Dim             ....  146

ORBITAL ENERGIES
----------------

  NO   OCC          E(Eh)            E(eV)
   0   2.0000     -18.981968      -516.5256
   1   2.0000     -18.981166      -516.5038
   2   2.0000     -10.176537      -276.9176
   3   2.0000     -10.126780      -275.5637
   4   2.0000     -10.116412      -275.2816
   5   2.0000      -0.928617       -25.2690
   6   2.0000      -0.832561       -22.6551
   7   2.0000      -0.715453       -19.4685
   8   2.0000      -0.581498       -15.8234
   9   2.0000      -0.422223       -11.4893
  10   2.0000      -0.395462       -10.7611
  11   2.0000      -0.360383        -9.8065
  12   2.0000      -0.331109        -9.0099
  13   2.0000      -0.314551        -8.5594
  14   2.0000      -0.306816        -8.3489
  15   2.0000      -0.276870        -7.5340
  16   2.0000      -0.259350        -7.0573
  17   2.0000      -0.143836        -3.9140
  18   2.0000      -0.137818        -3.7502
  19   2.0000      -0.125473        -3.4143
  20   0.0000       0.222864         6.0644
  21   0.0000       0.257285         7.0011
  22   0.0000       0.266719         7.2578
  23   0.0000       0.288798         7.8586
  24   0.0000       0.315258         8.5786

MULLIKEN ATOMIC CHARGES
-----------------------
   0 C :    0.548990
   1 C :   -0.337579
   2 H :   -0.054272
   3 H :   -0.008604
   4 C :    0.446930
   5 O :   -0.696214
   6 O :   -0.724734
   7 H :   -0.035633
   8 H :   -0.075981
   9 H :   -0.062902
Sum of atomic charges:   -1.0000000

LOEWDIN ATOMIC CHARGES
----------------------
   0 C :    0.094098
   1 C :   -0.042129
   2 H :    0.000491
   3 H :    0.010896
   4 C :   -0.304200
   5 O :   -0.337456
   6 O :   -0.327485
   7 H :   -0.029120
   8 H :   -0.042588
   9 H :   -0.022506

  Mayer bond orders larger than 0.100000
B(  0-C ,  1-C ) :   1.2487 B(  0-C ,  7-H ) :   0.8380 B(  0-C ,  8-H ) :   0.8330
B(  0-C ,  9-H ) :   0.8637 B(  1-C ,  2-H ) :   0.9708 B(  1-C ,  3-H ) :   0.8974
B(  1-C ,  4-C ) :   1.0289 B(  1-C ,  7-H ) :   0.1951 B(  1-C ,  8-H ) :   0.1732
B(  1-C ,  9-H ) :   0.1546 B(  2-H ,  4-C ) :   0.1838 B(  4-C ,  5-O ) :   1.5064
B(  4-C ,  6-O ) :   1.5225

Dispersion correction           -0.001932078
FINAL SINGLE POINT ENERGY      -267.584362884729

DIPOLE MOMENT
-------------
                                X             Y             Z
Electronic contribution:      1.52883      -2.32955      -5.17040
Nuclear contribution   :     -2.09607       3.44215       6.87744
                        -----------------------------------------
Total Dipole Moment    :     -0.56724       1.11260       1.70704
                        -----------------------------------------
Magnitude (a.u.)       :      2.11510
Magnitude (Debye)      :      5.37615

Rotational constants in cm-1:     0.324698     0.133739     0.103466
Rotational constants in MHz :  9734.203431  4009.406827  3101.846422

                             ****ORCA TERMINATED NORMALLY****
TOTAL RUN TIME: 0 days 0 hours 0 minutes 7 seconds 163 msec
