                         Program Version 5.0.0 -  RELEASE  -
|  1> !wB97X-D3 RIJCOSX def2-SVPD def2/J TightSCF
|  2> *xyz 1 1
|  3> C          2.23447       -2.98975       -2.39762
|  4> N          2.75680       -2.94555       -3.76503
|  5> C          1.98721       -2.59045       -4.81898
|  6> N          0.74322       -3.01749       -4.91352
|  7> N          2.49964       -1.84860       -5.80324
|  8> H          3.30978       -1.29282       -5.55895
|  9> H          1.80103       -1.30430       -6.28913
| 10> H          3.71612       -2.62880       -3.82953
| 11> H          0.39583       -3.62775       -4.18502
| 12> H          0.03920       -2.45438       -5.37137
| 13> C          2.19120       -1.61950       -1.71549
| 14> H          2.87278       -3.66637       -1.82801
| 15> H          1.24619       -3.44744       -2.40784
| 16> H          1.56387       -0.96046       -2.27853
| 17> H          3.18033       -1.21449       -1.66568
| 18> H          1.79916       -1.72608       -0.72562
| 19> *
| 20>
| 21> %MaxCore 64000
| 22>
| 23> %pal nprocs 18
| 24> end
| 25>
| 26> %scf
| 27>   MaxIter 150
| 28> end
| 29>
| 30>
| 31>                          ****END OF INPUT****

CARTESIAN COORDINATES (ANGSTROEM)
---------------------------------
  C      2.234470   -2.989750   -2.397620
  N      2.756800   -2.945550   -3.765030
  C      1.987210   -2.590450   -4.818980
  N      0.743220   -3.017490   -4.913520
  N      2.499640   -1.848600   -5.803240
  H      3.309780   -1.292820   -5.558950
  H      1.801030   -1.304300   -6.289130
  H      3.716120   -2.628800   -3.829530
  H      0.395830   -3.627750   -4.185020
  H      0.039200   -2.454380   -5.371370
  C      2.191200   -1.619500   -1.715490
  H      2.872780   -3.666370   -1.828010
  H      1.246190   -3.447440   -2.407840
  H      1.563870   -0.960460   -2.278530
  H      3.180330   -1.214490   -1.665680
  H      1.799160   -1.726080   -0.725620

 Total Charge           Charge          ....    1
 Multiplicity           Mult            ....    1
 Number of Electrons    NEL             ....   48
 Basis Dimension        Dim             ....  200

ORBITAL ENERGIES
----------------

  NO   OCC          E(Eh)            E(eV)
   0   2.0000     -14.669788      -399.1852
   1   2.0000     -14.665560      -399.0702
   2   2.0000     -14.662845      -398.9963
   3   2.0000     -10.636039      -289.4213
   4   2.0000     -10.500663      -285.7376
   5   2.0000     -10.431530      -283.8564
   6   2.0000      -1.334526       -36.3143
   7   2.0000      -1.217570       -33.1318
   8   2.0000      -1.212655       -32.9980
   9   2.0000      -1.040224       -28.3059
  10   2.0000      -0.951290       -25.8859
  11   2.0000      -0.913226       -24.8501
  12   2.0000      -0.893487       -24.3130
  13   2.0000      -0.846862       -23.0443
  14   2.0000      -0.806261       -21.9395
  15   2.0000      -0.787734       -21.4353
  16   2.0000      -0.753736       -20.5102
  17   2.0000      -0.725012       -19.7286
  18   2.0000      -0.704080       -19.1590
  19   2.0000      -0.669796       -18.2261
  20   2.0000      -0.632869       -17.2212
  21   2.0000      -0.612755       -16.6739
  22   2.0000      -0.586667       -15.9640
  23   2.0000      -0.546129       -14.8609
  24   0.0000      -0.116211        -3.1622
  25   0.0000      -0.078743        -2.1427
  26   0.0000      -0.045502        -1.2382
  27   0.0000      -0.032796        -0.8924
  28   0.0000      -0.013291        -0.3617

MULLIKEN ATOMIC CHARGES
-----------------------
   0 C :    0.303899
   1 N :   -0.478418
   2 C :    1.050690
   3 N :   -0.013288
   4 N :   -0.086447
   5 H :    0.037976
   6 H :    0.070407
   7 H :   -0.149189
   8 H :    0.022436
   9 H :    0.004358
  10 C :    0.574741
  11 H :   -0.180461
  12 H :   -0.112588
  13 H :   -0.087763
  14 H :   -0.002174
  15 H :    0.045820
Sum of atomic charges:    1.0000000

LOEWDIN ATOMIC CHARGES
----------------------
   0 C :    0.039516
   1 N :    0.043926
   2 C :   -0.033656
   3 N :    0.277664
   4 N :    0.264144
   5 H :    0.038036
   6 H :    0.037775
   7 H :    0.051996
   8 H :    0.027820
   9 H :    0.050772
  10 C :    0.158071
  11 H :    0.041018
  12 H :    0.016161
  13 H :   -0.013516
  14 H :   -0.005319
  15 H :    0.005592

  Mayer bond orders larger than 0.100000
B(  0-C ,  1-N ) :   0.8413 B(  0-C , 10-C ) :   1.2561 B(  0-C , 11-H ) :   0.9182
B(  0-C , 12-H ) :   0.8827 B(  0-C , 13-H ) :   0.2033 B(  0-C , 14-H ) :   0.1692
B(  0-C , 15-H ) :   0.1665 B(  1-N ,  2-C ) :   1.0454 B(  1-N ,  3-N ) :   0.1072
B(  1-N ,  4-N ) :   0.1427 B(  1-N ,  7-H ) :   1.2255 B(  1-N , 11-H ) :   0.1820
B(  1-N , 12-H ) :   0.1245 B(  2-C ,  3-N ) :   1.0360 B(  2-C ,  4-N ) :   1.0340
B(  2-C ,  7-H ) :  -0.1727 B(  3-N ,  4-N ) :   0.1359 B(  3-N ,  8-H ) :   0.9794
B(  3-N ,  9-H ) :   1.1882 B(  4-N ,  5-H ) :   0.9959 B(  4-N ,  6-H ) :   0.9818
B(  8-H ,  9-H ) :  -0.1499 B( 10-C , 13-H ) :   0.8554 B( 10-C , 14-H ) :   0.8351
B( 10-C , 15-H ) :   0.8221

Dispersion correction           -0.003912956
FINAL SINGLE POINT ENERGY      -284.126018958155

DIPOLE MOMENT
-------------
                                X             Y             Z
Electronic contribution:      0.18023      -1.68039      -5.20210
Nuclear contribution   :     -0.59121       2.30298       4.63196
                        -----------------------------------------
Total Dipole Moment    :     -0.41098       0.62259      -0.57014
                        -----------------------------------------
Magnitude (a.u.)       :      0.93892
Magnitude (Debye)      :      2.38655

Rotational constants in cm-1:     0.205874     0.074757     0.066901
Rotational constants in MHz :  6171.937773  2241.151057  2005.629823

                             ****ORCA TERMINATED NORMALLY****
TOTAL RUN TIME: 0 days 0 hours 0 minutes 11 seconds 886 msec
