                         Program Version 5.0.0 -  RELEASE  -
|  1> !wB97X-D3 RIJCOSX def2-SVPD def2/J TightSCF
|  2> *xyz 0 1
|  3> C         -1.10433        0.25137       -2.86006
|  4> C         -0.71189        0.84252       -4.21834
|  5> H          0.15463        1.49980       -4.13091
|  6> H         -1.53813        1.45922       -4.58267
|  7> C         -0.39762       -0.20587       -5.28802
|  8> F          0.61717       -0.00535       -5.99827
|  9> O         -1.13317       -1.22138       -5.34147
| 10> H         -1.95489       -0.38644       -2.98099
| 11> H         -1.34603        1.04362       -2.18269
| 12> H         -0.28606       -0.31581       -2.46809
| 13> *
| 14>
| 15> %MaxCore 64000
| 16>
| 17> %pal nprocs 18
| 18> end
| 19>
| 20> %scf
| 21>   MaxIter 150
| 22> end
| 23>
| 24>
| 25>                          ****END OF INPUT****

CARTESIAN COORDINATES (ANGSTROEM)
---------------------------------
  C     -1.104330    0.251370   -2.860060
  C     -0.711890    0.842520   -4.218340
  H      0.154630    1.499800   -4.130910
  H     -1.538130    1.459220   -4.582670
  C     -0.397620   -0.205870   -5.288020
  F      0.617170   -0.005350   -5.998270
  O     -1.133170   -1.221380   -5.341470
  H     -1.954890   -0.386440   -2.980990
  H     -1.346030    1.043620   -2.182690
  H     -0.286060   -0.315810   -2.468090

 Total Charge           Charge          ....    0
 Multiplicity           Mult            ....    1
 Number of Electrons    NEL             ....   40
 Basis Dimension        Dim             ....  146

ORBITAL ENERGIES
----------------

  NO   OCC          E(Eh)            E(eV)
   0   2.0000     -24.875938      -676.9087
   1   2.0000     -19.256142      -523.9863
   2   2.0000     -10.476346      -285.0759
   3   2.0000     -10.324962      -280.9565
   4   2.0000     -10.294219      -280.1199
   5   2.0000      -1.426293       -38.8114
   6   2.0000      -1.143407       -31.1137
   7   2.0000      -0.912169       -24.8214
   8   2.0000      -0.801034       -21.7972
   9   2.0000      -0.747153       -20.3311
  10   2.0000      -0.660239       -17.9660
  11   2.0000      -0.644888       -17.5483
  12   2.0000      -0.613707       -16.6998
  13   2.0000      -0.569069       -15.4852
  14   2.0000      -0.537111       -14.6155
  15   2.0000      -0.496585       -13.5128
  16   2.0000      -0.476304       -12.9609
  17   2.0000      -0.473152       -12.8751
  18   2.0000      -0.447439       -12.1754
  19   2.0000      -0.394846       -10.7443
  20   0.0000       0.050824         1.3830
  21   0.0000       0.084928         2.3110
  22   0.0000       0.114033         3.1030
  23   0.0000       0.126011         3.4289
  24   0.0000       0.147804         4.0220

MULLIKEN ATOMIC CHARGES
-----------------------
   0 C :    0.517470
   1 C :   -0.445810
   2 H :    0.013776
   3 H :    0.087429
   4 C :    0.768403
   5 F :   -0.374368
   6 O :   -0.508857
   7 H :   -0.005995
   8 H :   -0.023054
   9 H :   -0.028993
Sum of atomic charges:   -0.0000000

LOEWDIN ATOMIC CHARGES
----------------------
   0 C :    0.136863
   1 C :    0.000802
   2 H :    0.024027
   3 H :    0.041613
   4 C :    0.002293
   5 F :   -0.038950
   6 O :   -0.138652
   7 H :   -0.009489
   8 H :   -0.011650
   9 H :   -0.006856

  Mayer bond orders larger than 0.100000
B(  0-C ,  1-C ) :   1.3027 B(  0-C ,  7-H ) :   0.8444 B(  0-C ,  8-H ) :   0.8456
B(  0-C ,  9-H ) :   0.8685 B(  1-C ,  2-H ) :   0.9598 B(  1-C ,  3-H ) :   0.8852
B(  1-C ,  4-C ) :   1.0913 B(  1-C ,  7-H ) :   0.1734 B(  1-C ,  8-H ) :   0.1604
B(  1-C ,  9-H ) :   0.1470 B(  2-H ,  4-C ) :   0.1031 B(  4-C ,  5-F ) :   0.7544
B(  4-C ,  6-O ) :   1.8416

Dispersion correction           -0.001898312
FINAL SINGLE POINT ENERGY      -292.116619981639

DIPOLE MOMENT
-------------
                                X             Y             Z
Electronic contribution:      3.60953      -2.33349      -7.69693
Nuclear contribution   :     -3.36368       3.36392       8.24820
                        -----------------------------------------
Total Dipole Moment    :      0.24585       1.03043       0.55126
                        -----------------------------------------
Magnitude (a.u.)       :      1.19420
Magnitude (Debye)      :      3.03541

Rotational constants in cm-1:     0.315013     0.126712     0.098430
Rotational constants in MHz :  9443.861322  3798.734540  2950.846388

                             ****ORCA TERMINATED NORMALLY****
TOTAL RUN TIME: 0 days 0 hours 0 minutes 7 seconds 928 msec
