                         Program Version 5.0.0 -  RELEASE  -
|  1> !wB97X-D3 RIJCOSX def2-SVPD def2/J TightSCF
|  2> *xyz 0 1
|  3> C          2.23447       -2.98975       -2.39762
|  4> C          2.75680       -2.94555       -3.76503
|  5> C          1.98721       -2.59045       -4.81898
|  6> N          0.74322       -3.01749       -4.91352
|  7> N          2.49964       -1.84860       -5.80324
|  8> H          3.30978       -1.29282       -5.55895
|  9> H          1.80103       -1.30430       -6.28913
| 10> H          3.71612       -2.62880       -3.82953
| 11> H          0.39583       -3.62775       -4.18502
| 12> H          0.03920       -2.45438       -5.37137
| 13> C          2.19120       -1.61950       -1.71549
| 14> H          2.87278       -3.66637       -1.82801
| 15> H          1.24619       -3.44744       -2.40784
| 16> H          1.56387       -0.96046       -2.27853
| 17> H          3.18033       -1.21449       -1.66568
| 18> H          1.79916       -1.72608       -0.72562
| 19> *
| 20>
| 21> %MaxCore 64000
| 22>
| 23> %pal nprocs 18
| 24> end
| 25>
| 26> %scf
| 27>   MaxIter 150
| 28> end
| 29>
| 30>
| 31>                          ****END OF INPUT****

CARTESIAN COORDINATES (ANGSTROEM)
---------------------------------
  C      2.234470   -2.989750   -2.397620
  C      2.756800   -2.945550   -3.765030
  C      1.987210   -2.590450   -4.818980
  N      0.743220   -3.017490   -4.913520
  N      2.499640   -1.848600   -5.803240
  H      3.309780   -1.292820   -5.558950
  H      1.801030   -1.304300   -6.289130
  H      3.716120   -2.628800   -3.829530
  H      0.395830   -3.627750   -4.185020
  H      0.039200   -2.454380   -5.371370
  C      2.191200   -1.619500   -1.715490
  H      2.872780   -3.666370   -1.828010
  H      1.246190   -3.447440   -2.407840
  H      1.563870   -0.960460   -2.278530
  H      3.180330   -1.214490   -1.665680
  H      1.799160   -1.726080   -0.725620

 Total Charge           Charge          ....    0
 Multiplicity           Mult            ....    1
 Number of Electrons    NEL             ....   48
 Basis Dimension        Dim             ....  200

ORBITAL ENERGIES
----------------

  NO   OCC          E(Eh)            E(eV)
   0   2.0000     -14.445230      -393.0747
   1   2.0000     -14.440603      -392.9488
   2   2.0000     -10.341412      -281.4041
   3   2.0000     -10.267915      -279.4042
   4   2.0000     -10.259158      -279.1659
   5   2.0000     -10.214432      -277.9488
   6   2.0000      -1.083071       -29.4719
   7   2.0000      -0.988283       -26.8925
   8   2.0000      -0.885520       -24.0962
   9   2.0000      -0.801497       -21.8098
  10   2.0000      -0.726069       -19.7573
  11   2.0000      -0.686332       -18.6760
  12   2.0000      -0.648672       -17.6513
  13   2.0000      -0.611448       -16.6384
  14   2.0000      -0.570965       -15.5368
  15   2.0000      -0.554387       -15.0856
  16   2.0000      -0.514496       -14.0001
  17   2.0000      -0.495519       -13.4838
  18   2.0000      -0.472102       -12.8466
  19   2.0000      -0.457980       -12.4623
  20   2.0000      -0.423439       -11.5224
  21   2.0000      -0.415299       -11.3009
  22   2.0000      -0.373185       -10.1549
  23   2.0000      -0.248217        -6.7543
  24   0.0000       0.082619         2.2482
  25   0.0000       0.113460         3.0874
  26   0.0000       0.117483         3.1969
  27   0.0000       0.122638         3.3371
  28   0.0000       0.144454         3.9308

MULLIKEN ATOMIC CHARGES
-----------------------
   0 C :   -0.263021
   1 C :   -0.114165
   2 C :    0.308938
   3 N :   -0.030881
   4 N :   -0.055164
   5 H :    0.062402
   6 H :    0.004571
   7 H :   -0.152901
   8 H :    0.010900
   9 H :   -0.095374
  10 C :    0.682255
  11 H :   -0.029566
  12 H :   -0.181626
  13 H :   -0.093956
  14 H :   -0.032362
  15 H :   -0.020048
Sum of atomic charges:   -0.0000000

LOEWDIN ATOMIC CHARGES
----------------------
   0 C :   -0.108412
   1 C :   -0.027798
   2 C :   -0.234313
   3 N :    0.191339
   4 N :    0.182457
   5 H :    0.005177
   6 H :   -0.008599
   7 H :   -0.056839
   8 H :   -0.002315
   9 H :    0.001278
  10 C :    0.118774
  11 H :    0.011233
  12 H :   -0.007454
  13 H :   -0.022398
  14 H :   -0.018468
  15 H :   -0.023663

  Mayer bond orders larger than 0.100000
B(  0-C ,  1-C ) :   1.2496 B(  0-C ,  2-C ) :   0.1149 B(  0-C ,  7-H ) :   0.3074
B(  0-C , 10-C ) :   1.2262 B(  0-C , 11-H ) :   0.8392 B(  0-C , 12-H ) :   0.8980
B(  0-C , 13-H ) :   0.2137 B(  0-C , 14-H ) :   0.2062 B(  0-C , 15-H ) :   0.2006
B(  1-C ,  2-C ) :   1.8191 B(  1-C ,  3-N ) :   0.1417 B(  1-C ,  4-N ) :   0.1937
B(  1-C ,  7-H ) :   0.6488 B(  1-C , 11-H ) :   0.1905 B(  1-C , 12-H ) :   0.1992
B(  2-C ,  3-N ) :   1.0639 B(  2-C ,  4-N ) :   1.0417 B(  2-C ,  7-H ) :   0.2704
B(  3-N ,  4-N ) :   0.1162 B(  3-N ,  8-H ) :   0.9908 B(  3-N ,  9-H ) :   1.2039
B(  4-N ,  5-H ) :   0.9476 B(  4-N ,  6-H ) :   0.9145 B(  8-H ,  9-H ) :  -0.1349
B( 10-C , 13-H ) :   0.8483 B( 10-C , 14-H ) :   0.8122 B( 10-C , 15-H ) :   0.8028
B( 11-H , 12-H ) :   0.1129

Dispersion correction           -0.003907135
FINAL SINGLE POINT ENERGY      -267.659329668233

DIPOLE MOMENT
-------------
                                X             Y             Z
Electronic contribution:     -0.33268      -1.36212      -4.97383
Nuclear contribution   :     -0.44240       2.20379       4.66256
                        -----------------------------------------
Total Dipole Moment    :     -0.77507       0.84167      -0.31127
                        -----------------------------------------
Magnitude (a.u.)       :      1.18576
Magnitude (Debye)      :      3.01397

Rotational constants in cm-1:     0.209447     0.075194     0.066975
Rotational constants in MHz :  6279.068019  2254.272519  2007.845458

                             ****ORCA TERMINATED NORMALLY****
TOTAL RUN TIME: 0 days 0 hours 0 minutes 13 seconds 266 msec
