                         Program Version 5.0.0 -  RELEASE  -
|  1> !wB97X-D3 RIJCOSX def2-SVPD def2/J TightSCF
|  2> *xyz 0 1
|  3> C         -1.10433        0.25137       -2.86006
|  4> C         -0.71189        0.84252       -4.21834
|  5> H          0.15463        1.49980       -4.13091
|  6> H         -1.53813        1.45922       -4.58267
|  7> C         -0.39762       -0.20587       -5.28802
|  8> O          0.61717       -0.00535       -5.99827
|  9> F         -1.13317       -1.22138       -5.34147
| 10> H         -1.95489       -0.38644       -2.98099
| 11> H         -1.34603        1.04362       -2.18269
| 12> H         -0.28606       -0.31581       -2.46809
| 13> *
| 14>
| 15> %MaxCore 64000
| 16>
| 17> %pal nprocs 18
| 18> end
| 19>
| 20> %scf
| 21>   MaxIter 150
| 22> end
| 23>
| 24>
| 25>                          ****END OF INPUT****

CARTESIAN COORDINATES (ANGSTROEM)
---------------------------------
  C     -1.104330    0.251370   -2.860060
  C     -0.711890    0.842520   -4.218340
  H      0.154630    1.499800   -4.130910
  H     -1.538130    1.459220   -4.582670
  C     -0.397620   -0.205870   -5.288020
  O      0.617170   -0.005350   -5.998270
  F     -1.133170   -1.221380   -5.341470
  H     -1.954890   -0.386440   -2.980990
  H     -1.346030    1.043620   -2.182690
  H     -0.286060   -0.315810   -2.468090

 Total Charge           Charge          ....    0
 Multiplicity           Mult            ....    1
 Number of Electrons    NEL             ....   40
 Basis Dimension        Dim             ....  146

ORBITAL ENERGIES
----------------

  NO   OCC          E(Eh)            E(eV)
   0   2.0000     -24.876719      -676.9299
   1   2.0000     -19.255059      -523.9568
   2   2.0000     -10.475741      -285.0594
   3   2.0000     -10.324256      -280.9373
   4   2.0000     -10.300265      -280.2845
   5   2.0000      -1.426747       -38.8238
   6   2.0000      -1.142496       -31.0889
   7   2.0000      -0.916577       -24.9413
   8   2.0000      -0.795807       -21.6550
   9   2.0000      -0.754628       -20.5345
  10   2.0000      -0.662207       -18.0196
  11   2.0000      -0.652631       -17.7590
  12   2.0000      -0.603219       -16.4144
  13   2.0000      -0.570463       -15.5231
  14   2.0000      -0.536764       -14.6061
  15   2.0000      -0.503295       -13.6954
  16   2.0000      -0.485753       -13.2180
  17   2.0000      -0.476688       -12.9713
  18   2.0000      -0.447907       -12.1882
  19   2.0000      -0.389893       -10.6095
  20   0.0000       0.052741         1.4352
  21   0.0000       0.082305         2.2396
  22   0.0000       0.116086         3.1589
  23   0.0000       0.123865         3.3705
  24   0.0000       0.148376         4.0375

MULLIKEN ATOMIC CHARGES
-----------------------
   0 C :    0.517146
   1 C :   -0.431774
   2 H :   -0.003166
   3 H :    0.077918
   4 C :    0.785680
   5 O :   -0.485085
   6 F :   -0.399295
   7 H :   -0.014182
   8 H :   -0.021418
   9 H :   -0.025824
Sum of atomic charges:   -0.0000000

LOEWDIN ATOMIC CHARGES
----------------------
   0 C :    0.128653
   1 C :    0.007384
   2 H :    0.034987
   3 H :    0.039770
   4 C :   -0.000303
   5 O :   -0.143276
   6 F :   -0.034635
   7 H :   -0.013895
   8 H :   -0.011226
   9 H :   -0.007458

  Mayer bond orders larger than 0.100000
B(  0-C ,  1-C ) :   1.2670 B(  0-C ,  7-H ) :   0.8391 B(  0-C ,  8-H ) :   0.8528
B(  0-C ,  9-H ) :   0.8767 B(  1-C ,  2-H ) :   1.0017 B(  1-C ,  3-H ) :   0.8841
B(  1-C ,  4-C ) :   1.0549 B(  1-C ,  7-H ) :   0.1610 B(  1-C ,  8-H ) :   0.1624
B(  1-C ,  9-H ) :   0.1385 B(  2-H ,  4-C ) :   0.1281 B(  4-C ,  5-O ) :   1.8372
B(  4-C ,  6-F ) :   0.7405

Dispersion correction           -0.001893142
FINAL SINGLE POINT ENERGY      -292.115703598243

DIPOLE MOMENT
-------------
                                X             Y             Z
Electronic contribution:      0.65989      -4.36221      -6.56630
Nuclear contribution   :     -1.45527       4.68977       7.53208
                        -----------------------------------------
Total Dipole Moment    :     -0.79537       0.32756       0.96578
                        -----------------------------------------
Magnitude (a.u.)       :      1.29331
Magnitude (Debye)      :      3.28733

Rotational constants in cm-1:     0.298240     0.132464     0.099915
Rotational constants in MHz :  8940.998095  3971.171647  2995.369122

                             ****ORCA TERMINATED NORMALLY****
TOTAL RUN TIME: 0 days 0 hours 0 minutes 7 seconds 995 msec
