                         Program Version 5.0.0 -  RELEASE  -
|  1> !wB97X-D3 RIJCOSX def2-SVPD def2/J TightSCF
|  2> *xyz 0 1
|  3> C          2.23447       -2.98975       -2.39762
|  4> N          2.75680       -2.94555       -3.76503
|  5> C          1.98721       -2.59045       -4.81898
|  6> C          0.74322       -3.01749       -4.91352
|  7> N          2.49964       -1.84860       -5.80324
|  8> H          3.30978       -1.29282       -5.55895
|  9> H          1.80103       -1.30430       -6.28913
| 10> H          3.71612       -2.62880       -3.82953
| 11> H          0.39583       -3.62775       -4.18502
| 12> H          0.03920       -2.45438       -5.37137
| 13> C          2.19120       -1.61950       -1.71549
| 14> H          2.87278       -3.66637       -1.82801
| 15> H          1.24619       -3.44744       -2.40784
| 16> H          1.56387       -0.96046       -2.27853
| 17> H          3.18033       -1.21449       -1.66568
| 18> H          1.79916       -1.72608       -0.72562
| 19> *
| 20>
| 21> %MaxCore 64000
| 22>
| 23> %pal nprocs 18
| 24> end
| 25>
| 26> %scf
| 27>   MaxIter 150
| 28> end
| 29>
| 30>
| 31>                          ****END OF INPUT****

CARTESIAN COORDINATES (ANGSTROEM)
---------------------------------
  C      2.234470   -2.989750   -2.397620
  N      2.756800   -2.945550   -3.765030
  C      1.987210   -2.590450   -4.818980
  C      0.743220   -3.017490   -4.913520
  N      2.499640   -1.848600   -5.803240
  H      3.309780   -1.292820   -5.558950
  H      1.801030   -1.304300   -6.289130
  H      3.716120   -2.628800   -3.829530
  H      0.395830   -3.627750   -4.185020
  H      0.039200   -2.454380   -5.371370
  C      2.191200   -1.619500   -1.715490
  H      2.872780   -3.666370   -1.828010
  H      1.246190   -3.447440   -2.407840
  H      1.563870   -0.960460   -2.278530
  H      3.180330   -1.214490   -1.665680
  H      1.799160   -1.726080   -0.725620

 Total Charge           Charge          ....    0
 Multiplicity           Mult            ....    1
 Number of Electrons    NEL             ....   48
 Basis Dimension        Dim             ....  200

ORBITAL ENERGIES
----------------

  NO   OCC          E(Eh)            E(eV)
   0   2.0000     -14.440273      -392.9398
   1   2.0000     -14.438815      -392.9001
   2   2.0000     -10.338397      -281.3221
   3   2.0000     -10.323536      -280.9177
   4   2.0000     -10.279520      -279.7200
   5   2.0000     -10.207034      -277.7475
   6   2.0000      -1.079605       -29.3775
   7   2.0000      -0.997778       -27.1509
   8   2.0000      -0.866102       -23.5678
   9   2.0000      -0.824443       -22.4342
  10   2.0000      -0.747962       -20.3531
  11   2.0000      -0.666961       -18.1489
  12   2.0000      -0.649427       -17.6718
  13   2.0000      -0.615637       -16.7523
  14   2.0000      -0.564145       -15.3512
  15   2.0000      -0.548115       -14.9150
  16   2.0000      -0.517980       -14.0949
  17   2.0000      -0.496922       -13.5219
  18   2.0000      -0.492489       -13.4013
  19   2.0000      -0.467666       -12.7258
  20   2.0000      -0.457589       -12.4516
  21   2.0000      -0.443717       -12.0742
  22   2.0000      -0.348071        -9.4715
  23   2.0000      -0.265637        -7.2284
  24   0.0000       0.084059         2.2874
  25   0.0000       0.112459         3.0602
  26   0.0000       0.118634         3.2282
  27   0.0000       0.122434         3.3316
  28   0.0000       0.137915         3.7529

MULLIKEN ATOMIC CHARGES
-----------------------
   0 C :    0.265516
   1 N :   -0.373558
   2 C :    0.436510
   3 C :    0.316105
   4 N :   -0.029357
   5 H :   -0.058078
   6 H :    0.056989
   7 H :   -0.275693
   8 H :   -0.099902
   9 H :   -0.378994
  10 C :    0.592794
  11 H :   -0.228577
  12 H :   -0.086095
  13 H :   -0.081785
  14 H :   -0.046658
  15 H :   -0.009216
Sum of atomic charges:    0.0000000

LOEWDIN ATOMIC CHARGES
----------------------
   0 C :    0.015853
   1 N :   -0.017393
   2 C :   -0.243306
   3 C :    0.153607
   4 N :    0.179570
   5 H :   -0.011582
   6 H :    0.003428
   7 H :    0.013370
   8 H :   -0.101718
   9 H :   -0.089645
  10 C :    0.130788
  11 H :    0.017723
  12 H :    0.007209
  13 H :   -0.018937
  14 H :   -0.022011
  15 H :   -0.016955

  Mayer bond orders larger than 0.100000
B(  0-C ,  1-N ) :   0.8559 B(  0-C , 10-C ) :   1.2387 B(  0-C , 11-H ) :   0.9136
B(  0-C , 12-H ) :   0.8779 B(  0-C , 13-H ) :   0.2227 B(  0-C , 14-H ) :   0.1823
B(  0-C , 15-H ) :   0.1791 B(  1-N ,  2-C ) :   0.9904 B(  1-N ,  3-C ) :   0.2504
B(  1-N ,  4-N ) :   0.1057 B(  1-N ,  7-H ) :   1.1653 B(  1-N , 11-H ) :   0.1675
B(  1-N , 12-H ) :   0.1165 B(  2-C ,  3-C ) :   1.8111 B(  2-C ,  4-N ) :   0.9688
B(  2-C ,  7-H ) :  -0.1302 B(  2-C ,  8-H ) :   0.2774 B(  2-C ,  9-H ) :   0.1101
B(  3-C ,  4-N ) :   0.2096 B(  3-C ,  8-H ) :   0.5393 B(  3-C ,  9-H ) :   0.9256
B(  4-N ,  5-H ) :   0.9611 B(  4-N ,  6-H ) :   0.9507 B(  8-H ,  9-H ) :   0.1790
B( 10-C , 13-H ) :   0.8412 B( 10-C , 14-H ) :   0.8346 B( 10-C , 15-H ) :   0.8264

Dispersion correction           -0.003916130
FINAL SINGLE POINT ENERGY      -267.653467493668

DIPOLE MOMENT
-------------
                                X             Y             Z
Electronic contribution:      1.49344      -1.24209      -3.83140
Nuclear contribution   :     -0.86957       2.18853       4.41892
                        -----------------------------------------
Total Dipole Moment    :      0.62387       0.94644       0.58751
                        -----------------------------------------
Magnitude (a.u.)       :      1.27677
Magnitude (Debye)      :      3.24529

Rotational constants in cm-1:     0.214718     0.075736     0.068547
Rotational constants in MHz :  6437.075121  2270.519635  2054.974198

                             ****ORCA TERMINATED NORMALLY****
TOTAL RUN TIME: 0 days 0 hours 0 minutes 13 seconds 237 msec
