                         Program Version 5.0.0 -  RELEASE  -
|  1> !wB97X-D3 RIJCOSX def2-SVPD def2/J TightSCF
|  2> *xyz 0 1
|  3> C          2.23447       -2.98975       -2.39762
|  4> N          2.75680       -2.94555       -3.76503
|  5> C          1.98721       -2.59045       -4.81898
|  6> N          0.74322       -3.01749       -4.91352
|  7> C          2.49964       -1.84860       -5.80324
|  8> H          3.30978       -1.29282       -5.55895
|  9> H          1.80103       -1.30430       -6.28913
| 10> H          3.71612       -2.62880       -3.82953
| 11> H          0.39583       -3.62775       -4.18502
| 12> H          0.03920       -2.45438       -5.37137
| 13> C          2.19120       -1.61950       -1.71549
| 14> H          2.87278       -3.66637       -1.82801
| 15> H          1.24619       -3.44744       -2.40784
| 16> H          1.56387       -0.96046       -2.27853
| 17> H          3.18033       -1.21449       -1.66568
| 18> H          1.79916       -1.72608       -0.72562
| 19> *
| 20>
| 21> %MaxCore 64000
| 22>
| 23> %pal nprocs 18
| 24> end
| 25>
| 26> %scf
| 27>   MaxIter 150
| 28> end
| 29>
| 30>
| 31>                          ****END OF INPUT****

CARTESIAN COORDINATES (ANGSTROEM)
---------------------------------
  C      2.234470   -2.989750   -2.397620
  N      2.756800   -2.945550   -3.765030
  C      1.987210   -2.590450   -4.818980
  N      0.743220   -3.017490   -4.913520
  C      2.499640   -1.848600   -5.803240
  H      3.309780   -1.292820   -5.558950
  H      1.801030   -1.304300   -6.289130
  H      3.716120   -2.628800   -3.829530
  H      0.395830   -3.627750   -4.185020
  H      0.039200   -2.454380   -5.371370
  C      2.191200   -1.619500   -1.715490
  H      2.872780   -3.666370   -1.828010
  H      1.246190   -3.447440   -2.407840
  H      1.563870   -0.960460   -2.278530
  H      3.180330   -1.214490   -1.665680
  H      1.799160   -1.726080   -0.725620

 Total Charge           Charge          ....    0
 Multiplicity           Mult            ....    1
 Number of Electrons    NEL             ....   48
 Basis Dimension        Dim             ....  200

ORBITAL ENERGIES
----------------

  NO   OCC          E(Eh)            E(eV)
   0   2.0000     -14.442183      -392.9918
   1   2.0000     -14.439211      -392.9109
   2   2.0000     -10.342327      -281.4290
   3   2.0000     -10.332350      -281.1575
   4   2.0000     -10.283631      -279.8318
   5   2.0000     -10.201718      -277.6029
   6   2.0000      -1.081802       -29.4373
   7   2.0000      -0.997781       -27.1510
   8   2.0000      -0.879013       -23.9192
   9   2.0000      -0.817487       -22.2450
  10   2.0000      -0.737346       -20.0642
  11   2.0000      -0.707624       -19.2554
  12   2.0000      -0.644923       -17.5492
  13   2.0000      -0.594301       -16.1717
  14   2.0000      -0.593091       -16.1388
  15   2.0000      -0.539240       -14.6735
  16   2.0000      -0.529491       -14.4082
  17   2.0000      -0.502233       -13.6664
  18   2.0000      -0.475028       -12.9262
  19   2.0000      -0.465272       -12.6607
  20   2.0000      -0.462574       -12.5873
  21   2.0000      -0.451679       -12.2908
  22   2.0000      -0.350661        -9.5420
  23   2.0000      -0.260508        -7.0888
  24   0.0000       0.082449         2.2436
  25   0.0000       0.109430         2.9777
  26   0.0000       0.116361         3.1663
  27   0.0000       0.121887         3.3167
  28   0.0000       0.137213         3.7338

MULLIKEN ATOMIC CHARGES
-----------------------
   0 C :    0.296937
   1 N :   -0.502457
   2 C :    0.362490
   3 N :    0.126520
   4 C :    0.471745
   5 H :   -0.148248
   6 H :   -0.388155
   7 H :   -0.152516
   8 H :   -0.096266
   9 H :   -0.060746
  10 C :    0.576570
  11 H :   -0.229685
  12 H :   -0.139468
  13 H :   -0.092836
  14 H :   -0.042358
  15 H :    0.018474
Sum of atomic charges:    0.0000000

LOEWDIN ATOMIC CHARGES
----------------------
   0 C :    0.009018
   1 N :   -0.014427
   2 C :   -0.239208
   3 N :    0.192143
   4 C :    0.134228
   5 H :   -0.102792
   6 H :   -0.103130
   7 H :    0.026508
   8 H :   -0.016514
   9 H :    0.015919
  10 C :    0.131930
  11 H :    0.016870
  12 H :    0.001169
  13 H :   -0.017394
  14 H :   -0.017095
  15 H :   -0.017226

  Mayer bond orders larger than 0.100000
B(  0-C ,  1-N ) :   0.8797 B(  0-C , 10-C ) :   1.2418 B(  0-C , 11-H ) :   0.9105
B(  0-C , 12-H ) :   0.8770 B(  0-C , 13-H ) :   0.2119 B(  0-C , 14-H ) :   0.1889
B(  0-C , 15-H ) :   0.1684 B(  1-N ,  2-C ) :   0.9781 B(  1-N ,  4-C ) :   0.1921
B(  1-N ,  7-H ) :   1.1690 B(  1-N , 11-H ) :   0.1872 B(  1-N , 12-H ) :   0.1312
B(  2-C ,  3-N ) :   1.0661 B(  2-C ,  4-C ) :   1.9410 B(  2-C ,  5-H ) :   0.2200
B(  2-C ,  6-H ) :   0.2247 B(  2-C ,  7-H ) :  -0.1229 B(  3-N ,  4-C ) :   0.2120
B(  3-N ,  8-H ) :   0.9883 B(  3-N ,  9-H ) :   1.1350 B(  4-C ,  5-H ) :   0.7343
B(  4-C ,  6-H ) :   0.7381 B(  5-H ,  6-H ) :   0.2540 B(  8-H ,  9-H ) :  -0.1475
B( 10-C , 13-H ) :   0.8544 B( 10-C , 14-H ) :   0.8251 B( 10-C , 15-H ) :   0.8167

Dispersion correction           -0.003936280
FINAL SINGLE POINT ENERGY      -267.648432995462

DIPOLE MOMENT
-------------
                                X             Y             Z
Electronic contribution:     -0.12785      -2.38336      -2.94169
Nuclear contribution   :     -0.49695       2.43650       4.23017
                        -----------------------------------------
Total Dipole Moment    :     -0.62480       0.05314       1.28848
                        -----------------------------------------
Magnitude (a.u.)       :      1.43296
Magnitude (Debye)      :      3.64230

Rotational constants in cm-1:     0.211102     0.077011     0.069221
Rotational constants in MHz :  6328.667765  2308.731604  2075.192956

                             ****ORCA TERMINATED NORMALLY****
TOTAL RUN TIME: 0 days 0 hours 0 minutes 12 seconds 470 msec
