                         Program Version 5.0.0 -  RELEASE  -
|  1> !wB97X-D3 RIJCOSX def2-SVPD def2/J TightSCF xyzfile
|  2>
|  3> *xyzfile 0 1 D4.xyz
|  4>
|  5> %MaxCore 64000
|  6>
|  7> %pal nprocs 18
|  8> end
|  9>
| 10> %scf
| 11>   MaxIter 150
| 12> end
| 13>
| 14>
| 15>                          ****END OF INPUT****

CARTESIAN COORDINATES (ANGSTROEM)
---------------------------------
  C      2.234473   -2.989754   -2.397622
  C      2.756799   -2.945553   -3.765029
  C     -1.104325    0.251374   -2.860056
  C     -0.711893    0.842517   -4.218344
  H      0.154626    1.499800   -4.130909
  H     -1.538134    1.459222   -4.582671
  C     -0.397624   -0.205875   -5.288018
  C      1.987208   -2.590451   -4.818975
  N      0.743221   -3.017493   -4.913524
  N      2.499636   -1.848598   -5.803241
  H      3.309780   -1.292818   -5.558947
  H      1.801025   -1.304298   -6.289129
  H      3.716116   -2.628797   -3.829533
  H      0.395828   -3.627747   -4.185024
  H      0.039201   -2.454383   -5.371367
  O      0.617165   -0.005348   -5.998273
  F     -1.133173   -1.221380   -5.341465
  C      2.191199   -1.619503   -1.715492
  H      2.872783   -3.666368   -1.828014
  H      1.246188   -3.447444   -2.407842
  C      1.298729   -0.554314   -2.359773
  H      1.872917   -1.787955   -0.681310
  H      3.216809   -1.238432   -1.654428
  C     -0.196255   -0.863365   -2.325763
  H      1.612531   -0.371346   -3.393065
  H      1.480944    0.388638   -1.834444
  H     -0.404105   -1.761825   -2.909448
  H     -0.490439   -1.087880   -1.294131
  H     -1.143842    1.066711   -2.129680
  H     -2.114401   -0.156834   -2.930323

 Total Charge           Charge          ....    0
 Multiplicity           Mult            ....    1
 Number of Electrons    NEL             ....  102
 Basis Dimension        Dim             ....  402

ORBITAL ENERGIES
----------------

  NO   OCC          E(Eh)            E(eV)
   0   2.0000     -24.912298      -677.8981
   1   2.0000     -19.287903      -524.8505
   2   2.0000     -14.429094      -392.6356
   3   2.0000     -14.410886      -392.1401
   4   2.0000     -10.505423      -285.8671
   5   2.0000     -10.336417      -281.2682
   6   2.0000     -10.328064      -281.0409
   7   2.0000     -10.315269      -280.6927
   8   2.0000     -10.296191      -280.1736
   9   2.0000     -10.284948      -279.8677
  10   2.0000     -10.272914      -279.5402
  11   2.0000     -10.262948      -279.2690
  12   2.0000     -10.200981      -277.5828
  13   2.0000      -1.464674       -39.8558
  14   2.0000      -1.178532       -32.0695
  15   2.0000      -1.066815       -29.0295
  16   2.0000      -0.970573       -26.4106
  17   2.0000      -0.948909       -25.8211
  18   2.0000      -0.903176       -24.5767
  19   2.0000      -0.864661       -23.5286
  20   2.0000      -0.816941       -22.2301
  21   2.0000      -0.800004       -21.7692
  22   2.0000      -0.765846       -20.8397
  23   2.0000      -0.723987       -19.7007
  24   2.0000      -0.708524       -19.2799
  25   2.0000      -0.690909       -18.8006
  26   2.0000      -0.680399       -18.5146
  27   2.0000      -0.667585       -18.1659
  28   2.0000      -0.632414       -17.2089
  29   2.0000      -0.621911       -16.9231
  30   2.0000      -0.592872       -16.1329
  31   2.0000      -0.588825       -16.0228
  32   2.0000      -0.579850       -15.7785
  33   2.0000      -0.552451       -15.0330
  34   2.0000      -0.544227       -14.8092
  35   2.0000      -0.540311       -14.7026
  36   2.0000      -0.532743       -14.4967
  37   2.0000      -0.505341       -13.7510
  38   2.0000      -0.499199       -13.5839
  39   2.0000      -0.493836       -13.4380
  40   2.0000      -0.483270       -13.1504
  41   2.0000      -0.462508       -12.5855
  42   2.0000      -0.458990       -12.4897
  43   2.0000      -0.442647       -12.0450
  44   2.0000      -0.434653       -11.8275
  45   2.0000      -0.422055       -11.4847
  46   2.0000      -0.412944       -11.2368
  47   2.0000      -0.402533       -10.9535
  48   2.0000      -0.399298       -10.8655
  49   2.0000      -0.352855        -9.6017
  50   2.0000      -0.235246        -6.4014
  51   0.0000       0.023088         0.6283
  52   0.0000       0.072879         1.9831
  53   0.0000       0.096618         2.6291
  54   0.0000       0.102132         2.7791
  55   0.0000       0.106147         2.8884

MULLIKEN ATOMIC CHARGES
-----------------------
   0 C :    0.252980
   1 C :   -0.065827
   2 C :    0.480487
   3 C :    0.093944
   4 H :    0.212585
   5 H :   -0.179609
   6 C :    0.675111
   7 C :    0.331550
   8 N :    0.214994
   9 N :    0.031447
  10 H :    0.134808
  11 H :   -0.155950
  12 H :   -0.191143
  13 H :    0.078662
  14 H :   -0.442764
  15 O :   -0.476482
  16 F :   -0.468298
  17 C :    0.434834
  18 H :   -0.143912
  19 H :   -0.157020
  20 C :   -0.047071
  21 H :   -0.014041
  22 H :   -0.070819
  23 C :   -0.014290
  24 H :   -0.104057
  25 H :   -0.116011
  26 H :   -0.181656
  27 H :   -0.098638
  28 H :   -0.066822
  29 H :    0.053008
Sum of atomic charges:    0.0000000

LOEWDIN ATOMIC CHARGES
----------------------
   0 C :   -0.065094
   1 C :   -0.022795
   2 C :   -0.021665
   3 C :    0.061950
   4 H :    0.039142
   5 H :    0.042260
   6 C :    0.039622
   7 C :   -0.219856
   8 N :    0.226304
   9 N :    0.209162
  10 H :    0.010974
  11 H :   -0.089823
  12 H :   -0.057639
  13 H :    0.003903
  14 H :   -0.068159
  15 O :   -0.127132
  16 F :   -0.032155
  17 C :   -0.025079
  18 H :    0.011831
  19 H :   -0.009591
  20 C :   -0.024715
  21 H :    0.017508
  22 H :    0.024065
  23 C :   -0.028089
  24 H :    0.004597
  25 H :    0.025573
  26 H :   -0.009669
  27 H :    0.030658
  28 H :    0.029614
  29 H :    0.024297

  Mayer bond orders larger than 0.100000
B(  0-C ,  1-C ) :   1.1853 B(  0-C ,  7-C ) :   0.1212 B(  0-C , 12-H ) :   0.3488
B(  0-C , 17-C ) :   1.1279 B(  0-C , 18-H ) :   0.7534 B(  0-C , 19-H ) :   0.7893
B(  0-C , 21-H ) :   0.1972 B(  0-C , 22-H ) :   0.1833 B(  1-C ,  7-C ) :   1.6926
B(  1-C ,  8-N ) :   0.1361 B(  1-C ,  9-N ) :   0.3027 B(  1-C , 12-H ) :   0.5298
B(  1-C , 18-H ) :   0.2086 B(  1-C , 19-H ) :   0.1969 B(  2-C ,  3-C ) :   1.1598
B(  2-C ,  5-H ) :   0.1666 B(  2-C , 23-C ) :   1.2385 B(  2-C , 28-H ) :   0.8175
B(  2-C , 29-H ) :   0.6678 B(  3-C ,  4-H ) :   0.8205 B(  3-C ,  5-H ) :   0.8192
B(  3-C ,  6-C ) :   1.1805 B(  3-C , 28-H ) :   0.1295 B(  4-H ,  6-C ) :   0.1844
B(  5-H ,  6-C ) :   0.1852 B(  6-C , 15-O ) :   1.6850 B(  6-C , 16-F ) :   0.5724
B(  7-C ,  8-N ) :   0.9883 B(  7-C ,  9-N ) :   0.8847 B(  7-C , 11-H ) :   0.1317
B(  7-C , 12-H ) :   0.3673 B(  8-N ,  9-N ) :   0.1040 B(  8-N , 13-H ) :   0.8951
B(  8-N , 14-H ) :   1.1554 B(  9-N , 10-H ) :   0.8523 B(  9-N , 11-H ) :   0.8047
B( 11-H , 15-O ) :   0.1229 B( 13-H , 14-H ) :  -0.2119 B( 17-C , 19-H ) :   0.1172
B( 17-C , 20-C ) :   1.2286 B( 17-C , 21-H ) :   0.7720 B( 17-C , 22-H ) :   0.7066
B( 17-C , 24-H ) :   0.1002 B( 20-C , 21-H ) :   0.1495 B( 20-C , 22-H ) :   0.2665
B( 20-C , 23-C ) :   1.2649 B( 20-C , 24-H ) :   0.9341 B( 20-C , 25-H ) :   0.7970
B( 20-C , 26-H ) :   0.1403 B( 20-C , 27-H ) :   0.2053 B( 21-H , 22-H ) :  -0.1194
B( 23-C , 24-H ) :   0.1316 B( 23-C , 25-H ) :   0.2022 B( 23-C , 26-H ) :   0.9173
B( 23-C , 27-H ) :   0.8050 B( 23-C , 28-H ) :   0.1608 B( 23-C , 29-H ) :   0.2403
B( 28-H , 29-H ) :  -0.1046

Dispersion correction           -0.015911782
FINAL SINGLE POINT ENERGY      -637.134452432137

DIPOLE MOMENT
-------------
                                X             Y             Z
Electronic contribution:     -6.06104       0.25966     -13.39373
Nuclear contribution   :      4.38568       1.15960      13.97148
                        -----------------------------------------
Total Dipole Moment    :     -1.67536       1.41926       0.57775
                        -----------------------------------------
Magnitude (a.u.)       :      2.27045
Magnitude (Debye)      :      5.77102

Rotational constants in cm-1:     0.032892     0.023844     0.017123
Rotational constants in MHz :   986.091711   714.821905   513.334630

                             ****ORCA TERMINATED NORMALLY****
TOTAL RUN TIME: 0 days 0 hours 1 minutes 21 seconds 690 msec
