                         Program Version 5.0.0 -  RELEASE  -
|  1> !wB97X-D3 RIJCOSX def2-SVPD def2/J TightSCF xyzfile
|  2>
|  3> *xyzfile 0 1 D5.xyz
|  4>
|  5> %MaxCore 64000
|  6>
|  7> %pal nprocs 18
|  8> end
|  9>
| 10> %scf
| 11>   MaxIter 150
| 12> end
| 13>
| 14>
| 15>                          ****END OF INPUT****

CARTESIAN COORDINATES (ANGSTROEM)
---------------------------------
  C      2.234473   -2.989754   -2.397622
  N      2.756799   -2.945553   -3.765029
  C     -1.104325    0.251374   -2.860056
  C     -0.711893    0.842517   -4.218344
  H      0.154626    1.499800   -4.130909
  H     -1.538134    1.459222   -4.582671
  C     -0.397624   -0.205875   -5.288018
  C      1.987208   -2.590451   -4.818975
  C      0.743221   -3.017493   -4.913524
  N      2.499636   -1.848598   -5.803241
  H      3.309780   -1.292818   -5.558947
  H      1.801025   -1.304298   -6.289129
  H      3.716116   -2.628797   -3.829533
  H      0.395828   -3.627747   -4.185024
  H      0.039201   -2.454383   -5.371367
  O      0.617165   -0.005348   -5.998273
  F     -1.133173   -1.221380   -5.341465
  C      2.191199   -1.619503   -1.715492
  H      2.872783   -3.666368   -1.828014
  H      1.246188   -3.447444   -2.407842
  C      1.298729   -0.554314   -2.359773
  H      1.872917   -1.787955   -0.681310
  H      3.216809   -1.238432   -1.654428
  C     -0.196255   -0.863365   -2.325763
  H      1.612531   -0.371346   -3.393065
  H      1.480944    0.388638   -1.834444
  H     -0.404105   -1.761825   -2.909448
  H     -0.490439   -1.087880   -1.294131
  H     -1.143842    1.066711   -2.129680
  H     -2.114401   -0.156834   -2.930323

 Total Charge           Charge          ....    0
 Multiplicity           Mult            ....    1
 Number of Electrons    NEL             ....  102
 Basis Dimension        Dim             ....  402

ORBITAL ENERGIES
----------------

  NO   OCC          E(Eh)            E(eV)
   0   2.0000     -24.883883      -677.1249
   1   2.0000     -19.270486      -524.3766
   2   2.0000     -14.431578      -392.7032
   3   2.0000     -14.410720      -392.1356
   4   2.0000     -10.489161      -285.4246
   5   2.0000     -10.326973      -281.0112
   6   2.0000     -10.325748      -280.9779
   7   2.0000     -10.319312      -280.8027
   8   2.0000     -10.309392      -280.5328
   9   2.0000     -10.292119      -280.0628
  10   2.0000     -10.291972      -280.0588
  11   2.0000     -10.291815      -280.0545
  12   2.0000     -10.191633      -277.3284
  13   2.0000      -1.437509       -39.1166
  14   2.0000      -1.161342       -31.6017
  15   2.0000      -1.065929       -29.0054
  16   2.0000      -0.983551       -26.7638
  17   2.0000      -0.941556       -25.6210
  18   2.0000      -0.897736       -24.4286
  19   2.0000      -0.845792       -23.0152
  20   2.0000      -0.815113       -22.1804
  21   2.0000      -0.797425       -21.6990
  22   2.0000      -0.772355       -21.0169
  23   2.0000      -0.727617       -19.7995
  24   2.0000      -0.695171       -18.9166
  25   2.0000      -0.680516       -18.5178
  26   2.0000      -0.662927       -18.0392
  27   2.0000      -0.648167       -17.6375
  28   2.0000      -0.633362       -17.2346
  29   2.0000      -0.621655       -16.9161
  30   2.0000      -0.591607       -16.0984
  31   2.0000      -0.585777       -15.9398
  32   2.0000      -0.577917       -15.7259
  33   2.0000      -0.553478       -15.0609
  34   2.0000      -0.545787       -14.8516
  35   2.0000      -0.524245       -14.2654
  36   2.0000      -0.515793       -14.0354
  37   2.0000      -0.510945       -13.9035
  38   2.0000      -0.492827       -13.4105
  39   2.0000      -0.489233       -13.3127
  40   2.0000      -0.475671       -12.9437
  41   2.0000      -0.469009       -12.7624
  42   2.0000      -0.455935       -12.4066
  43   2.0000      -0.454406       -12.3650
  44   2.0000      -0.440296       -11.9810
  45   2.0000      -0.425428       -11.5765
  46   2.0000      -0.424539       -11.5523
  47   2.0000      -0.414887       -11.2896
  48   2.0000      -0.399906       -10.8820
  49   2.0000      -0.332536        -9.0488
  50   2.0000      -0.253610        -6.9011
  51   0.0000       0.039380         1.0716
  52   0.0000       0.079677         2.1681
  53   0.0000       0.093082         2.5329
  54   0.0000       0.100412         2.7324
  55   0.0000       0.110111         2.9963

MULLIKEN ATOMIC CHARGES
-----------------------
   0 C :    0.783759
   1 N :   -0.446676
   2 C :    0.495495
   3 C :    0.091356
   4 H :    0.186188
   5 H :   -0.187853
   6 C :    0.623976
   7 C :    0.438753
   8 C :    0.754503
   9 N :    0.067963
  10 H :    0.065472
  11 H :   -0.150764
  12 H :   -0.190472
  13 H :   -0.050344
  14 H :   -0.763116
  15 O :   -0.487144
  16 F :   -0.511493
  17 C :    0.324525
  18 H :   -0.331616
  19 H :    0.005730
  20 C :   -0.027006
  21 H :    0.029068
  22 H :   -0.059768
  23 C :   -0.093950
  24 H :   -0.170382
  25 H :   -0.142654
  26 H :   -0.139863
  27 H :   -0.107545
  28 H :   -0.069808
  29 H :    0.063667
Sum of atomic charges:    0.0000000

LOEWDIN ATOMIC CHARGES
----------------------
   0 C :    0.058528
   1 N :   -0.004454
   2 C :   -0.020158
   3 C :    0.060257
   4 H :    0.036222
   5 H :    0.041021
   6 C :    0.040697
   7 C :   -0.225642
   8 C :    0.171587
   9 N :    0.205689
  10 H :   -0.004904
  11 H :   -0.079773
  12 H :    0.015261
  13 H :   -0.088778
  14 H :   -0.138151
  15 O :   -0.134287
  16 F :   -0.039849
  17 C :   -0.018998
  18 H :    0.019350
  19 H :    0.005730
  20 C :   -0.024261
  21 H :    0.022435
  22 H :    0.019774
  23 C :   -0.024809
  24 H :    0.004424
  25 H :    0.026151
  26 H :   -0.005041
  27 H :    0.028995
  28 H :    0.027389
  29 H :    0.025598

  Mayer bond orders larger than 0.100000
B(  0-C ,  1-N ) :   0.9030 B(  0-C , 17-C ) :   1.0864 B(  0-C , 18-H ) :   0.8403
B(  0-C , 19-H ) :   0.7699 B(  0-C , 21-H ) :   0.1519 B(  0-C , 22-H ) :   0.1195
B(  1-N ,  7-C ) :   0.9699 B(  1-N ,  8-C ) :   0.2960 B(  1-N ,  9-N ) :   0.1375
B(  1-N , 12-H ) :   1.0947 B(  1-N , 18-H ) :   0.1940 B(  1-N , 19-H ) :   0.1254
B(  2-C ,  3-C ) :   1.1518 B(  2-C ,  5-H ) :   0.1648 B(  2-C , 23-C ) :   1.2539
B(  2-C , 28-H ) :   0.8100 B(  2-C , 29-H ) :   0.6685 B(  3-C ,  4-H ) :   0.8401
B(  3-C ,  5-H ) :   0.8007 B(  3-C ,  6-C ) :   1.1936 B(  3-C , 28-H ) :   0.1339
B(  4-H ,  6-C ) :   0.1913 B(  5-H ,  6-C ) :   0.2035 B(  6-C , 14-H ) :   0.1417
B(  6-C , 15-O ) :   1.6575 B(  6-C , 16-F ) :   0.6184 B(  7-C ,  8-C ) :   1.8679
B(  7-C ,  9-N ) :   0.8134 B(  7-C , 13-H ) :   0.3379 B(  7-C , 14-H ) :   0.1646
B(  8-C ,  9-N ) :   0.2233 B(  8-C , 13-H ) :   0.3569 B(  8-C , 14-H ) :   0.2319
B(  9-N , 10-H ) :   0.8453 B(  9-N , 11-H ) :   0.9107 B( 11-H , 15-O ) :   0.1184
B( 14-H , 16-F ) :   0.2315 B( 17-C , 19-H ) :   0.1221 B( 17-C , 20-C ) :   1.2101
B( 17-C , 21-H ) :   0.7996 B( 17-C , 22-H ) :   0.7455 B( 17-C , 24-H ) :   0.1062
B( 18-H , 19-H ) :  -0.1281 B( 20-C , 21-H ) :   0.1633 B( 20-C , 22-H ) :   0.2375
B( 20-C , 23-C ) :   1.2676 B( 20-C , 24-H ) :   0.9418 B( 20-C , 25-H ) :   0.8401
B( 20-C , 26-H ) :   0.1487 B( 20-C , 27-H ) :   0.2264 B( 23-C , 24-H ) :   0.1468
B( 23-C , 25-H ) :   0.2106 B( 23-C , 26-H ) :   0.9473 B( 23-C , 27-H ) :   0.7875
B( 23-C , 28-H ) :   0.1634 B( 23-C , 29-H ) :   0.2350 B( 28-H , 29-H ) :  -0.1075

Dispersion correction           -0.015816978
FINAL SINGLE POINT ENERGY      -637.123656826994

DIPOLE MOMENT
-------------
                                X             Y             Z
Electronic contribution:     -4.39130       0.22846     -12.37548
Nuclear contribution   :      4.07548       1.14852      13.79455
                        -----------------------------------------
Total Dipole Moment    :     -0.31582       1.37698       1.41907
                        -----------------------------------------
Magnitude (a.u.)       :      2.00239
Magnitude (Debye)      :      5.08968

Rotational constants in cm-1:     0.033274     0.023559     0.016968
Rotational constants in MHz :   997.539108   706.293545   508.690532

                             ****ORCA TERMINATED NORMALLY****
TOTAL RUN TIME: 0 days 0 hours 1 minutes 23 seconds 394 msec
