                         Program Version 5.0.0 -  RELEASE  -
|  1> !CAM-B3LYP RIJCOSX def2-SVPD def2/J TightSCF
|  2> *xyz -1 1
|  3> C          0.69721        3.22791       -0.52513
|  4> O          1.48929        2.37470        0.19919
|  5> H          0.26505        2.70007       -1.34946
|  6> H          1.28994        4.03943       -0.89255
|  7> H         -0.08148        3.61005        0.10138
|  8> *
|  9>
| 10> %MaxCore 64000
| 11> %pal nprocs 8
| 12> end
| 13>
| 14> %scf
| 15>   MaxIter 150
| 16> end
| 17>
| 18>
| 19>                          ****END OF INPUT****

CARTESIAN COORDINATES (ANGSTROEM)
---------------------------------
  C      0.697210    3.227910   -0.525130
  O      1.489290    2.374700    0.199190
  H      0.265050    2.700070   -1.349460
  H      1.289940    4.039430   -0.892550
  H     -0.081480    3.610050    0.101380

 Total Charge           Charge          ....   -1
 Multiplicity           Mult            ....    1
 Number of Electrons    NEL             ....   18
 Basis Dimension        Dim             ....   67

ORBITAL ENERGIES
----------------

  NO   OCC          E(Eh)            E(eV)
   0   2.0000     -18.858079      -513.1544
   1   2.0000     -10.045306      -273.3467
   2   2.0000      -0.728229       -19.8161
   3   2.0000      -0.468305       -12.7432
   4   2.0000      -0.266174        -7.2430
   5   2.0000      -0.266170        -7.2428
   6   2.0000      -0.164435        -4.4745
   7   2.0000      -0.013043        -0.3549
   8   2.0000      -0.013029        -0.3545
   9   0.0000       0.225758         6.1432
  10   0.0000       0.300290         8.1713
  11   0.0000       0.300293         8.1714
  12   0.0000       0.309298         8.4164
  13   0.0000       0.344884         9.3848

MULLIKEN ATOMIC CHARGES
-----------------------
   0 C :    0.971376
   1 O :   -1.018105
   2 H :   -0.318055
   3 H :   -0.317687
   4 H :   -0.317530
Sum of atomic charges:   -1.0000000

LOEWDIN ATOMIC CHARGES
----------------------
   0 C :   -0.114236
   1 O :   -0.654220
   2 H :   -0.077202
   3 H :   -0.077170
   4 H :   -0.077172

  Mayer bond orders larger than 0.100000
B(  0-C ,  1-O ) :   1.1936 B(  0-C ,  2-H ) :   0.8759 B(  0-C ,  3-H ) :   0.8757
B(  0-C ,  4-H ) :   0.8755

FINAL SINGLE POINT ENERGY      -114.968499066226

DIPOLE MOMENT
-------------
                                X             Y             Z
Electronic contribution:      1.03674      -1.11661       0.94800
Nuclear contribution   :     -1.66672       1.79535      -1.52413
                        -----------------------------------------
Total Dipole Moment    :     -0.62998       0.67874      -0.57613
                        -----------------------------------------
Magnitude (a.u.)       :      1.09064
Magnitude (Debye)      :      2.77218

Rotational constants in cm-1:     5.477728     0.937442     0.937441
Rotational constants in MHz : 164218.159175 28103.818547 28103.787504

                             ****ORCA TERMINATED NORMALLY****
TOTAL RUN TIME: 0 days 0 hours 0 minutes 3 seconds 641 msec
