                         Program Version 5.0.0 -  RELEASE  -
|  1> !CAM-B3LYP RIJCOSX def2-SVPD def2/J TightSCF
|  2> *xyz 1 1
|  3> C          3.95643        0.50147       -0.37910
|  4> N          3.80389        1.96157       -0.15675
|  5> H          4.20643        2.24441        0.74536
|  6> H          2.80827        2.21132       -0.09610
|  7> H          4.28076        2.50155       -0.89104
|  8> H          3.52890        0.23799       -1.32393
|  9> H          3.45469       -0.03240        0.40073
| 10> H          4.99562        0.24661       -0.37434
| 11> *
| 12>
| 13> %MaxCore 64000
| 14> %pal nprocs 8
| 15> end
| 16>
| 17> %scf
| 18>   MaxIter 150
| 19> end
| 20>
| 21>
| 22>                          ****END OF INPUT****

CARTESIAN COORDINATES (ANGSTROEM)
---------------------------------
  C      3.956430    0.501470   -0.379100
  N      3.803890    1.961570   -0.156750
  H      4.206430    2.244410    0.745360
  H      2.808270    2.211320   -0.096100
  H      4.280760    2.501550   -0.891040
  H      3.528900    0.237990   -1.323930
  H      3.454690   -0.032400    0.400730
  H      4.995620    0.246610   -0.374340

 Total Charge           Charge          ....    1
 Multiplicity           Mult            ....    1
 Number of Electrons    NEL             ....   18
 Basis Dimension        Dim             ....   88

ORBITAL ENERGIES
----------------

  NO   OCC          E(Eh)            E(eV)
   0   2.0000     -14.755544      -401.5188
   1   2.0000     -10.518221      -286.2153
   2   2.0000      -1.301966       -35.4283
   3   2.0000      -1.014528       -27.6067
   4   2.0000      -0.888676       -24.1821
   5   2.0000      -0.877222       -23.8704
   6   2.0000      -0.785686       -21.3796
   7   2.0000      -0.696351       -18.9487
   8   2.0000      -0.694596       -18.9009
   9   0.0000      -0.169263        -4.6059
  10   0.0000      -0.098821        -2.6891
  11   0.0000      -0.096861        -2.6357
  12   0.0000      -0.096296        -2.6203
  13   0.0000      -0.050668        -1.3788

MULLIKEN ATOMIC CHARGES
-----------------------
   0 C :    1.111459
   1 N :   -0.753447
   2 H :    0.337909
   3 H :    0.346580
   4 H :    0.344450
   5 H :   -0.128835
   6 H :   -0.127606
   7 H :   -0.130510
Sum of atomic charges:    1.0000000

LOEWDIN ATOMIC CHARGES
----------------------
   0 C :    0.279482
   1 N :    0.311705
   2 H :    0.108831
   3 H :    0.110723
   4 H :    0.112689
   5 H :    0.025576
   6 H :    0.025671
   7 H :    0.025322

  Mayer bond orders larger than 0.100000
B(  0-C ,  1-N ) :   0.8073 B(  0-C ,  5-H ) :   0.8653 B(  0-C ,  6-H ) :   0.8633
B(  0-C ,  7-H ) :   0.8671 B(  1-N ,  2-H ) :   0.8177 B(  1-N ,  3-H ) :   0.8021
B(  1-N ,  4-H ) :   0.8027 B(  1-N ,  5-H ) :   0.1011 B(  1-N ,  6-H ) :   0.1009

FINAL SINGLE POINT ENERGY       -96.092758425523

DIPOLE MOMENT
-------------
                                X             Y             Z
Electronic contribution:     -0.11088       1.07929       0.14171
Nuclear contribution   :      0.02154      -0.23654       0.01355
                        -----------------------------------------
Total Dipole Moment    :     -0.08934       0.84276       0.15525
                        -----------------------------------------
Magnitude (a.u.)       :      0.86158
Magnitude (Debye)      :      2.18997

Rotational constants in cm-1:     2.873586     0.687737     0.684128
Rotational constants in MHz : 86147.950763 20617.847271 20509.632222

                             ****ORCA TERMINATED NORMALLY****
TOTAL RUN TIME: 0 days 0 hours 0 minutes 4 seconds 824 msec
