                         Program Version 5.0.0 -  RELEASE  -
|  1> !CAM-B3LYP RIJCOSX def2-SVPD def2/J TightSCF
|  2> *xyz 0 1
|  3> C          3.95643        0.50147       -0.37910
|  4> C          3.80389        1.96157       -0.15675
|  5> H          4.20643        2.24441        0.74536
|  6> H          2.80827        2.21132       -0.09610
|  7> H          4.28076        2.50155       -0.89104
|  8> H          3.52890        0.23799       -1.32393
|  9> H          3.45469       -0.03240        0.40073
| 10> H          4.99562        0.24661       -0.37434
| 11> *
| 12>
| 13> %MaxCore 64000
| 14> %pal nprocs 8
| 15> end
| 16>
| 17> %scf
| 18>   MaxIter 150
| 19> end
| 20>
| 21>
| 22>                          ****END OF INPUT****

CARTESIAN COORDINATES (ANGSTROEM)
---------------------------------
  C      3.956430    0.501470   -0.379100
  C      3.803890    1.961570   -0.156750
  H      4.206430    2.244410    0.745360
  H      2.808270    2.211320   -0.096100
  H      4.280760    2.501550   -0.891040
  H      3.528900    0.237990   -1.323930
  H      3.454690   -0.032400    0.400730
  H      4.995620    0.246610   -0.374340

 Total Charge           Charge          ....    0
 Multiplicity           Mult            ....    1
 Number of Electrons    NEL             ....   18
 Basis Dimension        Dim             ....   88

ORBITAL ENERGIES
----------------

  NO   OCC          E(Eh)            E(eV)
   0   2.0000     -10.236062      -278.5374
   1   2.0000     -10.223178      -278.1868
   2   2.0000      -0.846342       -23.0301
   3   2.0000      -0.694411       -18.8959
   4   2.0000      -0.522855       -14.2276
   5   2.0000      -0.516104       -14.0439
   6   2.0000      -0.436296       -11.8722
   7   2.0000      -0.414706       -11.2847
   8   2.0000      -0.408186       -11.1073
   9   0.0000       0.057075         1.5531
  10   0.0000       0.087651         2.3851
  11   0.0000       0.135120         3.6768
  12   0.0000       0.136936         3.7262
  13   0.0000       0.156798         4.2667

MULLIKEN ATOMIC CHARGES
-----------------------
   0 C :    0.436250
   1 C :    0.741071
   2 H :   -0.255453
   3 H :   -0.251940
   4 H :   -0.256396
   5 H :   -0.140828
   6 H :   -0.133917
   7 H :   -0.138787
Sum of atomic charges:    0.0000000

LOEWDIN ATOMIC CHARGES
----------------------
   0 C :    0.076168
   1 C :    0.077464
   2 H :   -0.036184
   3 H :   -0.033975
   4 H :   -0.032155
   5 H :   -0.017231
   6 H :   -0.016716
   7 H :   -0.017370

  Mayer bond orders larger than 0.100000
B(  0-C ,  1-C ) :   1.4179 B(  0-C ,  2-H ) :   0.1803 B(  0-C ,  3-H ) :   0.1876
B(  0-C ,  4-H ) :   0.1837 B(  0-C ,  5-H ) :   0.8259 B(  0-C ,  6-H ) :   0.8273
B(  0-C ,  7-H ) :   0.8308 B(  1-C ,  2-H ) :   0.7112 B(  1-C ,  3-H ) :   0.7199
B(  1-C ,  4-H ) :   0.7305 B(  1-C ,  5-H ) :   0.1657 B(  1-C ,  6-H ) :   0.1691
B(  1-C ,  7-H ) :   0.1657 B(  2-H ,  3-H ) :   0.1156

FINAL SINGLE POINT ENERGY       -79.703461616701

DIPOLE MOMENT
-------------
                                X             Y             Z
Electronic contribution:      0.00227       0.00938      -0.03666
Nuclear contribution   :     -0.00471       0.01526       0.05114
                        -----------------------------------------
Total Dipole Moment    :     -0.00244       0.02464       0.01448
                        -----------------------------------------
Magnitude (a.u.)       :      0.02868
Magnitude (Debye)      :      0.07290

Rotational constants in cm-1:     2.873610     0.717865     0.713933
Rotational constants in MHz : 86148.646881 21521.066032 21403.176468

                             ****ORCA TERMINATED NORMALLY****
TOTAL RUN TIME: 0 days 0 hours 0 minutes 5 seconds 256 msec
