                         Program Version 5.0.0 -  RELEASE  -
|  1> !LC-BLYP RIJCOSX def2-TZVPD def2/J TightSCF
|  2> *xyz -1 1
|  3> C         -1.91658       -2.48508       -3.64367
|  4> C         -1.36353       -1.98134       -2.29361
|  5> O         -0.35039       -2.74969       -1.79601
|  6> H         -2.22622       -1.90839       -1.60204
|  7> H         -1.05135       -0.91567       -2.44333
|  8> H         -1.11522       -2.57167       -4.34739
|  9> H         -2.64227       -1.79099       -4.01314
| 10> H         -2.37564       -3.44180       -3.50640
| 11> *
| 12>
| 13> %MaxCore 64000
| 14> %pal nprocs 4
| 15> end
| 16>
| 17> %scf
| 18>   MaxIter 150
| 19> end
| 20>
| 21>
| 22>                          ****END OF INPUT****

CARTESIAN COORDINATES (ANGSTROEM)
---------------------------------
  C     -1.916580   -2.485080   -3.643670
  C     -1.363530   -1.981340   -2.293610
  O     -0.350390   -2.749690   -1.796010
  H     -2.226220   -1.908390   -1.602040
  H     -1.051350   -0.915670   -2.443330
  H     -1.115220   -2.571670   -4.347390
  H     -2.642270   -1.790990   -4.013140
  H     -2.375640   -3.441800   -3.506400

 Total Charge           Charge          ....   -1
 Multiplicity           Mult            ....    1
 Number of Electrons    NEL             ....   26
 Basis Dimension        Dim             ....  159

ORBITAL ENERGIES
----------------

  NO   OCC          E(Eh)            E(eV)
   0   2.0000     -18.606428      -506.3066
   1   2.0000      -9.884965      -268.9836
   2   2.0000      -9.860074      -268.3062
   3   2.0000      -0.778662       -21.1885
   4   2.0000      -0.635419       -17.2906
   5   2.0000      -0.480511       -13.0754
   6   2.0000      -0.357519        -9.7286
   7   2.0000      -0.333294        -9.0694
   8   2.0000      -0.276540        -7.5250
   9   2.0000      -0.257428        -7.0050
  10   2.0000      -0.214460        -5.8358
  11   2.0000      -0.068314        -1.8589
  12   2.0000      -0.065493        -1.7822
  13   0.0000       0.198092         5.3904
  14   0.0000       0.218957         5.9581
  15   0.0000       0.249267         6.7829
  16   0.0000       0.249773         6.7967
  17   0.0000       0.273198         7.4341

MULLIKEN ATOMIC CHARGES
-----------------------
   0 C :   -1.170598
   1 C :   -0.526305
   2 O :   -0.899844
   3 H :    0.291760
   4 H :    0.289706
   5 H :    0.319475
   6 H :    0.390830
   7 H :    0.304975
Sum of atomic charges:   -1.0000000

LOEWDIN ATOMIC CHARGES
----------------------
   0 C :   -0.182331
   1 C :   -0.651061
   2 O :   -0.411533
   3 H :    0.061043
   4 H :    0.064888
   5 H :    0.043584
   6 H :    0.033005
   7 H :    0.042406

  Mayer bond orders larger than 0.100000
B(  0-C ,  1-C ) :   0.6491 B(  0-C ,  2-O ) :   0.2541 B(  0-C ,  5-H ) :   0.9570
B(  0-C ,  6-H ) :   0.9140 B(  0-C ,  7-H ) :   0.9646 B(  1-C ,  2-O ) :   0.9658
B(  1-C ,  3-H ) :   1.0043 B(  1-C ,  4-H ) :   1.0023 B(  3-H ,  4-H ) :   0.1010

FINAL SINGLE POINT ENERGY      -154.111743712486

DIPOLE MOMENT
-------------
                                X             Y             Z
Electronic contribution:      1.97356      -0.81992       1.79646
Nuclear contribution   :     -3.14382       1.30299      -2.83231
                        -----------------------------------------
Total Dipole Moment    :     -1.17026       0.48307      -1.03584
                        -----------------------------------------
Magnitude (a.u.)       :      1.63580
Magnitude (Debye)      :      4.15787

Rotational constants in cm-1:     1.288206     0.322942     0.285188
Rotational constants in MHz : 38619.437223  9681.562038  8549.712012

                             ****ORCA TERMINATED NORMALLY****
TOTAL RUN TIME: 0 days 0 hours 0 minutes 18 seconds 53 msec
