                         Program Version 5.0.0 -  RELEASE  -
|  1> !LC-BLYP RIJCOSX def2-TZVPD def2/J TightSCF
|  2> *xyz 1 1
|  3> C          1.64703       -2.34528       -5.02041
|  4> C          2.20996       -2.81239       -3.66571
|  5> C          2.48901       -1.66851       -2.73754
|  6> N          3.59631       -0.94761       -2.95225
|  7> N          1.66394       -1.41369       -1.77781
|  8> H          0.81164       -1.96318       -1.70275
|  9> H          1.84550       -0.63508       -1.15875
| 10> H          4.20535       -1.17600       -3.73383
| 11> H          3.81723       -0.12585       -2.40604
| 12> H          3.14311       -3.36280       -3.81152
| 13> H          1.48768       -3.45893       -3.16521
| 14> H          1.46566       -3.19589       -5.64368
| 15> H          2.35406       -1.69850       -5.49654
| 16> H          0.73014       -1.81680       -4.86253
| 17> *
| 18>
| 19> %MaxCore 64000
| 20> %pal nprocs 4
| 21> end
| 22>
| 23> %scf
| 24>   MaxIter 150
| 25> end
| 26>
| 27>
| 28>                          ****END OF INPUT****

CARTESIAN COORDINATES (ANGSTROEM)
---------------------------------
  C      1.647030   -2.345280   -5.020410
  C      2.209960   -2.812390   -3.665710
  C      2.489010   -1.668510   -2.737540
  N      3.596310   -0.947610   -2.952250
  N      1.663940   -1.413690   -1.777810
  H      0.811640   -1.963180   -1.702750
  H      1.845500   -0.635080   -1.158750
  H      4.205350   -1.176000   -3.733830
  H      3.817230   -0.125850   -2.406040
  H      3.143110   -3.362800   -3.811520
  H      1.487680   -3.458930   -3.165210
  H      1.465660   -3.195890   -5.643680
  H      2.354060   -1.698500   -5.496540
  H      0.730140   -1.816800   -4.862530

 Total Charge           Charge          ....    1
 Multiplicity           Mult            ....    1
 Number of Electrons    NEL             ....   40
 Basis Dimension        Dim             ....  266

ORBITAL ENERGIES
----------------

  NO   OCC          E(Eh)            E(eV)
   0   2.0000     -14.420989      -392.4151
   1   2.0000     -14.411459      -392.1557
   2   2.0000     -10.393690      -282.8267
   3   2.0000     -10.267217      -279.3852
   4   2.0000     -10.222154      -278.1590
   5   2.0000      -1.307274       -35.5727
   6   2.0000      -1.210500       -32.9394
   7   2.0000      -1.078260       -29.3410
   8   2.0000      -0.967594       -26.3296
   9   2.0000      -0.924695       -25.1622
  10   2.0000      -0.880375       -23.9562
  11   2.0000      -0.856506       -23.3067
  12   2.0000      -0.804794       -21.8996
  13   2.0000      -0.758809       -20.6482
  14   2.0000      -0.726838       -19.7783
  15   2.0000      -0.717733       -19.5305
  16   2.0000      -0.644180       -17.5290
  17   2.0000      -0.634890       -17.2762
  18   2.0000      -0.628962       -17.1149
  19   2.0000      -0.591623       -16.0989
  20   0.0000      -0.130177        -3.5423
  21   0.0000      -0.113232        -3.0812
  22   0.0000      -0.073563        -2.0018
  23   0.0000      -0.069259        -1.8846
  24   0.0000      -0.049710        -1.3527

MULLIKEN ATOMIC CHARGES
-----------------------
   0 C :   -1.173494
   1 C :   -0.903950
   2 C :    0.714945
   3 N :   -0.332845
   4 N :   -0.266091
   5 H :    0.245243
   6 H :    0.227402
   7 H :    0.243675
   8 H :    0.211575
   9 H :    0.403746
  10 H :    0.423243
  11 H :    0.420082
  12 H :    0.390591
  13 H :    0.395877
Sum of atomic charges:    1.0000000

LOEWDIN ATOMIC CHARGES
----------------------
   0 C :   -0.064458
   1 C :   -0.161202
   2 C :   -0.377269
   3 N :    0.227732
   4 N :    0.244846
   5 H :    0.158645
   6 H :    0.153882
   7 H :    0.148396
   8 H :    0.142832
   9 H :    0.139804
  10 H :    0.129770
  11 H :    0.090463
  12 H :    0.079471
  13 H :    0.087089

  Mayer bond orders larger than 0.100000
B(  0-C ,  1-C ) :   0.5367 B(  0-C , 11-H ) :   0.9145 B(  0-C , 12-H ) :   0.8847
B(  0-C , 13-H ) :   0.9268 B(  1-C ,  2-C ) :   0.6013 B(  1-C ,  9-H ) :   0.9280
B(  1-C , 10-H ) :   0.8860 B(  2-C ,  3-N ) :   1.0651 B(  2-C ,  4-N ) :   1.1849
B(  3-N ,  4-N ) :   0.1108 B(  3-N ,  7-H ) :   0.9469 B(  3-N ,  8-H ) :   1.0179
B(  4-N ,  5-H ) :   0.9375 B(  4-N ,  6-H ) :   1.0018

FINAL SINGLE POINT ENERGY      -228.508681716948

DIPOLE MOMENT
-------------
                                X             Y             Z
Electronic contribution:      1.19208       1.64817       3.62356
Nuclear contribution   :     -0.98617      -1.03178      -2.77619
                        -----------------------------------------
Total Dipole Moment    :      0.20591       0.61640       0.84737
                        -----------------------------------------
Magnitude (a.u.)       :      1.06789
Magnitude (Debye)      :      2.71435

Rotational constants in cm-1:     0.257311     0.127495     0.099037
Rotational constants in MHz :  7713.982239  3822.189706  2969.039713

                             ****ORCA TERMINATED NORMALLY****
TOTAL RUN TIME: 0 days 0 hours 0 minutes 43 seconds 492 msec
