                         Program Version 5.0.0 -  RELEASE  -
|  1> !LC-BLYP RIJCOSX def2-TZVPD def2/J TightSCF xyzfile
|  2>
|  3> *xyzfile 0 1 B.xyz
|  4>
|  5> %MaxCore 64000
|  6>
|  7> %pal nprocs 4
|  8> end
|  9>
| 10> %scf
| 11>   MaxIter 150
| 12> end
| 13>
| 14>
| 15>                          ****END OF INPUT****

CARTESIAN COORDINATES (ANGSTROEM)
---------------------------------
  C      1.647032   -2.345276   -5.020411
  C      0.217628   -1.814022   -4.924389
  C      2.209964   -2.812388   -3.665708
  C     -0.811356   -2.908780   -4.607625
  C     -1.916579   -2.485081   -3.643665
  H     -2.554525   -1.712428   -4.091993
  C     -1.363531   -1.981337   -2.293608
  H     -2.553448   -3.355667   -3.458815
  O     -0.350395   -2.749689   -1.796006
  H      2.308385   -1.588704   -5.457128
  H      1.674286   -3.203478   -5.697392
  C      2.489007   -1.668510   -2.737538
  N      3.596314   -0.947608   -2.952247
  N      1.663936   -1.413685   -1.777806
  H      0.811642   -1.963178   -1.702755
  H      1.845503   -0.635078   -1.158749
  H      4.205351   -1.176003   -3.733825
  H      3.817230   -0.125845   -2.406041
  H     -1.244829   -3.280884   -5.541040
  H     -0.306331   -3.757746   -4.142734
  H     -0.036244   -1.318555   -5.865303
  H      0.175004   -1.035382   -4.158095
  H      3.143106   -3.362803   -3.811524
  H      1.487683   -3.458935   -3.165211
  H     -2.226220   -1.908386   -1.602039
  H     -1.051353   -0.915671   -2.443331

 Total Charge           Charge          ....    0
 Multiplicity           Mult            ....    1
 Number of Electrons    NEL             ....   80
 Basis Dimension        Dim             ....  517

ORBITAL ENERGIES
----------------

  NO   OCC          E(Eh)            E(eV)
   0   2.0000     -18.793513      -511.3975
   1   2.0000     -14.247074      -387.6826
   2   2.0000     -14.201881      -386.4528
   3   2.0000     -10.210966      -277.8545
   4   2.0000     -10.093614      -274.6612
   5   2.0000     -10.081616      -274.3347
   6   2.0000     -10.051819      -273.5239
   7   2.0000     -10.043198      -273.2893
   8   2.0000     -10.032120      -272.9879
   9   2.0000     -10.015520      -272.5362
  10   2.0000      -1.124645       -30.6031
  11   2.0000      -1.030559       -28.0429
  12   2.0000      -0.974347       -26.5133
  13   2.0000      -0.926908       -25.2225
  14   2.0000      -0.864224       -23.5167
  15   2.0000      -0.813570       -22.1384
  16   2.0000      -0.757848       -20.6221
  17   2.0000      -0.740387       -20.1469
  18   2.0000      -0.702834       -19.1251
  19   2.0000      -0.697375       -18.9765
  20   2.0000      -0.669019       -18.2049
  21   2.0000      -0.628160       -17.0931
  22   2.0000      -0.606443       -16.5021
  23   2.0000      -0.595583       -16.2066
  24   2.0000      -0.570678       -15.5289
  25   2.0000      -0.546152       -14.8616
  26   2.0000      -0.536602       -14.6017
  27   2.0000      -0.507037       -13.7972
  28   2.0000      -0.492417       -13.3993
  29   2.0000      -0.489184       -13.3114
  30   2.0000      -0.455641       -12.3986
  31   2.0000      -0.449914       -12.2428
  32   2.0000      -0.437275       -11.8989
  33   2.0000      -0.417879       -11.3711
  34   2.0000      -0.409347       -11.1389
  35   2.0000      -0.396543       -10.7905
  36   2.0000      -0.387768       -10.5517
  37   2.0000      -0.380436       -10.3522
  38   2.0000      -0.265179        -7.2159
  39   2.0000      -0.259006        -7.0479
  40   0.0000       0.018436         0.5017
  41   0.0000       0.037988         1.0337
  42   0.0000       0.052977         1.4416
  43   0.0000       0.069203         1.8831
  44   0.0000       0.072994         1.9863

MULLIKEN ATOMIC CHARGES
-----------------------
   0 C :   -0.739404
   1 C :   -0.720060
   2 C :   -1.049906
   3 C :   -0.612638
   4 C :   -0.931021
   5 H :    0.368051
   6 C :   -0.723121
   7 H :    0.437487
   8 O :   -0.903250
   9 H :    0.388459
  10 H :    0.423388
  11 C :    0.524633
  12 N :   -0.361113
  13 N :   -0.246631
  14 H :    0.368313
  15 H :    0.135073
  16 H :    0.213619
  17 H :    0.187174
  18 H :    0.442622
  19 H :    0.290700
  20 H :    0.435601
  21 H :    0.341908
  22 H :    0.429095
  23 H :    0.526625
  24 H :    0.433017
  25 H :    0.341381
Sum of atomic charges:    0.0000000

LOEWDIN ATOMIC CHARGES
----------------------
   0 C :   -0.202126
   1 C :   -0.212921
   2 C :   -0.122962
   3 C :   -0.228565
   4 C :   -0.215938
   5 H :    0.110513
   6 C :   -0.453432
   7 H :    0.109088
   8 O :   -0.278830
   9 H :    0.108984
  10 H :    0.121873
  11 C :   -0.379791
  12 N :    0.180422
  13 N :    0.241242
  14 H :   -0.034865
  15 H :    0.141523
  16 H :    0.125864
  17 H :    0.122312
  18 H :    0.112307
  19 H :    0.101056
  20 H :    0.115914
  21 H :    0.099597
  22 H :    0.129399
  23 H :    0.114875
  24 H :    0.101326
  25 H :    0.093135

  Mayer bond orders larger than 0.100000
B(  0-C ,  1-C ) :   0.7588 B(  0-C ,  2-C ) :   0.6199 B(  0-C ,  9-H ) :   0.8374
B(  0-C , 10-H ) :   0.9043 B(  1-C ,  3-C ) :   0.4471 B(  1-C , 20-H ) :   0.9012
B(  1-C , 21-H ) :   0.9415 B(  2-C , 11-C ) :   0.6898 B(  2-C , 12-N ) :   0.1277
B(  2-C , 22-H ) :   0.9523 B(  2-C , 23-H ) :   0.7896 B(  3-C ,  4-C ) :   0.7505
B(  3-C ,  6-C ) :  -0.1043 B(  3-C ,  8-O ) :  -0.1171 B(  3-C , 18-H ) :   0.8760
B(  3-C , 19-H ) :   1.0104 B(  4-C ,  5-H ) :   0.9926 B(  4-C ,  6-C ) :   0.6391
B(  4-C ,  7-H ) :   0.8837 B(  6-C ,  8-O ) :   0.8840 B(  6-C , 24-H ) :   0.8910
B(  6-C , 25-H ) :   1.0088 B(  8-O , 11-C ) :  -0.1016 B(  8-O , 13-N ) :  -0.1488
B(  8-O , 14-H ) :   0.3578 B( 11-C , 12-N ) :   0.9274 B( 11-C , 13-N ) :   1.3513
B( 12-N , 13-N ) :   0.1079 B( 12-N , 16-H ) :   0.9862 B( 12-N , 17-H ) :   1.0207
B( 13-N , 14-H ) :   0.5351 B( 13-N , 15-H ) :   1.0714

FINAL SINGLE POINT ENERGY      -460.059464594071

DIPOLE MOMENT
-------------
                                X             Y             Z
Electronic contribution:      5.58203       0.91646       4.28332
Nuclear contribution   :     -2.25948       0.71378      -5.15247
                        -----------------------------------------
Total Dipole Moment    :      3.32254       1.63024      -0.86915
                        -----------------------------------------
Magnitude (a.u.)       :      3.80163
Magnitude (Debye)      :      9.66297

Rotational constants in cm-1:     0.063973     0.031829     0.024059
Rotational constants in MHz :  1917.874550   954.201145   721.285252

                             ****ORCA TERMINATED NORMALLY****
TOTAL RUN TIME: 0 days 0 hours 4 minutes 2 seconds 324 msec
