                         Program Version 5.0.0 -  RELEASE  -
|  1> !LC-BLYP RIJCOSX def2-TZVPD def2/J TightSCF
|  2> *xyz 0 1
|  3> C         -1.91658       -2.48508       -3.64367
|  4> C         -1.36353       -1.98134       -2.29361
|  5> F         -0.35039       -2.74969       -1.79601
|  6> H         -2.22622       -1.90839       -1.60204
|  7> H         -1.05135       -0.91567       -2.44333
|  8> H         -1.11522       -2.57167       -4.34739
|  9> H         -2.64227       -1.79099       -4.01314
| 10> H         -2.37564       -3.44180       -3.50640
| 11> *
| 12>
| 13> %MaxCore 64000
| 14> %pal nprocs 4
| 15> end
| 16>
| 17> %scf
| 18>   MaxIter 150
| 19> end
| 20>
| 21>
| 22>                          ****END OF INPUT****

CARTESIAN COORDINATES (ANGSTROEM)
---------------------------------
  C     -1.916580   -2.485080   -3.643670
  C     -1.363530   -1.981340   -2.293610
  F     -0.350390   -2.749690   -1.796010
  H     -2.226220   -1.908390   -1.602040
  H     -1.051350   -0.915670   -2.443330
  H     -1.115220   -2.571670   -4.347390
  H     -2.642270   -1.790990   -4.013140
  H     -2.375640   -3.441800   -3.506400

 Total Charge           Charge          ....    0
 Multiplicity           Mult            ....    1
 Number of Electrons    NEL             ....   26
 Basis Dimension        Dim             ....  159

ORBITAL ENERGIES
----------------

  NO   OCC          E(Eh)            E(eV)
   0   2.0000     -24.443933      -665.1532
   1   2.0000     -10.149029      -276.1691
   2   2.0000     -10.063955      -273.8541
   3   2.0000      -1.282014       -34.8854
   4   2.0000      -0.873882       -23.7795
   5   2.0000      -0.740241       -20.1430
   6   2.0000      -0.615332       -16.7440
   7   2.0000      -0.602918       -16.4062
   8   2.0000      -0.563694       -15.3389
   9   2.0000      -0.508047       -13.8247
  10   2.0000      -0.502998       -13.6873
  11   2.0000      -0.435438       -11.8489
  12   2.0000      -0.427455       -11.6316
  13   0.0000       0.055363         1.5065
  14   0.0000       0.078803         2.1443
  15   0.0000       0.100244         2.7278
  16   0.0000       0.103551         2.8178
  17   0.0000       0.132193         3.5972

MULLIKEN ATOMIC CHARGES
-----------------------
   0 C :   -1.152997
   1 C :   -0.302811
   2 F :   -0.273051
   3 H :    0.314939
   4 H :    0.309467
   5 H :    0.363525
   6 H :    0.390375
   7 H :    0.350553
Sum of atomic charges:    0.0000000

LOEWDIN ATOMIC CHARGES
----------------------
   0 C :   -0.097038
   1 C :   -0.320792
   2 F :   -0.027456
   3 H :    0.115624
   4 H :    0.120977
   5 H :    0.069306
   6 H :    0.071124
   7 H :    0.068254

  Mayer bond orders larger than 0.100000
B(  0-C ,  1-C ) :   0.6446 B(  0-C ,  5-H ) :   0.9075 B(  0-C ,  6-H ) :   0.9005
B(  0-C ,  7-H ) :   0.9191 B(  1-C ,  2-F ) :   0.8369 B(  1-C ,  3-H ) :   0.9421
B(  1-C ,  4-H ) :   0.9449

FINAL SINGLE POINT ENERGY      -178.740844598837

DIPOLE MOMENT
-------------
                                X             Y             Z
Electronic contribution:      3.59853      -1.34140       3.41694
Nuclear contribution   :     -4.15401       1.70894      -3.75000
                        -----------------------------------------
Total Dipole Moment    :     -0.55549       0.36754      -0.33306
                        -----------------------------------------
Magnitude (a.u.)       :      0.74470
Magnitude (Debye)      :      1.89287

Rotational constants in cm-1:     1.266842     0.300492     0.266603
Rotational constants in MHz : 37978.968232  9008.526876  7992.551454

                             ****ORCA TERMINATED NORMALLY****
TOTAL RUN TIME: 0 days 0 hours 0 minutes 14 seconds 907 msec
