                         Program Version 5.0.0 -  RELEASE  -
|  1> !LC-BLYP RIJCOSX def2-TZVPD def2/J TightSCF
|  2> *xyz 0 1
|  3> C          1.64703       -2.34528       -5.02041
|  4> C          2.20996       -2.81239       -3.66571
|  5> C          2.48901       -1.66851       -2.73754
|  6> C          3.59631       -0.94761       -2.95225
|  7> N          1.66394       -1.41369       -1.77781
|  8> H          0.81164       -1.96318       -1.70275
|  9> H          1.84550       -0.63508       -1.15875
| 10> H          4.20535       -1.17600       -3.73383
| 11> H          3.81723       -0.12585       -2.40604
| 12> H          3.14311       -3.36280       -3.81152
| 13> H          1.48768       -3.45893       -3.16521
| 14> H          1.46566       -3.19589       -5.64368
| 15> H          2.35406       -1.69850       -5.49654
| 16> H          0.73014       -1.81680       -4.86253
| 17> *
| 18>
| 19> %MaxCore 64000
| 20> %pal nprocs 4
| 21> end
| 22>
| 23> %scf
| 24>   MaxIter 150
| 25> end
| 26>
| 27>
| 28>                          ****END OF INPUT****

CARTESIAN COORDINATES (ANGSTROEM)
---------------------------------
  C      1.647030   -2.345280   -5.020410
  C      2.209960   -2.812390   -3.665710
  C      2.489010   -1.668510   -2.737540
  C      3.596310   -0.947610   -2.952250
  N      1.663940   -1.413690   -1.777810
  H      0.811640   -1.963180   -1.702750
  H      1.845500   -0.635080   -1.158750
  H      4.205350   -1.176000   -3.733830
  H      3.817230   -0.125850   -2.406040
  H      3.143110   -3.362800   -3.811520
  H      1.487680   -3.458930   -3.165210
  H      1.465660   -3.195890   -5.643680
  H      2.354060   -1.698500   -5.496540
  H      0.730140   -1.816800   -4.862530

 Total Charge           Charge          ....    0
 Multiplicity           Mult            ....    1
 Number of Electrons    NEL             ....   40
 Basis Dimension        Dim             ....  266

ORBITAL ENERGIES
----------------

  NO   OCC          E(Eh)            E(eV)
   0   2.0000     -14.175395      -385.7321
   1   2.0000     -10.090867      -274.5865
   2   2.0000     -10.068379      -273.9745
   3   2.0000     -10.051417      -273.5130
   4   2.0000      -9.997392      -272.0429
   5   2.0000      -1.041827       -28.3495
   6   2.0000      -0.888673       -24.1820
   7   2.0000      -0.816183       -22.2095
   8   2.0000      -0.747885       -20.3510
   9   2.0000      -0.674150       -18.3446
  10   2.0000      -0.636910       -17.3312
  11   2.0000      -0.586680       -15.9644
  12   2.0000      -0.547544       -14.8994
  13   2.0000      -0.515870       -14.0375
  14   2.0000      -0.497272       -13.5315
  15   2.0000      -0.482374       -13.1261
  16   2.0000      -0.449489       -12.2312
  17   2.0000      -0.437693       -11.9102
  18   2.0000      -0.431998       -11.7553
  19   2.0000      -0.279928        -7.6172
  20   0.0000       0.050456         1.3730
  21   0.0000       0.075446         2.0530
  22   0.0000       0.079905         2.1743
  23   0.0000       0.085009         2.3132
  24   0.0000       0.110987         3.0201

MULLIKEN ATOMIC CHARGES
-----------------------
   0 C :   -1.129533
   1 C :   -0.972517
   2 C :    0.727609
   3 C :   -1.198964
   4 N :   -0.320054
   5 H :    0.192268
   6 H :    0.177000
   7 H :    0.314192
   8 H :    0.337172
   9 H :    0.352871
  10 H :    0.414403
  11 H :    0.381164
  12 H :    0.370008
  13 H :    0.354383
Sum of atomic charges:    0.0000000

LOEWDIN ATOMIC CHARGES
----------------------
   0 C :   -0.101235
   1 C :   -0.213445
   2 C :   -0.520595
   3 C :    0.009399
   4 N :    0.114598
   5 H :    0.113488
   6 H :    0.118620
   7 H :    0.024854
   8 H :    0.017034
   9 H :    0.119765
  10 H :    0.107972
  11 H :    0.066363
  12 H :    0.069828
  13 H :    0.073354

  Mayer bond orders larger than 0.100000
B(  0-C ,  1-C ) :   0.5142 B(  0-C , 11-H ) :   0.9160 B(  0-C , 12-H ) :   0.9377
B(  0-C , 13-H ) :   0.9398 B(  1-C ,  2-C ) :   0.4779 B(  1-C ,  3-C ) :   0.1579
B(  1-C ,  9-H ) :   0.9803 B(  1-C , 10-H ) :   0.9486 B(  2-C ,  3-C ) :   1.0574
B(  2-C ,  4-N ) :   0.9231 B(  2-C ,  8-H ) :  -0.1522 B(  2-C , 10-H ) :  -0.1083
B(  3-C ,  4-N ) :   0.1261 B(  3-C ,  7-H ) :   0.9641 B(  3-C ,  8-H ) :   1.0421
B(  4-N ,  5-H ) :   1.0098 B(  4-N ,  6-H ) :   1.0241

FINAL SINGLE POINT ENERGY      -212.040390400091

DIPOLE MOMENT
-------------
                                X             Y             Z
Electronic contribution:     -0.04249       0.64785       3.00897
Nuclear contribution   :     -0.69146      -0.83112      -2.71336
                        -----------------------------------------
Total Dipole Moment    :     -0.73396      -0.18327       0.29561
                        -----------------------------------------
Magnitude (a.u.)       :      0.81220
Magnitude (Debye)      :      2.06444

Rotational constants in cm-1:     0.270661     0.129240     0.102040
Rotational constants in MHz :  8114.202941  3874.518141  3059.074383

                             ****ORCA TERMINATED NORMALLY****
TOTAL RUN TIME: 0 days 0 hours 0 minutes 46 seconds 77 msec
