                         Program Version 5.0.0 -  RELEASE  -
|  1> !LC-BLYP RIJCOSX def2-TZVPD def2/J TightSCF
|  2> *xyz 0 1
|  3> C          1.64703       -2.34528       -5.02041
|  4> C          2.20996       -2.81239       -3.66571
|  5> C          2.48901       -1.66851       -2.73754
|  6> N          3.59631       -0.94761       -2.95225
|  7> C          1.66394       -1.41369       -1.77781
|  8> H          0.81164       -1.96318       -1.70275
|  9> H          1.84550       -0.63508       -1.15875
| 10> H          4.20535       -1.17600       -3.73383
| 11> H          3.81723       -0.12585       -2.40604
| 12> H          3.14311       -3.36280       -3.81152
| 13> H          1.48768       -3.45893       -3.16521
| 14> H          1.46566       -3.19589       -5.64368
| 15> H          2.35406       -1.69850       -5.49654
| 16> H          0.73014       -1.81680       -4.86253
| 17> *
| 18>
| 19> %MaxCore 64000
| 20> %pal nprocs 4
| 21> end
| 22>
| 23> %scf
| 24>   MaxIter 150
| 25> end
| 26>
| 27>
| 28>                          ****END OF INPUT****

CARTESIAN COORDINATES (ANGSTROEM)
---------------------------------
  C      1.647030   -2.345280   -5.020410
  C      2.209960   -2.812390   -3.665710
  C      2.489010   -1.668510   -2.737540
  N      3.596310   -0.947610   -2.952250
  C      1.663940   -1.413690   -1.777810
  H      0.811640   -1.963180   -1.702750
  H      1.845500   -0.635080   -1.158750
  H      4.205350   -1.176000   -3.733830
  H      3.817230   -0.125850   -2.406040
  H      3.143110   -3.362800   -3.811520
  H      1.487680   -3.458930   -3.165210
  H      1.465660   -3.195890   -5.643680
  H      2.354060   -1.698500   -5.496540
  H      0.730140   -1.816800   -4.862530

 Total Charge           Charge          ....    0
 Multiplicity           Mult            ....    1
 Number of Electrons    NEL             ....   40
 Basis Dimension        Dim             ....  266

ORBITAL ENERGIES
----------------

  NO   OCC          E(Eh)            E(eV)
   0   2.0000     -14.168538      -385.5455
   1   2.0000     -10.087495      -274.4947
   2   2.0000     -10.066710      -273.9291
   3   2.0000     -10.052454      -273.5412
   4   2.0000     -10.000659      -272.1318
   5   2.0000      -1.023911       -27.8620
   6   2.0000      -0.888209       -24.1694
   7   2.0000      -0.830175       -22.5902
   8   2.0000      -0.742969       -20.2172
   9   2.0000      -0.670612       -18.2483
  10   2.0000      -0.625300       -17.0153
  11   2.0000      -0.586852       -15.9691
  12   2.0000      -0.538593       -14.6559
  13   2.0000      -0.527899       -14.3649
  14   2.0000      -0.498490       -13.5646
  15   2.0000      -0.486768       -13.2456
  16   2.0000      -0.449646       -12.2355
  17   2.0000      -0.431110       -11.7311
  18   2.0000      -0.428963       -11.6727
  19   2.0000      -0.291756        -7.9391
  20   0.0000       0.051311         1.3963
  21   0.0000       0.076297         2.0761
  22   0.0000       0.081445         2.2162
  23   0.0000       0.082864         2.2548
  24   0.0000       0.113268         3.0822

MULLIKEN ATOMIC CHARGES
-----------------------
   0 C :   -1.132070
   1 C :   -0.949405
   2 C :    0.714207
   3 N :   -0.371750
   4 C :   -1.117186
   5 H :    0.293449
   6 H :    0.337983
   7 H :    0.178501
   8 H :    0.158438
   9 H :    0.398034
  10 H :    0.379014
  11 H :    0.389239
  12 H :    0.359858
  13 H :    0.361688
Sum of atomic charges:   -0.0000000

LOEWDIN ATOMIC CHARGES
----------------------
   0 C :   -0.102357
   1 C :   -0.214671
   2 C :   -0.511821
   3 N :    0.105275
   4 C :    0.011617
   5 H :    0.034500
   6 H :    0.031150
   7 H :    0.103732
   8 H :    0.106217
   9 H :    0.116453
  10 H :    0.112856
  11 H :    0.066588
  12 H :    0.064821
  13 H :    0.075641

  Mayer bond orders larger than 0.100000
B(  0-C ,  1-C ) :   0.5113 B(  0-C ,  2-C ) :  -0.1109 B(  0-C , 11-H ) :   0.9184
B(  0-C , 12-H ) :   0.9133 B(  0-C , 13-H ) :   0.9740 B(  1-C ,  2-C ) :   0.5487
B(  1-C ,  3-N ) :   0.1308 B(  1-C ,  4-C ) :   0.1689 B(  1-C ,  9-H ) :   0.9629
B(  1-C , 10-H ) :   0.9227 B(  2-C ,  3-N ) :   0.7743 B(  2-C ,  4-C ) :   1.1478
B(  2-C ,  6-H ) :  -0.1529 B(  3-N ,  4-C ) :   0.1290 B(  3-N ,  7-H ) :   1.0249
B(  3-N ,  8-H ) :   1.0417 B(  4-C ,  5-H ) :   0.9903 B(  4-C ,  6-H ) :   1.0419

FINAL SINGLE POINT ENERGY      -212.044979672297

DIPOLE MOMENT
-------------
                                X             Y             Z
Electronic contribution:      1.62842       1.05981       1.99960
Nuclear contribution   :     -1.13902      -0.93906      -2.44135
                        -----------------------------------------
Total Dipole Moment    :      0.48940       0.12074      -0.44175
                        -----------------------------------------
Magnitude (a.u.)       :      0.67025
Magnitude (Debye)      :      1.70364

Rotational constants in cm-1:     0.267243     0.130607     0.102304
Rotational constants in MHz :  8011.748167  3915.504600  3066.999841

                             ****ORCA TERMINATED NORMALLY****
TOTAL RUN TIME: 0 days 0 hours 0 minutes 45 seconds 497 msec
