                         Program Version 5.0.0 -  RELEASE  -
|  1> !LC-BLYP RIJCOSX def2-TZVPD def2/J TightSCF xyzfile
|  2>
|  3> *xyzfile 0 1 D1.xyz
|  4>
|  5> %MaxCore 64000
|  6>
|  7> %pal nprocs 4
|  8> end
|  9>
| 10> %scf
| 11>   MaxIter 150
| 12> end
| 13>
| 14>
| 15>                          ****END OF INPUT****

CARTESIAN COORDINATES (ANGSTROEM)
---------------------------------
  C      1.647032   -2.345276   -5.020411
  C      0.217628   -1.814022   -4.924389
  C      2.209964   -2.812388   -3.665708
  C     -0.811356   -2.908780   -4.607625
  C     -1.916579   -2.485081   -3.643665
  H     -2.554525   -1.712428   -4.091993
  C     -1.363531   -1.981337   -2.293608
  H     -2.553448   -3.355667   -3.458815
  F     -0.350395   -2.749689   -1.796006
  H      2.308385   -1.588704   -5.457128
  H      1.674286   -3.203478   -5.697392
  C      2.489007   -1.668510   -2.737538
  C      3.596314   -0.947608   -2.952247
  N      1.663936   -1.413685   -1.777806
  H      0.811642   -1.963178   -1.702755
  H      1.845503   -0.635078   -1.158749
  H      4.205351   -1.176003   -3.733825
  H      3.817230   -0.125845   -2.406041
  H     -1.244829   -3.280884   -5.541040
  H     -0.306331   -3.757746   -4.142734
  H     -0.036244   -1.318555   -5.865303
  H      0.175004   -1.035382   -4.158095
  H      3.143106   -3.362803   -3.811524
  H      1.487683   -3.458935   -3.165211
  H     -2.226220   -1.908386   -1.602039
  H     -1.051353   -0.915671   -2.443331

 Total Charge           Charge          ....    0
 Multiplicity           Mult            ....    1
 Number of Electrons    NEL             ....   80
 Basis Dimension        Dim             ....  517

ORBITAL ENERGIES
----------------

  NO   OCC          E(Eh)            E(eV)
   0   2.0000     -24.489550      -666.3945
   1   2.0000     -14.139150      -384.7458
   2   2.0000     -10.167699      -276.6772
   3   2.0000     -10.086798      -274.4757
   4   2.0000     -10.075048      -274.1560
   5   2.0000     -10.070209      -274.0243
   6   2.0000     -10.061884      -273.7978
   7   2.0000     -10.058771      -273.7131
   8   2.0000     -10.054714      -273.6027
   9   2.0000      -9.981901      -271.6213
  10   2.0000      -1.337219       -36.3876
  11   2.0000      -1.019821       -27.7507
  12   2.0000      -0.932756       -25.3816
  13   2.0000      -0.890324       -24.2269
  14   2.0000      -0.844986       -22.9932
  15   2.0000      -0.800574       -21.7847
  16   2.0000      -0.776360       -21.1258
  17   2.0000      -0.721157       -19.6237
  18   2.0000      -0.698973       -19.0200
  19   2.0000      -0.683407       -18.5964
  20   2.0000      -0.642190       -17.4749
  21   2.0000      -0.636009       -17.3067
  22   2.0000      -0.618342       -16.8259
  23   2.0000      -0.592392       -16.1198
  24   2.0000      -0.572451       -15.5772
  25   2.0000      -0.565038       -15.3755
  26   2.0000      -0.542666       -14.7667
  27   2.0000      -0.522974       -14.2309
  28   2.0000      -0.521700       -14.1962
  29   2.0000      -0.490607       -13.3501
  30   2.0000      -0.470710       -12.8087
  31   2.0000      -0.463294       -12.6069
  32   2.0000      -0.459551       -12.5050
  33   2.0000      -0.453404       -12.3378
  34   2.0000      -0.440066       -11.9748
  35   2.0000      -0.429395       -11.6844
  36   2.0000      -0.417654       -11.3650
  37   2.0000      -0.409093       -11.1320
  38   2.0000      -0.404199       -10.9988
  39   2.0000      -0.262281        -7.1370
  40   0.0000       0.046889         1.2759
  41   0.0000       0.059037         1.6065
  42   0.0000       0.064951         1.7674
  43   0.0000       0.067582         1.8390
  44   0.0000       0.085199         2.3184

MULLIKEN ATOMIC CHARGES
-----------------------
   0 C :   -0.765703
   1 C :   -0.757634
   2 C :   -1.151755
   3 C :   -0.693495
   4 C :   -0.879858
   5 H :    0.372336
   6 C :   -0.573486
   7 H :    0.440025
   8 F :   -0.391879
   9 H :    0.458515
  10 H :    0.394791
  11 C :    0.636724
  12 C :   -1.234403
  13 N :   -0.375413
  14 H :    0.459216
  15 H :    0.084122
  16 H :    0.314065
  17 H :    0.357768
  18 H :    0.449359
  19 H :    0.327189
  20 H :    0.421466
  21 H :    0.374718
  22 H :    0.415166
  23 H :    0.476444
  24 H :    0.441266
  25 H :    0.400454
Sum of atomic charges:    0.0000000

LOEWDIN ATOMIC CHARGES
----------------------
   0 C :   -0.202361
   1 C :   -0.210918
   2 C :   -0.155644
   3 C :   -0.221498
   4 C :   -0.188551
   5 H :    0.127201
   6 C :   -0.233462
   7 H :    0.115049
   8 F :   -0.009377
   9 H :    0.116958
  10 H :    0.116397
  11 C :   -0.497208
  12 C :    0.005513
  13 N :    0.133410
  14 H :    0.012849
  15 H :    0.123600
  16 H :    0.020983
  17 H :    0.014326
  18 H :    0.120358
  19 H :    0.104933
  20 H :    0.117327
  21 H :    0.102654
  22 H :    0.126138
  23 H :    0.101375
  24 H :    0.130686
  25 H :    0.129265

  Mayer bond orders larger than 0.100000
B(  0-C ,  1-C ) :   0.7389 B(  0-C ,  2-C ) :   0.6571 B(  0-C ,  9-H ) :   0.8139
B(  0-C , 10-H ) :   0.9148 B(  0-C , 12-C ) :  -0.1107 B(  1-C ,  3-C ) :   0.3943
B(  1-C , 19-H ) :  -0.1046 B(  1-C , 20-H ) :   0.9028 B(  1-C , 21-H ) :   0.9627
B(  2-C , 11-C ) :   0.5220 B(  2-C , 12-C ) :   0.1773 B(  2-C , 22-H ) :   0.9744
B(  2-C , 23-H ) :   0.8940 B(  3-C ,  4-C ) :   0.6897 B(  3-C , 18-H ) :   0.8658
B(  3-C , 19-H ) :   1.0205 B(  4-C ,  5-H ) :   0.9604 B(  4-C ,  6-C ) :   0.6406
B(  4-C ,  7-H ) :   0.9043 B(  4-C ,  8-F ) :   0.1225 B(  6-C ,  8-F ) :   0.7182
B(  6-C , 24-H ) :   0.8516 B(  6-C , 25-H ) :   0.9478 B( 11-C , 12-C ) :   1.0744
B( 11-C , 13-N ) :   0.8865 B( 11-C , 17-H ) :  -0.1303 B( 12-C , 13-N ) :   0.1607
B( 12-C , 16-H ) :   1.0249 B( 12-C , 17-H ) :   1.0022 B( 13-N , 14-H ) :   0.6925
B( 13-N , 15-H ) :   1.1101

FINAL SINGLE POINT ENERGY      -468.008834790287

DIPOLE MOMENT
-------------
                                X             Y             Z
Electronic contribution:     -1.31248      -1.74254       6.90251
Nuclear contribution   :     -0.37390       1.73388      -6.94752
                        -----------------------------------------
Total Dipole Moment    :     -1.68638      -0.00865      -0.04501
                        -----------------------------------------
Magnitude (a.u.)       :      1.68700
Magnitude (Debye)      :      4.28802

Rotational constants in cm-1:     0.062220     0.032742     0.024374
Rotational constants in MHz :  1865.297979   981.573941   730.711364

                             ****ORCA TERMINATED NORMALLY****
TOTAL RUN TIME: 0 days 0 hours 3 minutes 32 seconds 303 msec
