                         Program Version 5.0.0 -  RELEASE  -
|  1> !LC-BLYP RIJCOSX def2-TZVPD def2/J TightSCF xyzfile
|  2>
|  3> *xyzfile 0 1 D2.xyz
|  4>
|  5> %MaxCore 64000
|  6>
|  7> %pal nprocs 4
|  8> end
|  9>
| 10> %scf
| 11>   MaxIter 150
| 12> end
| 13>
| 14>
| 15>                          ****END OF INPUT****

CARTESIAN COORDINATES (ANGSTROEM)
---------------------------------
  C      1.647032   -2.345276   -5.020411
  C      0.217628   -1.814022   -4.924389
  C      2.209964   -2.812388   -3.665708
  C     -0.811356   -2.908780   -4.607625
  C     -1.916579   -2.485081   -3.643665
  H     -2.554525   -1.712428   -4.091993
  C     -1.363531   -1.981337   -2.293608
  H     -2.553448   -3.355667   -3.458815
  F     -0.350395   -2.749689   -1.796006
  H      2.308385   -1.588704   -5.457128
  H      1.674286   -3.203478   -5.697392
  C      2.489007   -1.668510   -2.737538
  N      3.596314   -0.947608   -2.952247
  C      1.663936   -1.413685   -1.777806
  H      0.811642   -1.963178   -1.702755
  H      1.845503   -0.635078   -1.158749
  H      4.205351   -1.176003   -3.733825
  H      3.817230   -0.125845   -2.406041
  H     -1.244829   -3.280884   -5.541040
  H     -0.306331   -3.757746   -4.142734
  H     -0.036244   -1.318555   -5.865303
  H      0.175004   -1.035382   -4.158095
  H      3.143106   -3.362803   -3.811524
  H      1.487683   -3.458935   -3.165211
  H     -2.226220   -1.908386   -1.602039
  H     -1.051353   -0.915671   -2.443331

 Total Charge           Charge          ....    0
 Multiplicity           Mult            ....    1
 Number of Electrons    NEL             ....   80
 Basis Dimension        Dim             ....  517

ORBITAL ENERGIES
----------------

  NO   OCC          E(Eh)            E(eV)
   0   2.0000     -24.456529      -665.4960
   1   2.0000     -14.154981      -385.1766
   2   2.0000     -10.148936      -276.1666
   3   2.0000     -10.074834      -274.1502
   4   2.0000     -10.070273      -274.0260
   5   2.0000     -10.062469      -273.8137
   6   2.0000     -10.059681      -273.7378
   7   2.0000     -10.055677      -273.6289
   8   2.0000     -10.054187      -273.5883
   9   2.0000      -9.967867      -271.2394
  10   2.0000      -1.306562       -35.5534
  11   2.0000      -1.010265       -27.4907
  12   2.0000      -0.923490       -25.1294
  13   2.0000      -0.887163       -24.1409
  14   2.0000      -0.835397       -22.7323
  15   2.0000      -0.809921       -22.0391
  16   2.0000      -0.767162       -20.8755
  17   2.0000      -0.711640       -19.3647
  18   2.0000      -0.678839       -18.4722
  19   2.0000      -0.674890       -18.3647
  20   2.0000      -0.633473       -17.2377
  21   2.0000      -0.619770       -16.8648
  22   2.0000      -0.603079       -16.4106
  23   2.0000      -0.593202       -16.1419
  24   2.0000      -0.568226       -15.4622
  25   2.0000      -0.551672       -15.0118
  26   2.0000      -0.545770       -14.8512
  27   2.0000      -0.533988       -14.5306
  28   2.0000      -0.504345       -13.7239
  29   2.0000      -0.484670       -13.1885
  30   2.0000      -0.469441       -12.7741
  31   2.0000      -0.457100       -12.4383
  32   2.0000      -0.449812       -12.2400
  33   2.0000      -0.437857       -11.9147
  34   2.0000      -0.425427       -11.5764
  35   2.0000      -0.421167       -11.4605
  36   2.0000      -0.407905       -11.0997
  37   2.0000      -0.405026       -11.0213
  38   2.0000      -0.389434       -10.5970
  39   2.0000      -0.275198        -7.4885
  40   0.0000       0.054349         1.4789
  41   0.0000       0.060013         1.6330
  42   0.0000       0.065495         1.7822
  43   0.0000       0.073180         1.9913
  44   0.0000       0.085085         2.3153

MULLIKEN ATOMIC CHARGES
-----------------------
   0 C :   -0.717657
   1 C :   -0.677559
   2 C :   -1.140728
   3 C :   -0.730874
   4 C :   -0.875318
   5 H :    0.378742
   6 C :   -0.569104
   7 H :    0.429837
   8 F :   -0.331289
   9 H :    0.425902
  10 H :    0.385781
  11 C :    0.655405
  12 N :   -0.379950
  13 C :   -1.352362
  14 H :    0.596871
  15 H :    0.248420
  16 H :    0.172298
  17 H :    0.160271
  18 H :    0.440242
  19 H :    0.331765
  20 H :    0.425286
  21 H :    0.409336
  22 H :    0.491247
  23 H :    0.386190
  24 H :    0.451439
  25 H :    0.385809
Sum of atomic charges:   -0.0000000

LOEWDIN ATOMIC CHARGES
----------------------
   0 C :   -0.205749
   1 C :   -0.211677
   2 C :   -0.155084
   3 C :   -0.220772
   4 C :   -0.189851
   5 H :    0.125093
   6 C :   -0.237906
   7 H :    0.113679
   8 F :   -0.030688
   9 H :    0.112379
  10 H :    0.115523
  11 C :   -0.481681
  12 N :    0.103591
  13 C :    0.027268
  14 H :   -0.039311
  15 H :    0.043100
  16 H :    0.100165
  17 H :    0.103668
  18 H :    0.118591
  19 H :    0.105604
  20 H :    0.115978
  21 H :    0.102035
  22 H :    0.122620
  23 H :    0.105749
  24 H :    0.129015
  25 H :    0.128663

  Mayer bond orders larger than 0.100000
B(  0-C ,  1-C ) :   0.7748 B(  0-C ,  2-C ) :   0.6545 B(  0-C ,  9-H ) :   0.8069
B(  0-C , 10-H ) :   0.9283 B(  1-C ,  3-C ) :   0.4118 B(  1-C , 19-H ) :  -0.1013
B(  1-C , 20-H ) :   0.9090 B(  1-C , 21-H ) :   0.9385 B(  2-C , 11-C ) :   0.4738
B(  2-C , 12-N ) :   0.2259 B(  2-C , 13-C ) :   0.1579 B(  2-C , 22-H ) :   0.8906
B(  2-C , 23-H ) :   0.9562 B(  3-C ,  4-C ) :   0.7051 B(  3-C , 18-H ) :   0.8786
B(  3-C , 19-H ) :   1.0054 B(  4-C ,  5-H ) :   0.9455 B(  4-C ,  6-C ) :   0.6592
B(  4-C ,  7-H ) :   0.9102 B(  4-C ,  8-F ) :   0.1074 B(  6-C ,  8-F ) :   0.7883
B(  6-C , 13-C ) :   0.1280 B(  6-C , 24-H ) :   0.8234 B(  6-C , 25-H ) :   0.9619
B(  8-F , 13-C ) :   0.1205 B(  8-F , 14-H ) :  -0.3031 B( 11-C , 12-N ) :   0.6909
B( 11-C , 13-C ) :   1.0339 B( 11-C , 15-H ) :  -0.1792 B( 12-N , 16-H ) :   1.0383
B( 12-N , 17-H ) :   1.0390 B( 13-C , 14-H ) :   0.8703 B( 13-C , 15-H ) :   1.2620

FINAL SINGLE POINT ENERGY      -467.992702044938

DIPOLE MOMENT
-------------
                                X             Y             Z
Electronic contribution:      0.38505      -1.31920       6.06659
Nuclear contribution   :     -0.73748       1.64619      -6.72655
                        -----------------------------------------
Total Dipole Moment    :     -0.35244       0.32699      -0.65996
                        -----------------------------------------
Magnitude (a.u.)       :      0.81650
Magnitude (Debye)      :      2.07539

Rotational constants in cm-1:     0.063169     0.031711     0.023958
Rotational constants in MHz :  1893.751676   950.657187   718.229932

                             ****ORCA TERMINATED NORMALLY****
TOTAL RUN TIME: 0 days 0 hours 3 minutes 31 seconds 122 msec
