                         Program Version 5.0.0 -  RELEASE  -
|  1> !TPSS D3BJ RIJCOSX def2-SVPD def2/J TightSCF
|  2> *xyz -1 1
|  3> C         -0.96015       -0.52236       -0.48987
|  4> O          0.26170       -0.58031        0.13861
|  5> H         -0.85050       -0.82220       -1.51113
|  6> H         -1.33436        0.47929       -0.45044
|  7> H         -1.64624       -1.17908        0.00297
|  8> *
|  9>
| 10> %MaxCore 64000
| 11>
| 12> %pal nprocs 4
| 13> end
| 14>
| 15> %scf
| 16>   MaxIter 150
| 17> end
| 18>
| 19>
| 20>                          ****END OF INPUT****

CARTESIAN COORDINATES (ANGSTROEM)
---------------------------------
  C     -0.960150   -0.522360   -0.489870
  O      0.261700   -0.580310    0.138610
  H     -0.850500   -0.822200   -1.511130
  H     -1.334360    0.479290   -0.450440
  H     -1.646240   -1.179080    0.002970

 Total Charge           Charge          ....   -1
 Multiplicity           Mult            ....    1
 Number of Electrons    NEL             ....   18
 Basis Dimension        Dim             ....   67

ORBITAL ENERGIES
----------------

  NO   OCC          E(Eh)            E(eV)
   0   2.0000     -18.549089      -504.7464
   1   2.0000      -9.788755      -266.3656
   2   2.0000      -0.581219       -15.8158
   3   2.0000      -0.341442        -9.2911
   4   2.0000      -0.155297        -4.2258
   5   2.0000      -0.155296        -4.2258
   6   2.0000      -0.054569        -1.4849
   7   2.0000       0.091497         2.4898
   8   2.0000       0.091501         2.4899
   9   0.0000       0.189269         5.1503
  10   0.0000       0.259409         7.0589
  11   0.0000       0.259409         7.0589
  12   0.0000       0.267106         7.2683
  13   0.0000       0.304031         8.2731

MULLIKEN ATOMIC CHARGES
-----------------------
   0 C :    0.807247
   1 O :   -1.049343
   2 H :   -0.252607
   3 H :   -0.252644
   4 H :   -0.252653
Sum of atomic charges:   -1.0000000

LOEWDIN ATOMIC CHARGES
----------------------
   0 C :   -0.105807
   1 O :   -0.637404
   2 H :   -0.085595
   3 H :   -0.085597
   4 H :   -0.085598

  Mayer bond orders larger than 0.100000
B(  0-C ,  1-O ) :   1.1162 B(  0-C ,  2-H ) :   0.9232 B(  0-C ,  3-H ) :   0.9232
B(  0-C ,  4-H ) :   0.9232

Dispersion correction           -0.001756032
FINAL SINGLE POINT ENERGY      -115.034473606231

DIPOLE MOMENT
-------------
                                X             Y             Z
Electronic contribution:      1.69151      -0.08022       0.87007
Nuclear contribution   :     -2.56864       0.12183      -1.32123
                        -----------------------------------------
Total Dipole Moment    :     -0.87713       0.04160      -0.45116
                        -----------------------------------------
Magnitude (a.u.)       :      0.98724
Magnitude (Debye)      :      2.50936

Rotational constants in cm-1:     5.477744     0.932677     0.932677
Rotational constants in MHz : 164218.635293 27960.967920 27960.945417

                             ****ORCA TERMINATED NORMALLY****
TOTAL RUN TIME: 0 days 0 hours 0 minutes 2 seconds 781 msec
