                         Program Version 5.0.0 -  RELEASE  -
|  1> !TPSS D3BJ RIJCOSX def2-SVPD def2/J TightSCF
|  2> *xyz 1 1
|  3> C          4.36645       -0.13321       -1.41606
|  4> C          3.05650       -0.32080       -0.70738
|  5> N          2.38983        0.71129       -0.24391
|  6> N          2.51600       -1.50772       -0.55023
|  7> H          2.96768       -2.32291       -0.95631
|  8> H          1.54987       -1.49063       -0.24988
|  9> H          2.74307        1.64947       -0.41280
| 10> H          1.44036        0.50278        0.03703
| 11> H          4.74975       -1.08632       -1.71533
| 12> H          5.06373        0.34075       -0.75722
| 13> H          4.21960        0.47966       -2.28077
| 14> *
| 15>
| 16> %MaxCore 64000
| 17>
| 18> %pal nprocs 4
| 19> end
| 20>
| 21> %scf
| 22>   MaxIter 150
| 23> end
| 24>
| 25>
| 26>                          ****END OF INPUT****

CARTESIAN COORDINATES (ANGSTROEM)
---------------------------------
  C      4.366450   -0.133210   -1.416060
  C      3.056500   -0.320800   -0.707380
  N      2.389830    0.711290   -0.243910
  N      2.516000   -1.507720   -0.550230
  H      2.967680   -2.322910   -0.956310
  H      1.549870   -1.490630   -0.249880
  H      2.743070    1.649470   -0.412800
  H      1.440360    0.502780    0.037030
  H      4.749750   -1.086320   -1.715330
  H      5.063730    0.340750   -0.757220
  H      4.219600    0.479660   -2.280770

 Total Charge           Charge          ....    1
 Multiplicity           Mult            ....    1
 Number of Electrons    NEL             ....   32
 Basis Dimension        Dim             ....  136

ORBITAL ENERGIES
----------------

  NO   OCC          E(Eh)            E(eV)
   0   2.0000     -14.372400      -391.0929
   1   2.0000     -14.370035      -391.0285
   2   2.0000     -10.321772      -280.8697
   3   2.0000     -10.204512      -277.6789
   4   2.0000      -1.145447       -31.1692
   5   2.0000      -1.045733       -28.4558
   6   2.0000      -0.897630       -24.4257
   7   2.0000      -0.789823       -21.4922
   8   2.0000      -0.739066       -20.1110
   9   2.0000      -0.726909       -19.7802
  10   2.0000      -0.668982       -18.2039
  11   2.0000      -0.621718       -16.9178
  12   2.0000      -0.582523       -15.8513
  13   2.0000      -0.566683       -15.4202
  14   2.0000      -0.543129       -14.7793
  15   2.0000      -0.464255       -12.6330
  16   0.0000      -0.248623        -6.7654
  17   0.0000      -0.183726        -4.9994
  18   0.0000      -0.137912        -3.7528
  19   0.0000      -0.128727        -3.5028
  20   0.0000      -0.109664        -2.9841

MULLIKEN ATOMIC CHARGES
-----------------------
   0 C :    0.575084
   1 C :    0.282588
   2 N :    0.065012
   3 N :   -0.032130
   4 H :    0.039679
   5 H :   -0.030919
   6 H :    0.023529
   7 H :   -0.074269
   8 H :    0.061763
   9 H :    0.052582
  10 H :    0.037081
Sum of atomic charges:    1.0000000

LOEWDIN ATOMIC CHARGES
----------------------
   0 C :    0.249969
   1 C :   -0.070410
   2 N :    0.280375
   3 N :    0.284593
   4 H :    0.060739
   5 H :    0.044080
   6 H :    0.064782
   7 H :    0.042929
   8 H :    0.003660
   9 H :    0.019243
  10 H :    0.020039

  Mayer bond orders larger than 0.100000
B(  0-C ,  1-C ) :   1.3241 B(  0-C ,  8-H ) :   0.7709 B(  0-C ,  9-H ) :   0.7287
B(  0-C , 10-H ) :   0.8035 B(  1-C ,  2-N ) :   1.1498 B(  1-C ,  3-N ) :   1.0185
B(  1-C ,  5-H ) :  -0.1533 B(  1-C ,  7-H ) :  -0.1193 B(  1-C ,  8-H ) :   0.2517
B(  1-C ,  9-H ) :   0.2054 B(  1-C , 10-H ) :   0.1505 B(  2-N ,  3-N ) :   0.2423
B(  2-N ,  6-H ) :   1.1097 B(  2-N ,  7-H ) :   1.2003 B(  3-N ,  4-H ) :   1.0966
B(  3-N ,  5-H ) :   1.2281 B(  4-H ,  5-H ) :  -0.1454 B(  6-H ,  7-H ) :  -0.1356
B(  8-H ,  9-H ) :   0.1126 B(  8-H , 10-H ) :   0.1046

Dispersion correction           -0.008469985
FINAL SINGLE POINT ENERGY      -189.621112769237

DIPOLE MOMENT
-------------
                                X             Y             Z
Electronic contribution:     -1.75653      -0.26883       1.12065
Nuclear contribution   :      1.22976       0.25273      -1.15956
                        -----------------------------------------
Total Dipole Moment    :     -0.52676      -0.01610      -0.03891
                        -----------------------------------------
Magnitude (a.u.)       :      0.52845
Magnitude (Debye)      :      1.34320

Rotational constants in cm-1:     0.347067     0.291236     0.163306
Rotational constants in MHz : 10404.811357  8731.035118  4895.793931

                             ****ORCA TERMINATED NORMALLY****
TOTAL RUN TIME: 0 days 0 hours 0 minutes 6 seconds 315 msec
