                         Program Version 5.0.0 -  RELEASE  -
|  1> !TPSS D3BJ RIJCOSX def2-SVPD def2/J TightSCF
|  2> *xyz 0 1
|  3> C         -0.96015       -0.52236       -0.48987
|  4> F          0.26170       -0.58031        0.13861
|  5> H         -0.85050       -0.82220       -1.51113
|  6> H         -1.33436        0.47929       -0.45044
|  7> H         -1.64624       -1.17908        0.00297
|  8> *
|  9>
| 10> %MaxCore 64000
| 11>
| 12> %pal nprocs 4
| 13> end
| 14>
| 15> %scf
| 16>   MaxIter 150
| 17> end
| 18>
| 19>
| 20>                          ****END OF INPUT****

CARTESIAN COORDINATES (ANGSTROEM)
---------------------------------
  C     -0.960150   -0.522360   -0.489870
  F      0.261700   -0.580310    0.138610
  H     -0.850500   -0.822200   -1.511130
  H     -1.334360    0.479290   -0.450440
  H     -1.646240   -1.179080    0.002970

 Total Charge           Charge          ....    0
 Multiplicity           Mult            ....    1
 Number of Electrons    NEL             ....   18
 Basis Dimension        Dim             ....   67

ORBITAL ENERGIES
----------------

  NO   OCC          E(Eh)            E(eV)
   0   2.0000     -24.411540      -664.2718
   1   2.0000     -10.072944      -274.0988
   2   2.0000      -1.102837       -30.0097
   3   2.0000      -0.649074       -17.6622
   4   2.0000      -0.448998       -12.2179
   5   2.0000      -0.440737       -11.9931
   6   2.0000      -0.440736       -11.9930
   7   2.0000      -0.303842        -8.2680
   8   2.0000      -0.303840        -8.2679
   9   0.0000       0.016012         0.4357
  10   0.0000       0.042644         1.1604
  11   0.0000       0.089727         2.4416
  12   0.0000       0.089729         2.4416
  13   0.0000       0.134179         3.6512

MULLIKEN ATOMIC CHARGES
-----------------------
   0 C :    0.855012
   1 F :   -0.488259
   2 H :   -0.122231
   3 H :   -0.122297
   4 H :   -0.122225
Sum of atomic charges:    0.0000000

LOEWDIN ATOMIC CHARGES
----------------------
   0 C :    0.276212
   1 F :   -0.244919
   2 H :   -0.010430
   3 H :   -0.010432
   4 H :   -0.010431

  Mayer bond orders larger than 0.100000
B(  0-C ,  1-F ) :   0.8363 B(  0-C ,  2-H ) :   0.9461 B(  0-C ,  3-H ) :   0.9461
B(  0-C ,  4-H ) :   0.9461

Dispersion correction           -0.001538196
FINAL SINGLE POINT ENERGY      -139.660760302523

DIPOLE MOMENT
-------------
                                X             Y             Z
Electronic contribution:      2.63004      -0.12473       1.35281
Nuclear contribution   :     -3.25854       0.15455      -1.67609
                        -----------------------------------------
Total Dipole Moment    :     -0.62850       0.02982      -0.32328
                        -----------------------------------------
Magnitude (a.u.)       :      0.70740
Magnitude (Debye)      :      1.79806

Rotational constants in cm-1:     5.477744     0.868130     0.868129
Rotational constants in MHz : 164218.635293 26025.869915 26025.850419

                             ****ORCA TERMINATED NORMALLY****
TOTAL RUN TIME: 0 days 0 hours 0 minutes 2 seconds 476 msec
