                         Program Version 5.0.0 -  RELEASE  -
|  1> !TPSS D3BJ RIJCOSX def2-SVPD def2/J TightSCF
|  2> *xyz 0 1
|  3> C          4.36645       -0.13321       -1.41606
|  4> C          3.05650       -0.32080       -0.70738
|  5> C          2.38983        0.71129       -0.24391
|  6> N          2.51600       -1.50772       -0.55023
|  7> H          2.96768       -2.32291       -0.95631
|  8> H          1.54987       -1.49063       -0.24988
|  9> H          2.74307        1.64947       -0.41280
| 10> H          1.44036        0.50278        0.03703
| 11> H          4.74975       -1.08632       -1.71533
| 12> H          5.06373        0.34075       -0.75722
| 13> H          4.21960        0.47966       -2.28077
| 14> *
| 15>
| 16> %MaxCore 64000
| 17>
| 18> %pal nprocs 4
| 19> end
| 20>
| 21> %scf
| 22>   MaxIter 150
| 23> end
| 24>
| 25>
| 26>                          ****END OF INPUT****

CARTESIAN COORDINATES (ANGSTROEM)
---------------------------------
  C      4.366450   -0.133210   -1.416060
  C      3.056500   -0.320800   -0.707380
  C      2.389830    0.711290   -0.243910
  N      2.516000   -1.507720   -0.550230
  H      2.967680   -2.322910   -0.956310
  H      1.549870   -1.490630   -0.249880
  H      2.743070    1.649470   -0.412800
  H      1.440360    0.502780    0.037030
  H      4.749750   -1.086320   -1.715330
  H      5.063730    0.340750   -0.757220
  H      4.219600    0.479660   -2.280770

 Total Charge           Charge          ....    0
 Multiplicity           Mult            ....    1
 Number of Electrons    NEL             ....   32
 Basis Dimension        Dim             ....  136

ORBITAL ENERGIES
----------------

  NO   OCC          E(Eh)            E(eV)
   0   2.0000     -14.119689      -384.2163
   1   2.0000     -10.012055      -272.4419
   2   2.0000      -9.995379      -271.9881
   3   2.0000      -9.928613      -270.1713
   4   2.0000      -0.861237       -23.4354
   5   2.0000      -0.692860       -18.8537
   6   2.0000      -0.632934       -17.2230
   7   2.0000      -0.515132       -14.0174
   8   2.0000      -0.488737       -13.2992
   9   2.0000      -0.424341       -11.5469
  10   2.0000      -0.391105       -10.6425
  11   2.0000      -0.362465        -9.8632
  12   2.0000      -0.349872        -9.5205
  13   2.0000      -0.319519        -8.6945
  14   2.0000      -0.296736        -8.0746
  15   2.0000      -0.155532        -4.2322
  16   0.0000       0.006333         0.1723
  17   0.0000       0.021412         0.5826
  18   0.0000       0.044809         1.2193
  19   0.0000       0.051173         1.3925
  20   0.0000       0.079476         2.1627

MULLIKEN ATOMIC CHARGES
-----------------------
   0 C :    0.752488
   1 C :   -0.440891
   2 C :    0.311845
   3 N :    0.109248
   4 H :   -0.106278
   5 H :   -0.057341
   6 H :   -0.168640
   7 H :   -0.331202
   8 H :   -0.079357
   9 H :    0.019556
  10 H :   -0.009430
Sum of atomic charges:   -0.0000000

LOEWDIN ATOMIC CHARGES
----------------------
   0 C :    0.181179
   1 C :   -0.287900
   2 C :    0.160298
   3 N :    0.161960
   4 H :    0.001481
   5 H :    0.003066
   6 H :   -0.076081
   7 H :   -0.090735
   8 H :   -0.031660
   9 H :   -0.010862
  10 H :   -0.010744

  Mayer bond orders larger than 0.100000
B(  0-C ,  1-C ) :   1.1645 B(  0-C ,  8-H ) :   0.7164 B(  0-C ,  9-H ) :   0.7332
B(  0-C , 10-H ) :   0.8032 B(  1-C ,  2-C ) :   1.7934 B(  1-C ,  3-N ) :   1.0934
B(  1-C ,  6-H ) :   0.1358 B(  1-C ,  7-H ) :   0.2367 B(  1-C ,  8-H ) :   0.3006
B(  1-C ,  9-H ) :   0.2111 B(  1-C , 10-H ) :   0.1526 B(  2-C ,  3-N ) :   0.2923
B(  2-C ,  6-H ) :   0.8581 B(  2-C ,  7-H ) :   0.8189 B(  3-N ,  4-H ) :   1.1462
B(  3-N ,  5-H ) :   1.1468 B(  4-H ,  5-H ) :  -0.1242

Dispersion correction           -0.008894816
FINAL SINGLE POINT ENERGY      -173.160427992290

DIPOLE MOMENT
-------------
                                X             Y             Z
Electronic contribution:     -1.02297      -1.15669       0.68473
Nuclear contribution   :      1.07959       0.48266      -1.05101
                        -----------------------------------------
Total Dipole Moment    :      0.05662      -0.67403      -0.36629
                        -----------------------------------------
Magnitude (a.u.)       :      0.76921
Magnitude (Debye)      :      1.95519

Rotational constants in cm-1:     0.369235     0.294626     0.169175
Rotational constants in MHz : 11069.394850  8832.653024  5071.734673

                             ****ORCA TERMINATED NORMALLY****
TOTAL RUN TIME: 0 days 0 hours 0 minutes 7 seconds 626 msec
