                         Program Version 5.0.0 -  RELEASE  -
|  1> !TPSS D3BJ RIJCOSX def2-SVPD def2/J TightSCF
|  2> *xyz 0 1
|  3> C          4.36645       -0.13321       -1.41606
|  4> C          3.05650       -0.32080       -0.70738
|  5> N          2.38983        0.71129       -0.24391
|  6> C          2.51600       -1.50772       -0.55023
|  7> H          2.96768       -2.32291       -0.95631
|  8> H          1.54987       -1.49063       -0.24988
|  9> H          2.74307        1.64947       -0.41280
| 10> H          1.44036        0.50278        0.03703
| 11> H          4.74975       -1.08632       -1.71533
| 12> H          5.06373        0.34075       -0.75722
| 13> H          4.21960        0.47966       -2.28077
| 14> *
| 15>
| 16> %MaxCore 64000
| 17>
| 18> %pal nprocs 4
| 19> end
| 20>
| 21> %scf
| 22>   MaxIter 150
| 23> end
| 24>
| 25>
| 26>                          ****END OF INPUT****

CARTESIAN COORDINATES (ANGSTROEM)
---------------------------------
  C      4.366450   -0.133210   -1.416060
  C      3.056500   -0.320800   -0.707380
  N      2.389830    0.711290   -0.243910
  C      2.516000   -1.507720   -0.550230
  H      2.967680   -2.322910   -0.956310
  H      1.549870   -1.490630   -0.249880
  H      2.743070    1.649470   -0.412800
  H      1.440360    0.502780    0.037030
  H      4.749750   -1.086320   -1.715330
  H      5.063730    0.340750   -0.757220
  H      4.219600    0.479660   -2.280770

 Total Charge           Charge          ....    0
 Multiplicity           Mult            ....    1
 Number of Electrons    NEL             ....   32
 Basis Dimension        Dim             ....  136

ORBITAL ENERGIES
----------------

  NO   OCC          E(Eh)            E(eV)
   0   2.0000     -14.118363      -384.1802
   1   2.0000     -10.012981      -272.4671
   2   2.0000      -9.994889      -271.9748
   3   2.0000      -9.932728      -270.2833
   4   2.0000      -0.861326       -23.4379
   5   2.0000      -0.692052       -18.8317
   6   2.0000      -0.634464       -17.2646
   7   2.0000      -0.515157       -14.0181
   8   2.0000      -0.489000       -13.3064
   9   2.0000      -0.424594       -11.5538
  10   2.0000      -0.392571       -10.6824
  11   2.0000      -0.360352        -9.8057
  12   2.0000      -0.352309        -9.5868
  13   2.0000      -0.319807        -8.7024
  14   2.0000      -0.295515        -8.0414
  15   2.0000      -0.159223        -4.3327
  16   0.0000       0.006790         0.1848
  17   0.0000       0.024271         0.6604
  18   0.0000       0.044863         1.2208
  19   0.0000       0.052617         1.4318
  20   0.0000       0.079189         2.1549

MULLIKEN ATOMIC CHARGES
-----------------------
   0 C :    0.764423
   1 C :   -0.556647
   2 N :    0.210741
   3 C :    0.322161
   4 H :   -0.113836
   5 H :   -0.353441
   6 H :   -0.141809
   7 H :   -0.110671
   8 H :    0.037417
   9 H :   -0.023742
  10 H :   -0.034595
Sum of atomic charges:    0.0000000

LOEWDIN ATOMIC CHARGES
----------------------
   0 C :    0.179430
   1 C :   -0.295515
   2 N :    0.159875
   3 C :    0.169977
   4 H :   -0.080622
   5 H :   -0.088596
   6 H :    0.005663
   7 H :    0.001964
   8 H :   -0.017966
   9 H :   -0.018400
  10 H :   -0.015809

  Mayer bond orders larger than 0.100000
B(  0-C ,  1-C ) :   1.3311 B(  0-C ,  8-H ) :   0.7944 B(  0-C ,  9-H ) :   0.6776
B(  0-C , 10-H ) :   0.7026 B(  1-C ,  2-N ) :   1.2170 B(  1-C ,  3-C ) :   1.7256
B(  1-C ,  5-H ) :   0.2201 B(  1-C ,  8-H ) :   0.2340 B(  1-C ,  9-H ) :   0.2710
B(  1-C , 10-H ) :   0.2703 B(  2-N ,  3-C ) :   0.2837 B(  2-N ,  6-H ) :   1.1607
B(  2-N ,  7-H ) :   1.1325 B(  3-C ,  4-H ) :   0.9435 B(  3-C ,  5-H ) :   0.8002
B(  6-H ,  7-H ) :  -0.1060 B(  8-H ,  9-H ) :   0.1009 B(  8-H , 10-H ) :   0.1127

Dispersion correction           -0.008894957
FINAL SINGLE POINT ENERGY      -173.163360440887

DIPOLE MOMENT
-------------
                                X             Y             Z
Electronic contribution:     -1.15659       0.75437       0.96374
Nuclear contribution   :      1.10788      -0.01499      -1.11971
                        -----------------------------------------
Total Dipole Moment    :     -0.04871       0.73937      -0.15597
                        -----------------------------------------
Magnitude (a.u.)       :      0.75721
Magnitude (Debye)      :      1.92469

Rotational constants in cm-1:     0.367851     0.295709     0.169239
Rotational constants in MHz : 11027.892768  8865.123922  5073.656136

                             ****ORCA TERMINATED NORMALLY****
TOTAL RUN TIME: 0 days 0 hours 0 minutes 7 seconds 309 msec
