                         Program Version 5.0.0 -  RELEASE  -
|  1> !TPSS D3BJ RIJCOSX def2-SVPD def2/J TightSCF xyzfile
|  2>
|  3> *xyzfile 0 1 D2.xyz
|  4>
|  5> %MaxCore 64000
|  6>
|  7> %pal nprocs 4
|  8> end
|  9>
| 10> %scf
| 11>   MaxIter 150
| 12> end
| 13>
| 14>
| 15>                          ****END OF INPUT****

CARTESIAN COORDINATES (ANGSTROEM)
---------------------------------
  C      4.366454   -0.133215   -1.416062
  C      4.508292   -0.931872   -2.724249
  H      4.753716   -1.972051   -2.488408
  C      3.294164   -0.918214   -3.656570
  H      5.385637   -0.536236   -3.242640
  H      2.483463   -1.477378   -3.185764
  H      3.553092   -1.478495   -4.560331
  C      2.772335    0.460100   -4.051448
  H      2.608762    1.065107   -3.155194
  C      1.465354    0.410537   -4.853644
  H      3.532940    0.988848   -4.635671
  C      0.326171   -0.375613   -4.192580
  H      1.666704   -0.022269   -5.839323
  H      1.138198    1.439246   -5.035449
  C     -0.017405    0.080588   -2.778406
  H      0.585573   -1.439385   -4.168057
  H     -0.560005   -0.311425   -4.831461
  H      0.902090    0.201296   -2.206729
  C     -0.903495   -0.873945   -1.987388
  H     -0.479549    1.074657   -2.811915
  H     -0.502554   -1.892096   -2.081204
  H     -1.917039   -0.895427   -2.406277
  C     -0.960148   -0.522365   -0.489867
  H     -1.690392   -1.208130   -0.021677
  H     -1.414490    0.486329   -0.406677
  F      0.261703   -0.580307    0.138611
  C      3.056503   -0.320797   -0.707384
  N      2.389825    0.711285   -0.243909
  C      2.515999   -1.507721   -0.550229
  H      2.967683   -2.322915   -0.956305
  H      1.549872   -1.490634   -0.249876
  H      2.743071    1.649471   -0.412802
  H      1.440364    0.502778    0.037031
  H      4.487835    0.932997   -1.611569
  H      5.169672   -0.414432   -0.729817

 Total Charge           Charge          ....    0
 Multiplicity           Mult            ....    1
 Number of Electrons    NEL             ....  104
 Basis Dimension        Dim             ....  439

ORBITAL ENERGIES
----------------

  NO   OCC          E(Eh)            E(eV)
   0   2.0000     -24.447435      -665.2485
   1   2.0000     -14.095188      -383.5496
   2   2.0000     -10.092381      -274.6276
   3   2.0000     -10.011989      -272.4401
   4   2.0000      -9.994598      -271.9669
   5   2.0000      -9.994523      -271.9648
   6   2.0000      -9.993878      -271.9472
   7   2.0000      -9.992006      -271.8963
   8   2.0000      -9.990211      -271.8475
   9   2.0000      -9.989357      -271.8242
  10   2.0000      -9.987217      -271.7660
  11   2.0000      -9.981472      -271.6097
  12   2.0000      -9.906748      -269.5763
  13   2.0000      -1.144273       -31.1373
  14   2.0000      -0.844231       -22.9727
  15   2.0000      -0.753014       -20.4905
  16   2.0000      -0.731413       -19.9028
  17   2.0000      -0.707627       -19.2555
  18   2.0000      -0.667870       -18.1737
  19   2.0000      -0.638274       -17.3683
  20   2.0000      -0.627537       -17.0761
  21   2.0000      -0.585388       -15.9292
  22   2.0000      -0.563519       -15.3341
  23   2.0000      -0.535466       -14.5708
  24   2.0000      -0.506011       -13.7693
  25   2.0000      -0.495611       -13.4863
  26   2.0000      -0.483349       -13.1526
  27   2.0000      -0.473511       -12.8849
  28   2.0000      -0.460254       -12.5242
  29   2.0000      -0.438793       -11.9402
  30   2.0000      -0.431912       -11.7529
  31   2.0000      -0.419568       -11.4170
  32   2.0000      -0.405980       -11.0473
  33   2.0000      -0.395263       -10.7556
  34   2.0000      -0.387293       -10.5388
  35   2.0000      -0.373749       -10.1702
  36   2.0000      -0.355556        -9.6752
  37   2.0000      -0.348299        -9.4777
  38   2.0000      -0.341801        -9.3009
  39   2.0000      -0.329410        -8.9637
  40   2.0000      -0.325633        -8.8609
  41   2.0000      -0.319901        -8.7049
  42   2.0000      -0.314502        -8.5580
  43   2.0000      -0.309676        -8.4267
  44   2.0000      -0.296743        -8.0748
  45   2.0000      -0.291789        -7.9400
  46   2.0000      -0.279452        -7.6043
  47   2.0000      -0.274370        -7.4660
  48   2.0000      -0.272131        -7.4051
  49   2.0000      -0.266074        -7.2402
  50   2.0000      -0.263903        -7.1812
  51   2.0000      -0.140806        -3.8315
  52   0.0000       0.006374         0.1734
  53   0.0000       0.014870         0.4046
  54   0.0000       0.020919         0.5692
  55   0.0000       0.022257         0.6056
  56   0.0000       0.031036         0.8445

MULLIKEN ATOMIC CHARGES
-----------------------
   0 C :    0.536517
   1 C :    0.339277
   2 H :    0.120784
   3 C :   -0.092561
   4 H :   -0.172676
   5 H :   -0.029351
   6 H :   -0.167799
   7 C :   -0.080350
   8 H :    0.093259
   9 C :    0.663066
  10 H :   -0.341675
  11 C :   -0.020305
  12 H :   -0.003319
  13 H :    0.026398
  14 C :    0.541494
  15 H :    0.176163
  16 H :   -0.385341
  17 H :   -0.775498
  18 C :   -0.071258
  19 H :    0.030274
  20 H :    0.054254
  21 H :   -0.137359
  22 C :    1.043591
  23 H :   -0.079446
  24 H :   -0.011044
  25 F :   -0.819460
  26 C :   -0.507104
  27 N :    0.406956
  28 C :    0.565948
  29 H :   -0.142214
  30 H :   -0.453127
  31 H :   -0.105044
  32 H :   -0.150805
  33 H :    0.217439
  34 H :   -0.269684
Sum of atomic charges:   -0.0000000

LOEWDIN ATOMIC CHARGES
----------------------
   0 C :    0.026121
   1 C :   -0.010600
   2 H :    0.015011
   3 C :   -0.021014
   4 H :    0.013039
   5 H :   -0.013670
   6 H :    0.021660
   7 C :   -0.022096
   8 H :   -0.003632
   9 C :   -0.018037
  10 H :    0.018997
  11 C :   -0.024776
  12 H :    0.017110
  13 H :    0.015885
  14 C :   -0.021903
  15 H :    0.009943
  16 H :    0.016227
  17 H :   -0.028457
  18 C :   -0.003574
  19 H :    0.030199
  20 H :    0.027487
  21 H :    0.029326
  22 C :    0.170300
  23 H :    0.031578
  24 H :    0.035607
  25 F :   -0.213656
  26 C :   -0.238058
  27 N :    0.192867
  28 C :    0.196185
  29 H :   -0.074672
  30 H :   -0.134523
  31 H :    0.003296
  32 H :   -0.067050
  33 H :    0.003579
  34 H :    0.021300

  Mayer bond orders larger than 0.100000
B(  0-C ,  1-C ) :   1.1613 B(  0-C ,  3-C ) :   0.1121 B(  0-C ,  4-H ) :   0.1683
B(  0-C , 26-C ) :   1.1606 B(  0-C , 27-N ) :   0.1190 B(  0-C , 29-H ) :  -0.1127
B(  0-C , 33-H ) :   0.5817 B(  0-C , 34-H ) :   0.7780 B(  1-C ,  2-H ) :   0.6503
B(  1-C ,  3-C ) :   1.2898 B(  1-C ,  4-H ) :   0.8272 B(  1-C ,  5-H ) :   0.1592
B(  1-C ,  6-H ) :   0.1014 B(  1-C , 26-C ) :   0.1307 B(  1-C , 28-C ) :   0.1060
B(  1-C , 30-H ) :  -0.1010 B(  1-C , 33-H ) :   0.1242 B(  1-C , 34-H ) :   0.1236
B(  2-H ,  3-C ) :   0.2349 B(  2-H ,  4-H ) :  -0.1592 B(  3-C ,  4-H ) :   0.2173
B(  3-C ,  5-H ) :   0.8212 B(  3-C ,  6-H ) :   0.8608 B(  3-C ,  7-C ) :   1.2632
B(  3-C ,  8-H ) :   0.1084 B(  3-C , 10-H ) :   0.1717 B(  4-H , 29-H ) :  -0.1278
B(  5-H ,  7-C ) :   0.1205 B(  5-H , 15-H ) :   0.1472 B(  5-H , 29-H ) :   0.1346
B(  5-H , 30-H ) :  -0.1038 B(  6-H ,  7-C ) :   0.1610 B(  7-C ,  8-H ) :   0.8416
B(  7-C ,  9-C ) :   1.1289 B(  7-C , 10-H ) :   0.9945 B(  7-C , 11-C ) :   0.1630
B(  7-C , 12-H ) :   0.1206 B(  7-C , 13-H ) :   0.2383 B(  8-H , 17-H ) :   0.1982
B(  9-C , 11-C ) :   1.1380 B(  9-C , 12-H ) :   0.7221 B(  9-C , 13-H ) :   0.6832
B( 11-C , 12-H ) :   0.1708 B( 11-C , 13-H ) :   0.1401 B( 11-C , 14-C ) :   1.1626
B( 11-C , 15-H ) :   0.8129 B( 11-C , 16-H ) :   1.0202 B( 11-C , 17-H ) :   0.2169
B( 11-C , 19-H ) :   0.1081 B( 12-H , 13-H ) :  -0.1026 B( 14-C , 15-H ) :   0.1363
B( 14-C , 16-H ) :   0.2155 B( 14-C , 17-H ) :   0.3646 B( 14-C , 18-C ) :   1.1493
B( 14-C , 19-H ) :   0.6308 B( 14-C , 20-H ) :   0.1262 B( 14-C , 21-H ) :   0.2100
B( 14-C , 22-C ) :   0.1072 B( 17-H , 18-C ) :   0.1828 B( 17-H , 19-H ) :   0.2967
B( 17-H , 29-H ) :   0.1060 B( 18-C , 20-H ) :   0.9104 B( 18-C , 21-H ) :   0.8810
B( 18-C , 22-C ) :   1.1363 B( 18-C , 23-H ) :   0.1933 B( 18-C , 24-H ) :   0.1219
B( 18-C , 25-F ) :   0.1423 B( 22-C , 23-H ) :   0.7317 B( 22-C , 24-H ) :   0.8023
B( 22-C , 25-F ) :   0.6695 B( 23-H , 25-F ) :   0.1088 B( 24-H , 25-F ) :   0.1514
B( 25-F , 26-C ) :   0.1211 B( 25-F , 30-H ) :   0.1844 B( 26-C , 27-N ) :   1.0083
B( 26-C , 28-C ) :   1.9742 B( 26-C , 29-H ) :   0.1446 B( 26-C , 30-H ) :   0.4857
B( 26-C , 33-H ) :   0.2213 B( 26-C , 34-H ) :   0.2824 B( 27-N , 28-C ) :   0.3982
B( 27-N , 29-H ) :   0.1362 B( 27-N , 31-H ) :   1.1098 B( 27-N , 32-H ) :   1.0219
B( 28-C , 29-H ) :   0.7996 B( 28-C , 30-H ) :   0.2679 B( 29-H , 30-H ) :  -0.2555
B( 31-H , 32-H ) :  -0.1607

Dispersion correction           -0.049359949
FINAL SINGLE POINT ENERGY      -586.695216516020

DIPOLE MOMENT
-------------
                                X             Y             Z
Electronic contribution:     -2.79001       0.00236      10.71865
Nuclear contribution   :      1.85154       0.58682     -11.15333
                        -----------------------------------------
Total Dipole Moment    :     -0.93847       0.58919      -0.43468
                        -----------------------------------------
Magnitude (a.u.)       :      1.19030
Magnitude (Debye)      :      3.02551

Rotational constants in cm-1:     0.028379     0.022321     0.014415
Rotational constants in MHz :   850.785777   669.176075   432.155504

                             ****ORCA TERMINATED NORMALLY****
TOTAL RUN TIME: 0 days 0 hours 1 minutes 15 seconds 236 msec
