                         Program Version 5.0.0 -  RELEASE  -
|  1> !BLYP D3BJ RIJCOSX def2-SVPD def2/J TightSCF
|  2> *xyz -1 1
|  3> C          3.51177       -2.80621       -6.49228
|  4> S          3.00462       -1.09621       -6.38926
|  5> O          4.12886       -0.32965       -6.95372
|  6> O          1.78128       -1.00078       -7.13640
|  7> O          2.85155       -0.78368       -4.95679
|  8> H          3.63615       -3.08010       -7.51913
|  9> H          2.76397       -3.42755       -6.04548
| 10> H          4.43892       -2.93511       -5.97393
| 11> *
| 12>
| 13> %MaxCore 64000
| 14>
| 15> %pal nprocs 8
| 16> end
| 17>
| 18> %scf
| 19>   MaxIter 150
| 20> end
| 21>
| 22>
| 23>                          ****END OF INPUT****

CARTESIAN COORDINATES (ANGSTROEM)
---------------------------------
  C      3.511770   -2.806210   -6.492280
  S      3.004620   -1.096210   -6.389260
  O      4.128860   -0.329650   -6.953720
  O      1.781280   -1.000780   -7.136400
  O      2.851550   -0.783680   -4.956790
  H      3.636150   -3.080100   -7.519130
  H      2.763970   -3.427550   -6.045480
  H      4.438920   -2.935110   -5.973930

 Total Charge           Charge          ....   -1
 Multiplicity           Mult            ....    1
 Number of Electrons    NEL             ....   50
 Basis Dimension        Dim             ....  140

ORBITAL ENERGIES
----------------

  NO   OCC          E(Eh)            E(eV)
   0   2.0000     -88.128621     -2398.1017
   1   2.0000     -18.571221      -505.3486
   2   2.0000     -18.561076      -505.0726
   3   2.0000     -18.560540      -505.0580
   4   2.0000      -9.775860      -266.0147
   5   2.0000      -7.665161      -208.5796
   6   2.0000      -5.700228      -155.1111
   7   2.0000      -5.700113      -155.1080
   8   2.0000      -5.699614      -155.0944
   9   2.0000      -0.830866       -22.6090
  10   2.0000      -0.694697       -18.9037
  11   2.0000      -0.674928       -18.3657
  12   2.0000      -0.507065       -13.7979
  13   2.0000      -0.324676        -8.8349
  14   2.0000      -0.241536        -6.5725
  15   2.0000      -0.238040        -6.4774
  16   2.0000      -0.236857        -6.4452
  17   2.0000      -0.192113        -5.2277
  18   2.0000      -0.190518        -5.1843
  19   2.0000      -0.097429        -2.6512
  20   2.0000      -0.096099        -2.6150
  21   2.0000      -0.068311        -1.8588
  22   2.0000      -0.060143        -1.6366
  23   2.0000      -0.051454        -1.4001
  24   2.0000      -0.013713        -0.3732
  25   0.0000       0.135371         3.6836
  26   0.0000       0.174719         4.7543
  27   0.0000       0.174817         4.7570
  28   0.0000       0.177742         4.8366
  29   0.0000       0.199611         5.4317

MULLIKEN ATOMIC CHARGES
-----------------------
   0 C :    0.910495
   1 S :    0.908021
   2 O :   -0.733393
   3 O :   -0.690253
   4 O :   -0.730220
   5 H :   -0.216972
   6 H :   -0.226246
   7 H :   -0.221433
Sum of atomic charges:   -1.0000000

LOEWDIN ATOMIC CHARGES
----------------------
   0 C :    0.061569
   1 S :    0.788980
   2 O :   -0.578508
   3 O :   -0.560166
   4 O :   -0.576836
   5 H :   -0.044955
   6 H :   -0.045908
   7 H :   -0.044176

  Mayer bond orders larger than 0.100000
B(  0-C ,  1-S ) :   0.9138 B(  0-C ,  5-H ) :   0.8404 B(  0-C ,  6-H ) :   0.8408
B(  0-C ,  7-H ) :   0.8438 B(  1-S ,  2-O ) :   1.3488 B(  1-S ,  3-O ) :   1.3849
B(  1-S ,  4-O ) :   1.3477 B(  1-S ,  5-H ) :   0.1415 B(  1-S ,  6-H ) :   0.1427
B(  1-S ,  7-H ) :   0.1512

Dispersion correction           -0.013624013
FINAL SINGLE POINT ENERGY      -663.445200099287

DIPOLE MOMENT
-------------
                                X             Y             Z
Electronic contribution:     -1.30198       4.07801       0.18856
Nuclear contribution   :      1.59265      -5.51967      -0.35565
                        -----------------------------------------
Total Dipole Moment    :      0.29067      -1.44165      -0.16709
                        -----------------------------------------
Magnitude (a.u.)       :      1.48013
Magnitude (Debye)      :      3.76218

Rotational constants in cm-1:     0.172598     0.157065     0.154689
Rotational constants in MHz :  5174.362736  4708.699947  4637.458896

                             ****ORCA TERMINATED NORMALLY****
TOTAL RUN TIME: 0 days 0 hours 0 minutes 3 seconds 353 msec
