                         Program Version 5.0.0 -  RELEASE  -
|  1> !BLYP D3BJ RIJCOSX def2-SVPD def2/J TightSCF
|  2> *xyz 1 1
|  3> C          4.49059        1.15590       -2.46929
|  4> N          4.30539        1.22276       -3.90832
|  5> C          4.63192        2.24637       -4.67096
|  6> N          4.54169        2.14399       -5.98714
|  7> N          5.08409        3.39358       -4.11855
|  8> H          4.92067        3.57050       -3.13587
|  9> H          5.25465        4.19739       -4.70696
| 10> H          3.82453        0.44911       -4.35093
| 11> H          4.34337        1.24932       -6.41665
| 12> H          4.67671        2.95662       -6.57411
| 13> H          5.00867        2.03053       -2.13534
| 14> H          5.06354        0.28631       -2.22344
| 15> H          3.53600        1.10160       -1.98897
| 16> *
| 17>
| 18> %MaxCore 64000
| 19>
| 20> %pal nprocs 8
| 21> end
| 22>
| 23> %scf
| 24>   MaxIter 150
| 25> end
| 26>
| 27>
| 28>                          ****END OF INPUT****

CARTESIAN COORDINATES (ANGSTROEM)
---------------------------------
  C      4.490590    1.155900   -2.469290
  N      4.305390    1.222760   -3.908320
  C      4.631920    2.246370   -4.670960
  N      4.541690    2.143990   -5.987140
  N      5.084090    3.393580   -4.118550
  H      4.920670    3.570500   -3.135870
  H      5.254650    4.197390   -4.706960
  H      3.824530    0.449110   -4.350930
  H      4.343370    1.249320   -6.416650
  H      4.676710    2.956620   -6.574110
  H      5.008670    2.030530   -2.135340
  H      5.063540    0.286310   -2.223440
  H      3.536000    1.101600   -1.988970

 Total Charge           Charge          ....    1
 Multiplicity           Mult            ....    1
 Number of Electrons    NEL             ....   40
 Basis Dimension        Dim             ....  164

ORBITAL ENERGIES
----------------

  NO   OCC          E(Eh)            E(eV)
   0   2.0000     -14.253582      -387.8597
   1   2.0000     -14.250085      -387.7645
   2   2.0000     -14.247108      -387.6835
   3   2.0000     -10.252174      -278.9758
   4   2.0000     -10.129961      -275.6503
   5   2.0000      -1.119329       -30.4585
   6   2.0000      -1.017410       -27.6851
   7   2.0000      -1.002293       -27.2738
   8   2.0000      -0.835000       -22.7215
   9   2.0000      -0.764741       -20.8096
  10   2.0000      -0.733414       -19.9572
  11   2.0000      -0.701163       -19.0796
  12   2.0000      -0.643457       -17.5093
  13   2.0000      -0.641750       -17.4629
  14   2.0000      -0.603859       -16.4318
  15   2.0000      -0.593473       -16.1492
  16   2.0000      -0.544776       -14.8241
  17   2.0000      -0.536799       -14.6071
  18   2.0000      -0.435506       -11.8507
  19   2.0000      -0.415675       -11.3111
  20   0.0000      -0.200602        -5.4587
  21   0.0000      -0.180520        -4.9122
  22   0.0000      -0.148210        -4.0330
  23   0.0000      -0.140337        -3.8188
  24   0.0000      -0.119598        -3.2544

MULLIKEN ATOMIC CHARGES
-----------------------
   0 C :    1.614532
   1 N :   -0.403074
   2 C :    1.085575
   3 N :    0.241336
   4 N :    0.206632
   5 H :   -0.121265
   6 H :   -0.202786
   7 H :   -0.345097
   8 H :   -0.140733
   9 H :   -0.110105
  10 H :   -0.349022
  11 H :   -0.225483
  12 H :   -0.250510
Sum of atomic charges:    1.0000000

LOEWDIN ATOMIC CHARGES
----------------------
   0 C :    0.278015
   1 N :    0.036235
   2 C :   -0.060815
   3 N :    0.281786
   4 N :    0.294713
   5 H :    0.006218
   6 H :    0.031520
   7 H :    0.059707
   8 H :    0.037069
   9 H :    0.036626
  10 H :   -0.021916
  11 H :    0.011150
  12 H :    0.009693

  Mayer bond orders larger than 0.100000
B(  0-C ,  1-N ) :   0.9948 B(  0-C ,  7-H ) :  -0.2116 B(  0-C , 10-H ) :   0.7210
B(  0-C , 11-H ) :   0.6454 B(  0-C , 12-H ) :   0.6682 B(  1-N ,  2-C ) :   1.0892
B(  1-N ,  3-N ) :   0.2501 B(  1-N ,  4-N ) :   0.2763 B(  1-N ,  7-H ) :   1.3292
B(  1-N , 10-H ) :   0.2257 B(  1-N , 11-H ) :   0.2298 B(  1-N , 12-H ) :   0.2053
B(  2-C ,  3-N ) :   0.9574 B(  2-C ,  4-N ) :   1.0019 B(  2-C ,  5-H ) :  -0.1332
B(  2-C ,  6-H ) :  -0.1713 B(  2-C ,  7-H ) :  -0.2712 B(  2-C ,  8-H ) :  -0.1897
B(  2-C ,  9-H ) :  -0.1337 B(  3-N ,  4-N ) :   0.1859 B(  3-N ,  8-H ) :   1.2152
B(  3-N ,  9-H ) :   1.2047 B(  4-N ,  5-H ) :   1.1015 B(  4-N ,  6-H ) :   1.2248
B(  5-H ,  6-H ) :  -0.1736 B(  5-H , 10-H ) :   0.1151 B(  8-H ,  9-H ) :  -0.1927

Dispersion correction           -0.018488903
FINAL SINGLE POINT ENERGY      -244.836949226584

DIPOLE MOMENT
-------------
                                X             Y             Z
Electronic contribution:      0.03254       0.68196      -2.66797
Nuclear contribution   :     -0.23495      -0.48067       2.19509
                        -----------------------------------------
Total Dipole Moment    :     -0.20241       0.20129      -0.47288
                        -----------------------------------------
Magnitude (a.u.)       :      0.55236
Magnitude (Debye)      :      1.40399

Rotational constants in cm-1:     0.315679     0.134071     0.096006
Rotational constants in MHz :  9463.824527  4019.347586  2878.182223

                             ****ORCA TERMINATED NORMALLY****
TOTAL RUN TIME: 0 days 0 hours 0 minutes 4 seconds 249 msec
