                         Program Version 5.0.0 -  RELEASE  -
|  1> !BLYP D3BJ RIJCOSX def2-SVPD def2/J TightSCF
|  2> *xyz 0 1
|  3> C          3.51177       -2.80621       -6.49228
|  4> S          3.00462       -1.09621       -6.38926
|  5> F          4.12886       -0.32965       -6.95372
|  6> O          1.78128       -1.00078       -7.13640
|  7> O          2.85155       -0.78368       -4.95679
|  8> H          3.63615       -3.08010       -7.51913
|  9> H          2.76397       -3.42755       -6.04548
| 10> H          4.43892       -2.93511       -5.97393
| 11> *
| 12>
| 13> %MaxCore 64000
| 14>
| 15> %pal nprocs 8
| 16> end
| 17>
| 18> %scf
| 19>   MaxIter 150
| 20> end
| 21>
| 22>
| 23>                          ****END OF INPUT****

CARTESIAN COORDINATES (ANGSTROEM)
---------------------------------
  C      3.511770   -2.806210   -6.492280
  S      3.004620   -1.096210   -6.389260
  F      4.128860   -0.329650   -6.953720
  O      1.781280   -1.000780   -7.136400
  O      2.851550   -0.783680   -4.956790
  H      3.636150   -3.080100   -7.519130
  H      2.763970   -3.427550   -6.045480
  H      4.438920   -2.935110   -5.973930

 Total Charge           Charge          ....    0
 Multiplicity           Mult            ....    1
 Number of Electrons    NEL             ....   50
 Basis Dimension        Dim             ....  140

ORBITAL ENERGIES
----------------

  NO   OCC          E(Eh)            E(eV)
   0   2.0000     -88.388663     -2405.1778
   1   2.0000     -24.408090      -664.1779
   2   2.0000     -18.807947      -511.7903
   3   2.0000     -18.797520      -511.5065
   4   2.0000      -9.984077      -271.6806
   5   2.0000      -7.925974      -215.6767
   6   2.0000      -5.965175      -162.3207
   7   2.0000      -5.958876      -162.1493
   8   2.0000      -5.957610      -162.1148
   9   2.0000      -1.244217       -33.8569
  10   2.0000      -1.020140       -27.7594
  11   2.0000      -0.922063       -25.0906
  12   2.0000      -0.727901       -19.8072
  13   2.0000      -0.638651       -17.3786
  14   2.0000      -0.532700       -14.4955
  15   2.0000      -0.506166       -13.7735
  16   2.0000      -0.493015       -13.4156
  17   2.0000      -0.429929       -11.6990
  18   2.0000      -0.426663       -11.6101
  19   2.0000      -0.416528       -11.3343
  20   2.0000      -0.390819       -10.6347
  21   2.0000      -0.340304        -9.2601
  22   2.0000      -0.298104        -8.1118
  23   2.0000      -0.286152        -7.7866
  24   2.0000      -0.266095        -7.2408
  25   0.0000      -0.032532        -0.8852
  26   0.0000       0.002423         0.0659
  27   0.0000       0.012639         0.3439
  28   0.0000       0.031812         0.8657
  29   0.0000       0.032094         0.8733

MULLIKEN ATOMIC CHARGES
-----------------------
   0 C :    0.876563
   1 S :    1.090244
   2 F :   -0.348524
   3 O :   -0.554228
   4 O :   -0.590216
   5 H :   -0.150038
   6 H :   -0.165142
   7 H :   -0.158659
Sum of atomic charges:    0.0000000

LOEWDIN ATOMIC CHARGES
----------------------
   0 C :    0.129220
   1 S :    1.061611
   2 F :   -0.257162
   3 O :   -0.440756
   4 O :   -0.455418
   5 H :   -0.016856
   6 H :   -0.003731
   7 H :   -0.016908

  Mayer bond orders larger than 0.100000
B(  0-C ,  1-S ) :   0.9733 B(  0-C ,  5-H ) :   0.8462 B(  0-C ,  6-H ) :   0.8410
B(  0-C ,  7-H ) :   0.8490 B(  1-S ,  2-F ) :   0.7239 B(  1-S ,  3-O ) :   1.5843
B(  1-S ,  4-O ) :   1.5465 B(  1-S ,  5-H ) :   0.1160 B(  1-S ,  6-H ) :   0.1429
B(  1-S ,  7-H ) :   0.1239 B(  3-O ,  4-O ) :   0.1082

Dispersion correction           -0.012763747
FINAL SINGLE POINT ENERGY      -687.948971548370

DIPOLE MOMENT
-------------
                                X             Y             Z
Electronic contribution:      0.54715       5.26904      -0.75813
Nuclear contribution   :      0.51040      -6.36905       0.21167
                        -----------------------------------------
Total Dipole Moment    :      1.05754      -1.10001      -0.54646
                        -----------------------------------------
Magnitude (a.u.)       :      1.62081
Magnitude (Debye)      :      4.11978

Rotational constants in cm-1:     0.163860     0.154073     0.147119
Rotational constants in MHz :  4912.396151  4618.979177  4410.507958

                             ****ORCA TERMINATED NORMALLY****
TOTAL RUN TIME: 0 days 0 hours 0 minutes 3 seconds 620 msec
