                         Program Version 5.0.0 -  RELEASE  -
|  1> !BLYP D3BJ RIJCOSX def2-SVPD def2/J TightSCF
|  2> *xyz 0 1
|  3> C          4.49059        1.15590       -2.46929
|  4> C          4.30539        1.22276       -3.90832
|  5> C          4.63192        2.24637       -4.67096
|  6> N          4.54169        2.14399       -5.98714
|  7> N          5.08409        3.39358       -4.11855
|  8> H          4.92067        3.57050       -3.13587
|  9> H          5.25465        4.19739       -4.70696
| 10> H          3.82453        0.44911       -4.35093
| 11> H          4.34337        1.24932       -6.41665
| 12> H          4.67671        2.95662       -6.57411
| 13> H          5.00867        2.03053       -2.13534
| 14> H          5.06354        0.28631       -2.22344
| 15> H          3.53600        1.10160       -1.98897
| 16> *
| 17>
| 18> %MaxCore 64000
| 19>
| 20> %pal nprocs 8
| 21> end
| 22>
| 23> %scf
| 24>   MaxIter 150
| 25> end
| 26>
| 27>
| 28>                          ****END OF INPUT****

CARTESIAN COORDINATES (ANGSTROEM)
---------------------------------
  C      4.490590    1.155900   -2.469290
  C      4.305390    1.222760   -3.908320
  C      4.631920    2.246370   -4.670960
  N      4.541690    2.143990   -5.987140
  N      5.084090    3.393580   -4.118550
  H      4.920670    3.570500   -3.135870
  H      5.254650    4.197390   -4.706960
  H      3.824530    0.449110   -4.350930
  H      4.343370    1.249320   -6.416650
  H      4.676710    2.956620   -6.574110
  H      5.008670    2.030530   -2.135340
  H      5.063540    0.286310   -2.223440
  H      3.536000    1.101600   -1.988970

 Total Charge           Charge          ....    0
 Multiplicity           Mult            ....    1
 Number of Electrons    NEL             ....   40
 Basis Dimension        Dim             ....  164

ORBITAL ENERGIES
----------------

  NO   OCC          E(Eh)            E(eV)
   0   2.0000     -14.021660      -381.5488
   1   2.0000     -14.021097      -381.5334
   2   2.0000      -9.956035      -270.9175
   3   2.0000      -9.887475      -269.0519
   4   2.0000      -9.844783      -267.8902
   5   2.0000      -0.859140       -23.3784
   6   2.0000      -0.776248       -21.1228
   7   2.0000      -0.667701       -18.1691
   8   2.0000      -0.582297       -15.8451
   9   2.0000      -0.520003       -14.1500
  10   2.0000      -0.482973       -13.1424
  11   2.0000      -0.453958       -12.3528
  12   2.0000      -0.422149       -11.4873
  13   2.0000      -0.372205       -10.1282
  14   2.0000      -0.354953        -9.6588
  15   2.0000      -0.324328        -8.8254
  16   2.0000      -0.312406        -8.5010
  17   2.0000      -0.297138        -8.0855
  18   2.0000      -0.216306        -5.8860
  19   2.0000      -0.122081        -3.3220
  20   0.0000      -0.006058        -0.1648
  21   0.0000       0.022025         0.5993
  22   0.0000       0.034142         0.9291
  23   0.0000       0.055558         1.5118
  24   0.0000       0.062121         1.6904

MULLIKEN ATOMIC CHARGES
-----------------------
   0 C :    1.404086
   1 C :   -0.677338
   2 C :    0.884244
   3 N :    0.332509
   4 N :    0.268612
   5 H :   -0.142581
   6 H :   -0.349724
   7 H :   -0.541446
   8 H :   -0.154372
   9 H :   -0.244306
  10 H :   -0.452120
  11 H :   -0.131792
  12 H :   -0.195773
Sum of atomic charges:    0.0000000

LOEWDIN ATOMIC CHARGES
----------------------
   0 C :    0.114248
   1 C :   -0.060971
   2 C :   -0.239886
   3 N :    0.195066
   4 N :    0.214403
   5 H :   -0.027034
   6 H :   -0.022012
   7 H :   -0.053930
   8 H :    0.000575
   9 H :   -0.018632
  10 H :   -0.051961
  11 H :   -0.024432
  12 H :   -0.025434

  Mayer bond orders larger than 0.100000
B(  0-C ,  1-C ) :   1.0715 B(  0-C ,  7-H ) :   0.2197 B(  0-C , 10-H ) :   0.5549
B(  0-C , 11-H ) :   0.5642 B(  0-C , 12-H ) :   0.5994 B(  1-C ,  2-C ) :   1.3608
B(  1-C ,  3-N ) :   0.4483 B(  1-C ,  4-N ) :   0.3239 B(  1-C ,  7-H ) :   0.8781
B(  1-C , 10-H ) :   0.5582 B(  1-C , 11-H ) :   0.2568 B(  1-C , 12-H ) :   0.2157
B(  2-C ,  3-N ) :   0.9370 B(  2-C ,  4-N ) :   1.0508 B(  2-C ,  6-H ) :  -0.1622
B(  2-C ,  7-H ) :   0.1258 B(  2-C ,  8-H ) :  -0.1092 B(  2-C , 10-H ) :  -0.1685
B(  3-N ,  4-N ) :   0.1272 B(  3-N ,  8-H ) :   1.1991 B(  3-N ,  9-H ) :   1.1651
B(  4-N ,  5-H ) :   1.0810 B(  4-N ,  6-H ) :   1.2439 B(  5-H ,  6-H ) :  -0.1591
B(  8-H ,  9-H ) :  -0.1798 B( 10-H , 11-H ) :   0.1733

Dispersion correction           -0.019438275
FINAL SINGLE POINT ENERGY      -228.359644894060

DIPOLE MOMENT
-------------
                                X             Y             Z
Electronic contribution:      0.29995       1.32558      -2.86468
Nuclear contribution   :     -0.29662      -0.64714       2.26125
                        -----------------------------------------
Total Dipole Moment    :      0.00333       0.67844      -0.60343
                        -----------------------------------------
Magnitude (a.u.)       :      0.90798
Magnitude (Debye)      :      2.30789

Rotational constants in cm-1:     0.320965     0.135060     0.096994
Rotational constants in MHz :  9622.302637  4048.999301  2907.812202

                             ****ORCA TERMINATED NORMALLY****
TOTAL RUN TIME: 0 days 0 hours 0 minutes 4 seconds 660 msec
