                         Program Version 5.0.0 -  RELEASE  -
|  1> !BLYP D3BJ RIJCOSX def2-SVPD def2/J TightSCF
|  2> *xyz 0 1
|  3> C          3.51177       -2.80621       -6.49228
|  4> S          3.00462       -1.09621       -6.38926
|  5> O          4.12886       -0.32965       -6.95372
|  6> F          1.78128       -1.00078       -7.13640
|  7> O          2.85155       -0.78368       -4.95679
|  8> H          3.63615       -3.08010       -7.51913
|  9> H          2.76397       -3.42755       -6.04548
| 10> H          4.43892       -2.93511       -5.97393
| 11> *
| 12>
| 13> %MaxCore 64000
| 14>
| 15> %pal nprocs 8
| 16> end
| 17>
| 18> %scf
| 19>   MaxIter 150
| 20> end
| 21>
| 22>
| 23>                          ****END OF INPUT****

CARTESIAN COORDINATES (ANGSTROEM)
---------------------------------
  C      3.511770   -2.806210   -6.492280
  S      3.004620   -1.096210   -6.389260
  O      4.128860   -0.329650   -6.953720
  F      1.781280   -1.000780   -7.136400
  O      2.851550   -0.783680   -4.956790
  H      3.636150   -3.080100   -7.519130
  H      2.763970   -3.427550   -6.045480
  H      4.438920   -2.935110   -5.973930

 Total Charge           Charge          ....    0
 Multiplicity           Mult            ....    1
 Number of Electrons    NEL             ....   50
 Basis Dimension        Dim             ....  140

ORBITAL ENERGIES
----------------

  NO   OCC          E(Eh)            E(eV)
   0   2.0000     -88.390772     -2405.2352
   1   2.0000     -24.425288      -664.6459
   2   2.0000     -18.797954      -511.5183
   3   2.0000     -18.797251      -511.4992
   4   2.0000      -9.984748      -271.6988
   5   2.0000      -7.928034      -215.7328
   6   2.0000      -5.967482      -162.3834
   7   2.0000      -5.960716      -162.1993
   8   2.0000      -5.959492      -162.1660
   9   2.0000      -1.274318       -34.6760
  10   2.0000      -1.007595       -27.4181
  11   2.0000      -0.908887       -24.7321
  12   2.0000      -0.729851       -19.8603
  13   2.0000      -0.652717       -17.7613
  14   2.0000      -0.545022       -14.8308
  15   2.0000      -0.526805       -14.3351
  16   2.0000      -0.497988       -13.5510
  17   2.0000      -0.430478       -11.7139
  18   2.0000      -0.425357       -11.5745
  19   2.0000      -0.416912       -11.3448
  20   2.0000      -0.386057       -10.5051
  21   2.0000      -0.332868        -9.0578
  22   2.0000      -0.289966        -7.8904
  23   2.0000      -0.280919        -7.6442
  24   2.0000      -0.255955        -6.9649
  25   0.0000      -0.033284        -0.9057
  26   0.0000       0.004777         0.1300
  27   0.0000       0.011138         0.3031
  28   0.0000       0.028812         0.7840
  29   0.0000       0.031379         0.8539

MULLIKEN ATOMIC CHARGES
-----------------------
   0 C :    0.877401
   1 S :    1.085520
   2 O :   -0.582746
   3 F :   -0.327512
   4 O :   -0.580700
   5 H :   -0.150773
   6 H :   -0.159097
   7 H :   -0.162094
Sum of atomic charges:   -0.0000000

LOEWDIN ATOMIC CHARGES
----------------------
   0 C :    0.128538
   1 S :    1.063063
   2 O :   -0.456805
   3 F :   -0.242215
   4 O :   -0.454961
   5 H :   -0.017156
   6 H :   -0.017788
   7 H :   -0.002676

  Mayer bond orders larger than 0.100000
B(  0-C ,  1-S ) :   0.9744 B(  0-C ,  5-H ) :   0.8447 B(  0-C ,  6-H ) :   0.8461
B(  0-C ,  7-H ) :   0.8451 B(  1-S ,  2-O ) :   1.5516 B(  1-S ,  3-F ) :   0.7701
B(  1-S ,  4-O ) :   1.5491 B(  1-S ,  5-H ) :   0.1145 B(  1-S ,  6-H ) :   0.1157
B(  1-S ,  7-H ) :   0.1497

Dispersion correction           -0.012763079
FINAL SINGLE POINT ENERGY      -687.934374005796

DIPOLE MOMENT
-------------
                                X             Y             Z
Electronic contribution:     -3.30175       4.16842      -1.04682
Nuclear contribution   :      2.85578      -5.69854       0.39418
                        -----------------------------------------
Total Dipole Moment    :     -0.44597      -1.53012      -0.65265
                        -----------------------------------------
Magnitude (a.u.)       :      1.72224
Magnitude (Debye)      :      4.37758

Rotational constants in cm-1:     0.163257     0.155833     0.146211
Rotational constants in MHz :  4894.333085  4671.750883  4383.281537

                             ****ORCA TERMINATED NORMALLY****
TOTAL RUN TIME: 0 days 0 hours 0 minutes 3 seconds 671 msec
