                         Program Version 5.0.0 -  RELEASE  -
|  1> !BLYP D3BJ RIJCOSX def2-SVPD def2/J TightSCF
|  2> *xyz 0 1
|  3> C          4.49059        1.15590       -2.46929
|  4> N          4.30539        1.22276       -3.90832
|  5> C          4.63192        2.24637       -4.67096
|  6> C          4.54169        2.14399       -5.98714
|  7> N          5.08409        3.39358       -4.11855
|  8> H          4.92067        3.57050       -3.13587
|  9> H          5.25465        4.19739       -4.70696
| 10> H          3.82453        0.44911       -4.35093
| 11> H          4.34337        1.24932       -6.41665
| 12> H          4.67671        2.95662       -6.57411
| 13> H          5.00867        2.03053       -2.13534
| 14> H          5.06354        0.28631       -2.22344
| 15> H          3.53600        1.10160       -1.98897
| 16> *
| 17>
| 18> %MaxCore 64000
| 19>
| 20> %pal nprocs 8
| 21> end
| 22>
| 23> %scf
| 24>   MaxIter 150
| 25> end
| 26>
| 27>
| 28>                          ****END OF INPUT****

CARTESIAN COORDINATES (ANGSTROEM)
---------------------------------
  C      4.490590    1.155900   -2.469290
  N      4.305390    1.222760   -3.908320
  C      4.631920    2.246370   -4.670960
  C      4.541690    2.143990   -5.987140
  N      5.084090    3.393580   -4.118550
  H      4.920670    3.570500   -3.135870
  H      5.254650    4.197390   -4.706960
  H      3.824530    0.449110   -4.350930
  H      4.343370    1.249320   -6.416650
  H      4.676710    2.956620   -6.574110
  H      5.008670    2.030530   -2.135340
  H      5.063540    0.286310   -2.223440
  H      3.536000    1.101600   -1.988970

 Total Charge           Charge          ....    0
 Multiplicity           Mult            ....    1
 Number of Electrons    NEL             ....   40
 Basis Dimension        Dim             ....  164

ORBITAL ENERGIES
----------------

  NO   OCC          E(Eh)            E(eV)
   0   2.0000     -14.024504      -381.6261
   1   2.0000     -14.022450      -381.5702
   2   2.0000      -9.960363      -271.0353
   3   2.0000      -9.954730      -270.8820
   4   2.0000      -9.833280      -267.5771
   5   2.0000      -0.869032       -23.6476
   6   2.0000      -0.787993       -21.4424
   7   2.0000      -0.663926       -18.0663
   8   2.0000      -0.589439       -16.0394
   9   2.0000      -0.539412       -14.6781
  10   2.0000      -0.479866       -13.0578
  11   2.0000      -0.437605       -11.9078
  12   2.0000      -0.423691       -11.5292
  13   2.0000      -0.400573       -10.9001
  14   2.0000      -0.361695        -9.8422
  15   2.0000      -0.342762        -9.3270
  16   2.0000      -0.332276        -9.0417
  17   2.0000      -0.310505        -8.4493
  18   2.0000      -0.208128        -5.6634
  19   2.0000      -0.125894        -3.4258
  20   0.0000      -0.006815        -0.1855
  21   0.0000       0.022832         0.6213
  22   0.0000       0.028087         0.7643
  23   0.0000       0.050412         1.3718
  24   0.0000       0.067178         1.8280

MULLIKEN ATOMIC CHARGES
-----------------------
   0 C :    1.660705
   1 N :   -0.321462
   2 C :    0.720840
   3 C :    0.527665
   4 N :    0.296893
   5 H :   -0.220139
   6 H :   -0.215925
   7 H :   -0.399847
   8 H :   -0.490267
   9 H :   -0.537460
  10 H :   -0.396367
  11 H :   -0.298586
  12 H :   -0.326049
Sum of atomic charges:   -0.0000000

LOEWDIN ATOMIC CHARGES
----------------------
   0 C :    0.224399
   1 N :   -0.021413
   2 C :   -0.251586
   3 C :    0.149779
   4 N :    0.215228
   5 H :   -0.042206
   6 H :   -0.002011
   7 H :    0.032590
   8 H :   -0.108293
   9 H :   -0.110408
  10 H :   -0.041149
  11 H :   -0.021936
  12 H :   -0.022994

  Mayer bond orders larger than 0.100000
B(  0-C ,  1-N ) :   0.9462 B(  0-C ,  7-H ) :  -0.2159 B(  0-C , 10-H ) :   0.7104
B(  0-C , 11-H ) :   0.6246 B(  0-C , 12-H ) :   0.6485 B(  1-N ,  2-C ) :   1.1027
B(  1-N ,  3-C ) :   0.2618 B(  1-N ,  4-N ) :   0.2086 B(  1-N ,  7-H ) :   1.3012
B(  1-N , 10-H ) :   0.2556 B(  1-N , 11-H ) :   0.2325 B(  1-N , 12-H ) :   0.2270
B(  2-C ,  3-C ) :   1.1280 B(  2-C ,  4-N ) :   1.0079 B(  2-C ,  6-H ) :  -0.1107
B(  2-C ,  7-H ) :  -0.2477 B(  2-C ,  9-H ) :   0.1861 B(  3-C ,  4-N ) :   0.2608
B(  3-C ,  8-H ) :   0.7571 B(  3-C ,  9-H ) :   0.6618 B(  4-N ,  5-H ) :   1.0803
B(  4-N ,  6-H ) :   1.1820 B(  5-H ,  6-H ) :  -0.1628 B(  5-H , 10-H ) :   0.1104

Dispersion correction           -0.019275313
FINAL SINGLE POINT ENERGY      -228.348974271646

DIPOLE MOMENT
-------------
                                X             Y             Z
Electronic contribution:      0.09638       0.49889      -0.78444
Nuclear contribution   :     -0.24876      -0.46055       1.84019
                        -----------------------------------------
Total Dipole Moment    :     -0.15238       0.03834       1.05575
                        -----------------------------------------
Magnitude (a.u.)       :      1.06738
Magnitude (Debye)      :      2.71306

Rotational constants in cm-1:     0.322158     0.139919     0.099594
Rotational constants in MHz :  9658.057362  4194.660927  2985.745059

                             ****ORCA TERMINATED NORMALLY****
TOTAL RUN TIME: 0 days 0 hours 0 minutes 4 seconds 647 msec
