                         Program Version 5.0.0 -  RELEASE  -
|  1> !BLYP D3BJ RIJCOSX def2-SVPD def2/J TightSCF
|  2> *xyz 0 1
|  3> C          3.51177       -2.80621       -6.49228
|  4> S          3.00462       -1.09621       -6.38926
|  5> O          4.12886       -0.32965       -6.95372
|  6> O          1.78128       -1.00078       -7.13640
|  7> F          2.85155       -0.78368       -4.95679
|  8> H          3.63615       -3.08010       -7.51913
|  9> H          2.76397       -3.42755       -6.04548
| 10> H          4.43892       -2.93511       -5.97393
| 11> *
| 12>
| 13> %MaxCore 64000
| 14>
| 15> %pal nprocs 8
| 16> end
| 17>
| 18> %scf
| 19>   MaxIter 150
| 20> end
| 21>
| 22>
| 23>                          ****END OF INPUT****

CARTESIAN COORDINATES (ANGSTROEM)
---------------------------------
  C      3.511770   -2.806210   -6.492280
  S      3.004620   -1.096210   -6.389260
  O      4.128860   -0.329650   -6.953720
  O      1.781280   -1.000780   -7.136400
  F      2.851550   -0.783680   -4.956790
  H      3.636150   -3.080100   -7.519130
  H      2.763970   -3.427550   -6.045480
  H      4.438920   -2.935110   -5.973930

 Total Charge           Charge          ....    0
 Multiplicity           Mult            ....    1
 Number of Electrons    NEL             ....   50
 Basis Dimension        Dim             ....  140

ORBITAL ENERGIES
----------------

  NO   OCC          E(Eh)            E(eV)
   0   2.0000     -88.388651     -2405.1775
   1   2.0000     -24.408230      -664.1817
   2   2.0000     -18.808184      -511.7967
   3   2.0000     -18.797083      -511.4946
   4   2.0000      -9.983908      -271.6759
   5   2.0000      -7.925960      -215.6763
   6   2.0000      -5.965158      -162.3202
   7   2.0000      -5.958825      -162.1479
   8   2.0000      -5.957637      -162.1155
   9   2.0000      -1.243723       -33.8434
  10   2.0000      -1.020046       -27.7569
  11   2.0000      -0.923186       -25.1212
  12   2.0000      -0.726733       -19.7754
  13   2.0000      -0.638715       -17.3803
  14   2.0000      -0.532652       -14.4942
  15   2.0000      -0.505459       -13.7542
  16   2.0000      -0.493082       -13.4175
  17   2.0000      -0.429699       -11.6927
  18   2.0000      -0.425952       -11.5907
  19   2.0000      -0.417714       -11.3666
  20   2.0000      -0.390892       -10.6367
  21   2.0000      -0.339823        -9.2471
  22   2.0000      -0.297754        -8.1023
  23   2.0000      -0.285302        -7.7635
  24   2.0000      -0.267233        -7.2718
  25   0.0000      -0.034045        -0.9264
  26   0.0000       0.000557         0.0151
  27   0.0000       0.012861         0.3500
  28   0.0000       0.031681         0.8621
  29   0.0000       0.032178         0.8756

MULLIKEN ATOMIC CHARGES
-----------------------
   0 C :    0.877344
   1 S :    1.092958
   2 O :   -0.593626
   3 O :   -0.555533
   4 F :   -0.347266
   5 H :   -0.156813
   6 H :   -0.160439
   7 H :   -0.156625
Sum of atomic charges:    0.0000000

LOEWDIN ATOMIC CHARGES
----------------------
   0 C :    0.129107
   1 S :    1.062165
   2 O :   -0.457119
   3 O :   -0.440722
   4 F :   -0.255653
   5 H :   -0.003140
   6 H :   -0.018088
   7 H :   -0.016548

  Mayer bond orders larger than 0.100000
B(  0-C ,  1-S ) :   0.9743 B(  0-C ,  5-H ) :   0.8404 B(  0-C ,  6-H ) :   0.8457
B(  0-C ,  7-H ) :   0.8498 B(  1-S ,  2-O ) :   1.5479 B(  1-S ,  3-O ) :   1.5833
B(  1-S ,  4-F ) :   0.7198 B(  1-S ,  5-H ) :   0.1412 B(  1-S ,  6-H ) :   0.1161
B(  1-S ,  7-H ) :   0.1237 B(  2-O ,  3-O ) :   0.1102

Dispersion correction           -0.012768335
FINAL SINGLE POINT ENERGY      -687.948676615578

DIPOLE MOMENT
-------------
                                X             Y             Z
Electronic contribution:     -1.55602       4.51868       2.53341
Nuclear contribution   :      1.78651      -5.91544      -1.78339
                        -----------------------------------------
Total Dipole Moment    :      0.23049      -1.39676       0.75002
                        -----------------------------------------
Magnitude (a.u.)       :      1.60206
Magnitude (Debye)      :      4.07210

Rotational constants in cm-1:     0.165193     0.152051     0.147788
Rotational constants in MHz :  4952.361749  4558.380225  4430.570551

                             ****ORCA TERMINATED NORMALLY****
TOTAL RUN TIME: 0 days 0 hours 0 minutes 3 seconds 762 msec
