                         Program Version 5.0.0 -  RELEASE  -
|  1> !BLYP D3BJ RIJCOSX def2-SVPD def2/J TightSCF
|  2> *xyz 0 1
|  3> C          4.49059        1.15590       -2.46929
|  4> N          4.30539        1.22276       -3.90832
|  5> C          4.63192        2.24637       -4.67096
|  6> N          4.54169        2.14399       -5.98714
|  7> C          5.08409        3.39358       -4.11855
|  8> H          4.92067        3.57050       -3.13587
|  9> H          5.25465        4.19739       -4.70696
| 10> H          3.82453        0.44911       -4.35093
| 11> H          4.34337        1.24932       -6.41665
| 12> H          4.67671        2.95662       -6.57411
| 13> H          5.00867        2.03053       -2.13534
| 14> H          5.06354        0.28631       -2.22344
| 15> H          3.53600        1.10160       -1.98897
| 16> *
| 17>
| 18> %MaxCore 64000
| 19>
| 20> %pal nprocs 8
| 21> end
| 22>
| 23> %scf
| 24>   MaxIter 150
| 25> end
| 26>
| 27>
| 28>                          ****END OF INPUT****

CARTESIAN COORDINATES (ANGSTROEM)
---------------------------------
  C      4.490590    1.155900   -2.469290
  N      4.305390    1.222760   -3.908320
  C      4.631920    2.246370   -4.670960
  N      4.541690    2.143990   -5.987140
  C      5.084090    3.393580   -4.118550
  H      4.920670    3.570500   -3.135870
  H      5.254650    4.197390   -4.706960
  H      3.824530    0.449110   -4.350930
  H      4.343370    1.249320   -6.416650
  H      4.676710    2.956620   -6.574110
  H      5.008670    2.030530   -2.135340
  H      5.063540    0.286310   -2.223440
  H      3.536000    1.101600   -1.988970

 Total Charge           Charge          ....    0
 Multiplicity           Mult            ....    1
 Number of Electrons    NEL             ....   40
 Basis Dimension        Dim             ....  164

ORBITAL ENERGIES
----------------

  NO   OCC          E(Eh)            E(eV)
   0   2.0000     -14.027527      -381.7084
   1   2.0000     -14.025556      -381.6548
   2   2.0000      -9.963333      -271.1161
   3   2.0000      -9.945056      -270.6187
   4   2.0000      -9.834059      -267.5983
   5   2.0000      -0.872518       -23.7424
   6   2.0000      -0.794232       -21.6122
   7   2.0000      -0.638984       -17.3876
   8   2.0000      -0.617906       -16.8141
   9   2.0000      -0.508360       -13.8332
  10   2.0000      -0.494944       -13.4681
  11   2.0000      -0.463951       -12.6247
  12   2.0000      -0.404215       -10.9992
  13   2.0000      -0.392607       -10.6834
  14   2.0000      -0.365384        -9.9426
  15   2.0000      -0.335353        -9.1254
  16   2.0000      -0.325995        -8.8708
  17   2.0000      -0.310132        -8.4391
  18   2.0000      -0.206168        -5.6101
  19   2.0000      -0.126757        -3.4492
  20   0.0000      -0.006356        -0.1730
  21   0.0000       0.019226         0.5232
  22   0.0000       0.032427         0.8824
  23   0.0000       0.047289         1.2868
  24   0.0000       0.061618         1.6767

MULLIKEN ATOMIC CHARGES
-----------------------
   0 C :    1.627093
   1 N :   -0.316714
   2 C :    0.623616
   3 N :    0.383833
   4 C :    0.477962
   5 H :   -0.313460
   6 H :   -0.669443
   7 H :   -0.476258
   8 H :   -0.284692
   9 H :   -0.123144
  10 H :   -0.336794
  11 H :   -0.277451
  12 H :   -0.314548
Sum of atomic charges:    0.0000000

LOEWDIN ATOMIC CHARGES
----------------------
   0 C :    0.232253
   1 N :   -0.029891
   2 C :   -0.252599
   3 N :    0.201981
   4 C :    0.166824
   5 H :   -0.130349
   6 H :   -0.115156
   7 H :    0.016234
   8 H :   -0.015721
   9 H :    0.003209
  10 H :   -0.038102
  11 H :   -0.019811
  12 H :   -0.018870

  Mayer bond orders larger than 0.100000
B(  0-C ,  1-N ) :   0.9531 B(  0-C ,  7-H ) :  -0.1940 B(  0-C , 10-H ) :   0.7538
B(  0-C , 11-H ) :   0.5952 B(  0-C , 12-H ) :   0.6169 B(  1-N ,  2-C ) :   1.0604
B(  1-N ,  3-N ) :   0.1478 B(  1-N ,  4-C ) :   0.3619 B(  1-N ,  7-H ) :   1.3298
B(  1-N , 10-H ) :   0.2031 B(  1-N , 11-H ) :   0.2782 B(  1-N , 12-H ) :   0.2531
B(  2-C ,  3-N ) :   1.0429 B(  2-C ,  4-C ) :   1.4774 B(  2-C ,  5-H ) :   0.2358
B(  2-C ,  6-H ) :   0.1385 B(  2-C ,  7-H ) :  -0.2714 B(  2-C ,  8-H ) :  -0.1029
B(  3-N ,  4-C ) :   0.2594 B(  3-N ,  8-H ) :   1.1990 B(  3-N ,  9-H ) :   1.1765
B(  4-C ,  5-H ) :   0.6228 B(  4-C ,  6-H ) :   0.8396 B(  5-H ,  6-H ) :   0.1144
B(  5-H , 10-H ) :   0.1741 B(  8-H ,  9-H ) :  -0.1877

Dispersion correction           -0.019377377
FINAL SINGLE POINT ENERGY      -228.348080663650

DIPOLE MOMENT
-------------
                                X             Y             Z
Electronic contribution:     -0.38036      -0.71165      -2.63448
Nuclear contribution   :     -0.13890      -0.20745       2.21867
                        -----------------------------------------
Total Dipole Moment    :     -0.51926      -0.91910      -0.41581
                        -----------------------------------------
Magnitude (a.u.)       :      1.13458
Magnitude (Debye)      :      2.88388

Rotational constants in cm-1:     0.339212     0.134625     0.098371
Rotational constants in MHz : 10169.318272  4035.946597  2949.073953

                             ****ORCA TERMINATED NORMALLY****
TOTAL RUN TIME: 0 days 0 hours 0 minutes 4 seconds 627 msec
