                         Program Version 5.0.0 -  RELEASE  -
|  1> !BLYP D3BJ RIJCOSX def2-SVPD def2/J TightSCF xyzfile
|  2>
|  3> *xyzfile 0 1 D2.xyz
|  4>
|  5> %MaxCore 64000
|  6>
|  7> %pal nprocs 4
|  8> end
|  9>
| 10> %scf
| 11>   MaxIter 150
| 12> end
| 13>
| 14>
| 15>                          ****END OF INPUT****

CARTESIAN COORDINATES (ANGSTROEM)
---------------------------------
  C      4.490588    1.155899   -2.469290
  N      4.305394    1.222762   -3.908317
  C      4.906458   -3.102816   -5.954844
  C      3.511771   -2.806215   -6.492283
  H      2.736044   -3.373445   -5.973736
  H      3.444904   -3.040831   -7.555281
  S      3.004618   -1.096206   -6.389259
  C      4.631918    2.246365   -4.670958
  C      4.541686    2.143990   -5.987139
  N      5.084086    3.393584   -4.118545
  H      4.920675    3.570501   -3.135870
  H      5.254652    4.197390   -4.706956
  H      3.824530    0.449113   -4.350926
  H      4.343373    1.249318   -6.416646
  H      4.676712    2.956624   -6.574113
  F      4.128856   -0.329647   -6.953717
  O      1.781285   -1.000779   -7.136399
  C      5.942129    0.939500   -2.036893
  H      3.864305    0.328532   -2.136611
  H      4.076233    2.049994   -1.989010
  C      6.462677   -3.117775   -3.944671
  C      5.024977   -3.025679   -4.437625
  H      4.423321   -3.818693   -3.977648
  H      4.579350   -2.087131   -4.108727
  H      5.201533   -4.100207   -6.296905
  H      5.605922   -2.397822   -6.413368
  C      6.559957   -0.356290   -2.559086
  H      5.967976    0.952567   -0.942444
  H      6.547184    1.788331   -2.368849
  C      6.006283   -1.615917   -1.899301
  H      7.642360   -0.318000   -2.402059
  H      6.414855   -0.403433   -3.642587
  C      6.608718   -2.917014   -2.435655
  H      6.190324   -1.561115   -0.820948
  H      4.919250   -1.651245   -2.016586
  H      7.066975   -2.374258   -4.475514
  H      6.887808   -4.089747   -4.215332
  H      6.135197   -3.755573   -1.915159
  H      7.671142   -2.955503   -2.172291
  O      2.851546   -0.783683   -4.956789

 Total Charge           Charge          ....    0
 Multiplicity           Mult            ....    1
 Number of Electrons    NEL             ....  144
 Basis Dimension        Dim             ....  540

ORBITAL ENERGIES
----------------

  NO   OCC          E(Eh)            E(eV)
   0   2.0000     -88.393525     -2405.3101
   1   2.0000     -24.409283      -664.2103
   2   2.0000     -18.812417      -511.9119
   3   2.0000     -18.809639      -511.8363
   4   2.0000     -14.011659      -381.2766
   5   2.0000     -13.993962      -380.7951
   6   2.0000      -9.987419      -271.7715
   7   2.0000      -9.954516      -270.8762
   8   2.0000      -9.946753      -270.6649
   9   2.0000      -9.944090      -270.5924
  10   2.0000      -9.928369      -270.1647
  11   2.0000      -9.923821      -270.0409
  12   2.0000      -9.919552      -269.9247
  13   2.0000      -9.914879      -269.7976
  14   2.0000      -9.911087      -269.6944
  15   2.0000      -9.910253      -269.6717
  16   2.0000      -9.818915      -267.1863
  17   2.0000      -7.929774      -215.7801
  18   2.0000      -5.969119      -162.4280
  19   2.0000      -5.963100      -162.2642
  20   2.0000      -5.960985      -162.2067
  21   2.0000      -1.248531       -33.9742
  22   2.0000      -1.027259       -27.9531
  23   2.0000      -0.934189       -25.4206
  24   2.0000      -0.853002       -23.2114
  25   2.0000      -0.775072       -21.0908
  26   2.0000      -0.762595       -20.7513
  27   2.0000      -0.728116       -19.8130
  28   2.0000      -0.701330       -19.0842
  29   2.0000      -0.670467       -18.2443
  30   2.0000      -0.651250       -17.7214
  31   2.0000      -0.626318       -17.0430
  32   2.0000      -0.603560       -16.4237
  33   2.0000      -0.575549       -15.6615
  34   2.0000      -0.555292       -15.1103
  35   2.0000      -0.535834       -14.5808
  36   2.0000      -0.526560       -14.3284
  37   2.0000      -0.516981       -14.0678
  38   2.0000      -0.514238       -13.9931
  39   2.0000      -0.494296       -13.4505
  40   2.0000      -0.491391       -13.3714
  41   2.0000      -0.460308       -12.5256
  42   2.0000      -0.445983       -12.1358
  43   2.0000      -0.438224       -11.9247
  44   2.0000      -0.429897       -11.6981
  45   2.0000      -0.425395       -11.5756
  46   2.0000      -0.415856       -11.3160
  47   2.0000      -0.412261       -11.2182
  48   2.0000      -0.407235       -11.0814
  49   2.0000      -0.392341       -10.6762
  50   2.0000      -0.386392       -10.5143
  51   2.0000      -0.382507       -10.4086
  52   2.0000      -0.370820       -10.0905
  53   2.0000      -0.349624        -9.5138
  54   2.0000      -0.346830        -9.4377
  55   2.0000      -0.344355        -9.3704
  56   2.0000      -0.336147        -9.1470
  57   2.0000      -0.325429        -8.8554
  58   2.0000      -0.322752        -8.7825
  59   2.0000      -0.317266        -8.6333
  60   2.0000      -0.310857        -8.4588
  61   2.0000      -0.303876        -8.2689
  62   2.0000      -0.300602        -8.1798
  63   2.0000      -0.293882        -7.9969
  64   2.0000      -0.290524        -7.9056
  65   2.0000      -0.282807        -7.6956
  66   2.0000      -0.279631        -7.6091
  67   2.0000      -0.272565        -7.4169
  68   2.0000      -0.270621        -7.3640
  69   2.0000      -0.267645        -7.2830
  70   2.0000      -0.194379        -5.2893
  71   2.0000      -0.115173        -3.1340
  72   0.0000      -0.031527        -0.8579
  73   0.0000      -0.002946        -0.0802
  74   0.0000       0.002691         0.0732
  75   0.0000       0.005920         0.1611
  76   0.0000       0.007501         0.2041

MULLIKEN ATOMIC CHARGES
-----------------------
   0 C :    1.340051
   1 N :    0.604232
   2 C :    0.594044
   3 C :    0.608778
   4 H :   -0.121150
   5 H :   -0.200781
   6 S :    1.247788
   7 C :    0.840647
   8 C :    0.918798
   9 N :    0.562222
  10 H :   -0.145111
  11 H :   -0.305152
  12 H :   -1.234302
  13 H :   -0.698369
  14 H :   -0.836356
  15 F :   -0.464583
  16 O :   -0.615434
  17 C :    0.625521
  18 H :   -0.520698
  19 H :   -0.348827
  20 C :    0.320724
  21 C :    0.604585
  22 H :   -0.061535
  23 H :   -0.748930
  24 H :   -0.264697
  25 H :   -0.105120
  26 C :    0.476564
  27 H :   -0.335375
  28 H :   -0.196846
  29 C :    0.124783
  30 H :   -0.320203
  31 H :   -0.282277
  32 C :    0.960503
  33 H :   -0.530668
  34 H :    0.032822
  35 H :    0.008237
  36 H :   -0.532026
  37 H :   -0.193884
  38 H :   -0.142202
  39 O :   -0.665773
Sum of atomic charges:   -0.0000000

LOEWDIN ATOMIC CHARGES
----------------------
   0 C :    0.064393
   1 N :    0.032349
   2 C :   -0.024910
   3 C :   -0.035085
   4 H :    0.037457
   5 H :    0.021231
   6 S :    1.124702
   7 C :   -0.219344
   8 C :    0.179786
   9 N :    0.222989
  10 H :   -0.034175
  11 H :   -0.004609
  12 H :   -0.097562
  13 H :   -0.173934
  14 H :   -0.103809
  15 F :   -0.253114
  16 O :   -0.413353
  17 C :   -0.011774
  18 H :    0.012891
  19 H :    0.003902
  20 C :   -0.026056
  21 C :   -0.019526
  22 H :    0.038602
  23 H :   -0.021147
  24 H :    0.032758
  25 H :    0.024004
  26 C :   -0.022211
  27 H :    0.014499
  28 H :    0.005442
  29 C :   -0.028473
  30 H :    0.021977
  31 H :    0.003875
  32 C :   -0.019565
  33 H :    0.019691
  34 H :    0.002310
  35 H :    0.014024
  36 H :    0.019136
  37 H :    0.017085
  38 H :    0.018340
  39 O :   -0.422795

  Mayer bond orders larger than 0.100000
B(  0-C ,  1-N ) :   1.0541 B(  0-C , 12-H ) :  -0.5804 B(  0-C , 17-C ) :   1.0639
B(  0-C , 18-H ) :   0.4098 B(  0-C , 19-H ) :   0.7151 B(  0-C , 26-C ) :   0.2235
B(  0-C , 27-H ) :   0.1568 B(  0-C , 28-H ) :   0.1187 B(  1-N ,  7-C ) :   1.2391
B(  1-N ,  8-C ) :   0.1245 B(  1-N ,  9-N ) :   0.3338 B(  1-N , 12-H ) :   0.5334
B(  1-N , 18-H ) :   0.3318 B(  2-C ,  3-C ) :   1.1475 B(  2-C ,  5-H ) :   0.3079
B(  2-C , 20-C ) :   0.1726 B(  2-C , 21-C ) :   1.0894 B(  2-C , 22-H ) :   0.1382
B(  2-C , 23-H ) :   0.1228 B(  2-C , 24-H ) :   0.6520 B(  2-C , 25-H ) :   0.7520
B(  3-C ,  4-H ) :   0.8245 B(  3-C ,  5-H ) :   0.6139 B(  3-C ,  6-S ) :   0.9673
B(  3-C , 21-C ) :   0.1717 B(  3-C , 24-H ) :   0.1023 B(  3-C , 25-H ) :   0.1089
B(  5-H ,  6-S ) :   0.1231 B(  6-S , 15-F ) :   0.6722 B(  6-S , 16-O ) :   1.5247
B(  6-S , 39-O ) :   1.4408 B(  7-C ,  8-C ) :   1.0952 B(  7-C ,  9-N ) :   0.9110
B(  7-C , 12-H ) :  -0.8941 B(  7-C , 14-H ) :   0.2782 B(  8-C ,  9-N ) :   0.3336
B(  8-C , 12-H ) :   0.1082 B(  8-C , 14-H ) :   0.4760 B(  9-N , 10-H ) :   0.9540
B(  9-N , 11-H ) :   1.1737 B(  9-N , 18-H ) :  -0.1139 B(  9-N , 19-H ) :   0.1084
B( 10-H , 11-H ) :  -0.2033 B( 12-H , 18-H ) :   0.1261 B( 12-H , 39-O ) :   0.1657
B( 13-H , 14-H ) :  -0.2447 B( 13-H , 15-F ) :   0.2681 B( 16-O , 39-O ) :   0.1554
B( 17-C , 18-H ) :   0.1291 B( 17-C , 19-H ) :   0.1629 B( 17-C , 26-C ) :   1.1726
B( 17-C , 27-H ) :   0.7977 B( 17-C , 28-H ) :   0.5778 B( 17-C , 30-H ) :   0.1109
B( 17-C , 31-H ) :   0.1627 B( 18-H , 19-H ) :  -0.2669 B( 18-H , 26-C ) :  -0.1128
B( 20-C , 21-C ) :   1.1804 B( 20-C , 22-H ) :   0.1405 B( 20-C , 23-H ) :   0.1740
B( 20-C , 29-C ) :   0.2288 B( 20-C , 32-C ) :   1.0959 B( 20-C , 35-H ) :   0.7838
B( 20-C , 36-H ) :   0.7441 B( 20-C , 37-H ) :   0.1308 B( 20-C , 38-H ) :   0.3051
B( 21-C , 22-H ) :   0.6016 B( 21-C , 23-H ) :   0.4989 B( 21-C , 24-H ) :   0.2231
B( 21-C , 25-H ) :   0.1413 B( 21-C , 35-H ) :   0.1406 B( 21-C , 36-H ) :   0.2184
B( 22-H , 23-H ) :   0.1650 B( 23-H , 34-H ) :   0.1513 B( 24-H , 25-H ) :  -0.1194
B( 26-C , 28-H ) :   0.2901 B( 26-C , 29-C ) :   1.2202 B( 26-C , 30-H ) :   0.7027
B( 26-C , 31-H ) :   0.7761 B( 26-C , 33-H ) :   0.1690 B( 26-C , 34-H ) :   0.1394
B( 27-H , 28-H ) :  -0.1755 B( 29-C , 30-H ) :   0.1909 B( 29-C , 31-H ) :   0.1655
B( 29-C , 32-C ) :   1.0736 B( 29-C , 33-H ) :   0.8397 B( 29-C , 34-H ) :   0.7880
B( 29-C , 37-H ) :   0.3918 B( 29-C , 38-H ) :   0.1609 B( 31-H , 35-H ) :   0.1061
B( 32-C , 37-H ) :   0.4842 B( 32-C , 38-H ) :   0.5457 B( 37-H , 38-H ) :  -0.1677

Dispersion correction           -0.096707951
FINAL SINGLE POINT ENERGY     -1189.977090673208

DIPOLE MOMENT
-------------
                                X             Y             Z
Electronic contribution:    -16.40479       3.95946     -19.60596
Nuclear contribution   :     17.27667      -5.32157      20.03034
                        -----------------------------------------
Total Dipole Moment    :      0.87188      -1.36211       0.42437
                        -----------------------------------------
Magnitude (a.u.)       :      1.67200
Magnitude (Debye)      :      4.24990

Rotational constants in cm-1:     0.014355     0.012269     0.007481
Rotational constants in MHz :   430.360270   367.823451   224.273399

                             ****ORCA TERMINATED NORMALLY****
TOTAL RUN TIME: 0 days 0 hours 1 minutes 11 seconds 18 msec
