                         Program Version 5.0.0 -  RELEASE  -
|  1> !BLYP D3BJ RIJCOSX def2-SVPD def2/J TightSCF xyzfile
|  2>
|  3> *xyzfile 0 1 D6.xyz
|  4>
|  5> %MaxCore 64000
|  6>
|  7> %pal nprocs 4
|  8> end
|  9>
| 10> %scf
| 11>   MaxIter 150
| 12> end
| 13>
| 14>
| 15>                          ****END OF INPUT****

CARTESIAN COORDINATES (ANGSTROEM)
---------------------------------
  C      4.490588    1.155899   -2.469290
  N      4.305394    1.222762   -3.908317
  C      4.906458   -3.102816   -5.954844
  C      3.511771   -2.806215   -6.492283
  H      2.736044   -3.373445   -5.973736
  H      3.444904   -3.040831   -7.555281
  S      3.004618   -1.096206   -6.389259
  C      4.631918    2.246365   -4.670958
  N      4.541686    2.143990   -5.987139
  C      5.084086    3.393584   -4.118545
  H      4.920675    3.570501   -3.135870
  H      5.254652    4.197390   -4.706956
  H      3.824530    0.449113   -4.350926
  H      4.343373    1.249318   -6.416646
  H      4.676712    2.956624   -6.574113
  O      4.128856   -0.329647   -6.953717
  F      1.781285   -1.000779   -7.136399
  C      5.942129    0.939500   -2.036893
  H      3.864305    0.328532   -2.136611
  H      4.076233    2.049994   -1.989010
  C      6.462677   -3.117775   -3.944671
  C      5.024977   -3.025679   -4.437625
  H      4.423321   -3.818693   -3.977648
  H      4.579350   -2.087131   -4.108727
  H      5.201533   -4.100207   -6.296905
  H      5.605922   -2.397822   -6.413368
  C      6.559957   -0.356290   -2.559086
  H      5.967976    0.952567   -0.942444
  H      6.547184    1.788331   -2.368849
  C      6.006283   -1.615917   -1.899301
  H      7.642360   -0.318000   -2.402059
  H      6.414855   -0.403433   -3.642587
  C      6.608718   -2.917014   -2.435655
  H      6.190324   -1.561115   -0.820948
  H      4.919250   -1.651245   -2.016586
  H      7.066975   -2.374258   -4.475514
  H      6.887808   -4.089747   -4.215332
  H      6.135197   -3.755573   -1.915159
  H      7.671142   -2.955503   -2.172291
  O      2.851546   -0.783683   -4.956789

 Total Charge           Charge          ....    0
 Multiplicity           Mult            ....    1
 Number of Electrons    NEL             ....  144
 Basis Dimension        Dim             ....  540

ORBITAL ENERGIES
----------------

  NO   OCC          E(Eh)            E(eV)
   0   2.0000     -88.416354     -2405.9313
   1   2.0000     -24.447746      -665.2570
   2   2.0000     -18.827650      -512.3264
   3   2.0000     -18.827377      -512.3190
   4   2.0000     -13.984908      -380.5487
   5   2.0000     -13.982163      -380.4740
   6   2.0000     -10.003489      -272.2088
   7   2.0000      -9.961466      -271.0653
   8   2.0000      -9.931384      -270.2467
   9   2.0000      -9.930881      -270.2330
  10   2.0000      -9.928009      -270.1549
  11   2.0000      -9.922838      -270.0141
  12   2.0000      -9.915987      -269.8277
  13   2.0000      -9.908088      -269.6128
  14   2.0000      -9.900123      -269.3960
  15   2.0000      -9.893400      -269.2131
  16   2.0000      -9.807302      -266.8703
  17   2.0000      -7.952863      -216.4084
  18   2.0000      -5.992267      -163.0579
  19   2.0000      -5.986146      -162.8913
  20   2.0000      -5.983819      -162.8280
  21   2.0000      -1.295553       -35.2538
  22   2.0000      -1.040662       -28.3178
  23   2.0000      -0.943199       -25.6657
  24   2.0000      -0.839300       -22.8385
  25   2.0000      -0.772692       -21.0260
  26   2.0000      -0.762484       -20.7483
  27   2.0000      -0.728810       -19.8319
  28   2.0000      -0.701427       -19.0868
  29   2.0000      -0.677288       -18.4299
  30   2.0000      -0.651136       -17.7183
  31   2.0000      -0.616667       -16.7804
  32   2.0000      -0.599426       -16.3112
  33   2.0000      -0.582775       -15.8581
  34   2.0000      -0.559111       -15.2142
  35   2.0000      -0.551761       -15.0142
  36   2.0000      -0.537023       -14.6131
  37   2.0000      -0.528520       -14.3818
  38   2.0000      -0.519251       -14.1295
  39   2.0000      -0.491201       -13.3663
  40   2.0000      -0.476877       -12.9765
  41   2.0000      -0.463265       -12.6061
  42   2.0000      -0.459592       -12.5061
  43   2.0000      -0.448785       -12.2121
  44   2.0000      -0.437701       -11.9104
  45   2.0000      -0.426366       -11.6020
  46   2.0000      -0.418705       -11.3935
  47   2.0000      -0.410373       -11.1668
  48   2.0000      -0.401329       -10.9207
  49   2.0000      -0.386949       -10.5294
  50   2.0000      -0.380763       -10.3611
  51   2.0000      -0.377080       -10.2609
  52   2.0000      -0.366290        -9.9673
  53   2.0000      -0.356440        -9.6992
  54   2.0000      -0.343147        -9.3375
  55   2.0000      -0.337930        -9.1955
  56   2.0000      -0.335526        -9.1301
  57   2.0000      -0.323883        -8.8133
  58   2.0000      -0.318165        -8.6577
  59   2.0000      -0.311066        -8.4645
  60   2.0000      -0.304186        -8.2773
  61   2.0000      -0.299594        -8.1524
  62   2.0000      -0.297809        -8.1038
  63   2.0000      -0.292238        -7.9522
  64   2.0000      -0.285832        -7.7779
  65   2.0000      -0.283266        -7.7081
  66   2.0000      -0.278652        -7.5825
  67   2.0000      -0.266775        -7.2593
  68   2.0000      -0.264902        -7.2083
  69   2.0000      -0.256704        -6.9853
  70   2.0000      -0.173345        -4.7170
  71   2.0000      -0.100726        -2.7409
  72   0.0000      -0.046723        -1.2714
  73   0.0000      -0.023445        -0.6380
  74   0.0000      -0.001712        -0.0466
  75   0.0000       0.002156         0.0587
  76   0.0000       0.003288         0.0895

MULLIKEN ATOMIC CHARGES
-----------------------
   0 C :    1.314104
   1 N :    0.687966
   2 C :    0.518906
   3 C :    0.576089
   4 H :   -0.106561
   5 H :   -0.154167
   6 S :    1.401217
   7 C :    0.362563
   8 N :    1.010559
   9 C :    0.716490
  10 H :   -0.001453
  11 H :   -0.894318
  12 H :   -1.384969
  13 H :   -0.595762
  14 H :   -0.296232
  15 O :   -0.646511
  16 F :   -0.459681
  17 C :    0.635049
  18 H :   -0.554446
  19 H :   -0.256859
  20 C :    0.306363
  21 C :    0.576675
  22 H :   -0.065328
  23 H :   -0.743781
  24 H :   -0.239464
  25 H :   -0.066402
  26 C :    0.452073
  27 H :   -0.299284
  28 H :   -0.206424
  29 C :    0.116228
  30 H :   -0.323842
  31 H :   -0.291007
  32 C :    0.968260
  33 H :   -0.530650
  34 H :    0.026792
  35 H :    0.021539
  36 H :   -0.539137
  37 H :   -0.196193
  38 H :   -0.137978
  39 O :   -0.700428
Sum of atomic charges:    0.0000000

LOEWDIN ATOMIC CHARGES
----------------------
   0 C :    0.068261
   1 N :    0.031853
   2 C :   -0.009368
   3 C :   -0.042420
   4 H :    0.026971
   5 H :    0.019965
   6 S :    1.161610
   7 C :   -0.228193
   8 N :    0.233037
   9 C :    0.164439
  10 H :   -0.128434
  11 H :   -0.120799
  12 H :   -0.100963
  13 H :   -0.134831
  14 H :    0.001635
  15 O :   -0.419532
  16 F :   -0.219697
  17 C :   -0.004929
  18 H :    0.009063
  19 H :    0.010246
  20 C :   -0.024610
  21 C :   -0.016757
  22 H :    0.037361
  23 H :   -0.017709
  24 H :    0.037685
  25 H :    0.029095
  26 C :   -0.023179
  27 H :    0.015545
  28 H :    0.006290
  29 C :   -0.029951
  30 H :    0.021250
  31 H :    0.002777
  32 C :   -0.020243
  33 H :    0.019555
  34 H :    0.000775
  35 H :    0.015968
  36 H :    0.018618
  37 H :    0.015749
  38 H :    0.018600
  39 O :   -0.424733

  Mayer bond orders larger than 0.100000
B(  0-C ,  1-N ) :   1.1100 B(  0-C ,  7-C ) :  -0.1071 B(  0-C , 10-H ) :   0.1292
B(  0-C , 12-H ) :  -0.5984 B(  0-C , 17-C ) :   1.0444 B(  0-C , 18-H ) :   0.4782
B(  0-C , 19-H ) :   0.7433 B(  0-C , 26-C ) :   0.2216 B(  0-C , 27-H ) :   0.1315
B(  0-C , 28-H ) :   0.1077 B(  1-N ,  7-C ) :   1.1028 B(  1-N ,  9-C ) :   0.3066
B(  1-N , 11-H ) :   0.1651 B(  1-N , 12-H ) :   0.2282 B(  1-N , 13-H ) :   0.1864
B(  1-N , 14-H ) :  -0.1424 B(  1-N , 17-C ) :   0.1098 B(  1-N , 18-H ) :   0.3570
B(  1-N , 28-H ) :   0.1055 B(  2-C ,  3-C ) :   1.2073 B(  2-C ,  5-H ) :   0.3573
B(  2-C , 20-C ) :   0.1812 B(  2-C , 21-C ) :   1.1030 B(  2-C , 22-H ) :   0.1342
B(  2-C , 23-H ) :   0.1050 B(  2-C , 24-H ) :   0.6423 B(  2-C , 25-H ) :   0.7632
B(  3-C ,  4-H ) :   0.8233 B(  3-C ,  5-H ) :   0.5363 B(  3-C ,  6-S ) :   0.9757
B(  3-C , 21-C ) :   0.2016 B(  3-C , 24-H ) :   0.1188 B(  3-C , 25-H ) :   0.1223
B(  5-H ,  6-S ) :   0.1099 B(  6-S , 15-O ) :   1.4038 B(  6-S , 16-F ) :   0.5995
B(  6-S , 39-O ) :   1.4065 B(  7-C ,  8-N ) :   1.0588 B(  7-C ,  9-C ) :   1.3854
B(  7-C , 10-H ) :   0.4501 B(  7-C , 11-H ) :   0.4317 B(  7-C , 12-H ) :  -0.7883
B(  7-C , 13-H ) :  -0.1892 B(  7-C , 18-H ) :   0.1741 B(  8-N ,  9-C ) :   0.2269
B(  8-N , 11-H ) :   0.1115 B(  8-N , 13-H ) :   0.7165 B(  8-N , 14-H ) :   1.1945
B(  9-C , 10-H ) :   0.4623 B(  9-C , 11-H ) :   0.3943 B( 10-H , 13-H ) :   0.2198
B( 10-H , 18-H ) :  -0.1432 B( 10-H , 19-H ) :   0.1382 B( 11-H , 12-H ) :  -0.1381
B( 12-H , 39-O ) :   0.2355 B( 13-H , 14-H ) :  -0.2794 B( 13-H , 15-O ) :   0.1978
B( 16-F , 39-O ) :   0.1068 B( 17-C , 18-H ) :   0.1333 B( 17-C , 19-H ) :   0.1328
B( 17-C , 26-C ) :   1.1406 B( 17-C , 27-H ) :   0.7818 B( 17-C , 28-H ) :   0.6270
B( 17-C , 30-H ) :   0.1024 B( 17-C , 31-H ) :   0.1619 B( 18-H , 19-H ) :  -0.3134
B( 20-C , 21-C ) :   1.1914 B( 20-C , 22-H ) :   0.1392 B( 20-C , 23-H ) :   0.1779
B( 20-C , 29-C ) :   0.2306 B( 20-C , 32-C ) :   1.0949 B( 20-C , 35-H ) :   0.7839
B( 20-C , 36-H ) :   0.7460 B( 20-C , 37-H ) :   0.1338 B( 20-C , 38-H ) :   0.3048
B( 21-C , 22-H ) :   0.5988 B( 21-C , 23-H ) :   0.5097 B( 21-C , 24-H ) :   0.2217
B( 21-C , 25-H ) :   0.1361 B( 21-C , 35-H ) :   0.1518 B( 21-C , 36-H ) :   0.2240
B( 22-H , 23-H ) :   0.1736 B( 23-H , 34-H ) :   0.1499 B( 24-H , 25-H ) :  -0.1147
B( 26-C , 27-H ) :   0.1158 B( 26-C , 28-H ) :   0.2965 B( 26-C , 29-C ) :   1.2133
B( 26-C , 30-H ) :   0.7103 B( 26-C , 31-H ) :   0.7767 B( 26-C , 33-H ) :   0.1701
B( 26-C , 34-H ) :   0.1446 B( 27-H , 28-H ) :  -0.2042 B( 29-C , 30-H ) :   0.1938
B( 29-C , 31-H ) :   0.1773 B( 29-C , 32-C ) :   1.0734 B( 29-C , 33-H ) :   0.8431
B( 29-C , 34-H ) :   0.7940 B( 29-C , 37-H ) :   0.3970 B( 29-C , 38-H ) :   0.1626
B( 31-H , 35-H ) :   0.1073 B( 32-C , 37-H ) :   0.4796 B( 32-C , 38-H ) :   0.5488
B( 37-H , 38-H ) :  -0.1675

Dispersion correction           -0.097191065
FINAL SINGLE POINT ENERGY     -1189.974604946879

DIPOLE MOMENT
-------------
                                X             Y             Z
Electronic contribution:    -21.09463       1.35444     -21.83963
Nuclear contribution   :     20.11362      -4.34709      20.52383
                        -----------------------------------------
Total Dipole Moment    :     -0.98101      -2.99264      -1.31580
                        -----------------------------------------
Magnitude (a.u.)       :      3.41315
Magnitude (Debye)      :      8.67555

Rotational constants in cm-1:     0.014449     0.012108     0.007447
Rotational constants in MHz :   433.168496   362.988632   223.260798

                             ****ORCA TERMINATED NORMALLY****
TOTAL RUN TIME: 0 days 0 hours 1 minutes 8 seconds 297 msec
