                         Program Version 5.0.0 -  RELEASE  -
|  1> !TPSS D3BJ RIJCOSX def2-SVPD def2/J TightSCF
|  2> *xyz -1 1
|  3> C         -0.87096        0.24804       -2.66280
|  4> C         -0.47749        0.60819       -4.10105
|  5> H          0.20677        1.45830       -4.11875
|  6> H         -1.36844        0.92942       -4.64785
|  7> C          0.18467       -0.50664       -4.91676
|  8> O         -0.15869       -1.70109       -4.65798
|  9> O          1.05594       -0.17441       -5.74037
| 10> C          0.10016       -0.67355       -1.91581
| 11> H         -1.00105        1.18104       -2.10407
| 12> H         -1.84465       -0.24659       -2.66328
| 13> H          0.22336       -1.58297       -2.46597
| 14> H         -0.29270       -0.89423       -0.94532
| 15> H          1.04759       -0.18666       -1.81480
| 16> *
| 17>
| 18> %MaxCore 64000
| 19>
| 20> %pal nprocs 4
| 21> end
| 22>
| 23> %scf
| 24>   MaxIter 150
| 25> end
| 26>
| 27>
| 28>                          ****END OF INPUT****

CARTESIAN COORDINATES (ANGSTROEM)
---------------------------------
  C     -0.870960    0.248040   -2.662800
  C     -0.477490    0.608190   -4.101050
  H      0.206770    1.458300   -4.118750
  H     -1.368440    0.929420   -4.647850
  C      0.184670   -0.506640   -4.916760
  O     -0.158690   -1.701090   -4.657980
  O      1.055940   -0.174410   -5.740370
  C      0.100160   -0.673550   -1.915810
  H     -1.001050    1.181040   -2.104070
  H     -1.844650   -0.246590   -2.663280
  H      0.223360   -1.582970   -2.465970
  H     -0.292700   -0.894230   -0.945320
  H      1.047590   -0.186660   -1.814800

 Total Charge           Charge          ....   -1
 Multiplicity           Mult            ....    1
 Number of Electrons    NEL             ....   48
 Basis Dimension        Dim             ....  182

ORBITAL ENERGIES
----------------

  NO   OCC          E(Eh)            E(eV)
   0   2.0000     -18.643385      -507.3123
   1   2.0000     -18.640507      -507.2340
   2   2.0000      -9.880237      -268.8549
   3   2.0000      -9.850606      -268.0486
   4   2.0000      -9.836255      -267.6581
   5   2.0000      -9.828582      -267.4493
   6   2.0000      -0.744576       -20.2609
   7   2.0000      -0.654672       -17.8145
   8   2.0000      -0.566875       -15.4254
   9   2.0000      -0.480127       -13.0649
  10   2.0000      -0.390314       -10.6210
  11   2.0000      -0.274589        -7.4720
  12   2.0000      -0.259748        -7.0681
  13   2.0000      -0.244853        -6.6628
  14   2.0000      -0.214030        -5.8240
  15   2.0000      -0.182918        -4.9775
  16   2.0000      -0.171552        -4.6682
  17   2.0000      -0.162561        -4.4235
  18   2.0000      -0.153417        -4.1747
  19   2.0000      -0.135493        -3.6870
  20   2.0000      -0.123375        -3.3572
  21   2.0000      -0.016628        -0.4525
  22   2.0000      -0.004355        -0.1185
  23   2.0000       0.011144         0.3032
  24   0.0000       0.138588         3.7712
  25   0.0000       0.163500         4.4491
  26   0.0000       0.179540         4.8855
  27   0.0000       0.186516         5.0753
  28   0.0000       0.204502         5.5648

MULLIKEN ATOMIC CHARGES
-----------------------
   0 C :   -0.404349
   1 C :    0.077611
   2 H :    0.064682
   3 H :   -0.020919
   4 C :    0.366354
   5 O :   -0.753743
   6 O :   -0.669758
   7 C :    0.612414
   8 H :   -0.125943
   9 H :   -0.005809
  10 H :   -0.064424
  11 H :   -0.044154
  12 H :   -0.031962
Sum of atomic charges:   -1.0000000

LOEWDIN ATOMIC CHARGES
----------------------
   0 C :   -0.079063
   1 C :    0.008843
   2 H :   -0.004994
   3 H :    0.004569
   4 C :   -0.290096
   5 O :   -0.313556
   6 O :   -0.313124
   7 C :    0.117861
   8 H :   -0.009253
   9 H :    0.002747
  10 H :   -0.051013
  11 H :   -0.043630
  12 H :   -0.029292

  Mayer bond orders larger than 0.100000
B(  0-C ,  1-C ) :   1.2029 B(  0-C ,  2-H ) :   0.1217 B(  0-C ,  3-H ) :   0.1269
B(  0-C ,  7-C ) :   1.3321 B(  0-C ,  8-H ) :   0.9541 B(  0-C ,  9-H ) :   0.9001
B(  0-C , 10-H ) :   0.2004 B(  0-C , 11-H ) :   0.2222 B(  0-C , 12-H ) :   0.1925
B(  1-C ,  2-H ) :   0.8609 B(  1-C ,  3-H ) :   0.8429 B(  1-C ,  4-C ) :   1.0918
B(  1-C ,  8-H ) :   0.1161 B(  1-C ,  9-H ) :   0.1134 B(  2-H ,  4-C ) :   0.1990
B(  4-C ,  5-O ) :   1.4434 B(  4-C ,  6-O ) :   1.3921 B(  7-C ,  8-H ) :   0.1032
B(  7-C , 10-H ) :   0.8633 B(  7-C , 11-H ) :   0.7390 B(  7-C , 12-H ) :   0.7885

Dispersion correction           -0.012205001
FINAL SINGLE POINT ENERGY      -307.000025224769

DIPOLE MOMENT
-------------
                                X             Y             Z
Electronic contribution:      1.84605      -2.05744      -6.77210
Nuclear contribution   :     -2.71698       3.10699       8.64748
                        -----------------------------------------
Total Dipole Moment    :     -0.87093       1.04955       1.87537
                        -----------------------------------------
Magnitude (a.u.)       :      2.31886
Magnitude (Debye)      :      5.89407

Rotational constants in cm-1:     0.212307     0.084237     0.072775
Rotational constants in MHz :  6364.813744  2525.362351  2181.751235

                             ****ORCA TERMINATED NORMALLY****
TOTAL RUN TIME: 0 days 0 hours 0 minutes 11 seconds 39 msec
