                         Program Version 5.0.0 -  RELEASE  -
|  1> !TPSS D3BJ RIJCOSX def2-SVPD def2/J TightSCF
|  2> *xyz 1 1
|  3> C          2.48645       -2.67712       -2.56345
|  4> C          3.03764       -2.36672       -3.92351
|  5> N          2.28036       -2.45441       -4.96769
|  6> N          4.32174       -2.01793       -4.01664
|  7> H          4.87994       -1.91167       -3.17382
|  8> H          4.71015       -1.67088       -4.88356
|  9> H          1.27042       -2.41265       -4.86614
| 10> H          2.58183       -2.05528       -5.84688
| 11> C          2.49799       -1.46946       -1.61030
| 12> C          1.58284       -0.32199       -2.04262
| 13> H          2.19308       -1.83391       -0.62542
| 14> H          3.52336       -1.10398       -1.49039
| 15> H          1.47259       -3.05153       -2.69437
| 16> H          3.08320       -3.49064       -2.14147
| 17> H          1.88480        0.03130       -3.00642
| 18> H          1.65140        0.47571       -1.33278
| 19> H          0.57235       -0.67052       -2.09099
| 20> *
| 21>
| 22> %MaxCore 64000
| 23>
| 24> %pal nprocs 4
| 25> end
| 26>
| 27> %scf
| 28>   MaxIter 150
| 29> end
| 30>
| 31>
| 32>                          ****END OF INPUT****

CARTESIAN COORDINATES (ANGSTROEM)
---------------------------------
  C      2.486450   -2.677120   -2.563450
  C      3.037640   -2.366720   -3.923510
  N      2.280360   -2.454410   -4.967690
  N      4.321740   -2.017930   -4.016640
  H      4.879940   -1.911670   -3.173820
  H      4.710150   -1.670880   -4.883560
  H      1.270420   -2.412650   -4.866140
  H      2.581830   -2.055280   -5.846880
  C      2.497990   -1.469460   -1.610300
  C      1.582840   -0.321990   -2.042620
  H      2.193080   -1.833910   -0.625420
  H      3.523360   -1.103980   -1.490390
  H      1.472590   -3.051530   -2.694370
  H      3.083200   -3.490640   -2.141470
  H      1.884800    0.031300   -3.006420
  H      1.651400    0.475710   -1.332780
  H      0.572350   -0.670520   -2.090990

 Total Charge           Charge          ....    1
 Multiplicity           Mult            ....    1
 Number of Electrons    NEL             ....   48
 Basis Dimension        Dim             ....  208

ORBITAL ENERGIES
----------------

  NO   OCC          E(Eh)            E(eV)
   0   2.0000     -14.365004      -390.8916
   1   2.0000     -14.360200      -390.7609
   2   2.0000     -10.311418      -280.5879
   3   2.0000     -10.194958      -277.4189
   4   2.0000     -10.165230      -276.6100
   5   2.0000     -10.131936      -275.7040
   6   2.0000      -1.130799       -30.7706
   7   2.0000      -1.040283       -28.3075
   8   2.0000      -0.909738       -24.7552
   9   2.0000      -0.831060       -22.6143
  10   2.0000      -0.783085       -21.3088
  11   2.0000      -0.732077       -19.9208
  12   2.0000      -0.723166       -19.6784
  13   2.0000      -0.686328       -18.6759
  14   2.0000      -0.656722       -17.8703
  15   2.0000      -0.609848       -16.5948
  16   2.0000      -0.585891       -15.9429
  17   2.0000      -0.552541       -15.0354
  18   2.0000      -0.536039       -14.5864
  19   2.0000      -0.525629       -14.3031
  20   2.0000      -0.470221       -12.7954
  21   2.0000      -0.465929       -12.6786
  22   2.0000      -0.462782       -12.5929
  23   2.0000      -0.455551       -12.3962
  24   0.0000      -0.241255        -6.5649
  25   0.0000      -0.169598        -4.6150
  26   0.0000      -0.131884        -3.5888
  27   0.0000      -0.128550        -3.4980
  28   0.0000      -0.099513        -2.7079

MULLIKEN ATOMIC CHARGES
-----------------------
   0 C :    0.090354
   1 C :    0.730399
   2 N :    0.070174
   3 N :    0.003196
   4 H :    0.049386
   5 H :   -0.125008
   6 H :    0.027070
   7 H :   -0.095299
   8 C :   -0.373750
   9 C :    0.673605
  10 H :   -0.036035
  11 H :   -0.034732
  12 H :    0.081150
  13 H :    0.022540
  14 H :   -0.080264
  15 H :   -0.046874
  16 H :    0.044086
Sum of atomic charges:    1.0000000

LOEWDIN ATOMIC CHARGES
----------------------
   0 C :    0.055194
   1 C :   -0.050995
   2 N :    0.287581
   3 N :    0.292630
   4 H :    0.047892
   5 H :    0.043850
   6 H :    0.058087
   7 H :    0.049368
   8 C :   -0.037548
   9 C :    0.155051
  10 H :    0.037343
  11 H :    0.016650
  12 H :    0.032894
  13 H :    0.049058
  14 H :   -0.025345
  15 H :   -0.002657
  16 H :   -0.009051

  Mayer bond orders larger than 0.100000
B(  0-C ,  1-C ) :   1.1168 B(  0-C ,  8-C ) :   1.1878 B(  0-C , 10-H ) :   0.1050
B(  0-C , 11-H ) :   0.1112 B(  0-C , 12-H ) :   0.8045 B(  0-C , 13-H ) :   0.8474
B(  1-C ,  2-N ) :   1.0406 B(  1-C ,  3-N ) :   1.0588 B(  1-C ,  5-H ) :  -0.1560
B(  1-C ,  7-H ) :  -0.1300 B(  1-C , 12-H ) :   0.1512 B(  1-C , 13-H ) :   0.1123
B(  2-N ,  3-N ) :   0.1881 B(  2-N ,  6-H ) :   1.0627 B(  2-N ,  7-H ) :   1.2109
B(  3-N ,  4-H ) :   1.0890 B(  3-N ,  5-H ) :   1.3064 B(  4-H ,  5-H ) :  -0.1740
B(  6-H ,  7-H ) :  -0.1267 B(  8-C ,  9-C ) :   1.3711 B(  8-C , 10-H ) :   0.9684
B(  8-C , 11-H ) :   0.8972 B(  8-C , 12-H ) :   0.1304 B(  8-C , 14-H ) :   0.2239
B(  8-C , 15-H ) :   0.2144 B(  8-C , 16-H ) :   0.1987 B(  9-C , 14-H ) :   0.8310
B(  9-C , 15-H ) :   0.7826 B(  9-C , 16-H ) :   0.7809

Dispersion correction           -0.016868990
FINAL SINGLE POINT ENERGY      -268.224951468156

DIPOLE MOMENT
-------------
                                X             Y             Z
Electronic contribution:      2.38336      -2.80951      -4.28822
Nuclear contribution   :     -1.82438       2.64851       2.98450
                        -----------------------------------------
Total Dipole Moment    :      0.55898      -0.16099      -1.30372
                        -----------------------------------------
Magnitude (a.u.)       :      1.42760
Magnitude (Debye)      :      3.62868

Rotational constants in cm-1:     0.176712     0.077069     0.069669
Rotational constants in MHz :  5297.698588  2310.466480  2088.633881

                             ****ORCA TERMINATED NORMALLY****
TOTAL RUN TIME: 0 days 0 hours 0 minutes 12 seconds 486 msec
