                         Program Version 5.0.0 -  RELEASE  -
|  1> !TPSS D3BJ RIJCOSX def2-SVPD def2/J TightSCF
|  2> *xyz 0 1
|  3> C         -0.87096        0.24804       -2.66280
|  4> C         -0.47749        0.60819       -4.10105
|  5> H          0.20677        1.45830       -4.11875
|  6> H         -1.36844        0.92942       -4.64785
|  7> C          0.18467       -0.50664       -4.91676
|  8> F         -0.15869       -1.70109       -4.65798
|  9> O          1.05594       -0.17441       -5.74037
| 10> C          0.10016       -0.67355       -1.91581
| 11> H         -1.00105        1.18104       -2.10407
| 12> H         -1.84465       -0.24659       -2.66328
| 13> H          0.22336       -1.58297       -2.46597
| 14> H         -0.29270       -0.89423       -0.94532
| 15> H          1.04759       -0.18666       -1.81480
| 16> *
| 17>
| 18> %MaxCore 64000
| 19>
| 20> %pal nprocs 4
| 21> end
| 22>
| 23> %scf
| 24>   MaxIter 150
| 25> end
| 26>
| 27>
| 28>                          ****END OF INPUT****

CARTESIAN COORDINATES (ANGSTROEM)
---------------------------------
  C     -0.870960    0.248040   -2.662800
  C     -0.477490    0.608190   -4.101050
  H      0.206770    1.458300   -4.118750
  H     -1.368440    0.929420   -4.647850
  C      0.184670   -0.506640   -4.916760
  F     -0.158690   -1.701090   -4.657980
  O      1.055940   -0.174410   -5.740370
  C      0.100160   -0.673550   -1.915810
  H     -1.001050    1.181040   -2.104070
  H     -1.844650   -0.246590   -2.663280
  H      0.223360   -1.582970   -2.465970
  H     -0.292700   -0.894230   -0.945320
  H      1.047590   -0.186660   -1.814800

 Total Charge           Charge          ....    0
 Multiplicity           Mult            ....    1
 Number of Electrons    NEL             ....   48
 Basis Dimension        Dim             ....  182

ORBITAL ENERGIES
----------------

  NO   OCC          E(Eh)            E(eV)
   0   2.0000     -24.492904      -666.4858
   1   2.0000     -18.908220      -514.5188
   2   2.0000     -10.170339      -276.7490
   3   2.0000     -10.032246      -272.9913
   4   2.0000     -10.018283      -272.6113
   5   2.0000      -9.998080      -272.0616
   6   2.0000      -1.216991       -33.1160
   7   2.0000      -0.961252       -26.1570
   8   2.0000      -0.750971       -20.4350
   9   2.0000      -0.669843       -18.2274
  10   2.0000      -0.599938       -16.3251
  11   2.0000      -0.564455       -15.3596
  12   2.0000      -0.492853       -13.4112
  13   2.0000      -0.484469       -13.1831
  14   2.0000      -0.441545       -12.0151
  15   2.0000      -0.433569       -11.7980
  16   2.0000      -0.408946       -11.1280
  17   2.0000      -0.379916       -10.3380
  18   2.0000      -0.363229        -9.8840
  19   2.0000      -0.339972        -9.2511
  20   2.0000      -0.326356        -8.8806
  21   2.0000      -0.320989        -8.7345
  22   2.0000      -0.305875        -8.3233
  23   2.0000      -0.250031        -6.8037
  24   0.0000      -0.063375        -1.7245
  25   0.0000      -0.000483        -0.0131
  26   0.0000       0.033884         0.9220
  27   0.0000       0.035720         0.9720
  28   0.0000       0.046364         1.2616

MULLIKEN ATOMIC CHARGES
-----------------------
   0 C :   -0.357388
   1 C :    0.012392
   2 H :    0.098164
   3 H :    0.034348
   4 C :    0.754840
   5 F :   -0.435387
   6 O :   -0.505545
   7 C :    0.637435
   8 H :   -0.109738
   9 H :    0.004351
  10 H :   -0.095584
  11 H :   -0.028565
  12 H :   -0.009324
Sum of atomic charges:   -0.0000000

LOEWDIN ATOMIC CHARGES
----------------------
   0 C :   -0.056916
   1 C :    0.057642
   2 H :    0.031302
   3 H :    0.035624
   4 C :   -0.008645
   5 F :   -0.038996
   6 O :   -0.122914
   7 C :    0.139747
   8 H :    0.018777
   9 H :    0.016622
  10 H :   -0.040150
  11 H :   -0.017809
  12 H :   -0.014284

  Mayer bond orders larger than 0.100000
B(  0-C ,  1-C ) :   1.2342 B(  0-C ,  2-H ) :   0.1143 B(  0-C ,  3-H ) :   0.1212
B(  0-C ,  7-C ) :   1.3557 B(  0-C ,  8-H ) :   0.9438 B(  0-C ,  9-H ) :   0.8962
B(  0-C , 10-H ) :   0.1804 B(  0-C , 11-H ) :   0.2109 B(  0-C , 12-H ) :   0.1855
B(  1-C ,  2-H ) :   0.8688 B(  1-C ,  3-H ) :   0.8352 B(  1-C ,  4-C ) :   1.0830
B(  1-C ,  8-H ) :   0.1127 B(  1-C ,  9-H ) :   0.1041 B(  2-H ,  4-C ) :   0.1422
B(  4-C ,  5-F ) :   0.6681 B(  4-C ,  6-O ) :   1.7123 B(  5-F ,  6-O ) :   0.1066
B(  7-C , 10-H ) :   0.8707 B(  7-C , 11-H ) :   0.7451 B(  7-C , 12-H ) :   0.7900

Dispersion correction           -0.011627598
FINAL SINGLE POINT ENERGY      -331.536357876044

DIPOLE MOMENT
-------------
                                X             Y             Z
Electronic contribution:      1.76272      -4.32545      -8.50120
Nuclear contribution   :     -2.55684       4.59749       9.38828
                        -----------------------------------------
Total Dipole Moment    :     -0.79412       0.27204       0.88708
                        -----------------------------------------
Magnitude (a.u.)       :      1.22128
Magnitude (Debye)      :      3.10426

Rotational constants in cm-1:     0.200184     0.083263     0.071070
Rotational constants in MHz :  6001.373539  2496.169674  2130.635527

                             ****ORCA TERMINATED NORMALLY****
TOTAL RUN TIME: 0 days 0 hours 0 minutes 9 seconds 331 msec
