                         Program Version 5.0.0 -  RELEASE  -
|  1> !TPSS D3BJ RIJCOSX def2-SVPD def2/J TightSCF
|  2> *xyz 0 1
|  3> C          2.48645       -2.67712       -2.56345
|  4> C          3.03764       -2.36672       -3.92351
|  5> C          2.28036       -2.45441       -4.96769
|  6> N          4.32174       -2.01793       -4.01664
|  7> H          4.87994       -1.91167       -3.17382
|  8> H          4.71015       -1.67088       -4.88356
|  9> H          1.27042       -2.41265       -4.86614
| 10> H          2.58183       -2.05528       -5.84688
| 11> C          2.49799       -1.46946       -1.61030
| 12> C          1.58284       -0.32199       -2.04262
| 13> H          2.19308       -1.83391       -0.62542
| 14> H          3.52336       -1.10398       -1.49039
| 15> H          1.47259       -3.05153       -2.69437
| 16> H          3.08320       -3.49064       -2.14147
| 17> H          1.88480        0.03130       -3.00642
| 18> H          1.65140        0.47571       -1.33278
| 19> H          0.57235       -0.67052       -2.09099
| 20> *
| 21>
| 22> %MaxCore 64000
| 23>
| 24> %pal nprocs 4
| 25> end
| 26>
| 27> %scf
| 28>   MaxIter 150
| 29> end
| 30>
| 31>
| 32>                          ****END OF INPUT****

CARTESIAN COORDINATES (ANGSTROEM)
---------------------------------
  C      2.486450   -2.677120   -2.563450
  C      3.037640   -2.366720   -3.923510
  C      2.280360   -2.454410   -4.967690
  N      4.321740   -2.017930   -4.016640
  H      4.879940   -1.911670   -3.173820
  H      4.710150   -1.670880   -4.883560
  H      1.270420   -2.412650   -4.866140
  H      2.581830   -2.055280   -5.846880
  C      2.497990   -1.469460   -1.610300
  C      1.582840   -0.321990   -2.042620
  H      2.193080   -1.833910   -0.625420
  H      3.523360   -1.103980   -1.490390
  H      1.472590   -3.051530   -2.694370
  H      3.083200   -3.490640   -2.141470
  H      1.884800    0.031300   -3.006420
  H      1.651400    0.475710   -1.332780
  H      0.572350   -0.670520   -2.090990

 Total Charge           Charge          ....    0
 Multiplicity           Mult            ....    1
 Number of Electrons    NEL             ....   48
 Basis Dimension        Dim             ....  208

ORBITAL ENERGIES
----------------

  NO   OCC          E(Eh)            E(eV)
   0   2.0000     -14.120932      -384.2501
   1   2.0000     -10.013835      -272.4903
   2   2.0000     -10.000703      -272.1330
   3   2.0000      -9.998270      -272.0668
   4   2.0000      -9.983734      -271.6712
   5   2.0000      -9.931649      -270.2539
   6   2.0000      -0.853717       -23.2308
   7   2.0000      -0.728653       -19.8277
   8   2.0000      -0.676823       -18.4173
   9   2.0000      -0.626972       -17.0608
  10   2.0000      -0.547543       -14.8994
  11   2.0000      -0.516156       -14.0453
  12   2.0000      -0.481077       -13.0908
  13   2.0000      -0.427964       -11.6455
  14   2.0000      -0.409603       -11.1459
  15   2.0000      -0.406847       -11.0709
  16   2.0000      -0.356836        -9.7100
  17   2.0000      -0.352003        -9.5785
  18   2.0000      -0.332382        -9.0446
  19   2.0000      -0.325996        -8.8708
  20   2.0000      -0.302693        -8.2367
  21   2.0000      -0.286927        -7.8077
  22   2.0000      -0.283724        -7.7205
  23   2.0000      -0.166627        -4.5341
  24   0.0000       0.003540         0.0963
  25   0.0000       0.015527         0.4225
  26   0.0000       0.033507         0.9118
  27   0.0000       0.040271         1.0958
  28   0.0000       0.054024         1.4701

MULLIKEN ATOMIC CHARGES
-----------------------
   0 C :    0.145874
   1 C :   -0.072629
   2 C :    0.337930
   3 N :    0.128065
   4 H :   -0.112941
   5 H :   -0.191295
   6 H :    0.005965
   7 H :   -0.399228
   8 C :   -0.370529
   9 C :    0.668962
  10 H :   -0.086128
  11 H :   -0.037431
  12 H :    0.143061
  13 H :   -0.054990
  14 H :   -0.064898
  15 H :   -0.060252
  16 H :    0.020463
Sum of atomic charges:   -0.0000000

LOEWDIN ATOMIC CHARGES
----------------------
   0 C :    0.013901
   1 C :   -0.260271
   2 C :    0.166457
   3 N :    0.182684
   4 H :   -0.005110
   5 H :    0.003581
   6 H :   -0.077097
   7 H :   -0.085255
   8 C :   -0.062241
   9 C :    0.137079
  10 H :    0.012630
  11 H :    0.003109
  12 H :    0.018830
  13 H :    0.019539
  14 H :   -0.024235
  15 H :   -0.024460
  16 H :   -0.019142

  Mayer bond orders larger than 0.100000
B(  0-C ,  1-C ) :   1.1468 B(  0-C ,  2-C ) :   0.1018 B(  0-C ,  3-N ) :   0.1024
B(  0-C ,  8-C ) :   1.1538 B(  0-C , 10-H ) :   0.1554 B(  0-C , 11-H ) :   0.1434
B(  0-C , 12-H ) :   0.7903 B(  0-C , 13-H ) :   0.8994 B(  1-C ,  2-C ) :   1.9759
B(  1-C ,  3-N ) :   1.1664 B(  1-C ,  6-H ) :   0.1555 B(  1-C ,  7-H ) :   0.2923
B(  1-C , 12-H ) :   0.1142 B(  1-C , 13-H ) :   0.1549 B(  2-C ,  3-N ) :   0.2916
B(  2-C ,  6-H ) :   0.8497 B(  2-C ,  7-H ) :   0.6644 B(  3-N ,  4-H ) :   1.1516
B(  3-N ,  5-H ) :   1.2356 B(  4-H ,  5-H ) :  -0.1450 B(  6-H ,  7-H ) :   0.1459
B(  8-C ,  9-C ) :   1.3387 B(  8-C , 10-H ) :   0.9469 B(  8-C , 11-H ) :   0.8839
B(  8-C , 12-H ) :   0.1367 B(  8-C , 14-H ) :   0.2340 B(  8-C , 15-H ) :   0.2204
B(  8-C , 16-H ) :   0.2035 B(  9-C , 14-H ) :   0.8438 B(  9-C , 15-H ) :   0.7696
B(  9-C , 16-H ) :   0.7882

Dispersion correction           -0.017433113
FINAL SINGLE POINT ENERGY      -251.761502892873

DIPOLE MOMENT
-------------
                                X             Y             Z
Electronic contribution:      2.47161      -2.10715      -2.15379
Nuclear contribution   :     -1.92525       2.50924       2.56958
                        -----------------------------------------
Total Dipole Moment    :      0.54636       0.40209       0.41578
                        -----------------------------------------
Magnitude (a.u.)       :      0.79565
Magnitude (Debye)      :      2.02239

Rotational constants in cm-1:     0.181985     0.078726     0.071856
Rotational constants in MHz :  5455.785660  2360.157292  2154.177820

                             ****ORCA TERMINATED NORMALLY****
TOTAL RUN TIME: 0 days 0 hours 0 minutes 13 seconds 762 msec
