                         Program Version 5.0.0 -  RELEASE  -
|  1> !TPSS D3BJ RIJCOSX def2-SVPD def2/J TightSCF
|  2> *xyz 0 1
|  3> C         -0.87096        0.24804       -2.66280
|  4> C         -0.47749        0.60819       -4.10105
|  5> H          0.20677        1.45830       -4.11875
|  6> H         -1.36844        0.92942       -4.64785
|  7> C          0.18467       -0.50664       -4.91676
|  8> O         -0.15869       -1.70109       -4.65798
|  9> F          1.05594       -0.17441       -5.74037
| 10> C          0.10016       -0.67355       -1.91581
| 11> H         -1.00105        1.18104       -2.10407
| 12> H         -1.84465       -0.24659       -2.66328
| 13> H          0.22336       -1.58297       -2.46597
| 14> H         -0.29270       -0.89423       -0.94532
| 15> H          1.04759       -0.18666       -1.81480
| 16> *
| 17>
| 18> %MaxCore 64000
| 19>
| 20> %pal nprocs 4
| 21> end
| 22>
| 23> %scf
| 24>   MaxIter 150
| 25> end
| 26>
| 27>
| 28>                          ****END OF INPUT****

CARTESIAN COORDINATES (ANGSTROEM)
---------------------------------
  C     -0.870960    0.248040   -2.662800
  C     -0.477490    0.608190   -4.101050
  H      0.206770    1.458300   -4.118750
  H     -1.368440    0.929420   -4.647850
  C      0.184670   -0.506640   -4.916760
  O     -0.158690   -1.701090   -4.657980
  F      1.055940   -0.174410   -5.740370
  C      0.100160   -0.673550   -1.915810
  H     -1.001050    1.181040   -2.104070
  H     -1.844650   -0.246590   -2.663280
  H      0.223360   -1.582970   -2.465970
  H     -0.292700   -0.894230   -0.945320
  H      1.047590   -0.186660   -1.814800

 Total Charge           Charge          ....    0
 Multiplicity           Mult            ....    1
 Number of Electrons    NEL             ....   48
 Basis Dimension        Dim             ....  182

ORBITAL ENERGIES
----------------

  NO   OCC          E(Eh)            E(eV)
   0   2.0000     -24.501637      -666.7234
   1   2.0000     -18.905790      -514.4527
   2   2.0000     -10.172800      -276.8160
   3   2.0000     -10.033795      -273.0334
   4   2.0000     -10.013617      -272.4844
   5   2.0000      -9.986151      -271.7370
   6   2.0000      -1.234536       -33.5934
   7   2.0000      -0.948433       -25.8082
   8   2.0000      -0.745009       -20.2727
   9   2.0000      -0.669186       -18.2095
  10   2.0000      -0.606114       -16.4932
  11   2.0000      -0.558371       -15.1940
  12   2.0000      -0.500255       -13.6126
  13   2.0000      -0.479743       -13.0545
  14   2.0000      -0.457455       -12.4480
  15   2.0000      -0.427921       -11.6443
  16   2.0000      -0.409836       -11.1522
  17   2.0000      -0.376734       -10.2514
  18   2.0000      -0.352751        -9.5988
  19   2.0000      -0.325789        -8.8652
  20   2.0000      -0.322215        -8.7679
  21   2.0000      -0.308518        -8.3952
  22   2.0000      -0.305810        -8.3215
  23   2.0000      -0.247031        -6.7221
  24   0.0000      -0.066694        -1.8148
  25   0.0000       0.002750         0.0748
  26   0.0000       0.030732         0.8363
  27   0.0000       0.039813         1.0834
  28   0.0000       0.047957         1.3050

MULLIKEN ATOMIC CHARGES
-----------------------
   0 C :   -0.371559
   1 C :   -0.004038
   2 H :    0.107571
   3 H :    0.046213
   4 C :    0.740987
   5 O :   -0.583167
   6 F :   -0.358144
   7 C :    0.643829
   8 H :   -0.094537
   9 H :    0.012621
  10 H :   -0.090393
  11 H :   -0.025640
  12 H :   -0.023742
Sum of atomic charges:   -0.0000000

LOEWDIN ATOMIC CHARGES
----------------------
   0 C :   -0.047293
   1 C :    0.049813
   2 H :    0.020106
   3 H :    0.035824
   4 C :   -0.002896
   5 O :   -0.134870
   6 F :   -0.020104
   7 C :    0.140744
   8 H :    0.018808
   9 H :    0.021394
  10 H :   -0.044271
  11 H :   -0.018843
  12 H :   -0.018412

  Mayer bond orders larger than 0.100000
B(  0-C ,  1-C ) :   1.2568 B(  0-C ,  2-H ) :   0.1164 B(  0-C ,  3-H ) :   0.1347
B(  0-C ,  7-C ) :   1.3649 B(  0-C ,  8-H ) :   0.9349 B(  0-C ,  9-H ) :   0.8881
B(  0-C , 10-H ) :   0.1838 B(  0-C , 11-H ) :   0.2082 B(  0-C , 12-H ) :   0.1815
B(  1-C ,  2-H ) :   0.8465 B(  1-C ,  3-H ) :   0.8173 B(  1-C ,  4-C ) :   1.1258
B(  1-C ,  6-F ) :   0.1027 B(  1-C ,  8-H ) :   0.1062 B(  1-C ,  9-H ) :   0.1095
B(  2-H ,  4-C ) :   0.1184 B(  4-C ,  5-O ) :   1.7194 B(  4-C ,  6-F ) :   0.6955
B(  7-C , 10-H ) :   0.8662 B(  7-C , 11-H ) :   0.7378 B(  7-C , 12-H ) :   0.7856

Dispersion correction           -0.011757006
FINAL SINGLE POINT ENERGY      -331.530292430997

DIPOLE MOMENT
-------------
                                X             Y             Z
Electronic contribution:      3.81366      -1.79443     -10.38289
Nuclear contribution   :     -3.92885       2.87300      10.61091
                        -----------------------------------------
Total Dipole Moment    :     -0.11520       1.07857       0.22802
                        -----------------------------------------
Magnitude (a.u.)       :      1.10841
Magnitude (Debye)      :      2.81735

Rotational constants in cm-1:     0.209332     0.079487     0.069375
Rotational constants in MHz :  6275.605762  2382.960864  2079.805430

                             ****ORCA TERMINATED NORMALLY****
TOTAL RUN TIME: 0 days 0 hours 0 minutes 9 seconds 780 msec
