                         Program Version 5.0.0 -  RELEASE  -
|  1> !TPSS D3BJ RIJCOSX def2-SVPD def2/J TightSCF
|  2> *xyz 0 1
|  3> C          2.48645       -2.67712       -2.56345
|  4> C          3.03764       -2.36672       -3.92351
|  5> N          2.28036       -2.45441       -4.96769
|  6> C          4.32174       -2.01793       -4.01664
|  7> H          4.87994       -1.91167       -3.17382
|  8> H          4.71015       -1.67088       -4.88356
|  9> H          1.27042       -2.41265       -4.86614
| 10> H          2.58183       -2.05528       -5.84688
| 11> C          2.49799       -1.46946       -1.61030
| 12> C          1.58284       -0.32199       -2.04262
| 13> H          2.19308       -1.83391       -0.62542
| 14> H          3.52336       -1.10398       -1.49039
| 15> H          1.47259       -3.05153       -2.69437
| 16> H          3.08320       -3.49064       -2.14147
| 17> H          1.88480        0.03130       -3.00642
| 18> H          1.65140        0.47571       -1.33278
| 19> H          0.57235       -0.67052       -2.09099
| 20> *
| 21>
| 22> %MaxCore 64000
| 23>
| 24> %pal nprocs 4
| 25> end
| 26>
| 27> %scf
| 28>   MaxIter 150
| 29> end
| 30>
| 31>
| 32>                          ****END OF INPUT****

CARTESIAN COORDINATES (ANGSTROEM)
---------------------------------
  C      2.486450   -2.677120   -2.563450
  C      3.037640   -2.366720   -3.923510
  N      2.280360   -2.454410   -4.967690
  C      4.321740   -2.017930   -4.016640
  H      4.879940   -1.911670   -3.173820
  H      4.710150   -1.670880   -4.883560
  H      1.270420   -2.412650   -4.866140
  H      2.581830   -2.055280   -5.846880
  C      2.497990   -1.469460   -1.610300
  C      1.582840   -0.321990   -2.042620
  H      2.193080   -1.833910   -0.625420
  H      3.523360   -1.103980   -1.490390
  H      1.472590   -3.051530   -2.694370
  H      3.083200   -3.490640   -2.141470
  H      1.884800    0.031300   -3.006420
  H      1.651400    0.475710   -1.332780
  H      0.572350   -0.670520   -2.090990

 Total Charge           Charge          ....    0
 Multiplicity           Mult            ....    1
 Number of Electrons    NEL             ....   48
 Basis Dimension        Dim             ....  208

ORBITAL ENERGIES
----------------

  NO   OCC          E(Eh)            E(eV)
   0   2.0000     -14.124413      -384.3448
   1   2.0000     -10.014077      -272.4969
   2   2.0000      -9.999127      -272.0901
   3   2.0000      -9.997080      -272.0344
   4   2.0000      -9.984779      -271.6997
   5   2.0000      -9.932684      -270.2821
   6   2.0000      -0.868348       -23.6289
   7   2.0000      -0.729550       -19.8521
   8   2.0000      -0.668804       -18.1991
   9   2.0000      -0.622410       -16.9366
  10   2.0000      -0.557002       -15.1568
  11   2.0000      -0.514415       -13.9979
  12   2.0000      -0.475520       -12.9396
  13   2.0000      -0.441484       -12.0134
  14   2.0000      -0.410271       -11.1640
  15   2.0000      -0.391741       -10.6598
  16   2.0000      -0.363145        -9.8817
  17   2.0000      -0.352301        -9.5866
  18   2.0000      -0.330528        -8.9941
  19   2.0000      -0.322640        -8.7795
  20   2.0000      -0.301405        -8.2017
  21   2.0000      -0.291584        -7.9344
  22   2.0000      -0.290029        -7.8921
  23   2.0000      -0.158111        -4.3024
  24   0.0000       0.005487         0.1493
  25   0.0000       0.011621         0.3162
  26   0.0000       0.034903         0.9498
  27   0.0000       0.041284         1.1234
  28   0.0000       0.050945         1.3863

MULLIKEN ATOMIC CHARGES
-----------------------
   0 C :    0.380688
   1 C :   -0.027411
   2 N :    0.079084
   3 C :    0.296587
   4 H :   -0.069801
   5 H :   -0.444965
   6 H :   -0.053846
   7 H :   -0.136332
   8 C :   -0.462085
   9 C :    0.644681
  10 H :   -0.059679
  11 H :   -0.038022
  12 H :   -0.042439
  13 H :    0.037767
  14 H :   -0.053041
  15 H :   -0.076422
  16 H :    0.025235
Sum of atomic charges:    0.0000000

LOEWDIN ATOMIC CHARGES
----------------------
   0 C :    0.014382
   1 C :   -0.262773
   2 N :    0.171538
   3 C :    0.183745
   4 H :   -0.084922
   5 H :   -0.092062
   6 H :    0.002774
   7 H :    0.009598
   8 C :   -0.057269
   9 C :    0.133712
  10 H :    0.012727
  11 H :    0.010920
  12 H :    0.006691
  13 H :    0.024825
  14 H :   -0.026155
  15 H :   -0.023621
  16 H :   -0.024110

  Mayer bond orders larger than 0.100000
B(  0-C ,  1-C ) :   1.0397 B(  0-C ,  2-N ) :   0.1238 B(  0-C ,  3-C ) :   0.1272
B(  0-C ,  8-C ) :   1.1837 B(  0-C , 10-H ) :   0.1007 B(  0-C , 11-H ) :   0.1336
B(  0-C , 12-H ) :   0.6856 B(  0-C , 13-H ) :   0.7996 B(  1-C ,  2-N ) :   0.9657
B(  1-C ,  3-C ) :   1.7179 B(  1-C ,  4-H ) :   0.1071 B(  1-C ,  5-H ) :   0.1469
B(  1-C , 12-H ) :   0.2168 B(  1-C , 13-H ) :   0.1365 B(  2-N ,  3-C ) :   0.3255
B(  2-N ,  6-H ) :   1.0117 B(  2-N ,  7-H ) :   1.1448 B(  3-C ,  4-H ) :   0.8198
B(  3-C ,  5-H ) :   0.8384 B(  6-H ,  7-H ) :  -0.1106 B(  8-C ,  9-C ) :   1.3434
B(  8-C , 10-H ) :   0.9530 B(  8-C , 11-H ) :   0.9316 B(  8-C , 12-H ) :   0.1851
B(  8-C , 13-H ) :   0.1115 B(  8-C , 14-H ) :   0.2340 B(  8-C , 15-H ) :   0.2206
B(  8-C , 16-H ) :   0.2125 B(  9-C , 14-H ) :   0.8356 B(  9-C , 15-H ) :   0.7867
B(  9-C , 16-H ) :   0.7916

Dispersion correction           -0.017447998
FINAL SINGLE POINT ENERGY      -251.762572834416

DIPOLE MOMENT
-------------
                                X             Y             Z
Electronic contribution:      0.71851      -2.42500      -2.97516
Nuclear contribution   :     -1.44240       2.61248       2.79453
                        -----------------------------------------
Total Dipole Moment    :     -0.72389       0.18748      -0.18063
                        -----------------------------------------
Magnitude (a.u.)       :      0.76928
Magnitude (Debye)      :      1.95535

Rotational constants in cm-1:     0.182540     0.078634     0.071436
Rotational constants in MHz :  5472.425685  2357.397154  2141.608207

                             ****ORCA TERMINATED NORMALLY****
TOTAL RUN TIME: 0 days 0 hours 0 minutes 13 seconds 997 msec
