                         Program Version 5.0.0 -  RELEASE  -
|  1> !TPSS D3BJ RIJCOSX def2-SVPD def2/J TightSCF xyzfile
|  2>
|  3> *xyzfile 0 1 D2.xyz
|  4>
|  5> %MaxCore 64000
|  6>
|  7> %pal nprocs 4
|  8> end
|  9>
| 10> %scf
| 11>   MaxIter 150
| 12> end
| 13>
| 14>
| 15>                          ****END OF INPUT****

CARTESIAN COORDINATES (ANGSTROEM)
---------------------------------
  C      2.486452   -2.677121   -2.563447
  C     -0.870963    0.248043   -2.662804
  C     -0.477492    0.608191   -4.101052
  H      0.206773    1.458299   -4.118748
  H     -1.368442    0.929419   -4.647855
  C      0.184673   -0.506640   -4.916760
  C      3.037640   -2.366715   -3.923509
  N      2.280360   -2.454408   -4.967692
  C      4.321736   -2.017932   -4.016641
  H      4.879940   -1.911668   -3.173823
  H      4.710148   -1.670882   -4.883561
  H      1.270423   -2.412650   -4.866143
  H      2.581829   -2.055282   -5.846878
  F     -0.158685   -1.701088   -4.657981
  O      1.055938   -0.174410   -5.740373
  C      2.497991   -1.469464   -1.610303
  C      1.582841   -0.321986   -2.042619
  H      2.193083   -1.833912   -0.625420
  H      3.523356   -1.103982   -1.490392
  C      0.100160   -0.673551   -1.915815
  H      1.822311   -0.040361   -3.072834
  H      1.813180    0.557019   -1.433266
  H     -0.063284   -1.679120   -2.301112
  H     -0.168820   -0.691680   -0.853831
  H     -1.001048    1.181040   -2.104071
  H     -1.844645   -0.246592   -2.663281
  H      1.472592   -3.051527   -2.694366
  H      3.083201   -3.490638   -2.141472

 Total Charge           Charge          ....    0
 Multiplicity           Mult            ....    1
 Number of Electrons    NEL             ....   94
 Basis Dimension        Dim             ....  374

ORBITAL ENERGIES
----------------

  NO   OCC          E(Eh)            E(eV)
   0   2.0000     -24.521936      -667.2758
   1   2.0000     -18.924900      -514.9727
   2   2.0000     -14.097616      -383.6156
   3   2.0000     -10.187604      -277.2188
   4   2.0000     -10.041343      -273.2388
   5   2.0000     -10.022291      -272.7204
   6   2.0000     -10.008586      -272.3475
   7   2.0000     -10.002165      -272.1727
   8   2.0000     -10.001617      -272.1578
   9   2.0000      -9.997809      -272.0542
  10   2.0000      -9.995061      -271.9794
  11   2.0000      -9.919835      -269.9324
  12   2.0000      -1.249078       -33.9891
  13   2.0000      -0.979471       -26.6528
  14   2.0000      -0.851401       -23.1678
  15   2.0000      -0.769085       -20.9279
  16   2.0000      -0.730461       -19.8768
  17   2.0000      -0.691253       -18.8099
  18   2.0000      -0.647739       -17.6259
  19   2.0000      -0.630502       -17.1568
  20   2.0000      -0.609091       -16.5742
  21   2.0000      -0.572041       -15.5660
  22   2.0000      -0.538816       -14.6619
  23   2.0000      -0.532236       -14.4829
  24   2.0000      -0.512898       -13.9567
  25   2.0000      -0.490129       -13.3371
  26   2.0000      -0.463538       -12.6135
  27   2.0000      -0.452922       -12.3246
  28   2.0000      -0.439011       -11.9461
  29   2.0000      -0.432587       -11.7713
  30   2.0000      -0.428091       -11.6489
  31   2.0000      -0.402936       -10.9644
  32   2.0000      -0.386310       -10.5120
  33   2.0000      -0.377313       -10.2672
  34   2.0000      -0.370586       -10.0842
  35   2.0000      -0.353981        -9.6323
  36   2.0000      -0.348932        -9.4949
  37   2.0000      -0.336973        -9.1695
  38   2.0000      -0.330499        -8.9933
  39   2.0000      -0.321971        -8.7613
  40   2.0000      -0.309459        -8.4208
  41   2.0000      -0.302848        -8.2409
  42   2.0000      -0.289247        -7.8708
  43   2.0000      -0.285769        -7.7762
  44   2.0000      -0.279717        -7.6115
  45   2.0000      -0.261954        -7.1281
  46   2.0000      -0.143060        -3.8929
  47   0.0000      -0.080982        -2.2036
  48   0.0000      -0.006079        -0.1654
  49   0.0000       0.015574         0.4238
  50   0.0000       0.021552         0.5865
  51   0.0000       0.025234         0.6867

MULLIKEN ATOMIC CHARGES
-----------------------
   0 C :    0.536034
   1 C :    0.459654
   2 C :    0.136243
   3 H :    0.267460
   4 H :   -0.237233
   5 C :    0.568133
   6 C :   -0.090757
   7 N :    0.303225
   8 C :    0.255026
   9 H :   -0.082889
  10 H :   -0.343017
  11 H :   -0.319983
  12 H :   -0.017765
  13 F :   -0.549182
  14 O :   -0.483858
  15 C :    0.177387
  16 C :    0.102269
  17 H :   -0.055218
  18 H :   -0.018201
  19 C :   -0.012956
  20 H :   -0.101109
  21 H :   -0.176931
  22 H :    0.020562
  23 H :   -0.167113
  24 H :   -0.089169
  25 H :    0.057630
  26 H :   -0.095889
  27 H :   -0.042353
Sum of atomic charges:   -0.0000000

LOEWDIN ATOMIC CHARGES
----------------------
   0 C :    0.030499
   1 C :   -0.009543
   2 C :    0.068218
   3 H :    0.035722
   4 H :    0.036043
   5 C :   -0.004176
   6 C :   -0.242743
   7 N :    0.198139
   8 C :    0.181159
   9 H :   -0.090221
  10 H :   -0.091835
  11 H :   -0.081117
  12 H :    0.010929
  13 F :   -0.036780
  14 O :   -0.108314
  15 C :   -0.006343
  16 C :   -0.004639
  17 H :    0.017220
  18 H :    0.014281
  19 C :   -0.020647
  20 H :    0.004191
  21 H :    0.023375
  22 H :   -0.011690
  23 H :    0.025057
  24 H :    0.022430
  25 H :    0.019051
  26 H :   -0.004509
  27 H :    0.026245

  Mayer bond orders larger than 0.100000
B(  0-C ,  6-C ) :   0.9595 B(  0-C ,  7-N ) :   0.1389 B(  0-C , 10-H ) :   0.1107
B(  0-C , 15-C ) :   1.1725 B(  0-C , 17-H ) :   0.1369 B(  0-C , 18-H ) :   0.1677
B(  0-C , 26-H ) :   0.6184 B(  0-C , 27-H ) :   0.7600 B(  1-C ,  2-C ) :   1.1764
B(  1-C ,  4-H ) :   0.1330 B(  1-C , 19-C ) :   1.2912 B(  1-C , 24-H ) :   0.7849
B(  1-C , 25-H ) :   0.6875 B(  2-C ,  3-H ) :   0.7515 B(  2-C ,  4-H ) :   0.7841
B(  2-C ,  5-C ) :   1.2108 B(  2-C , 19-C ) :   0.1116 B(  2-C , 24-H ) :   0.1255
B(  3-H ,  5-C ) :   0.1973 B(  4-H ,  5-C ) :   0.2674 B(  5-C , 13-F ) :   0.5519
B(  5-C , 14-O ) :   1.7238 B(  6-C ,  7-N ) :   1.0288 B(  6-C ,  8-C ) :   1.7145
B(  6-C ,  9-H ) :   0.1447 B(  6-C , 10-H ) :   0.1865 B(  6-C , 12-H ) :  -0.1020
B(  6-C , 26-H ) :   0.2044 B(  6-C , 27-H ) :   0.1474 B(  7-N ,  8-C ) :   0.3332
B(  7-N , 11-H ) :   0.8586 B(  7-N , 12-H ) :   0.9883 B(  8-C ,  9-H ) :   0.8486
B(  8-C , 10-H ) :   0.7113 B( 11-H , 12-H ) :  -0.1152 B( 11-H , 13-F ) :   0.1584
B( 15-C , 16-C ) :   1.2317 B( 15-C , 17-H ) :   0.8648 B( 15-C , 18-H ) :   0.7354
B( 15-C , 20-H ) :   0.1794 B( 15-C , 21-H ) :   0.1022 B( 15-C , 26-H ) :   0.2008
B( 15-C , 27-H ) :   0.1363 B( 16-C , 17-H ) :   0.1355 B( 16-C , 18-H ) :   0.2065
B( 16-C , 19-C ) :   1.1804 B( 16-C , 20-H ) :   0.8454 B( 16-C , 21-H ) :   0.9014
B( 16-C , 23-H ) :   0.2094 B( 17-H , 18-H ) :  -0.1080 B( 19-C , 20-H ) :   0.1270
B( 19-C , 21-H ) :   0.1102 B( 19-C , 22-H ) :   0.8722 B( 19-C , 23-H ) :   0.8419
B( 19-C , 24-H ) :   0.1891 B( 19-C , 25-H ) :   0.1994 B( 22-H , 26-H ) :   0.1172

Dispersion correction           -0.038855693
FINAL SINGLE POINT ENERGY      -582.089623491480

DIPOLE MOMENT
-------------
                                X             Y             Z
Electronic contribution:     -5.29970      -1.81209     -10.91607
Nuclear contribution   :      3.65024       2.44123      11.52670
                        -----------------------------------------
Total Dipole Moment    :     -1.64945       0.62915       0.61064
                        -----------------------------------------
Magnitude (a.u.)       :      1.86799
Magnitude (Debye)      :      4.74806

Rotational constants in cm-1:     0.040600     0.026409     0.019262
Rotational constants in MHz :  1217.142957   791.712481   577.449390

                             ****ORCA TERMINATED NORMALLY****
TOTAL RUN TIME: 0 days 0 hours 0 minutes 59 seconds 113 msec
