                         Program Version 5.0.0 -  RELEASE  -
|  1> !TPSS D3BJ RIJCOSX def2-SVPD def2/J TightSCF xyzfile
|  2>
|  3> *xyzfile 0 1 D4.xyz
|  4>
|  5> %MaxCore 64000
|  6>
|  7> %pal nprocs 4
|  8> end
|  9>
| 10> %scf
| 11>   MaxIter 150
| 12> end
| 13>
| 14>
| 15>                          ****END OF INPUT****

CARTESIAN COORDINATES (ANGSTROEM)
---------------------------------
  C      2.486452   -2.677121   -2.563447
  C     -0.870963    0.248043   -2.662804
  C     -0.477492    0.608191   -4.101052
  H      0.206773    1.458299   -4.118748
  H     -1.368442    0.929419   -4.647855
  C      0.184673   -0.506640   -4.916760
  C      3.037640   -2.366715   -3.923509
  N      2.280360   -2.454408   -4.967692
  C      4.321736   -2.017932   -4.016641
  H      4.879940   -1.911668   -3.173823
  H      4.710148   -1.670882   -4.883561
  H      1.270423   -2.412650   -4.866143
  H      2.581829   -2.055282   -5.846878
  O     -0.158685   -1.701088   -4.657981
  F      1.055938   -0.174410   -5.740373
  C      2.497991   -1.469464   -1.610303
  C      1.582841   -0.321986   -2.042619
  H      2.193083   -1.833912   -0.625420
  H      3.523356   -1.103982   -1.490392
  C      0.100160   -0.673551   -1.915815
  H      1.822311   -0.040361   -3.072834
  H      1.813180    0.557019   -1.433266
  H     -0.063284   -1.679120   -2.301112
  H     -0.168820   -0.691680   -0.853831
  H     -1.001048    1.181040   -2.104071
  H     -1.844645   -0.246592   -2.663281
  H      1.472592   -3.051527   -2.694366
  H      3.083201   -3.490638   -2.141472

 Total Charge           Charge          ....    0
 Multiplicity           Mult            ....    1
 Number of Electrons    NEL             ....   94
 Basis Dimension        Dim             ....  374

ORBITAL ENERGIES
----------------

  NO   OCC          E(Eh)            E(eV)
   0   2.0000     -24.522145      -667.2815
   1   2.0000     -18.930276      -515.1190
   2   2.0000     -14.088725      -383.3737
   3   2.0000     -10.195882      -277.4441
   4   2.0000     -10.044914      -273.3360
   5   2.0000     -10.020443      -272.6701
   6   2.0000     -10.000617      -272.1306
   7   2.0000     -10.000148      -272.1179
   8   2.0000      -9.999311      -272.0951
   9   2.0000      -9.994620      -271.9674
  10   2.0000      -9.989429      -271.8262
  11   2.0000      -9.917720      -269.8749
  12   2.0000      -1.254781       -34.1443
  13   2.0000      -0.980124       -26.6705
  14   2.0000      -0.845623       -23.0106
  15   2.0000      -0.765148       -20.8207
  16   2.0000      -0.728277       -19.8174
  17   2.0000      -0.689183       -18.7536
  18   2.0000      -0.649556       -17.6753
  19   2.0000      -0.624612       -16.9965
  20   2.0000      -0.606392       -16.5008
  21   2.0000      -0.567648       -15.4465
  22   2.0000      -0.533444       -14.5157
  23   2.0000      -0.523651       -14.2493
  24   2.0000      -0.506246       -13.7757
  25   2.0000      -0.492308       -13.3964
  26   2.0000      -0.480418       -13.0728
  27   2.0000      -0.453002       -12.3268
  28   2.0000      -0.438614       -11.9353
  29   2.0000      -0.434656       -11.8276
  30   2.0000      -0.426910       -11.6168
  31   2.0000      -0.401727       -10.9315
  32   2.0000      -0.384202       -10.4547
  33   2.0000      -0.370156       -10.0725
  34   2.0000      -0.366804        -9.9813
  35   2.0000      -0.353898        -9.6300
  36   2.0000      -0.343366        -9.3435
  37   2.0000      -0.334817        -9.1108
  38   2.0000      -0.324660        -8.8344
  39   2.0000      -0.323564        -8.8046
  40   2.0000      -0.304889        -8.2964
  41   2.0000      -0.299370        -8.1463
  42   2.0000      -0.288118        -7.8401
  43   2.0000      -0.282457        -7.6860
  44   2.0000      -0.277939        -7.5631
  45   2.0000      -0.260596        -7.0912
  46   2.0000      -0.140727        -3.8294
  47   0.0000      -0.088642        -2.4121
  48   0.0000      -0.004084        -0.1111
  49   0.0000       0.015256         0.4151
  50   0.0000       0.021236         0.5779
  51   0.0000       0.025894         0.7046

MULLIKEN ATOMIC CHARGES
-----------------------
   0 C :    0.529662
   1 C :    0.452782
   2 C :    0.115820
   3 H :    0.274409
   4 H :   -0.224834
   5 C :    0.668828
   6 C :   -0.115163
   7 N :    0.273817
   8 C :    0.260598
   9 H :   -0.086136
  10 H :   -0.345325
  11 H :   -0.283465
  12 H :   -0.037274
  13 O :   -0.711192
  14 F :   -0.395085
  15 C :    0.161395
  16 C :    0.057019
  17 H :   -0.051856
  18 H :   -0.023646
  19 C :   -0.025912
  20 H :   -0.070448
  21 H :   -0.186951
  22 H :    0.052689
  23 H :   -0.185092
  24 H :   -0.080942
  25 H :    0.090029
  26 H :   -0.077832
  27 H :   -0.035896
Sum of atomic charges:    0.0000000

LOEWDIN ATOMIC CHARGES
----------------------
   0 C :    0.034292
   1 C :    0.001928
   2 C :    0.061524
   3 H :    0.026175
   4 H :    0.037074
   5 C :    0.018424
   6 C :   -0.244634
   7 N :    0.194578
   8 C :    0.175146
   9 H :   -0.092065
  10 H :   -0.096371
  11 H :   -0.115195
  12 H :    0.009494
  13 O :   -0.116813
  14 F :   -0.004533
  15 C :   -0.006025
  16 C :   -0.007499
  17 H :    0.017996
  18 H :    0.012777
  19 C :   -0.016416
  20 H :    0.000657
  21 H :    0.021636
  22 H :   -0.010809
  23 H :    0.025024
  24 H :    0.023153
  25 H :    0.024244
  26 H :    0.000320
  27 H :    0.025918

  Mayer bond orders larger than 0.100000
B(  0-C ,  6-C ) :   0.9710 B(  0-C ,  7-N ) :   0.1363 B(  0-C , 10-H ) :   0.1112
B(  0-C , 15-C ) :   1.1748 B(  0-C , 16-C ) :   0.1056 B(  0-C , 17-H ) :   0.1341
B(  0-C , 18-H ) :   0.1663 B(  0-C , 26-H ) :   0.6286 B(  0-C , 27-H ) :   0.7516
B(  1-C ,  2-C ) :   1.2100 B(  1-C ,  4-H ) :   0.1545 B(  1-C , 19-C ) :   1.2940
B(  1-C , 24-H ) :   0.7741 B(  1-C , 25-H ) :   0.6726 B(  2-C ,  3-H ) :   0.7553
B(  2-C ,  4-H ) :   0.7630 B(  2-C ,  5-C ) :   1.2384 B(  2-C , 14-F ) :   0.1059
B(  2-C , 19-C ) :   0.1238 B(  2-C , 24-H ) :   0.1371 B(  3-H ,  5-C ) :   0.1447
B(  4-H ,  5-C ) :   0.2653 B(  5-C , 13-O ) :   1.5461 B(  5-C , 14-F ) :   0.6153
B(  6-C ,  7-N ) :   1.0520 B(  6-C ,  8-C ) :   1.7074 B(  6-C ,  9-H ) :   0.1563
B(  6-C , 10-H ) :   0.1854 B(  6-C , 26-H ) :   0.2045 B(  6-C , 27-H ) :   0.1446
B(  7-N ,  8-C ) :   0.3241 B(  7-N , 11-H ) :   0.8407 B(  7-N , 12-H ) :   1.0031
B(  8-C ,  9-H ) :   0.8369 B(  8-C , 10-H ) :   0.7184 B( 11-H , 12-H ) :  -0.1255
B( 11-H , 13-O ) :   0.1596 B( 15-C , 16-C ) :   1.2354 B( 15-C , 17-H ) :   0.8606
B( 15-C , 18-H ) :   0.7383 B( 15-C , 20-H ) :   0.1784 B( 15-C , 21-H ) :   0.1090
B( 15-C , 26-H ) :   0.2001 B( 15-C , 27-H ) :   0.1391 B( 16-C , 17-H ) :   0.1360
B( 16-C , 18-H ) :   0.2097 B( 16-C , 19-C ) :   1.1856 B( 16-C , 20-H ) :   0.8409
B( 16-C , 21-H ) :   0.9185 B( 16-C , 23-H ) :   0.2126 B( 17-H , 18-H ) :  -0.1089
B( 19-C , 20-H ) :   0.1138 B( 19-C , 21-H ) :   0.1094 B( 19-C , 22-H ) :   0.8760
B( 19-C , 23-H ) :   0.8430 B( 19-C , 24-H ) :   0.1945 B( 19-C , 25-H ) :   0.2047
B( 22-H , 26-H ) :   0.1131

Dispersion correction           -0.039037705
FINAL SINGLE POINT ENERGY      -582.091919302916

DIPOLE MOMENT
-------------
                                X             Y             Z
Electronic contribution:     -3.40759       0.74715     -12.75586
Nuclear contribution   :      2.21030       0.63135      12.80988
                        -----------------------------------------
Total Dipole Moment    :     -1.19729       1.37850       0.05402
                        -----------------------------------------
Magnitude (a.u.)       :      1.82666
Magnitude (Debye)      :      4.64299

Rotational constants in cm-1:     0.039980     0.026547     0.019089
Rotational constants in MHz :  1198.568620   795.867393   572.288555

                             ****ORCA TERMINATED NORMALLY****
TOTAL RUN TIME: 0 days 0 hours 0 minutes 59 seconds 495 msec
