                         Program Version 5.0.0 -  RELEASE  -
|  1> !LC-PBE RIJCOSX def2-SVPD def2/J TightSCF
|  2> *xyz -1 1
|  3> C          3.51177       -2.80621       -6.49228
|  4> S          3.00462       -1.09621       -6.38926
|  5> O          4.12886       -0.32965       -6.95372
|  6> O          1.78128       -1.00078       -7.13640
|  7> O          2.85155       -0.78368       -4.95679
|  8> H          3.63615       -3.08010       -7.51913
|  9> H          2.76397       -3.42755       -6.04548
| 10> H          4.43892       -2.93511       -5.97393
| 11> *
| 12>
| 13> %MaxCore 64000
| 14>
| 15> %pal nprocs 8
| 16> end
| 17>
| 18> %scf
| 19>   MaxIter 150
| 20> end
| 21>
| 22>
| 23>                          ****END OF INPUT****

CARTESIAN COORDINATES (ANGSTROEM)
---------------------------------
  C      3.511770   -2.806210   -6.492280
  S      3.004620   -1.096210   -6.389260
  O      4.128860   -0.329650   -6.953720
  O      1.781280   -1.000780   -7.136400
  O      2.851550   -0.783680   -4.956790
  H      3.636150   -3.080100   -7.519130
  H      2.763970   -3.427550   -6.045480
  H      4.438920   -2.935110   -5.973930

 Total Charge           Charge          ....   -1
 Multiplicity           Mult            ....    1
 Number of Electrons    NEL             ....   50
 Basis Dimension        Dim             ....  140

ORBITAL ENERGIES
----------------

  NO   OCC          E(Eh)            E(eV)
   0   2.0000     -88.315740     -2403.1934
   1   2.0000     -18.775602      -510.9101
   2   2.0000     -18.764389      -510.6050
   3   2.0000     -18.763895      -510.5915
   4   2.0000      -9.985082      -271.7079
   5   2.0000      -7.937457      -215.9892
   6   2.0000      -5.959775      -162.1737
   7   2.0000      -5.959603      -162.1690
   8   2.0000      -5.959559      -162.1678
   9   2.0000      -1.107205       -30.1286
  10   2.0000      -0.950211       -25.8566
  11   2.0000      -0.929350       -25.2889
  12   2.0000      -0.759868       -20.6771
  13   2.0000      -0.542720       -14.7681
  14   2.0000      -0.455976       -12.4077
  15   2.0000      -0.440200       -11.9784
  16   2.0000      -0.438547       -11.9335
  17   2.0000      -0.392157       -10.6711
  18   2.0000      -0.390682       -10.6310
  19   2.0000      -0.293353        -7.9825
  20   2.0000      -0.291342        -7.9278
  21   2.0000      -0.250139        -6.8066
  22   2.0000      -0.242053        -6.5866
  23   2.0000      -0.237765        -6.4699
  24   2.0000      -0.196501        -5.3471
  25   0.0000       0.209961         5.7133
  26   0.0000       0.232206         6.3187
  27   0.0000       0.232511         6.3269
  28   0.0000       0.238171         6.4810
  29   0.0000       0.271781         7.3955

MULLIKEN ATOMIC CHARGES
-----------------------
   0 C :    0.230067
   1 S :    0.979950
   2 O :   -0.758438
   3 O :   -0.716259
   4 O :   -0.756011
   5 H :    0.010914
   6 H :    0.003767
   7 H :    0.006011
Sum of atomic charges:   -1.0000000

LOEWDIN ATOMIC CHARGES
----------------------
   0 C :    0.020592
   1 S :    0.814227
   2 O :   -0.597163
   3 O :   -0.576778
   4 O :   -0.595520
   5 H :   -0.021688
   6 H :   -0.022548
   7 H :   -0.021121

  Mayer bond orders larger than 0.100000
B(  0-C ,  1-S ) :   0.9780 B(  0-C ,  5-H ) :   0.9332 B(  0-C ,  6-H ) :   0.9358
B(  0-C ,  7-H ) :   0.9376 B(  1-S ,  2-O ) :   1.3454 B(  1-S ,  3-O ) :   1.3774
B(  1-S ,  4-O ) :   1.3453 B(  1-S ,  7-H ) :   0.1058

FINAL SINGLE POINT ENERGY      -662.428582837008

DIPOLE MOMENT
-------------
                                X             Y             Z
Electronic contribution:     -1.26218       3.90812       0.17257
Nuclear contribution   :      1.59265      -5.51967      -0.35565
                        -----------------------------------------
Total Dipole Moment    :      0.33046      -1.61155      -0.18309
                        -----------------------------------------
Magnitude (a.u.)       :      1.65524
Magnitude (Debye)      :      4.20728

Rotational constants in cm-1:     0.172598     0.157065     0.154689
Rotational constants in MHz :  5174.362736  4708.699947  4637.458896

                             ****ORCA TERMINATED NORMALLY****
TOTAL RUN TIME: 0 days 0 hours 0 minutes 7 seconds 249 msec
