                         Program Version 5.0.0 -  RELEASE  -
|  1> !LC-PBE RIJCOSX def2-SVPD def2/J TightSCF
|  2> *xyz 1 1
|  3> C          4.49059        1.15590       -2.46929
|  4> N          4.30539        1.22276       -3.90832
|  5> C          4.63192        2.24637       -4.67096
|  6> N          4.54169        2.14399       -5.98714
|  7> N          5.08409        3.39358       -4.11855
|  8> H          4.92067        3.57050       -3.13587
|  9> H          5.25465        4.19739       -4.70696
| 10> H          3.82453        0.44911       -4.35093
| 11> H          4.34337        1.24932       -6.41665
| 12> H          4.67671        2.95662       -6.57411
| 13> H          5.00867        2.03053       -2.13534
| 14> H          5.06354        0.28631       -2.22344
| 15> H          3.53600        1.10160       -1.98897
| 16> *
| 17>
| 18> %MaxCore 64000
| 19>
| 20> %pal nprocs 8
| 21> end
| 22>
| 23> %scf
| 24>   MaxIter 150
| 25> end
| 26>
| 27>
| 28>                          ****END OF INPUT****

CARTESIAN COORDINATES (ANGSTROEM)
---------------------------------
  C      4.490590    1.155900   -2.469290
  N      4.305390    1.222760   -3.908320
  C      4.631920    2.246370   -4.670960
  N      4.541690    2.143990   -5.987140
  N      5.084090    3.393580   -4.118550
  H      4.920670    3.570500   -3.135870
  H      5.254650    4.197390   -4.706960
  H      3.824530    0.449110   -4.350930
  H      4.343370    1.249320   -6.416650
  H      4.676710    2.956620   -6.574110
  H      5.008670    2.030530   -2.135340
  H      5.063540    0.286310   -2.223440
  H      3.536000    1.101600   -1.988970

 Total Charge           Charge          ....    1
 Multiplicity           Mult            ....    1
 Number of Electrons    NEL             ....   40
 Basis Dimension        Dim             ....  164

ORBITAL ENERGIES
----------------

  NO   OCC          E(Eh)            E(eV)
   0   2.0000     -14.464728      -393.6053
   1   2.0000     -14.458102      -393.4249
   2   2.0000     -14.454668      -393.3315
   3   2.0000     -10.478250      -285.1277
   4   2.0000     -10.332382      -281.1584
   5   2.0000      -1.394843       -37.9556
   6   2.0000      -1.275642       -34.7120
   7   2.0000      -1.256970       -34.2039
   8   2.0000      -1.074853       -29.2482
   9   2.0000      -0.984756       -26.7966
  10   2.0000      -0.947757       -25.7898
  11   2.0000      -0.909399       -24.7460
  12   2.0000      -0.840613       -22.8742
  13   2.0000      -0.835089       -22.7239
  14   2.0000      -0.810269       -22.0485
  15   2.0000      -0.785686       -21.3796
  16   2.0000      -0.738548       -20.0969
  17   2.0000      -0.719705       -19.5842
  18   2.0000      -0.615243       -16.7416
  19   2.0000      -0.586165       -15.9504
  20   0.0000      -0.079988        -2.1766
  21   0.0000      -0.074730        -2.0335
  22   0.0000      -0.041180        -1.1206
  23   0.0000      -0.037547        -1.0217
  24   0.0000      -0.005953        -0.1620

MULLIKEN ATOMIC CHARGES
-----------------------
   0 C :    0.892726
   1 N :   -0.600448
   2 C :    1.383514
   3 N :   -0.130988
   4 N :   -0.127717
   5 H :   -0.007053
   6 H :   -0.063278
   7 H :   -0.208925
   8 H :   -0.008256
   9 H :    0.018396
  10 H :   -0.123106
  11 H :    0.000735
  12 H :   -0.025599
Sum of atomic charges:    1.0000000

LOEWDIN ATOMIC CHARGES
----------------------
   0 C :    0.237158
   1 N :    0.003623
   2 C :   -0.029210
   3 N :    0.245156
   4 N :    0.257090
   5 H :    0.020686
   6 H :    0.045579
   7 H :    0.073854
   8 H :    0.051578
   9 H :    0.051202
  10 H :   -0.006989
  11 H :    0.025776
  12 H :    0.024498

  Mayer bond orders larger than 0.100000
B(  0-C ,  1-N ) :   0.9451 B(  0-C ,  7-H ) :  -0.1738 B(  0-C , 10-H ) :   0.8813
B(  0-C , 11-H ) :   0.8234 B(  0-C , 12-H ) :   0.8445 B(  1-N ,  2-C ) :   1.0318
B(  1-N ,  3-N ) :   0.2360 B(  1-N ,  4-N ) :   0.2330 B(  1-N ,  7-H ) :   1.3589
B(  1-N , 10-H ) :   0.1629 B(  1-N , 11-H ) :   0.1452 B(  1-N , 12-H ) :   0.1302
B(  2-C ,  3-N ) :   0.8639 B(  2-C ,  4-N ) :   0.9180 B(  2-C ,  5-H ) :  -0.1120
B(  2-C ,  6-H ) :  -0.1453 B(  2-C ,  7-H ) :  -0.2342 B(  2-C ,  8-H ) :  -0.1612
B(  2-C ,  9-H ) :  -0.1172 B(  3-N ,  4-N ) :   0.1645 B(  3-N ,  8-H ) :   1.1884
B(  3-N ,  9-H ) :   1.1761 B(  4-N ,  5-H ) :   1.0887 B(  4-N ,  6-H ) :   1.2053
B(  5-H ,  6-H ) :  -0.1434 B(  8-H ,  9-H ) :  -0.1632

FINAL SINGLE POINT ENERGY      -244.162555351214

DIPOLE MOMENT
-------------
                                X             Y             Z
Electronic contribution:      0.01732       0.69415      -2.69508
Nuclear contribution   :     -0.23495      -0.48067       2.19509
                        -----------------------------------------
Total Dipole Moment    :     -0.21763       0.21348      -0.49999
                        -----------------------------------------
Magnitude (a.u.)       :      0.58560
Magnitude (Debye)      :      1.48847

Rotational constants in cm-1:     0.315679     0.134071     0.096006
Rotational constants in MHz :  9463.824527  4019.347586  2878.182223

                             ****ORCA TERMINATED NORMALLY****
TOTAL RUN TIME: 0 days 0 hours 0 minutes 10 seconds 531 msec
