                         Program Version 5.0.0 -  RELEASE  -
|  1> !LC-PBE RIJCOSX def2-SVPD def2/J TightSCF xyzfile
|  2>
|  3> *xyzfile 0 1 B.xyz
|  4>
|  5> %MaxCore 64000
|  6>
|  7> %pal nprocs 4
|  8> end
|  9>
| 10> %scf
| 11>   MaxIter 150
| 12> end
| 13>
| 14>
| 15>                          ****END OF INPUT****

CARTESIAN COORDINATES (ANGSTROEM)
---------------------------------
  C      4.490588    1.155899   -2.469290
  N      4.305394    1.222762   -3.908317
  C      4.906458   -3.102816   -5.954844
  C      3.511771   -2.806215   -6.492283
  H      2.736044   -3.373445   -5.973736
  H      3.444904   -3.040831   -7.555281
  S      3.004618   -1.096206   -6.389259
  C      4.631918    2.246365   -4.670958
  N      4.541686    2.143990   -5.987139
  N      5.084086    3.393584   -4.118545
  H      4.920675    3.570501   -3.135870
  H      5.254652    4.197390   -4.706956
  H      3.824530    0.449113   -4.350926
  H      4.343373    1.249318   -6.416646
  H      4.676712    2.956624   -6.574113
  O      4.128856   -0.329647   -6.953717
  O      1.781285   -1.000779   -7.136399
  C      5.942129    0.939500   -2.036893
  H      3.864305    0.328532   -2.136611
  H      4.076233    2.049994   -1.989010
  C      6.462677   -3.117775   -3.944671
  C      5.024977   -3.025679   -4.437625
  H      4.423321   -3.818693   -3.977648
  H      4.579350   -2.087131   -4.108727
  H      5.201533   -4.100207   -6.296905
  H      5.605922   -2.397822   -6.413368
  C      6.559957   -0.356290   -2.559086
  H      5.967976    0.952567   -0.942444
  H      6.547184    1.788331   -2.368849
  C      6.006283   -1.615917   -1.899301
  H      7.642360   -0.318000   -2.402059
  H      6.414855   -0.403433   -3.642587
  C      6.608718   -2.917014   -2.435655
  H      6.190324   -1.561115   -0.820948
  H      4.919250   -1.651245   -2.016586
  H      7.066975   -2.374258   -4.475514
  H      6.887808   -4.089747   -4.215332
  H      6.135197   -3.755573   -1.915159
  H      7.671142   -2.955503   -2.172291
  O      2.851546   -0.783683   -4.956789

 Total Charge           Charge          ....    0
 Multiplicity           Mult            ....    1
 Number of Electrons    NEL             ....  144
 Basis Dimension        Dim             ....  540

ORBITAL ENERGIES
----------------

  NO   OCC          E(Eh)            E(eV)
   0   2.0000     -88.472056     -2407.4470
   1   2.0000     -18.936027      -515.2755
   2   2.0000     -18.935967      -515.2739
   3   2.0000     -18.921089      -514.8690
   4   2.0000     -14.307731      -389.3332
   5   2.0000     -14.276750      -388.4901
   6   2.0000     -14.272161      -388.3652
   7   2.0000     -10.308994      -280.5220
   8   2.0000     -10.194452      -277.4051
   9   2.0000     -10.148805      -276.1630
  10   2.0000     -10.132040      -275.7068
  11   2.0000     -10.125414      -275.5265
  12   2.0000     -10.124368      -275.4981
  13   2.0000     -10.120336      -275.3883
  14   2.0000     -10.113833      -275.2114
  15   2.0000     -10.113757      -275.2093
  16   2.0000     -10.104803      -274.9657
  17   2.0000      -8.093113      -220.2248
  18   2.0000      -6.116380      -166.4352
  19   2.0000      -6.115419      -166.4090
  20   2.0000      -6.114085      -166.3727
  21   2.0000      -1.269290       -34.5391
  22   2.0000      -1.226891       -33.3854
  23   2.0000      -1.113408       -30.2974
  24   2.0000      -1.108864       -30.1737
  25   2.0000      -1.101369       -29.9698
  26   2.0000      -1.090981       -29.6871
  27   2.0000      -1.001248       -27.2453
  28   2.0000      -0.974575       -26.5195
  29   2.0000      -0.946059       -25.7436
  30   2.0000      -0.903783       -24.5932
  31   2.0000      -0.865594       -23.5540
  32   2.0000      -0.836192       -22.7539
  33   2.0000      -0.807086       -21.9619
  34   2.0000      -0.785416       -21.3723
  35   2.0000      -0.772597       -21.0234
  36   2.0000      -0.752431       -20.4747
  37   2.0000      -0.728123       -19.8132
  38   2.0000      -0.703457       -19.1420
  39   2.0000      -0.697263       -18.9735
  40   2.0000      -0.686569       -18.6825
  41   2.0000      -0.665222       -18.1016
  42   2.0000      -0.650886       -17.7115
  43   2.0000      -0.635577       -17.2949
  44   2.0000      -0.630274       -17.1506
  45   2.0000      -0.616216       -16.7681
  46   2.0000      -0.612108       -16.6563
  47   2.0000      -0.600390       -16.3374
  48   2.0000      -0.581145       -15.8138
  49   2.0000      -0.578668       -15.7464
  50   2.0000      -0.573549       -15.6071
  51   2.0000      -0.557794       -15.1784
  52   2.0000      -0.552677       -15.0391
  53   2.0000      -0.538916       -14.6646
  54   2.0000      -0.526851       -14.3363
  55   2.0000      -0.517713       -14.0877
  56   2.0000      -0.498193       -13.5565
  57   2.0000      -0.490966       -13.3599
  58   2.0000      -0.481655       -13.1065
  59   2.0000      -0.465217       -12.6592
  60   2.0000      -0.458979       -12.4895
  61   2.0000      -0.456286       -12.4162
  62   2.0000      -0.454785       -12.3753
  63   2.0000      -0.447557       -12.1786
  64   2.0000      -0.441432       -12.0120
  65   2.0000      -0.434399       -11.8206
  66   2.0000      -0.430671       -11.7192
  67   2.0000      -0.414285       -11.2733
  68   2.0000      -0.407541       -11.0898
  69   2.0000      -0.398548       -10.8450
  70   2.0000      -0.383940       -10.4475
  71   2.0000      -0.363282        -9.8854
  72   0.0000       0.054675         1.4878
  73   0.0000       0.073187         1.9915
  74   0.0000       0.084459         2.2982
  75   0.0000       0.096417         2.6236
  76   0.0000       0.100461         2.7337

MULLIKEN ATOMIC CHARGES
-----------------------
   0 C :    0.760894
   1 N :    0.100538
   2 C :    0.055913
   3 C :    0.089495
   4 H :    0.094406
   5 H :    0.105099
   6 S :    1.209915
   7 C :    1.205345
   8 N :    0.290119
   9 N :    0.049036
  10 H :    0.002030
  11 H :   -0.147053
  12 H :   -0.910503
  13 H :   -0.332593
  14 H :   -0.101684
  15 O :   -0.747042
  16 O :   -0.736507
  17 C :    0.192203
  18 H :   -0.128706
  19 H :   -0.108304
  20 C :   -0.122268
  21 C :    0.094837
  22 H :    0.096869
  23 H :   -0.439581
  24 H :   -0.012168
  25 H :    0.122381
  26 C :   -0.045202
  27 H :   -0.010968
  28 H :    0.032541
  29 C :   -0.310444
  30 H :   -0.069721
  31 H :   -0.040943
  32 C :    0.463462
  33 H :   -0.235942
  34 H :    0.221032
  35 H :    0.159551
  36 H :   -0.224876
  37 H :    0.043491
  38 H :    0.086251
  39 O :   -0.750901
Sum of atomic charges:    0.0000000

LOEWDIN ATOMIC CHARGES
----------------------
   0 C :    0.058053
   1 N :    0.074563
   2 C :   -0.059597
   3 C :   -0.085570
   4 H :    0.039083
   5 H :    0.034009
   6 S :    0.937753
   7 C :   -0.022430
   8 N :    0.272632
   9 N :    0.237244
  10 H :    0.008242
  11 H :    0.025920
  12 H :   -0.080639
  13 H :   -0.100674
  14 H :    0.038795
  15 O :   -0.523036
  16 O :   -0.507824
  17 C :   -0.041647
  18 H :    0.044030
  19 H :    0.030002
  20 C :   -0.061794
  21 C :   -0.052842
  22 H :    0.051489
  23 H :   -0.011459
  24 H :    0.040392
  25 H :    0.033383
  26 C :   -0.051379
  27 H :    0.039393
  28 H :    0.020948
  29 C :   -0.059978
  30 H :    0.041013
  31 H :    0.023477
  32 C :   -0.053770
  33 H :    0.035176
  34 H :    0.020143
  35 H :    0.027772
  36 H :    0.035696
  37 H :    0.035394
  38 H :    0.033260
  39 O :   -0.525221

  Mayer bond orders larger than 0.100000
B(  0-C ,  1-N ) :   0.9563 B(  0-C , 12-H ) :  -0.4098 B(  0-C , 17-C ) :   1.1284
B(  0-C , 18-H ) :   0.7525 B(  0-C , 19-H ) :   0.9130 B(  0-C , 26-C ) :   0.1001
B(  1-N ,  7-C ) :   1.2466 B(  1-N ,  8-N ) :   0.1073 B(  1-N ,  9-N ) :   0.2243
B(  1-N , 12-H ) :   1.2251 B(  1-N , 13-H ) :   0.1385 B(  1-N , 14-H ) :  -0.1081
B(  1-N , 18-H ) :   0.2390 B(  2-C ,  3-C ) :   1.2404 B(  2-C ,  5-H ) :   0.2183
B(  2-C , 20-C ) :   0.1051 B(  2-C , 21-C ) :   1.1798 B(  2-C , 24-H ) :   0.8641
B(  2-C , 25-H ) :   0.8728 B(  3-C ,  4-H ) :   0.9307 B(  3-C ,  5-H ) :   0.7651
B(  3-C ,  6-S ) :   1.0278 B(  3-C , 21-C ) :   0.1022 B(  6-S , 15-O ) :   1.1444
B(  6-S , 16-O ) :   1.4154 B(  6-S , 39-O ) :   1.1754 B(  7-C ,  8-N ) :   0.9095
B(  7-C ,  9-N ) :   0.8936 B(  7-C , 10-H ) :  -0.1093 B(  7-C , 12-H ) :  -0.6370
B(  7-C , 13-H ) :  -0.2672 B(  7-C , 14-H ) :  -0.1257 B(  8-N ,  9-N ) :   0.1108
B(  8-N , 13-H ) :   1.1846 B(  8-N , 14-H ) :   1.2544 B(  9-N , 10-H ) :   1.0811
B(  9-N , 11-H ) :   1.2279 B( 10-H , 11-H ) :  -0.1886 B( 12-H , 39-O ) :   0.2590
B( 13-H , 14-H ) :  -0.2381 B( 13-H , 15-O ) :   0.2454 B( 17-C , 26-C ) :   1.2357
B( 17-C , 27-H ) :   0.9502 B( 17-C , 28-H ) :   0.7632 B( 18-H , 19-H ) :  -0.1456
B( 20-C , 21-C ) :   1.2489 B( 20-C , 32-C ) :   1.1486 B( 20-C , 35-H ) :   0.8800
B( 20-C , 36-H ) :   1.0057 B( 20-C , 38-H ) :   0.1836 B( 21-C , 22-H ) :   0.7456
B( 21-C , 23-H ) :   0.8612 B( 21-C , 24-H ) :   0.1663 B( 21-C , 36-H ) :   0.1884
B( 22-H , 23-H ) :   0.2283 B( 23-H , 34-H ) :   0.1032 B( 26-C , 28-H ) :   0.1788
B( 26-C , 29-C ) :   1.2479 B( 26-C , 30-H ) :   0.9311 B( 26-C , 31-H ) :   0.9379
B( 26-C , 33-H ) :   0.1282 B( 29-C , 30-H ) :   0.1345 B( 29-C , 31-H ) :   0.1084
B( 29-C , 32-C ) :   1.1700 B( 29-C , 33-H ) :   1.0835 B( 29-C , 34-H ) :   0.8382
B( 29-C , 37-H ) :   0.2376 B( 29-C , 38-H ) :   0.1128 B( 32-C , 37-H ) :   0.7358
B( 32-C , 38-H ) :   0.7471

FINAL SINGLE POINT ENERGY     -1179.637296972727

DIPOLE MOMENT
-------------
                                X             Y             Z
Electronic contribution:    -14.44345       8.29173     -15.26675
Nuclear contribution   :     16.79156      -5.47215      17.54258
                        -----------------------------------------
Total Dipole Moment    :      2.34812       2.81958       2.27583
                        -----------------------------------------
Magnitude (a.u.)       :      4.31777
Magnitude (Debye)      :     10.97490

Rotational constants in cm-1:     0.014207     0.012373     0.007472
Rotational constants in MHz :   425.900436   370.942493   224.006604

                             ****ORCA TERMINATED NORMALLY****
TOTAL RUN TIME: 0 days 0 hours 5 minutes 20 seconds 445 msec
