                         Program Version 5.0.0 -  RELEASE  -
|  1> !LC-PBE RIJCOSX def2-SVPD def2/J TightSCF
|  2> *xyz 0 1
|  3> C          3.51177       -2.80621       -6.49228
|  4> S          3.00462       -1.09621       -6.38926
|  5> F          4.12886       -0.32965       -6.95372
|  6> O          1.78128       -1.00078       -7.13640
|  7> O          2.85155       -0.78368       -4.95679
|  8> H          3.63615       -3.08010       -7.51913
|  9> H          2.76397       -3.42755       -6.04548
| 10> H          4.43892       -2.93511       -5.97393
| 11> *
| 12>
| 13> %MaxCore 64000
| 14>
| 15> %pal nprocs 8
| 16> end
| 17>
| 18> %scf
| 19>   MaxIter 150
| 20> end
| 21>
| 22>
| 23>                          ****END OF INPUT****

CARTESIAN COORDINATES (ANGSTROEM)
---------------------------------
  C      3.511770   -2.806210   -6.492280
  S      3.004620   -1.096210   -6.389260
  F      4.128860   -0.329650   -6.953720
  O      1.781280   -1.000780   -7.136400
  O      2.851550   -0.783680   -4.956790
  H      3.636150   -3.080100   -7.519130
  H      2.763970   -3.427550   -6.045480
  H      4.438920   -2.935110   -5.973930

 Total Charge           Charge          ....    0
 Multiplicity           Mult            ....    1
 Number of Electrons    NEL             ....   50
 Basis Dimension        Dim             ....  140

ORBITAL ENERGIES
----------------

  NO   OCC          E(Eh)            E(eV)
   0   2.0000     -88.582880     -2410.4627
   1   2.0000     -24.622319      -670.0074
   2   2.0000     -19.015937      -517.4500
   3   2.0000     -19.004467      -517.1378
   4   2.0000     -10.195033      -277.4209
   5   2.0000      -8.205111      -223.2724
   6   2.0000      -6.232093      -169.5839
   7   2.0000      -6.224939      -169.3892
   8   2.0000      -6.224090      -169.3661
   9   2.0000      -1.523146       -41.4469
  10   2.0000      -1.291581       -35.1457
  11   2.0000      -1.181050       -32.1380
  12   2.0000      -0.983101       -26.7515
  13   2.0000      -0.871629       -23.7182
  14   2.0000      -0.758293       -20.6342
  15   2.0000      -0.735463       -20.0130
  16   2.0000      -0.710931       -19.3454
  17   2.0000      -0.632668       -17.2158
  18   2.0000      -0.629719       -17.1355
  19   2.0000      -0.614488       -16.7211
  20   2.0000      -0.586684       -15.9645
  21   2.0000      -0.538575       -14.6554
  22   2.0000      -0.484275       -13.1778
  23   2.0000      -0.473903       -12.8955
  24   2.0000      -0.454775       -12.3751
  25   0.0000       0.059278         1.6130
  26   0.0000       0.089870         2.4455
  27   0.0000       0.094729         2.5777
  28   0.0000       0.096960         2.6384
  29   0.0000       0.117833         3.2064

MULLIKEN ATOMIC CHARGES
-----------------------
   0 C :    0.172585
   1 S :    1.154355
   2 F :   -0.350217
   3 O :   -0.583720
   4 O :   -0.622648
   5 H :    0.082799
   6 H :    0.072264
   7 H :    0.074582
Sum of atomic charges:    0.0000000

LOEWDIN ATOMIC CHARGES
----------------------
   0 C :    0.089664
   1 S :    1.082643
   2 F :   -0.256492
   3 O :   -0.459791
   4 O :   -0.477227
   5 H :    0.002980
   6 H :    0.015335
   7 H :    0.002888

  Mayer bond orders larger than 0.100000
B(  0-C ,  1-S ) :   1.0307 B(  0-C ,  5-H ) :   0.9222 B(  0-C ,  6-H ) :   0.9269
B(  0-C ,  7-H ) :   0.9272 B(  1-S ,  2-F ) :   0.7165 B(  1-S ,  3-O ) :   1.5868
B(  1-S ,  4-O ) :   1.5537

FINAL SINGLE POINT ENERGY      -686.894085257495

DIPOLE MOMENT
-------------
                                X             Y             Z
Electronic contribution:      0.63977       5.17394      -0.80601
Nuclear contribution   :      0.51040      -6.36905       0.21167
                        -----------------------------------------
Total Dipole Moment    :      1.15016      -1.19511      -0.59434
                        -----------------------------------------
Magnitude (a.u.)       :      1.76193
Magnitude (Debye)      :      4.47847

Rotational constants in cm-1:     0.163860     0.154073     0.147119
Rotational constants in MHz :  4912.396151  4618.979177  4410.507958

                             ****ORCA TERMINATED NORMALLY****
TOTAL RUN TIME: 0 days 0 hours 0 minutes 7 seconds 421 msec
