                         Program Version 5.0.0 -  RELEASE  -
|  1> !LC-PBE RIJCOSX def2-SVPD def2/J TightSCF
|  2> *xyz 0 1
|  3> C          4.49059        1.15590       -2.46929
|  4> C          4.30539        1.22276       -3.90832
|  5> C          4.63192        2.24637       -4.67096
|  6> N          4.54169        2.14399       -5.98714
|  7> N          5.08409        3.39358       -4.11855
|  8> H          4.92067        3.57050       -3.13587
|  9> H          5.25465        4.19739       -4.70696
| 10> H          3.82453        0.44911       -4.35093
| 11> H          4.34337        1.24932       -6.41665
| 12> H          4.67671        2.95662       -6.57411
| 13> H          5.00867        2.03053       -2.13534
| 14> H          5.06354        0.28631       -2.22344
| 15> H          3.53600        1.10160       -1.98897
| 16> *
| 17>
| 18> %MaxCore 64000
| 19>
| 20> %pal nprocs 8
| 21> end
| 22>
| 23> %scf
| 24>   MaxIter 150
| 25> end
| 26>
| 27>
| 28>                          ****END OF INPUT****

CARTESIAN COORDINATES (ANGSTROEM)
---------------------------------
  C      4.490590    1.155900   -2.469290
  C      4.305390    1.222760   -3.908320
  C      4.631920    2.246370   -4.670960
  N      4.541690    2.143990   -5.987140
  N      5.084090    3.393580   -4.118550
  H      4.920670    3.570500   -3.135870
  H      5.254650    4.197390   -4.706960
  H      3.824530    0.449110   -4.350930
  H      4.343370    1.249320   -6.416650
  H      4.676710    2.956620   -6.574110
  H      5.008670    2.030530   -2.135340
  H      5.063540    0.286310   -2.223440
  H      3.536000    1.101600   -1.988970

 Total Charge           Charge          ....    0
 Multiplicity           Mult            ....    1
 Number of Electrons    NEL             ....   40
 Basis Dimension        Dim             ....  164

ORBITAL ENERGIES
----------------

  NO   OCC          E(Eh)            E(eV)
   0   2.0000     -14.226163      -387.1136
   1   2.0000     -14.225333      -387.0910
   2   2.0000     -10.171916      -276.7919
   3   2.0000     -10.089630      -274.5528
   4   2.0000     -10.049851      -273.4704
   5   2.0000      -1.127060       -30.6689
   6   2.0000      -1.027349       -27.9556
   7   2.0000      -0.922065       -25.0907
   8   2.0000      -0.816006       -22.2046
   9   2.0000      -0.734432       -19.9849
  10   2.0000      -0.689660       -18.7666
  11   2.0000      -0.657922       -17.9030
  12   2.0000      -0.612587       -16.6693
  13   2.0000      -0.564300       -15.3554
  14   2.0000      -0.554759       -15.0958
  15   2.0000      -0.516035       -14.0420
  16   2.0000      -0.497178       -13.5289
  17   2.0000      -0.473757       -12.8916
  18   2.0000      -0.398094       -10.8327
  19   2.0000      -0.273571        -7.4443
  20   0.0000       0.092331         2.5124
  21   0.0000       0.117034         3.1847
  22   0.0000       0.126162         3.4330
  23   0.0000       0.156644         4.2625
  24   0.0000       0.162719         4.4278

MULLIKEN ATOMIC CHARGES
-----------------------
   0 C :    0.702099
   1 C :   -0.758468
   2 C :    1.012097
   3 N :   -0.030769
   4 N :   -0.070057
   5 H :   -0.027440
   6 H :   -0.194593
   7 H :   -0.340074
   8 H :   -0.036263
   9 H :   -0.102976
  10 H :   -0.195109
  11 H :    0.046892
  12 H :   -0.005339
Sum of atomic charges:    0.0000000

LOEWDIN ATOMIC CHARGES
----------------------
   0 C :    0.071441
   1 C :   -0.091942
   2 C :   -0.232365
   3 N :    0.155511
   4 N :    0.174498
   5 H :   -0.010547
   6 H :   -0.002788
   7 H :   -0.035739
   8 H :    0.016973
   9 H :    0.001404
  10 H :   -0.034409
  11 H :   -0.005821
  12 H :   -0.006216

  Mayer bond orders larger than 0.100000
B(  0-C ,  1-C ) :   1.0835 B(  0-C ,  7-H ) :   0.1279 B(  0-C , 10-H ) :   0.8520
B(  0-C , 11-H ) :   0.7494 B(  0-C , 12-H ) :   0.7680 B(  1-C ,  2-C ) :   1.6663
B(  1-C ,  3-N ) :   0.3843 B(  1-C ,  4-N ) :   0.2650 B(  1-C ,  7-H ) :   1.0397
B(  1-C , 10-H ) :   0.2978 B(  1-C , 11-H ) :   0.1585 B(  1-C , 12-H ) :   0.1378
B(  2-C ,  3-N ) :   0.8600 B(  2-C ,  4-N ) :   0.9340 B(  2-C ,  6-H ) :  -0.1463
B(  2-C ,  8-H ) :  -0.1090 B(  2-C , 10-H ) :  -0.1017 B(  3-N ,  4-N ) :   0.1151
B(  3-N ,  8-H ) :   1.1828 B(  3-N ,  9-H ) :   1.1796 B(  4-N ,  5-H ) :   1.0754
B(  4-N ,  6-H ) :   1.2544 B(  5-H ,  6-H ) :  -0.1349 B(  8-H ,  9-H ) :  -0.1552
B( 10-H , 11-H ) :   0.1309

FINAL SINGLE POINT ENERGY      -227.716299534665

DIPOLE MOMENT
-------------
                                X             Y             Z
Electronic contribution:      0.28741       1.33936      -2.85828
Nuclear contribution   :     -0.29662      -0.64714       2.26125
                        -----------------------------------------
Total Dipole Moment    :     -0.00921       0.69221      -0.59703
                        -----------------------------------------
Magnitude (a.u.)       :      0.91416
Magnitude (Debye)      :      2.32361

Rotational constants in cm-1:     0.320965     0.135060     0.096994
Rotational constants in MHz :  9622.302637  4048.999301  2907.812202

                             ****ORCA TERMINATED NORMALLY****
TOTAL RUN TIME: 0 days 0 hours 0 minutes 11 seconds 28 msec
