                         Program Version 5.0.0 -  RELEASE  -
|  1> !LC-PBE RIJCOSX def2-SVPD def2/J TightSCF
|  2> *xyz 0 1
|  3> C          3.51177       -2.80621       -6.49228
|  4> S          3.00462       -1.09621       -6.38926
|  5> O          4.12886       -0.32965       -6.95372
|  6> F          1.78128       -1.00078       -7.13640
|  7> O          2.85155       -0.78368       -4.95679
|  8> H          3.63615       -3.08010       -7.51913
|  9> H          2.76397       -3.42755       -6.04548
| 10> H          4.43892       -2.93511       -5.97393
| 11> *
| 12>
| 13> %MaxCore 64000
| 14>
| 15> %pal nprocs 8
| 16> end
| 17>
| 18> %scf
| 19>   MaxIter 150
| 20> end
| 21>
| 22>
| 23>                          ****END OF INPUT****

CARTESIAN COORDINATES (ANGSTROEM)
---------------------------------
  C      3.511770   -2.806210   -6.492280
  S      3.004620   -1.096210   -6.389260
  O      4.128860   -0.329650   -6.953720
  F      1.781280   -1.000780   -7.136400
  O      2.851550   -0.783680   -4.956790
  H      3.636150   -3.080100   -7.519130
  H      2.763970   -3.427550   -6.045480
  H      4.438920   -2.935110   -5.973930

 Total Charge           Charge          ....    0
 Multiplicity           Mult            ....    1
 Number of Electrons    NEL             ....   50
 Basis Dimension        Dim             ....  140

ORBITAL ENERGIES
----------------

  NO   OCC          E(Eh)            E(eV)
   0   2.0000     -88.584750     -2410.5136
   1   2.0000     -24.640444      -670.5006
   2   2.0000     -19.004910      -517.1499
   3   2.0000     -19.004247      -517.1319
   4   2.0000     -10.195775      -277.4412
   5   2.0000      -8.207065      -223.3256
   6   2.0000      -6.234247      -169.6425
   7   2.0000      -6.226665      -169.4362
   8   2.0000      -6.225868      -169.4145
   9   2.0000      -1.553742       -42.2795
  10   2.0000      -1.279415       -34.8146
  11   2.0000      -1.167158       -31.7600
  12   2.0000      -0.984870       -26.7997
  13   2.0000      -0.887028       -24.1373
  14   2.0000      -0.773335       -21.0435
  15   2.0000      -0.757267       -20.6063
  16   2.0000      -0.713730       -19.4216
  17   2.0000      -0.630120       -17.1464
  18   2.0000      -0.627907       -17.0862
  19   2.0000      -0.616010       -16.7625
  20   2.0000      -0.580194       -15.7879
  21   2.0000      -0.531814       -14.4714
  22   2.0000      -0.473381       -12.8813
  23   2.0000      -0.470875       -12.8132
  24   2.0000      -0.443833       -12.0773
  25   0.0000       0.057376         1.5613
  26   0.0000       0.088590         2.4106
  27   0.0000       0.093812         2.5527
  28   0.0000       0.097417         2.6509
  29   0.0000       0.118798         3.2327

MULLIKEN ATOMIC CHARGES
-----------------------
   0 C :    0.173520
   1 S :    1.149251
   2 O :   -0.614454
   3 F :   -0.326462
   4 O :   -0.613293
   5 H :    0.082302
   6 H :    0.075962
   7 H :    0.073174
Sum of atomic charges:   -0.0000000

LOEWDIN ATOMIC CHARGES
----------------------
   0 C :    0.089248
   1 S :    1.084891
   2 O :   -0.478622
   3 F :   -0.239928
   4 O :   -0.476845
   5 H :    0.002768
   6 H :    0.002142
   7 H :    0.016346

  Mayer bond orders larger than 0.100000
B(  0-C ,  1-S ) :   1.0305 B(  0-C ,  5-H ) :   0.9204 B(  0-C ,  6-H ) :   0.9245
B(  0-C ,  7-H ) :   0.9301 B(  1-S ,  2-O ) :   1.5576 B(  1-S ,  3-F ) :   0.7555
B(  1-S ,  4-O ) :   1.5556 B(  1-S ,  7-H ) :   0.1039

FINAL SINGLE POINT ENERGY      -686.878565982822

DIPOLE MOMENT
-------------
                                X             Y             Z
Electronic contribution:     -3.33983       4.03410      -1.10348
Nuclear contribution   :      2.85578      -5.69854       0.39418
                        -----------------------------------------
Total Dipole Moment    :     -0.48405      -1.66444      -0.70931
                        -----------------------------------------
Magnitude (a.u.)       :      1.87291
Magnitude (Debye)      :      4.76055

Rotational constants in cm-1:     0.163257     0.155833     0.146211
Rotational constants in MHz :  4894.333085  4671.750883  4383.281537

                             ****ORCA TERMINATED NORMALLY****
TOTAL RUN TIME: 0 days 0 hours 0 minutes 7 seconds 782 msec
