                         Program Version 5.0.0 -  RELEASE  -
|  1> !LC-PBE RIJCOSX def2-SVPD def2/J TightSCF
|  2> *xyz 0 1
|  3> C          4.49059        1.15590       -2.46929
|  4> N          4.30539        1.22276       -3.90832
|  5> C          4.63192        2.24637       -4.67096
|  6> C          4.54169        2.14399       -5.98714
|  7> N          5.08409        3.39358       -4.11855
|  8> H          4.92067        3.57050       -3.13587
|  9> H          5.25465        4.19739       -4.70696
| 10> H          3.82453        0.44911       -4.35093
| 11> H          4.34337        1.24932       -6.41665
| 12> H          4.67671        2.95662       -6.57411
| 13> H          5.00867        2.03053       -2.13534
| 14> H          5.06354        0.28631       -2.22344
| 15> H          3.53600        1.10160       -1.98897
| 16> *
| 17>
| 18> %MaxCore 64000
| 19>
| 20> %pal nprocs 8
| 21> end
| 22>
| 23> %scf
| 24>   MaxIter 150
| 25> end
| 26>
| 27>
| 28>                          ****END OF INPUT****

CARTESIAN COORDINATES (ANGSTROEM)
---------------------------------
  C      4.490590    1.155900   -2.469290
  N      4.305390    1.222760   -3.908320
  C      4.631920    2.246370   -4.670960
  C      4.541690    2.143990   -5.987140
  N      5.084090    3.393580   -4.118550
  H      4.920670    3.570500   -3.135870
  H      5.254650    4.197390   -4.706960
  H      3.824530    0.449110   -4.350930
  H      4.343370    1.249320   -6.416650
  H      4.676710    2.956620   -6.574110
  H      5.008670    2.030530   -2.135340
  H      5.063540    0.286310   -2.223440
  H      3.536000    1.101600   -1.988970

 Total Charge           Charge          ....    0
 Multiplicity           Mult            ....    1
 Number of Electrons    NEL             ....   40
 Basis Dimension        Dim             ....  164

ORBITAL ENERGIES
----------------

  NO   OCC          E(Eh)            E(eV)
   0   2.0000     -14.232355      -387.2821
   1   2.0000     -14.227920      -387.1614
   2   2.0000     -10.178441      -276.9695
   3   2.0000     -10.158238      -276.4197
   4   2.0000     -10.035094      -273.0688
   5   2.0000      -1.138963       -30.9927
   6   2.0000      -1.042354       -28.3639
   7   2.0000      -0.912645       -24.8343
   8   2.0000      -0.826012       -22.4769
   9   2.0000      -0.756254       -20.5787
  10   2.0000      -0.687580       -18.7100
  11   2.0000      -0.637737       -17.3537
  12   2.0000      -0.616864       -16.7857
  13   2.0000      -0.601495       -16.3675
  14   2.0000      -0.544716       -14.8225
  15   2.0000      -0.528267       -14.3749
  16   2.0000      -0.524357       -14.2685
  17   2.0000      -0.498637       -13.5686
  18   2.0000      -0.385518       -10.4905
  19   2.0000      -0.280012        -7.6195
  20   0.0000       0.085216         2.3189
  21   0.0000       0.117963         3.2099
  22   0.0000       0.123142         3.3509
  23   0.0000       0.153598         4.1796
  24   0.0000       0.163704         4.4546

MULLIKEN ATOMIC CHARGES
-----------------------
   0 C :    0.941414
   1 N :   -0.538334
   2 C :    0.860718
   3 C :    0.119953
   4 N :   -0.042849
   5 H :   -0.094985
   6 H :   -0.084547
   7 H :   -0.267128
   8 H :   -0.272911
   9 H :   -0.293444
  10 H :   -0.166591
  11 H :   -0.067610
  12 H :   -0.093685
Sum of atomic charges:   -0.0000000

LOEWDIN ATOMIC CHARGES
----------------------
   0 C :    0.185721
   1 N :   -0.057931
   2 C :   -0.240160
   3 C :    0.103956
   4 N :    0.176579
   5 H :   -0.022733
   6 H :    0.014406
   7 H :    0.048006
   8 H :   -0.086897
   9 H :   -0.088564
  10 H :   -0.024668
  11 H :   -0.003242
  12 H :   -0.004472

  Mayer bond orders larger than 0.100000
B(  0-C ,  1-N ) :   0.9289 B(  0-C ,  7-H ) :  -0.1811 B(  0-C , 10-H ) :   0.8780
B(  0-C , 11-H ) :   0.8267 B(  0-C , 12-H ) :   0.8460 B(  1-N ,  2-C ) :   1.0388
B(  1-N ,  3-C ) :   0.2363 B(  1-N ,  4-N ) :   0.1830 B(  1-N ,  7-H ) :   1.3403
B(  1-N , 10-H ) :   0.1844 B(  1-N , 11-H ) :   0.1451 B(  1-N , 12-H ) :   0.1439
B(  2-C ,  3-C ) :   1.4630 B(  2-C ,  4-N ) :   0.9283 B(  2-C ,  6-H ) :  -0.1017
B(  2-C ,  7-H ) :  -0.2244 B(  2-C ,  9-H ) :   0.1232 B(  3-C ,  4-N ) :   0.2007
B(  3-C ,  8-H ) :   0.9283 B(  3-C ,  9-H ) :   0.8582 B(  4-N ,  5-H ) :   1.0950
B(  4-N ,  6-H ) :   1.1736 B(  5-H ,  6-H ) :  -0.1389

FINAL SINGLE POINT ENERGY      -227.702552148656

DIPOLE MOMENT
-------------
                                X             Y             Z
Electronic contribution:      0.08174       0.50653      -0.75396
Nuclear contribution   :     -0.24876      -0.46055       1.84019
                        -----------------------------------------
Total Dipole Moment    :     -0.16703       0.04597       1.08623
                        -----------------------------------------
Magnitude (a.u.)       :      1.09996
Magnitude (Debye)      :      2.79587

Rotational constants in cm-1:     0.322158     0.139919     0.099594
Rotational constants in MHz :  9658.057362  4194.660927  2985.745059

                             ****ORCA TERMINATED NORMALLY****
TOTAL RUN TIME: 0 days 0 hours 0 minutes 11 seconds 40 msec
