                         Program Version 5.0.0 -  RELEASE  -
|  1> !LC-PBE RIJCOSX def2-SVPD def2/J TightSCF
|  2> *xyz 0 1
|  3> C          3.51177       -2.80621       -6.49228
|  4> S          3.00462       -1.09621       -6.38926
|  5> O          4.12886       -0.32965       -6.95372
|  6> O          1.78128       -1.00078       -7.13640
|  7> F          2.85155       -0.78368       -4.95679
|  8> H          3.63615       -3.08010       -7.51913
|  9> H          2.76397       -3.42755       -6.04548
| 10> H          4.43892       -2.93511       -5.97393
| 11> *
| 12>
| 13> %MaxCore 64000
| 14>
| 15> %pal nprocs 8
| 16> end
| 17>
| 18> %scf
| 19>   MaxIter 150
| 20> end
| 21>
| 22>
| 23>                          ****END OF INPUT****

CARTESIAN COORDINATES (ANGSTROEM)
---------------------------------
  C      3.511770   -2.806210   -6.492280
  S      3.004620   -1.096210   -6.389260
  O      4.128860   -0.329650   -6.953720
  O      1.781280   -1.000780   -7.136400
  F      2.851550   -0.783680   -4.956790
  H      3.636150   -3.080100   -7.519130
  H      2.763970   -3.427550   -6.045480
  H      4.438920   -2.935110   -5.973930

 Total Charge           Charge          ....    0
 Multiplicity           Mult            ....    1
 Number of Electrons    NEL             ....   50
 Basis Dimension        Dim             ....  140

ORBITAL ENERGIES
----------------

  NO   OCC          E(Eh)            E(eV)
   0   2.0000     -88.582879     -2410.4627
   1   2.0000     -24.622476      -670.0116
   2   2.0000     -19.016167      -517.4562
   3   2.0000     -19.004053      -517.1266
   4   2.0000     -10.194821      -277.4152
   5   2.0000      -8.205105      -223.2723
   6   2.0000      -6.232076      -169.5834
   7   2.0000      -6.224881      -169.3876
   8   2.0000      -6.224144      -169.3676
   9   2.0000      -1.522669       -41.4339
  10   2.0000      -1.291464       -35.1425
  11   2.0000      -1.182271       -32.1712
  12   2.0000      -0.981805       -26.7163
  13   2.0000      -0.871656       -23.7190
  14   2.0000      -0.758250       -20.6330
  15   2.0000      -0.734805       -19.9951
  16   2.0000      -0.710975       -19.3466
  17   2.0000      -0.631432       -17.1821
  18   2.0000      -0.630009       -17.1434
  19   2.0000      -0.615750       -16.7554
  20   2.0000      -0.586880       -15.9698
  21   2.0000      -0.537893       -14.6368
  22   2.0000      -0.484492       -13.1837
  23   2.0000      -0.472546       -12.8586
  24   2.0000      -0.455792       -12.4027
  25   0.0000       0.059023         1.6061
  26   0.0000       0.089886         2.4459
  27   0.0000       0.094757         2.5785
  28   0.0000       0.096738         2.6324
  29   0.0000       0.115385         3.1398

MULLIKEN ATOMIC CHARGES
-----------------------
   0 C :    0.173548
   1 S :    1.157092
   2 O :   -0.625494
   3 O :   -0.585209
   4 F :   -0.349610
   5 H :    0.078695
   6 H :    0.074951
   7 H :    0.076027
Sum of atomic charges:    0.0000000

LOEWDIN ATOMIC CHARGES
----------------------
   0 C :    0.089508
   1 S :    1.083214
   2 O :   -0.478894
   3 O :   -0.459778
   4 F :   -0.254962
   5 H :    0.015919
   6 H :    0.001819
   7 H :    0.003175

  Mayer bond orders larger than 0.100000
B(  0-C ,  1-S ) :   1.0320 B(  0-C ,  5-H ) :   0.9233 B(  0-C ,  6-H ) :   0.9247
B(  0-C ,  7-H ) :   0.9277 B(  1-S ,  2-O ) :   1.5541 B(  1-S ,  3-O ) :   1.5859
B(  1-S ,  4-F ) :   0.7123

FINAL SINGLE POINT ENERGY      -686.893777337823

DIPOLE MOMENT
-------------
                                X             Y             Z
Electronic contribution:     -1.53625       4.39807       2.59959
Nuclear contribution   :      1.78651      -5.91544      -1.78339
                        -----------------------------------------
Total Dipole Moment    :      0.25027      -1.51737       0.81619
                        -----------------------------------------
Magnitude (a.u.)       :      1.74104
Magnitude (Debye)      :      4.42536

Rotational constants in cm-1:     0.165193     0.152051     0.147788
Rotational constants in MHz :  4952.361749  4558.380225  4430.570551

                             ****ORCA TERMINATED NORMALLY****
TOTAL RUN TIME: 0 days 0 hours 0 minutes 7 seconds 534 msec
