                         Program Version 5.0.0 -  RELEASE  -
|  1> !LC-PBE RIJCOSX def2-SVPD def2/J TightSCF
|  2> *xyz 0 1
|  3> C          4.49059        1.15590       -2.46929
|  4> N          4.30539        1.22276       -3.90832
|  5> C          4.63192        2.24637       -4.67096
|  6> N          4.54169        2.14399       -5.98714
|  7> C          5.08409        3.39358       -4.11855
|  8> H          4.92067        3.57050       -3.13587
|  9> H          5.25465        4.19739       -4.70696
| 10> H          3.82453        0.44911       -4.35093
| 11> H          4.34337        1.24932       -6.41665
| 12> H          4.67671        2.95662       -6.57411
| 13> H          5.00867        2.03053       -2.13534
| 14> H          5.06354        0.28631       -2.22344
| 15> H          3.53600        1.10160       -1.98897
| 16> *
| 17>
| 18> %MaxCore 64000
| 19>
| 20> %pal nprocs 8
| 21> end
| 22>
| 23> %scf
| 24>   MaxIter 150
| 25> end
| 26>
| 27>
| 28>                          ****END OF INPUT****

CARTESIAN COORDINATES (ANGSTROEM)
---------------------------------
  C      4.490590    1.155900   -2.469290
  N      4.305390    1.222760   -3.908320
  C      4.631920    2.246370   -4.670960
  N      4.541690    2.143990   -5.987140
  C      5.084090    3.393580   -4.118550
  H      4.920670    3.570500   -3.135870
  H      5.254650    4.197390   -4.706960
  H      3.824530    0.449110   -4.350930
  H      4.343370    1.249320   -6.416650
  H      4.676710    2.956620   -6.574110
  H      5.008670    2.030530   -2.135340
  H      5.063540    0.286310   -2.223440
  H      3.536000    1.101600   -1.988970

 Total Charge           Charge          ....    0
 Multiplicity           Mult            ....    1
 Number of Electrons    NEL             ....   40
 Basis Dimension        Dim             ....  164

ORBITAL ENERGIES
----------------

  NO   OCC          E(Eh)            E(eV)
   0   2.0000     -14.235786      -387.3754
   1   2.0000     -14.231144      -387.2491
   2   2.0000     -10.182194      -277.0716
   3   2.0000     -10.147764      -276.1347
   4   2.0000     -10.035284      -273.0739
   5   2.0000      -1.142537       -31.0900
   6   2.0000      -1.050097       -28.5746
   7   2.0000      -0.881257       -23.9802
   8   2.0000      -0.860091       -23.4043
   9   2.0000      -0.721809       -19.6414
  10   2.0000      -0.703803       -19.1514
  11   2.0000      -0.667338       -18.1592
  12   2.0000      -0.603151       -16.4126
  13   2.0000      -0.585443       -15.9307
  14   2.0000      -0.553819       -15.0702
  15   2.0000      -0.521306       -14.1855
  16   2.0000      -0.518391       -14.1061
  17   2.0000      -0.492139       -13.3918
  18   2.0000      -0.382118       -10.3980
  19   2.0000      -0.279737        -7.6120
  20   0.0000       0.089569         2.4373
  21   0.0000       0.110187         2.9983
  22   0.0000       0.123786         3.3684
  23   0.0000       0.155758         4.2384
  24   0.0000       0.158913         4.3242

MULLIKEN ATOMIC CHARGES
-----------------------
   0 C :    0.912534
   1 N :   -0.526265
   2 C :    0.763491
   3 N :    0.000617
   4 C :    0.094915
   5 H :   -0.148870
   6 H :   -0.380902
   7 H :   -0.325039
   8 H :   -0.134420
   9 H :   -0.004695
  10 H :   -0.109407
  11 H :   -0.051982
  12 H :   -0.089977
Sum of atomic charges:    0.0000000

LOEWDIN ATOMIC CHARGES
----------------------
   0 C :    0.193493
   1 N :   -0.065295
   2 C :   -0.240389
   3 N :    0.164167
   4 C :    0.118480
   5 H :   -0.109860
   6 H :   -0.094593
   7 H :    0.034475
   8 H :    0.004632
   9 H :    0.019887
  10 H :   -0.022285
  11 H :   -0.001896
  12 H :   -0.000816

  Mayer bond orders larger than 0.100000
B(  0-C ,  1-N ) :   0.9371 B(  0-C ,  7-H ) :  -0.1618 B(  0-C , 10-H ) :   0.8873
B(  0-C , 11-H ) :   0.7961 B(  0-C , 12-H ) :   0.8164 B(  1-N ,  2-C ) :   0.9816
B(  1-N ,  3-N ) :   0.1504 B(  1-N ,  4-C ) :   0.2881 B(  1-N ,  7-H ) :   1.3963
B(  1-N , 10-H ) :   0.1494 B(  1-N , 11-H ) :   0.1713 B(  1-N , 12-H ) :   0.1624
B(  2-C ,  3-N ) :   0.9606 B(  2-C ,  4-C ) :   1.7200 B(  2-C ,  5-H ) :   0.1405
B(  2-C ,  6-H ) :   0.1003 B(  2-C ,  7-H ) :  -0.2567 B(  3-N ,  4-C ) :   0.2092
B(  3-N ,  8-H ) :   1.2146 B(  3-N ,  9-H ) :   1.1601 B(  4-C ,  5-H ) :   0.7792
B(  4-C ,  6-H ) :   0.9940 B(  5-H , 10-H ) :   0.1290 B(  8-H ,  9-H ) :  -0.1612

FINAL SINGLE POINT ENERGY      -227.701081582057

DIPOLE MOMENT
-------------
                                X             Y             Z
Electronic contribution:     -0.40364      -0.74365      -2.64786
Nuclear contribution   :     -0.13890      -0.20745       2.21867
                        -----------------------------------------
Total Dipole Moment    :     -0.54255      -0.95110      -0.42919
                        -----------------------------------------
Magnitude (a.u.)       :      1.17608
Magnitude (Debye)      :      2.98935

Rotational constants in cm-1:     0.339212     0.134625     0.098371
Rotational constants in MHz : 10169.318272  4035.946597  2949.073953

                             ****ORCA TERMINATED NORMALLY****
TOTAL RUN TIME: 0 days 0 hours 0 minutes 11 seconds 70 msec
