                         Program Version 5.0.0 -  RELEASE  -
|  1> !LC-PBE RIJCOSX def2-SVPD def2/J TightSCF xyzfile
|  2>
|  3> *xyzfile 0 1 D4.xyz
|  4>
|  5> %MaxCore 64000
|  6>
|  7> %pal nprocs 4
|  8> end
|  9>
| 10> %scf
| 11>   MaxIter 150
| 12> end
| 13>
| 14>
| 15>                          ****END OF INPUT****

CARTESIAN COORDINATES (ANGSTROEM)
---------------------------------
  C      4.490588    1.155899   -2.469290
  C      4.305394    1.222762   -3.908317
  C      4.906458   -3.102816   -5.954844
  C      3.511771   -2.806215   -6.492283
  H      2.736044   -3.373445   -5.973736
  H      3.444904   -3.040831   -7.555281
  S      3.004618   -1.096206   -6.389259
  C      4.631918    2.246365   -4.670958
  N      4.541686    2.143990   -5.987139
  N      5.084086    3.393584   -4.118545
  H      4.920675    3.570501   -3.135870
  H      5.254652    4.197390   -4.706956
  H      3.824530    0.449113   -4.350926
  H      4.343373    1.249318   -6.416646
  H      4.676712    2.956624   -6.574113
  O      4.128856   -0.329647   -6.953717
  F      1.781285   -1.000779   -7.136399
  C      5.942129    0.939500   -2.036893
  H      3.864305    0.328532   -2.136611
  H      4.076233    2.049994   -1.989010
  C      6.462677   -3.117775   -3.944671
  C      5.024977   -3.025679   -4.437625
  H      4.423321   -3.818693   -3.977648
  H      4.579350   -2.087131   -4.108727
  H      5.201533   -4.100207   -6.296905
  H      5.605922   -2.397822   -6.413368
  C      6.559957   -0.356290   -2.559086
  H      5.967976    0.952567   -0.942444
  H      6.547184    1.788331   -2.368849
  C      6.006283   -1.615917   -1.899301
  H      7.642360   -0.318000   -2.402059
  H      6.414855   -0.403433   -3.642587
  C      6.608718   -2.917014   -2.435655
  H      6.190324   -1.561115   -0.820948
  H      4.919250   -1.651245   -2.016586
  H      7.066975   -2.374258   -4.475514
  H      6.887808   -4.089747   -4.215332
  H      6.135197   -3.755573   -1.915159
  H      7.671142   -2.955503   -2.172291
  O      2.851546   -0.783683   -4.956789

 Total Charge           Charge          ....    0
 Multiplicity           Mult            ....    1
 Number of Electrons    NEL             ....  144
 Basis Dimension        Dim             ....  540

ORBITAL ENERGIES
----------------

  NO   OCC          E(Eh)            E(eV)
   0   2.0000     -88.593986     -2410.7649
   1   2.0000     -24.648938      -670.7317
   2   2.0000     -19.022025      -517.6156
   3   2.0000     -19.012917      -517.3678
   4   2.0000     -14.205046      -386.5389
   5   2.0000     -14.183987      -385.9659
   6   2.0000     -10.205172      -277.6969
   7   2.0000     -10.158862      -276.4367
   8   2.0000     -10.143065      -276.0068
   9   2.0000     -10.125307      -275.5236
  10   2.0000     -10.119210      -275.3577
  11   2.0000     -10.112504      -275.1752
  12   2.0000     -10.102333      -274.8985
  13   2.0000     -10.092892      -274.6416
  14   2.0000     -10.087472      -274.4941
  15   2.0000     -10.079542      -274.2783
  16   2.0000     -10.007395      -272.3151
  17   2.0000      -8.215146      -223.5455
  18   2.0000      -6.242322      -169.8622
  19   2.0000      -6.235279      -169.6706
  20   2.0000      -6.233555      -169.6237
  21   2.0000      -1.560871       -42.4735
  22   2.0000      -1.294701       -35.2306
  23   2.0000      -1.183457       -32.2035
  24   2.0000      -1.098287       -29.8859
  25   2.0000      -1.024045       -27.8657
  26   2.0000      -0.998659       -27.1749
  27   2.0000      -0.980636       -26.6845
  28   2.0000      -0.947843       -25.7921
  29   2.0000      -0.924192       -25.1485
  30   2.0000      -0.890891       -24.2424
  31   2.0000      -0.864311       -23.5191
  32   2.0000      -0.828385       -22.5415
  33   2.0000      -0.797916       -21.7124
  34   2.0000      -0.774036       -21.0626
  35   2.0000      -0.767415       -20.8824
  36   2.0000      -0.748701       -20.3732
  37   2.0000      -0.741732       -20.1835
  38   2.0000      -0.725095       -19.7308
  39   2.0000      -0.702925       -19.1276
  40   2.0000      -0.687090       -18.6967
  41   2.0000      -0.668921       -18.2023
  42   2.0000      -0.656231       -17.8570
  43   2.0000      -0.646159       -17.5829
  44   2.0000      -0.626017       -17.0348
  45   2.0000      -0.618059       -16.8182
  46   2.0000      -0.611782       -16.6474
  47   2.0000      -0.598581       -16.2882
  48   2.0000      -0.591835       -16.1046
  49   2.0000      -0.573018       -15.5926
  50   2.0000      -0.565287       -15.3823
  51   2.0000      -0.555194       -15.1076
  52   2.0000      -0.553032       -15.0488
  53   2.0000      -0.549043       -14.9402
  54   2.0000      -0.521119       -14.1804
  55   2.0000      -0.517701       -14.0874
  56   2.0000      -0.512650       -13.9499
  57   2.0000      -0.501517       -13.6470
  58   2.0000      -0.494392       -13.4531
  59   2.0000      -0.486248       -13.2315
  60   2.0000      -0.477311       -12.9883
  61   2.0000      -0.467586       -12.7237
  62   2.0000      -0.462744       -12.5919
  63   2.0000      -0.452300       -12.3077
  64   2.0000      -0.447560       -12.1787
  65   2.0000      -0.443503       -12.0683
  66   2.0000      -0.429105       -11.6765
  67   2.0000      -0.419306       -11.4099
  68   2.0000      -0.410435       -11.1685
  69   2.0000      -0.395248       -10.7552
  70   2.0000      -0.368555       -10.0289
  71   2.0000      -0.245825        -6.6892
  72   0.0000       0.054933         1.4948
  73   0.0000       0.080717         2.1964
  74   0.0000       0.081392         2.2148
  75   0.0000       0.096778         2.6335
  76   0.0000       0.108333         2.9479

MULLIKEN ATOMIC CHARGES
-----------------------
   0 C :   -0.027791
   1 C :    0.156810
   2 C :    0.029605
   3 C :    0.038889
   4 H :    0.138715
   5 H :    0.128525
   6 S :    1.528941
   7 C :    0.850972
   8 N :    0.164369
   9 N :   -0.072765
  10 H :   -0.002031
  11 H :   -0.208934
  12 H :   -0.685128
  13 H :   -0.293001
  14 H :   -0.165723
  15 O :   -0.607649
  16 F :   -0.459546
  17 C :    0.266213
  18 H :    0.207230
  19 H :   -0.104515
  20 C :   -0.139379
  21 C :    0.134748
  22 H :    0.099958
  23 H :   -0.480444
  24 H :    0.006867
  25 H :    0.133193
  26 C :   -0.066679
  27 H :    0.009771
  28 H :   -0.048114
  29 C :   -0.227582
  30 H :   -0.042928
  31 H :   -0.011364
  32 C :    0.460822
  33 H :   -0.229909
  34 H :    0.157806
  35 H :    0.187215
  36 H :   -0.228710
  37 H :    0.034936
  38 H :    0.089402
  39 O :   -0.722798
Sum of atomic charges:    0.0000000

LOEWDIN ATOMIC CHARGES
----------------------
   0 C :   -0.066054
   1 C :   -0.035406
   2 C :   -0.040978
   3 C :   -0.068708
   4 H :    0.045139
   5 H :    0.036789
   6 S :    1.178307
   7 C :   -0.197656
   8 N :    0.186987
   9 N :    0.182995
  10 H :   -0.008051
  11 H :   -0.006619
  12 H :   -0.137152
  13 H :   -0.115969
  14 H :    0.001738
  15 O :   -0.436578
  16 F :   -0.222998
  17 C :   -0.053411
  18 H :    0.021748
  19 H :    0.018073
  20 C :   -0.058404
  21 C :   -0.046120
  22 H :    0.052374
  23 H :   -0.001249
  24 H :    0.051723
  25 H :    0.043982
  26 C :   -0.053496
  27 H :    0.026561
  28 H :    0.022081
  29 C :   -0.059881
  30 H :    0.035137
  31 H :    0.020570
  32 C :   -0.055380
  33 H :    0.034837
  34 H :    0.018600
  35 H :    0.031331
  36 H :    0.033979
  37 H :    0.032060
  38 H :    0.034085
  39 O :   -0.444988

  Mayer bond orders larger than 0.100000
B(  0-C ,  1-C ) :   1.2449 B(  0-C , 12-H ) :   0.7010 B(  0-C , 17-C ) :   1.1249
B(  0-C , 18-H ) :   0.7176 B(  0-C , 19-H ) :   0.9472 B(  0-C , 27-H ) :   0.1534
B(  0-C , 28-H ) :   0.1292 B(  1-C ,  7-C ) :   1.7711 B(  1-C ,  8-N ) :   0.3244
B(  1-C ,  9-N ) :   0.3028 B(  1-C , 18-H ) :   0.3063 B(  1-C , 19-H ) :   0.1491
B(  2-C ,  3-C ) :   1.2729 B(  2-C ,  5-H ) :   0.2380 B(  2-C , 20-C ) :   0.1049
B(  2-C , 21-C ) :   1.1605 B(  2-C , 24-H ) :   0.8643 B(  2-C , 25-H ) :   0.8737
B(  3-C ,  4-H ) :   0.9173 B(  3-C ,  5-H ) :   0.7137 B(  3-C ,  6-S ) :   1.0257
B(  3-C , 21-C ) :   0.1110 B(  6-S , 15-O ) :   1.3872 B(  6-S , 16-F ) :   0.5789
B(  6-S , 39-O ) :   1.4862 B(  7-C ,  8-N ) :   0.8059 B(  7-C ,  9-N ) :   0.7862
B(  7-C , 11-H ) :  -0.1469 B(  7-C , 12-H ) :  -0.1357 B(  7-C , 13-H ) :  -0.2321
B(  7-C , 14-H ) :  -0.1378 B(  8-N , 13-H ) :   1.2423 B(  8-N , 14-H ) :   1.3085
B(  9-N , 10-H ) :   1.0585 B(  9-N , 11-H ) :   1.3079 B( 10-H , 11-H ) :  -0.1814
B( 12-H , 18-H ) :  -0.1656 B( 12-H , 39-O ) :   0.2047 B( 13-H , 14-H ) :  -0.2242
B( 13-H , 15-O ) :   0.1545 B( 17-C , 18-H ) :   0.1125 B( 17-C , 26-C ) :   1.3008
B( 17-C , 27-H ) :   0.8355 B( 17-C , 28-H ) :   0.7752 B( 17-C , 31-H ) :   0.1259
B( 20-C , 21-C ) :   1.2604 B( 20-C , 32-C ) :   1.1523 B( 20-C , 35-H ) :   0.8634
B( 20-C , 36-H ) :   1.0135 B( 20-C , 38-H ) :   0.1841 B( 21-C , 22-H ) :   0.7389
B( 21-C , 23-H ) :   0.8210 B( 21-C , 24-H ) :   0.1664 B( 21-C , 36-H ) :   0.1849
B( 22-H , 23-H ) :   0.2455 B( 23-H , 34-H ) :   0.1129 B( 26-C , 27-H ) :   0.1084
B( 26-C , 28-H ) :   0.2006 B( 26-C , 29-C ) :   1.2219 B( 26-C , 30-H ) :   0.8789
B( 26-C , 31-H ) :   0.9274 B( 26-C , 33-H ) :   0.1256 B( 29-C , 30-H ) :   0.1241
B( 29-C , 32-C ) :   1.1517 B( 29-C , 33-H ) :   1.0700 B( 29-C , 34-H ) :   0.8664
B( 29-C , 37-H ) :   0.2378 B( 29-C , 38-H ) :   0.1149 B( 32-C , 37-H ) :   0.7433
B( 32-C , 38-H ) :   0.7435

FINAL SINGLE POINT ENERGY     -1187.449313020793

DIPOLE MOMENT
-------------
                                X             Y             Z
Electronic contribution:    -20.59441       3.40084     -21.98286
Nuclear contribution   :     19.99734      -4.67125      20.55522
                        -----------------------------------------
Total Dipole Moment    :     -0.59708      -1.27041      -1.42764
                        -----------------------------------------
Magnitude (a.u.)       :      2.00214
Magnitude (Debye)      :      5.08905

Rotational constants in cm-1:     0.014213     0.012058     0.007367
Rotational constants in MHz :   426.102180   361.491761   220.844824

                             ****ORCA TERMINATED NORMALLY****
TOTAL RUN TIME: 0 days 0 hours 5 minutes 53 seconds 130 msec
