                         Program Version 5.0.0 -  RELEASE  -
|  1> !PBE D3BJ RIJCOSX def2-TZVP def2/J TightSCF
|  2> *xyz -1 1
|  3> C         -1.91658       -2.48508       -3.64367
|  4> C         -1.36353       -1.98134       -2.29361
|  5> O         -0.35039       -2.74969       -1.79601
|  6> H         -2.22622       -1.90839       -1.60204
|  7> H         -1.05135       -0.91567       -2.44333
|  8> H         -1.11522       -2.57167       -4.34739
|  9> H         -2.64227       -1.79099       -4.01314
| 10> H         -2.37564       -3.44180       -3.50640
| 11> *
| 12>
| 13> %MaxCore 64000
| 14> %pal nprocs 4
| 15> end
| 16>
| 17> %scf
| 18>   MaxIter 150
| 19> end
| 20>
| 21>
| 22>                          ****END OF INPUT****

CARTESIAN COORDINATES (ANGSTROEM)
---------------------------------
  C     -1.916580   -2.485080   -3.643670
  C     -1.363530   -1.981340   -2.293610
  O     -0.350390   -2.749690   -1.796010
  H     -2.226220   -1.908390   -1.602040
  H     -1.051350   -0.915670   -2.443330
  H     -1.115220   -2.571670   -4.347390
  H     -2.642270   -1.790990   -4.013140
  H     -2.375640   -3.441800   -3.506400

 Total Charge           Charge          ....   -1
 Multiplicity           Mult            ....    1
 Number of Electrons    NEL             ....   26
 Basis Dimension        Dim             ....  123

ORBITAL ENERGIES
----------------

  NO   OCC          E(Eh)            E(eV)
   0   2.0000     -18.404886      -500.8224
   1   2.0000      -9.684577      -263.5307
   2   2.0000      -9.663446      -262.9557
   3   2.0000      -0.588257       -16.0073
   4   2.0000      -0.448927       -12.2159
   5   2.0000      -0.304224        -8.2784
   6   2.0000      -0.193464        -5.2644
   7   2.0000      -0.173578        -4.7233
   8   2.0000      -0.121552        -3.3076
   9   2.0000      -0.103819        -2.8251
  10   2.0000      -0.059975        -1.6320
  11   2.0000       0.081487         2.2174
  12   2.0000       0.085812         2.3350
  13   0.0000       0.199134         5.4187
  14   0.0000       0.233710         6.3596
  15   0.0000       0.256509         6.9800
  16   0.0000       0.262584         7.1453
  17   0.0000       0.293229         7.9792

MULLIKEN ATOMIC CHARGES
-----------------------
   0 C :   -0.091406
   1 C :   -0.006603
   2 O :   -0.704834
   3 H :   -0.076115
   4 H :   -0.080369
   5 H :    0.008184
   6 H :   -0.059269
   7 H :    0.010412
Sum of atomic charges:   -1.0000000

LOEWDIN ATOMIC CHARGES
----------------------
   0 C :   -0.373056
   1 C :   -0.571197
   2 O :   -0.382639
   3 H :    0.048539
   4 H :    0.046368
   5 H :    0.082515
   6 H :    0.066849
   7 H :    0.082622

  Mayer bond orders larger than 0.100000
B(  0-C ,  1-C ) :   0.8722 B(  0-C ,  2-O ) :  -0.3497 B(  0-C ,  5-H ) :   0.9452
B(  0-C ,  6-H ) :   0.8873 B(  0-C ,  7-H ) :   0.9507 B(  1-C ,  2-O ) :   1.7005
B(  1-C ,  3-H ) :   0.8969 B(  1-C ,  4-H ) :   0.9000 B(  2-O ,  6-H ) :   0.1464

Dispersion correction           -0.003757227
FINAL SINGLE POINT ENERGY      -154.290599676379

DIPOLE MOMENT
-------------
                                X             Y             Z
Electronic contribution:      2.33714      -1.06582       2.03192
Nuclear contribution   :     -3.14382       1.30299      -2.83231
                        -----------------------------------------
Total Dipole Moment    :     -0.80668       0.23717      -0.80038
                        -----------------------------------------
Magnitude (a.u.)       :      1.16086
Magnitude (Debye)      :      2.95068

Rotational constants in cm-1:     1.288206     0.322942     0.285188
Rotational constants in MHz : 38619.437223  9681.562038  8549.712012

                             ****ORCA TERMINATED NORMALLY****
TOTAL RUN TIME: 0 days 0 hours 0 minutes 7 seconds 796 msec
