                         Program Version 5.0.0 -  RELEASE  -
|  1> !PBE D3BJ RIJCOSX def2-TZVP def2/J TightSCF
|  2> *xyz 1 1
|  3> C          1.64703       -2.34528       -5.02041
|  4> C          2.20996       -2.81239       -3.66571
|  5> C          2.48901       -1.66851       -2.73754
|  6> N          3.59631       -0.94761       -2.95225
|  7> N          1.66394       -1.41369       -1.77781
|  8> H          0.81164       -1.96318       -1.70275
|  9> H          1.84550       -0.63508       -1.15875
| 10> H          4.20535       -1.17600       -3.73383
| 11> H          3.81723       -0.12585       -2.40604
| 12> H          3.14311       -3.36280       -3.81152
| 13> H          1.48768       -3.45893       -3.16521
| 14> H          1.46566       -3.19589       -5.64368
| 15> H          2.35406       -1.69850       -5.49654
| 16> H          0.73014       -1.81680       -4.86253
| 17> *
| 18>
| 19> %MaxCore 64000
| 20> %pal nprocs 4
| 21> end
| 22>
| 23> %scf
| 24>   MaxIter 150
| 25> end
| 26>
| 27>
| 28>                          ****END OF INPUT****

CARTESIAN COORDINATES (ANGSTROEM)
---------------------------------
  C      1.647030   -2.345280   -5.020410
  C      2.209960   -2.812390   -3.665710
  C      2.489010   -1.668510   -2.737540
  N      3.596310   -0.947610   -2.952250
  N      1.663940   -1.413690   -1.777810
  H      0.811640   -1.963180   -1.702750
  H      1.845500   -0.635080   -1.158750
  H      4.205350   -1.176000   -3.733830
  H      3.817230   -0.125850   -2.406040
  H      3.143110   -3.362800   -3.811520
  H      1.487680   -3.458930   -3.165210
  H      1.465660   -3.195890   -5.643680
  H      2.354060   -1.698500   -5.496540
  H      0.730140   -1.816800   -4.862530

 Total Charge           Charge          ....    1
 Multiplicity           Mult            ....    1
 Number of Electrons    NEL             ....   40
 Basis Dimension        Dim             ....  209

ORBITAL ENERGIES
----------------

  NO   OCC          E(Eh)            E(eV)
   0   2.0000     -14.233516      -387.3137
   1   2.0000     -14.225393      -387.0926
   2   2.0000     -10.193071      -277.3676
   3   2.0000     -10.079753      -274.2840
   4   2.0000     -10.035018      -273.0667
   5   2.0000      -1.122024       -30.5318
   6   2.0000      -1.032827       -28.1047
   7   2.0000      -0.896957       -24.4074
   8   2.0000      -0.798964       -21.7409
   9   2.0000      -0.758939       -20.6518
  10   2.0000      -0.722791       -19.6681
  11   2.0000      -0.697334       -18.9754
  12   2.0000      -0.656184       -17.8557
  13   2.0000      -0.600456       -16.3392
  14   2.0000      -0.574993       -15.6463
  15   2.0000      -0.566999       -15.4288
  16   2.0000      -0.502878       -13.6840
  17   2.0000      -0.492495       -13.4015
  18   2.0000      -0.486961       -13.2509
  19   2.0000      -0.454084       -12.3563
  20   0.0000      -0.240893        -6.5550
  21   0.0000      -0.184525        -5.0212
  22   0.0000      -0.138080        -3.7573
  23   0.0000      -0.137671        -3.7462
  24   0.0000      -0.108693        -2.9577

MULLIKEN ATOMIC CHARGES
-----------------------
   0 C :   -0.327490
   1 C :   -0.246665
   2 C :    0.268396
   3 N :   -0.311987
   4 N :   -0.253573
   5 H :    0.290112
   6 H :    0.270198
   7 H :    0.289852
   8 H :    0.269803
   9 H :    0.168938
  10 H :    0.136695
  11 H :    0.173866
  12 H :    0.132646
  13 H :    0.139209
Sum of atomic charges:    1.0000000

LOEWDIN ATOMIC CHARGES
----------------------
   0 C :   -0.262359
   1 C :   -0.223082
   2 C :   -0.314345
   3 N :    0.110223
   4 N :    0.146534
   5 H :    0.214753
   6 H :    0.201422
   7 H :    0.207657
   8 H :    0.193110
   9 H :    0.168357
  10 H :    0.160151
  11 H :    0.140908
  12 H :    0.126379
  13 H :    0.130292

  Mayer bond orders larger than 0.100000
B(  0-C ,  1-C ) :   0.9891 B(  0-C , 11-H ) :   0.9550 B(  0-C , 12-H ) :   0.9642
B(  0-C , 13-H ) :   0.9554 B(  1-C ,  2-C ) :   1.0020 B(  1-C ,  9-H ) :   0.9330
B(  1-C , 10-H ) :   0.9480 B(  2-C ,  3-N ) :   1.4401 B(  2-C ,  4-N ) :   1.5216
B(  3-N ,  7-H ) :   0.8857 B(  3-N ,  8-H ) :   0.8900 B(  4-N ,  5-H ) :   0.8780
B(  4-N ,  6-H ) :   0.8847

Dispersion correction           -0.010135027
FINAL SINGLE POINT ENERGY      -228.827976929965

DIPOLE MOMENT
-------------
                                X             Y             Z
Electronic contribution:      1.20184       1.67109       3.62546
Nuclear contribution   :     -0.98617      -1.03178      -2.77619
                        -----------------------------------------
Total Dipole Moment    :      0.21567       0.63932       0.84927
                        -----------------------------------------
Magnitude (a.u.)       :      1.08467
Magnitude (Debye)      :      2.75701

Rotational constants in cm-1:     0.257311     0.127495     0.099037
Rotational constants in MHz :  7713.982239  3822.189706  2969.039713

                             ****ORCA TERMINATED NORMALLY****
TOTAL RUN TIME: 0 days 0 hours 0 minutes 11 seconds 868 msec
