                         Program Version 5.0.0 -  RELEASE  -
|  1> !PBE D3BJ RIJCOSX def2-TZVP def2/J TightSCF
|  2> *xyz 0 1
|  3> C         -1.91658       -2.48508       -3.64367
|  4> C         -1.36353       -1.98134       -2.29361
|  5> F         -0.35039       -2.74969       -1.79601
|  6> H         -2.22622       -1.90839       -1.60204
|  7> H         -1.05135       -0.91567       -2.44333
|  8> H         -1.11522       -2.57167       -4.34739
|  9> H         -2.64227       -1.79099       -4.01314
| 10> H         -2.37564       -3.44180       -3.50640
| 11> *
| 12>
| 13> %MaxCore 64000
| 14> %pal nprocs 4
| 15> end
| 16>
| 17> %scf
| 18>   MaxIter 150
| 19> end
| 20>
| 21>
| 22>                          ****END OF INPUT****

CARTESIAN COORDINATES (ANGSTROEM)
---------------------------------
  C     -1.916580   -2.485080   -3.643670
  C     -1.363530   -1.981340   -2.293610
  F     -0.350390   -2.749690   -1.796010
  H     -2.226220   -1.908390   -1.602040
  H     -1.051350   -0.915670   -2.443330
  H     -1.115220   -2.571670   -4.347390
  H     -2.642270   -1.790990   -4.013140
  H     -2.375640   -3.441800   -3.506400

 Total Charge           Charge          ....    0
 Multiplicity           Mult            ....    1
 Number of Electrons    NEL             ....   26
 Basis Dimension        Dim             ....  123

ORBITAL ENERGIES
----------------

  NO   OCC          E(Eh)            E(eV)
   0   2.0000     -24.244038      -659.7138
   1   2.0000      -9.956161      -270.9209
   2   2.0000      -9.874538      -268.6998
   3   2.0000      -1.099366       -29.9153
   4   2.0000      -0.691780       -18.8243
   5   2.0000      -0.568176       -15.4609
   6   2.0000      -0.455499       -12.3948
   7   2.0000      -0.437431       -11.9031
   8   2.0000      -0.402492       -10.9524
   9   2.0000      -0.355271        -9.6674
  10   2.0000      -0.353653        -9.6234
  11   2.0000      -0.285953        -7.7812
  12   2.0000      -0.279652        -7.6097
  13   0.0000       0.022518         0.6128
  14   0.0000       0.059844         1.6284
  15   0.0000       0.067157         1.8274
  16   0.0000       0.076454         2.0804
  17   0.0000       0.092201         2.5089

MULLIKEN ATOMIC CHARGES
-----------------------
   0 C :   -0.326703
   1 C :    0.004794
   2 F :   -0.201426
   3 H :    0.088991
   4 H :    0.088132
   5 H :    0.118702
   6 H :    0.109553
   7 H :    0.117957
Sum of atomic charges:    0.0000000

LOEWDIN ATOMIC CHARGES
----------------------
   0 C :   -0.316480
   1 C :   -0.391961
   2 F :    0.118565
   3 H :    0.115593
   4 H :    0.117072
   5 H :    0.117655
   6 H :    0.122892
   7 H :    0.116664

  Mayer bond orders larger than 0.100000
B(  0-C ,  1-C ) :   1.0037 B(  0-C ,  5-H ) :   0.9646 B(  0-C ,  6-H ) :   0.9507
B(  0-C ,  7-H ) :   0.9661 B(  1-C ,  2-F ) :   1.0439 B(  1-C ,  3-H ) :   0.9585
B(  1-C ,  4-H ) :   0.9602

Dispersion correction           -0.003476669
FINAL SINGLE POINT ENERGY      -178.922537290479

DIPOLE MOMENT
-------------
                                X             Y             Z
Electronic contribution:      3.66688      -1.39278       3.45352
Nuclear contribution   :     -4.15401       1.70894      -3.75000
                        -----------------------------------------
Total Dipole Moment    :     -0.48713       0.31616      -0.29648
                        -----------------------------------------
Magnitude (a.u.)       :      0.65204
Magnitude (Debye)      :      1.65735

Rotational constants in cm-1:     1.266842     0.300492     0.266603
Rotational constants in MHz : 37978.968232  9008.526876  7992.551454

                             ****ORCA TERMINATED NORMALLY****
TOTAL RUN TIME: 0 days 0 hours 0 minutes 7 seconds 374 msec
