                         Program Version 5.0.0 -  RELEASE  -
|  1> !PBE D3BJ RIJCOSX def2-TZVP def2/J TightSCF
|  2> *xyz 0 1
|  3> C          1.64703       -2.34528       -5.02041
|  4> C          2.20996       -2.81239       -3.66571
|  5> C          2.48901       -1.66851       -2.73754
|  6> C          3.59631       -0.94761       -2.95225
|  7> N          1.66394       -1.41369       -1.77781
|  8> H          0.81164       -1.96318       -1.70275
|  9> H          1.84550       -0.63508       -1.15875
| 10> H          4.20535       -1.17600       -3.73383
| 11> H          3.81723       -0.12585       -2.40604
| 12> H          3.14311       -3.36280       -3.81152
| 13> H          1.48768       -3.45893       -3.16521
| 14> H          1.46566       -3.19589       -5.64368
| 15> H          2.35406       -1.69850       -5.49654
| 16> H          0.73014       -1.81680       -4.86253
| 17> *
| 18>
| 19> %MaxCore 64000
| 20> %pal nprocs 4
| 21> end
| 22>
| 23> %scf
| 24>   MaxIter 150
| 25> end
| 26>
| 27>
| 28>                          ****END OF INPUT****

CARTESIAN COORDINATES (ANGSTROEM)
---------------------------------
  C      1.647030   -2.345280   -5.020410
  C      2.209960   -2.812390   -3.665710
  C      2.489010   -1.668510   -2.737540
  C      3.596310   -0.947610   -2.952250
  N      1.663940   -1.413690   -1.777810
  H      0.811640   -1.963180   -1.702750
  H      1.845500   -0.635080   -1.158750
  H      4.205350   -1.176000   -3.733830
  H      3.817230   -0.125850   -2.406040
  H      3.143110   -3.362800   -3.811520
  H      1.487680   -3.458930   -3.165210
  H      1.465660   -3.195890   -5.643680
  H      2.354060   -1.698500   -5.496540
  H      0.730140   -1.816800   -4.862530

 Total Charge           Charge          ....    0
 Multiplicity           Mult            ....    1
 Number of Electrons    NEL             ....   40
 Basis Dimension        Dim             ....  209

ORBITAL ENERGIES
----------------

  NO   OCC          E(Eh)            E(eV)
   0   2.0000     -13.988816      -380.6550
   1   2.0000      -9.895314      -269.2652
   2   2.0000      -9.880281      -268.8561
   3   2.0000      -9.862882      -268.3827
   4   2.0000      -9.808072      -266.8912
   5   2.0000      -0.858733       -23.3673
   6   2.0000      -0.706078       -19.2133
   7   2.0000      -0.638280       -17.3685
   8   2.0000      -0.575104       -15.6494
   9   2.0000      -0.512587       -13.9482
  10   2.0000      -0.480922       -13.0866
  11   2.0000      -0.428326       -11.6554
  12   2.0000      -0.393374       -10.7042
  13   2.0000      -0.363997        -9.9049
  14   2.0000      -0.347499        -9.4559
  15   2.0000      -0.334803        -9.1105
  16   2.0000      -0.307648        -8.3715
  17   2.0000      -0.291870        -7.9422
  18   2.0000      -0.290716        -7.9108
  19   2.0000      -0.152317        -4.1448
  20   0.0000       0.002444         0.0665
  21   0.0000       0.018718         0.5093
  22   0.0000       0.046213         1.2575
  23   0.0000       0.053128         1.4457
  24   0.0000       0.071741         1.9522

MULLIKEN ATOMIC CHARGES
-----------------------
   0 C :   -0.317833
   1 C :   -0.200215
   2 C :    0.183561
   3 C :   -0.426861
   4 N :   -0.368604
   5 H :    0.214998
   6 H :    0.218482
   7 H :    0.097471
   8 H :    0.079031
   9 H :    0.116325
  10 H :    0.069169
  11 H :    0.110258
  12 H :    0.119990
  13 H :    0.104228
Sum of atomic charges:    0.0000000

LOEWDIN ATOMIC CHARGES
----------------------
   0 C :   -0.294621
   1 C :   -0.241655
   2 C :   -0.388801
   3 C :   -0.289038
   4 N :    0.032379
   5 H :    0.172385
   6 H :    0.175442
   7 H :    0.105590
   8 H :    0.093829
   9 H :    0.150329
  10 H :    0.132307
  11 H :    0.114371
  12 H :    0.120416
  13 H :    0.117066

  Mayer bond orders larger than 0.100000
B(  0-C ,  1-C ) :   0.9973 B(  0-C , 11-H ) :   0.9635 B(  0-C , 12-H ) :   0.9707
B(  0-C , 13-H ) :   0.9703 B(  1-C ,  2-C ) :   0.9660 B(  1-C ,  9-H ) :   0.9659
B(  1-C , 10-H ) :   0.9512 B(  2-C ,  3-C ) :   1.7342 B(  2-C ,  4-N ) :   1.2514
B(  3-C ,  7-H ) :   0.9824 B(  3-C ,  8-H ) :   0.9713 B(  4-N ,  5-H ) :   0.9132
B(  4-N ,  6-H ) :   0.9080

Dispersion correction           -0.010518775
FINAL SINGLE POINT ENERGY      -212.357484038310

DIPOLE MOMENT
-------------
                                X             Y             Z
Electronic contribution:     -0.07182       0.66750       3.06404
Nuclear contribution   :     -0.69146      -0.83112      -2.71336
                        -----------------------------------------
Total Dipole Moment    :     -0.76329      -0.16362       0.35068
                        -----------------------------------------
Magnitude (a.u.)       :      0.85578
Magnitude (Debye)      :      2.17521

Rotational constants in cm-1:     0.270661     0.129240     0.102040
Rotational constants in MHz :  8114.202941  3874.518141  3059.074383

                             ****ORCA TERMINATED NORMALLY****
TOTAL RUN TIME: 0 days 0 hours 0 minutes 14 seconds 514 msec
