                         Program Version 5.0.0 -  RELEASE  -
|  1> !PBE D3BJ RIJCOSX def2-TZVP def2/J TightSCF
|  2> *xyz 0 1
|  3> C          1.64703       -2.34528       -5.02041
|  4> C          2.20996       -2.81239       -3.66571
|  5> C          2.48901       -1.66851       -2.73754
|  6> N          3.59631       -0.94761       -2.95225
|  7> C          1.66394       -1.41369       -1.77781
|  8> H          0.81164       -1.96318       -1.70275
|  9> H          1.84550       -0.63508       -1.15875
| 10> H          4.20535       -1.17600       -3.73383
| 11> H          3.81723       -0.12585       -2.40604
| 12> H          3.14311       -3.36280       -3.81152
| 13> H          1.48768       -3.45893       -3.16521
| 14> H          1.46566       -3.19589       -5.64368
| 15> H          2.35406       -1.69850       -5.49654
| 16> H          0.73014       -1.81680       -4.86253
| 17> *
| 18>
| 19> %MaxCore 64000
| 20> %pal nprocs 4
| 21> end
| 22>
| 23> %scf
| 24>   MaxIter 150
| 25> end
| 26>
| 27>
| 28>                          ****END OF INPUT****

CARTESIAN COORDINATES (ANGSTROEM)
---------------------------------
  C      1.647030   -2.345280   -5.020410
  C      2.209960   -2.812390   -3.665710
  C      2.489010   -1.668510   -2.737540
  N      3.596310   -0.947610   -2.952250
  C      1.663940   -1.413690   -1.777810
  H      0.811640   -1.963180   -1.702750
  H      1.845500   -0.635080   -1.158750
  H      4.205350   -1.176000   -3.733830
  H      3.817230   -0.125850   -2.406040
  H      3.143110   -3.362800   -3.811520
  H      1.487680   -3.458930   -3.165210
  H      1.465660   -3.195890   -5.643680
  H      2.354060   -1.698500   -5.496540
  H      0.730140   -1.816800   -4.862530

 Total Charge           Charge          ....    0
 Multiplicity           Mult            ....    1
 Number of Electrons    NEL             ....   40
 Basis Dimension        Dim             ....  209

ORBITAL ENERGIES
----------------

  NO   OCC          E(Eh)            E(eV)
   0   2.0000     -13.982595      -380.4858
   1   2.0000      -9.892906      -269.1997
   2   2.0000      -9.878617      -268.8108
   3   2.0000      -9.864130      -268.4166
   4   2.0000      -9.810330      -266.9527
   5   2.0000      -0.840940       -22.8831
   6   2.0000      -0.706441       -19.2232
   7   2.0000      -0.651359       -17.7244
   8   2.0000      -0.570543       -15.5253
   9   2.0000      -0.509335       -13.8597
  10   2.0000      -0.469593       -12.7783
  11   2.0000      -0.428370       -11.6565
  12   2.0000      -0.386897       -10.5280
  13   2.0000      -0.374488       -10.1903
  14   2.0000      -0.349672        -9.5151
  15   2.0000      -0.338289        -9.2053
  16   2.0000      -0.307759        -8.3745
  17   2.0000      -0.290045        -7.8925
  18   2.0000      -0.282999        -7.7008
  19   2.0000      -0.162285        -4.4160
  20   0.0000       0.003970         0.1080
  21   0.0000       0.022082         0.6009
  22   0.0000       0.049028         1.3341
  23   0.0000       0.057904         1.5757
  24   0.0000       0.068359         1.8601

MULLIKEN ATOMIC CHARGES
-----------------------
   0 C :   -0.322232
   1 C :   -0.212354
   2 C :    0.224172
   3 N :   -0.427671
   4 C :   -0.390485
   5 H :    0.095291
   6 H :    0.074872
   7 H :    0.218113
   8 H :    0.215148
   9 H :    0.090098
  10 H :    0.103265
  11 H :    0.114663
  12 H :    0.098556
  13 H :    0.118564
Sum of atomic charges:   -0.0000000

LOEWDIN ATOMIC CHARGES
----------------------
   0 C :   -0.298323
   1 C :   -0.241620
   2 C :   -0.375140
   3 N :   -0.001089
   4 C :   -0.265049
   5 H :    0.111641
   6 H :    0.101324
   7 H :    0.166945
   8 H :    0.166236
   9 H :    0.136886
  10 H :    0.148163
  11 H :    0.115799
  12 H :    0.113591
  13 H :    0.120634

  Mayer bond orders larger than 0.100000
B(  0-C ,  1-C ) :   0.9908 B(  0-C , 11-H ) :   0.9655 B(  0-C , 12-H ) :   0.9702
B(  0-C , 13-H ) :   0.9720 B(  1-C ,  2-C ) :   0.9859 B(  1-C ,  9-H ) :   0.9504
B(  1-C , 10-H ) :   0.9639 B(  2-C ,  3-N ) :   1.1703 B(  2-C ,  4-C ) :   1.7927
B(  3-N ,  7-H ) :   0.9208 B(  3-N ,  8-H ) :   0.9151 B(  4-C ,  5-H ) :   0.9761
B(  4-C ,  6-H ) :   0.9722

Dispersion correction           -0.010507685
FINAL SINGLE POINT ENERGY      -212.360858597827

DIPOLE MOMENT
-------------
                                X             Y             Z
Electronic contribution:      1.69091       1.10274       1.99680
Nuclear contribution   :     -1.13902      -0.93906      -2.44135
                        -----------------------------------------
Total Dipole Moment    :      0.55189       0.16367      -0.44455
                        -----------------------------------------
Magnitude (a.u.)       :      0.72732
Magnitude (Debye)      :      1.84870

Rotational constants in cm-1:     0.267243     0.130607     0.102304
Rotational constants in MHz :  8011.748167  3915.504600  3066.999841

                             ****ORCA TERMINATED NORMALLY****
TOTAL RUN TIME: 0 days 0 hours 0 minutes 15 seconds 675 msec
