                         Program Version 5.0.0 -  RELEASE  -
|  1> !PBE D3BJ RIJCOSX def2-TZVP def2/J TightSCF xyzfile
|  2>
|  3> *xyzfile 0 1 D2.xyz
|  4>
|  5> %MaxCore 64000
|  6>
|  7> %pal nprocs 18
|  8> end
|  9>
| 10> %scf
| 11>   MaxIter 150
| 12> end
| 13>
| 14>
| 15>                          ****END OF INPUT****

CARTESIAN COORDINATES (ANGSTROEM)
---------------------------------
  C      1.647032   -2.345276   -5.020411
  C      0.217628   -1.814022   -4.924389
  C      2.209964   -2.812388   -3.665708
  C     -0.811356   -2.908780   -4.607625
  C     -1.916579   -2.485081   -3.643665
  H     -2.554525   -1.712428   -4.091993
  C     -1.363531   -1.981337   -2.293608
  H     -2.553448   -3.355667   -3.458815
  F     -0.350395   -2.749689   -1.796006
  H      2.308385   -1.588704   -5.457128
  H      1.674286   -3.203478   -5.697392
  C      2.489007   -1.668510   -2.737538
  N      3.596314   -0.947608   -2.952247
  C      1.663936   -1.413685   -1.777806
  H      0.811642   -1.963178   -1.702755
  H      1.845503   -0.635078   -1.158749
  H      4.205351   -1.176003   -3.733825
  H      3.817230   -0.125845   -2.406041
  H     -1.244829   -3.280884   -5.541040
  H     -0.306331   -3.757746   -4.142734
  H     -0.036244   -1.318555   -5.865303
  H      0.175004   -1.035382   -4.158095
  H      3.143106   -3.362803   -3.811524
  H      1.487683   -3.458935   -3.165211
  H     -2.226220   -1.908386   -1.602039
  H     -1.051353   -0.915671   -2.443331

 Total Charge           Charge          ....    0
 Multiplicity           Mult            ....    1
 Number of Electrons    NEL             ....   80
 Basis Dimension        Dim             ....  406

ORBITAL ENERGIES
----------------

  NO   OCC          E(Eh)            E(eV)
   0   2.0000     -24.260102      -660.1510
   1   2.0000     -13.969641      -380.1332
   2   2.0000      -9.956389      -270.9271
   3   2.0000      -9.886248      -269.0185
   4   2.0000      -9.877300      -268.7750
   5   2.0000      -9.875313      -268.7209
   6   2.0000      -9.872429      -268.6425
   7   2.0000      -9.868380      -268.5323
   8   2.0000      -9.867002      -268.4948
   9   2.0000      -9.779258      -266.1071
  10   2.0000      -1.124990       -30.6125
  11   2.0000      -0.828002       -22.5311
  12   2.0000      -0.737679       -20.0733
  13   2.0000      -0.704764       -19.1776
  14   2.0000      -0.657216       -17.8838
  15   2.0000      -0.632326       -17.2065
  16   2.0000      -0.591766       -16.1028
  17   2.0000      -0.542941       -14.7742
  18   2.0000      -0.511694       -13.9239
  19   2.0000      -0.508578       -13.8391
  20   2.0000      -0.471796       -12.8382
  21   2.0000      -0.457296       -12.4437
  22   2.0000      -0.444886       -12.1060
  23   2.0000      -0.434277       -11.8173
  24   2.0000      -0.411019       -11.1844
  25   2.0000      -0.394327       -10.7302
  26   2.0000      -0.391200       -10.6451
  27   2.0000      -0.382617       -10.4115
  28   2.0000      -0.352691        -9.5972
  29   2.0000      -0.337353        -9.1798
  30   2.0000      -0.324367        -8.8265
  31   2.0000      -0.313458        -8.5296
  32   2.0000      -0.304435        -8.2841
  33   2.0000      -0.293574        -7.9885
  34   2.0000      -0.282424        -7.6851
  35   2.0000      -0.279414        -7.6032
  36   2.0000      -0.270967        -7.3734
  37   2.0000      -0.264959        -7.2099
  38   2.0000      -0.249093        -6.7782
  39   2.0000      -0.147631        -4.0173
  40   0.0000       0.011611         0.3160
  41   0.0000       0.020021         0.5448
  42   0.0000       0.025578         0.6960
  43   0.0000       0.044924         1.2224
  44   0.0000       0.047385         1.2894

MULLIKEN ATOMIC CHARGES
-----------------------
   0 C :   -0.136246
   1 C :   -0.184213
   2 C :   -0.229572
   3 C :   -0.197781
   4 C :   -0.172453
   5 H :    0.096059
   6 C :   -0.078751
   7 H :    0.099926
   8 F :   -0.150536
   9 H :    0.082031
  10 H :    0.086959
  11 C :    0.216828
  12 N :   -0.428374
  13 C :   -0.531863
  14 H :    0.220559
  15 H :    0.059420
  16 H :    0.210622
  17 H :    0.210819
  18 H :    0.098743
  19 H :    0.101905
  20 H :    0.088378
  21 H :    0.110700
  22 H :    0.090977
  23 H :    0.111962
  24 H :    0.107046
  25 H :    0.116855
Sum of atomic charges:   -0.0000000

LOEWDIN ATOMIC CHARGES
----------------------
   0 C :   -0.264760
   1 C :   -0.263748
   2 C :   -0.221488
   3 C :   -0.273497
   4 C :   -0.281481
   5 H :    0.143135
   6 C :   -0.369205
   7 H :    0.137498
   8 F :    0.191504
   9 H :    0.133416
  10 H :    0.136478
  11 C :   -0.382412
  12 N :   -0.007004
  13 C :   -0.269097
  14 H :    0.075148
  15 H :    0.095711
  16 H :    0.162631
  17 H :    0.163508
  18 H :    0.136927
  19 H :    0.141901
  20 H :    0.133836
  21 H :    0.142597
  22 H :    0.138054
  23 H :    0.148489
  24 H :    0.124035
  25 H :    0.127827

  Mayer bond orders larger than 0.100000
B(  0-C ,  1-C ) :   1.0161 B(  0-C ,  2-C ) :   0.9785 B(  0-C ,  9-H ) :   0.9392
B(  0-C , 10-H ) :   0.9453 B(  1-C ,  3-C ) :   0.9874 B(  1-C , 20-H ) :   0.9403
B(  1-C , 21-H ) :   0.9646 B(  2-C , 11-C ) :   0.9924 B(  2-C , 22-H ) :   0.9411
B(  2-C , 23-H ) :   0.9760 B(  3-C ,  4-C ) :   1.0030 B(  3-C , 18-H ) :   0.9474
B(  3-C , 19-H ) :   0.9611 B(  4-C ,  5-H ) :   0.9344 B(  4-C ,  6-C ) :   1.0172
B(  4-C ,  7-H ) :   0.9473 B(  6-C ,  8-F ) :   0.9813 B(  6-C , 24-H ) :   0.9525
B(  6-C , 25-H ) :   0.9652 B( 11-C , 12-N ) :   1.1471 B( 11-C , 13-C ) :   1.7524
B( 12-N , 16-H ) :   0.9208 B( 12-N , 17-H ) :   0.9169 B( 13-C , 14-H ) :   0.9245
B( 13-C , 15-H ) :   0.9666

Dispersion correction           -0.026680553
FINAL SINGLE POINT ENERGY      -468.602897589431

DIPOLE MOMENT
-------------
                                X             Y             Z
Electronic contribution:      0.50990      -1.31625       6.10073
Nuclear contribution   :     -0.73748       1.64619      -6.72655
                        -----------------------------------------
Total Dipole Moment    :     -0.22758       0.32994      -0.62582
                        -----------------------------------------
Magnitude (a.u.)       :      0.74317
Magnitude (Debye)      :      1.88899

Rotational constants in cm-1:     0.063169     0.031711     0.023958
Rotational constants in MHz :  1893.751676   950.657187   718.229932

                             ****ORCA TERMINATED NORMALLY****
TOTAL RUN TIME: 0 days 0 hours 0 minutes 12 seconds 799 msec
