                         Program Version 5.0.0 -  RELEASE  -
|  1> !PBE D3BJ RIJCOSX def2-SVPD def2/J TightSCF
|  2> *xyz -1 1
|  3> C          4.93020       -7.37532       -2.64962
|  4> C          3.84189       -6.95161       -3.63283
|  5> H          3.45814       -5.95442       -3.40712
|  6> H          2.98848       -7.64361       -3.56708
|  7> S          4.31812       -6.91593       -5.36869
|  8> O          5.40615       -5.89948       -5.51297
|  9> O          3.11191       -6.44508       -6.04379
| 10> C          6.17399       -6.48552       -2.60631
| 11> H          4.46961       -7.40617       -1.65588
| 12> H          5.23013       -8.39868       -2.88591
| 13> O          4.76340       -8.23942       -5.69863
| 14> H          6.62449       -6.45478       -3.57637
| 15> H          6.87304       -6.88376       -1.90088
| 16> H          5.89434       -5.49571       -2.31140
| 17> *
| 18>
| 19> %MaxCore 64000
| 20>
| 21> %pal nprocs 8
| 22> end
| 23>
| 24> %scf
| 25>   MaxIter 150
| 26> end
| 27>
| 28>
| 29>                          ****END OF INPUT****

CARTESIAN COORDINATES (ANGSTROEM)
---------------------------------
  C      4.930200   -7.375320   -2.649620
  C      3.841890   -6.951610   -3.632830
  H      3.458140   -5.954420   -3.407120
  H      2.988480   -7.643610   -3.567080
  S      4.318120   -6.915930   -5.368690
  O      5.406150   -5.899480   -5.512970
  O      3.111910   -6.445080   -6.043790
  C      6.173990   -6.485520   -2.606310
  H      4.469610   -7.406170   -1.655880
  H      5.230130   -8.398680   -2.885910
  O      4.763400   -8.239420   -5.698630
  H      6.624490   -6.454780   -3.576370
  H      6.873040   -6.883760   -1.900880
  H      5.894340   -5.495710   -2.311400

 Total Charge           Charge          ....   -1
 Multiplicity           Mult            ....    1
 Number of Electrons    NEL             ....   66
 Basis Dimension        Dim             ....  212

ORBITAL ENERGIES
----------------

  NO   OCC          E(Eh)            E(eV)
   0   2.0000     -88.057236     -2396.1592
   1   2.0000     -18.552804      -504.8475
   2   2.0000     -18.543468      -504.5934
   3   2.0000     -18.537044      -504.4186
   4   2.0000      -9.768055      -265.8023
   5   2.0000      -9.761335      -265.6194
   6   2.0000      -9.747112      -265.2324
   7   2.0000      -7.661170      -208.4710
   8   2.0000      -5.688257      -154.7853
   9   2.0000      -5.688036      -154.7793
  10   2.0000      -5.687450      -154.7634
  11   2.0000      -0.841204       -22.8903
  12   2.0000      -0.708796       -19.2873
  13   2.0000      -0.680687       -18.5224
  14   2.0000      -0.579748       -15.7758
  15   2.0000      -0.494976       -13.4690
  16   2.0000      -0.407262       -11.0822
  17   2.0000      -0.326707        -8.8902
  18   2.0000      -0.280544        -7.6340
  19   2.0000      -0.271118        -7.3775
  20   2.0000      -0.244703        -6.6587
  21   2.0000      -0.231989        -6.3127
  22   2.0000      -0.212990        -5.7958
  23   2.0000      -0.205777        -5.5995
  24   2.0000      -0.180262        -4.9052
  25   2.0000      -0.174530        -4.7492
  26   2.0000      -0.162661        -4.4262
  27   2.0000      -0.106133        -2.8880
  28   2.0000      -0.104568        -2.8455
  29   2.0000      -0.074927        -2.0389
  30   2.0000      -0.067137        -1.8269
  31   2.0000      -0.056597        -1.5401
  32   2.0000      -0.021176        -0.5762
  33   0.0000       0.118393         3.2216
  34   0.0000       0.145402         3.9566
  35   0.0000       0.152048         4.1374
  36   0.0000       0.160811         4.3759
  37   0.0000       0.179392         4.8815

MULLIKEN ATOMIC CHARGES
-----------------------
   0 C :   -0.300180
   1 C :   -0.023306
   2 H :    0.002866
   3 H :    0.008482
   4 S :    1.186790
   5 O :   -0.794546
   6 O :   -0.777238
   7 C :    0.817265
   8 H :   -0.114996
   9 H :   -0.032243
  10 O :   -0.728558
  11 H :   -0.114665
  12 H :   -0.096532
  13 H :   -0.033140
Sum of atomic charges:   -1.0000000

LOEWDIN ATOMIC CHARGES
----------------------
   0 C :   -0.100326
   1 C :   -0.106215
   2 H :    0.005699
   3 H :    0.009426
   4 S :    0.814156
   5 O :   -0.561543
   6 O :   -0.561555
   7 C :    0.117286
   8 H :    0.005659
   9 H :    0.016226
  10 O :   -0.543920
  11 H :   -0.041133
  12 H :   -0.034306
  13 H :   -0.019454

  Mayer bond orders larger than 0.100000
B(  0-C ,  1-C ) :   1.2756 B(  0-C ,  2-H ) :   0.1525 B(  0-C ,  3-H ) :   0.1411
B(  0-C ,  7-C ) :   1.3016 B(  0-C ,  8-H ) :   0.8556 B(  0-C ,  9-H ) :   0.8932
B(  0-C , 11-H ) :   0.2502 B(  0-C , 12-H ) :   0.2226 B(  0-C , 13-H ) :   0.2376
B(  1-C ,  2-H ) :   0.9224 B(  1-C ,  3-H ) :   0.8909 B(  1-C ,  4-S ) :   0.9049
B(  1-C ,  6-O ) :   0.1002 B(  1-C ,  8-H ) :   0.1701 B(  1-C ,  9-H ) :   0.1486
B(  4-S ,  5-O ) :   1.2792 B(  4-S ,  6-O ) :   1.3601 B(  4-S , 10-O ) :   1.3192
B(  7-C ,  9-H ) :   0.1032 B(  7-C , 11-H ) :   0.8021 B(  7-C , 12-H ) :   0.7398
B(  7-C , 13-H ) :   0.7271 B( 11-H , 13-H ) :   0.1197

Dispersion correction           -0.013278629
FINAL SINGLE POINT ENERGY      -741.521942670240

DIPOLE MOMENT
-------------
                                X             Y             Z
Electronic contribution:     -3.07876      -0.29425     -10.25319
Nuclear contribution   :      3.14317       0.05805      12.49367
                        -----------------------------------------
Total Dipole Moment    :      0.06441      -0.23620       2.24048
                        -----------------------------------------
Magnitude (a.u.)       :      2.25382
Magnitude (Debye)      :      5.72875

Rotational constants in cm-1:     0.133431     0.055055     0.052069
Rotational constants in MHz :  4000.170974  1650.506165  1561.001383

                             ****ORCA TERMINATED NORMALLY****
TOTAL RUN TIME: 0 days 0 hours 0 minutes 5 seconds 766 msec
