                         Program Version 5.0.0 -  RELEASE  -
|  1> !PBE D3BJ RIJCOSX def2-SVPD def2/J TightSCF
|  2> *xyz 1 1
|  3> C          5.55821       -1.99291       -6.21505
|  4> C          4.18188       -2.58967       -6.29891
|  5> N          3.14587       -1.76843       -6.48675
|  6> N          4.01910       -3.86431       -6.22743
|  7> H          4.76849       -4.59115       -5.99077
|  8> H          3.12241       -4.33339       -6.31462
|  9> H          3.28164       -0.77779       -6.56655
| 10> H          2.21255       -2.13419       -6.56225
| 11> C          6.41926       -2.54294       -5.07763
| 12> C          5.89651       -2.16931       -3.69455
| 13> H          7.42888       -2.14367       -5.20808
| 14> H          6.50589       -3.62754       -5.17550
| 15> H          6.03683       -2.19819       -7.17685
| 16> H          5.46761       -0.90737       -6.12797
| 17> H          5.81870       -1.10488       -3.61824
| 18> H          6.57185       -2.53200       -2.94804
| 19> H          4.93221       -2.60892       -3.54698
| 20> *
| 21>
| 22> %MaxCore 64000
| 23>
| 24> %pal nprocs 8
| 25> end
| 26>
| 27> %scf
| 28>   MaxIter 150
| 29> end
| 30>
| 31>
| 32>                          ****END OF INPUT****

CARTESIAN COORDINATES (ANGSTROEM)
---------------------------------
  C      5.558210   -1.992910   -6.215050
  C      4.181880   -2.589670   -6.298910
  N      3.145870   -1.768430   -6.486750
  N      4.019100   -3.864310   -6.227430
  H      4.768490   -4.591150   -5.990770
  H      3.122410   -4.333390   -6.314620
  H      3.281640   -0.777790   -6.566550
  H      2.212550   -2.134190   -6.562250
  C      6.419260   -2.542940   -5.077630
  C      5.896510   -2.169310   -3.694550
  H      7.428880   -2.143670   -5.208080
  H      6.505890   -3.627540   -5.175500
  H      6.036830   -2.198190   -7.176850
  H      5.467610   -0.907370   -6.127970
  H      5.818700   -1.104880   -3.618240
  H      6.571850   -2.532000   -2.948040
  H      4.932210   -2.608920   -3.546980

 Total Charge           Charge          ....    1
 Multiplicity           Mult            ....    1
 Number of Electrons    NEL             ....   48
 Basis Dimension        Dim             ....  208

ORBITAL ENERGIES
----------------

  NO   OCC          E(Eh)            E(eV)
   0   2.0000     -14.248396      -387.7186
   1   2.0000     -14.238480      -387.4487
   2   2.0000     -10.207393      -277.7573
   3   2.0000     -10.088627      -274.5255
   4   2.0000     -10.057611      -273.6815
   5   2.0000     -10.020534      -272.6726
   6   2.0000      -1.110666       -30.2228
   7   2.0000      -1.019218       -27.7343
   8   2.0000      -0.895494       -24.3676
   9   2.0000      -0.817727       -22.2515
  10   2.0000      -0.774144       -21.0655
  11   2.0000      -0.725303       -19.7365
  12   2.0000      -0.713423       -19.4132
  13   2.0000      -0.671694       -18.2777
  14   2.0000      -0.648077       -17.6351
  15   2.0000      -0.604486       -16.4489
  16   2.0000      -0.580207       -15.7882
  17   2.0000      -0.543084       -14.7781
  18   2.0000      -0.529954       -14.4208
  19   2.0000      -0.516026       -14.0418
  20   2.0000      -0.461056       -12.5460
  21   2.0000      -0.457982       -12.4623
  22   2.0000      -0.453001       -12.3268
  23   2.0000      -0.450446       -12.2573
  24   0.0000      -0.240785        -6.5521
  25   0.0000      -0.179756        -4.8914
  26   0.0000      -0.148072        -4.0292
  27   0.0000      -0.135710        -3.6929
  28   0.0000      -0.116496        -3.1700

MULLIKEN ATOMIC CHARGES
-----------------------
   0 C :    0.050320
   1 C :    0.932004
   2 N :    0.055433
   3 N :    0.051073
   4 H :    0.071036
   5 H :   -0.175364
   6 H :   -0.016668
   7 H :   -0.157743
   8 C :   -0.315493
   9 C :    0.753122
  10 H :   -0.115392
  11 H :   -0.095506
  12 H :   -0.063968
  13 H :    0.137632
  14 H :    0.027339
  15 H :   -0.076782
  16 H :   -0.061042
Sum of atomic charges:    1.0000000

LOEWDIN ATOMIC CHARGES
----------------------
   0 C :    0.041477
   1 C :   -0.062996
   2 N :    0.301063
   3 N :    0.275757
   4 H :    0.095018
   5 H :    0.048692
   6 H :    0.038765
   7 H :    0.037816
   8 C :   -0.058186
   9 C :    0.146959
  10 H :    0.043711
  11 H :    0.014876
  12 H :    0.057098
  13 H :    0.041274
  14 H :   -0.003741
  15 H :    0.001019
  16 H :   -0.018603

  Mayer bond orders larger than 0.100000
B(  0-C ,  1-C ) :   1.0354 B(  0-C ,  2-N ) :   0.1184 B(  0-C ,  8-C ) :   1.2636
B(  0-C , 10-H ) :   0.1400 B(  0-C , 11-H ) :   0.1527 B(  0-C , 12-H ) :   0.8561
B(  0-C , 13-H ) :   0.7831 B(  1-C ,  2-N ) :   0.9159 B(  1-C ,  3-N ) :   1.0819
B(  1-C ,  4-H ) :  -0.1123 B(  1-C ,  5-H ) :  -0.2608 B(  1-C ,  7-H ) :  -0.2386
B(  1-C , 12-H ) :   0.1567 B(  1-C , 13-H ) :   0.1163 B(  2-N ,  3-N ) :   0.2052
B(  2-N ,  6-H ) :   1.1315 B(  2-N ,  7-H ) :   1.3412 B(  3-N ,  4-H ) :   1.1063
B(  3-N ,  5-H ) :   1.3370 B(  4-H ,  5-H ) :  -0.1938 B(  6-H ,  7-H ) :  -0.1913
B(  8-C ,  9-C ) :   1.3812 B(  8-C , 10-H ) :   0.9435 B(  8-C , 11-H ) :   0.8830
B(  8-C , 12-H ) :   0.1137 B(  8-C , 13-H ) :   0.1455 B(  8-C , 14-H ) :   0.2298
B(  8-C , 15-H ) :   0.2236 B(  8-C , 16-H ) :   0.2257 B(  9-C , 14-H ) :   0.7481
B(  9-C , 15-H ) :   0.7564 B(  9-C , 16-H ) :   0.8173

Dispersion correction           -0.013561967
FINAL SINGLE POINT ENERGY      -267.825924890347

DIPOLE MOMENT
-------------
                                X             Y             Z
Electronic contribution:     -4.02335      -0.93284      -3.71756
Nuclear contribution   :      2.70373       0.48594       2.85544
                        -----------------------------------------
Total Dipole Moment    :     -1.31962      -0.44691      -0.86212
                        -----------------------------------------
Magnitude (a.u.)       :      1.63840
Magnitude (Debye)      :      4.16448

Rotational constants in cm-1:     0.185545     0.074107     0.068805
Rotational constants in MHz :  5562.487769  2221.680591  2062.713441

                             ****ORCA TERMINATED NORMALLY****
TOTAL RUN TIME: 0 days 0 hours 0 minutes 5 seconds 386 msec
