                         Program Version 5.0.0 -  RELEASE  -
|  1> !PBE D3BJ RIJCOSX def2-SVPD def2/J TightSCF
|  2> *xyz 0 1
|  3> C          4.93020       -7.37532       -2.64962
|  4> C          3.84189       -6.95161       -3.63283
|  5> H          3.45814       -5.95442       -3.40712
|  6> H          2.98848       -7.64361       -3.56708
|  7> S          4.31812       -6.91593       -5.36869
|  8> F          5.40615       -5.89948       -5.51297
|  9> O          3.11191       -6.44508       -6.04379
| 10> C          6.17399       -6.48552       -2.60631
| 11> H          4.46961       -7.40617       -1.65588
| 12> H          5.23013       -8.39868       -2.88591
| 13> O          4.76340       -8.23942       -5.69863
| 14> H          6.62449       -6.45478       -3.57637
| 15> H          6.87304       -6.88376       -1.90088
| 16> H          5.89434       -5.49571       -2.31140
| 17> *
| 18>
| 19> %MaxCore 64000
| 20>
| 21> %pal nprocs 8
| 22> end
| 23>
| 24> %scf
| 25>   MaxIter 150
| 26> end
| 27>
| 28>
| 29>                          ****END OF INPUT****

CARTESIAN COORDINATES (ANGSTROEM)
---------------------------------
  C      4.930200   -7.375320   -2.649620
  C      3.841890   -6.951610   -3.632830
  H      3.458140   -5.954420   -3.407120
  H      2.988480   -7.643610   -3.567080
  S      4.318120   -6.915930   -5.368690
  F      5.406150   -5.899480   -5.512970
  O      3.111910   -6.445080   -6.043790
  C      6.173990   -6.485520   -2.606310
  H      4.469610   -7.406170   -1.655880
  H      5.230130   -8.398680   -2.885910
  O      4.763400   -8.239420   -5.698630
  H      6.624490   -6.454780   -3.576370
  H      6.873040   -6.883760   -1.900880
  H      5.894340   -5.495710   -2.311400

 Total Charge           Charge          ....    0
 Multiplicity           Mult            ....    1
 Number of Electrons    NEL             ....   66
 Basis Dimension        Dim             ....  212

ORBITAL ENERGIES
----------------

  NO   OCC          E(Eh)            E(eV)
   0   2.0000     -88.306366     -2402.9384
   1   2.0000     -24.365080      -663.0075
   2   2.0000     -18.781738      -511.0771
   3   2.0000     -18.772087      -510.8145
   4   2.0000      -9.957774      -270.9648
   5   2.0000      -9.928183      -270.1596
   6   2.0000      -9.903371      -269.4844
   7   2.0000      -7.911419      -215.2807
   8   2.0000      -5.942421      -161.7015
   9   2.0000      -5.936413      -161.5380
  10   2.0000      -5.934876      -161.4962
  11   2.0000      -1.229768       -33.4637
  12   2.0000      -1.025781       -27.9129
  13   2.0000      -0.933354       -25.3979
  14   2.0000      -0.757842       -20.6219
  15   2.0000      -0.680381       -18.5141
  16   2.0000      -0.632221       -17.2036
  17   2.0000      -0.576431       -15.6855
  18   2.0000      -0.511595       -13.9212
  19   2.0000      -0.495278       -13.4772
  20   2.0000      -0.489591       -13.3224
  21   2.0000      -0.443327       -12.0635
  22   2.0000      -0.431057       -11.7296
  23   2.0000      -0.416087       -11.3223
  24   2.0000      -0.404680       -11.0119
  25   2.0000      -0.390474       -10.6253
  26   2.0000      -0.352087        -9.5808
  27   2.0000      -0.343660        -9.3515
  28   2.0000      -0.332022        -9.0348
  29   2.0000      -0.323989        -8.8162
  30   2.0000      -0.296529        -8.0690
  31   2.0000      -0.285306        -7.7636
  32   2.0000      -0.273218        -7.4346
  33   0.0000      -0.032758        -0.8914
  34   0.0000      -0.002523        -0.0687
  35   0.0000       0.008713         0.2371
  36   0.0000       0.017956         0.4886
  37   0.0000       0.021120         0.5747

MULLIKEN ATOMIC CHARGES
-----------------------
   0 C :   -0.244944
   1 C :   -0.038024
   2 H :    0.056095
   3 H :    0.051639
   4 S :    1.347987
   5 F :   -0.388202
   6 O :   -0.639876
   7 C :    0.820229
   8 H :   -0.085691
   9 H :   -0.019181
  10 O :   -0.609479
  11 H :   -0.155022
  12 H :   -0.077023
  13 H :   -0.018510
Sum of atomic charges:   -0.0000000

LOEWDIN ATOMIC CHARGES
----------------------
   0 C :   -0.081720
   1 C :   -0.060749
   2 H :    0.024874
   3 H :    0.042335
   4 S :    1.068294
   5 F :   -0.261538
   6 O :   -0.447700
   7 C :    0.136869
   8 H :    0.032049
   9 H :    0.029718
  10 O :   -0.431824
  11 H :   -0.033319
  12 H :   -0.009384
  13 H :   -0.007905

  Mayer bond orders larger than 0.100000
B(  0-C ,  1-C ) :   1.3083 B(  0-C ,  2-H ) :   0.1484 B(  0-C ,  3-H ) :   0.1352
B(  0-C ,  7-C ) :   1.3210 B(  0-C ,  8-H ) :   0.8382 B(  0-C ,  9-H ) :   0.8984
B(  0-C , 11-H ) :   0.2297 B(  0-C , 12-H ) :   0.2114 B(  0-C , 13-H ) :   0.2280
B(  1-C ,  2-H ) :   0.9143 B(  1-C ,  3-H ) :   0.8696 B(  1-C ,  4-S ) :   0.9777
B(  1-C ,  8-H ) :   0.1604 B(  1-C ,  9-H ) :   0.1474 B(  4-S ,  5-F ) :   0.6360
B(  4-S ,  6-O ) :   1.5633 B(  4-S , 10-O ) :   1.5351 B(  6-O , 10-O ) :   0.1003
B(  7-C , 11-H ) :   0.8148 B(  7-C , 12-H ) :   0.7472 B(  7-C , 13-H ) :   0.7343
B( 11-H , 13-H ) :   0.1052

Dispersion correction           -0.012749027
FINAL SINGLE POINT ENERGY      -766.012254339825

DIPOLE MOMENT
-------------
                                X             Y             Z
Electronic contribution:     -1.91055       1.37425     -11.80164
Nuclear contribution   :      2.27444      -1.01744      13.40618
                        -----------------------------------------
Total Dipole Moment    :      0.36389       0.35680       1.60455
                        -----------------------------------------
Magnitude (a.u.)       :      1.68353
Magnitude (Debye)      :      4.27920

Rotational constants in cm-1:     0.126966     0.054929     0.051005
Rotational constants in MHz :  3806.345018  1646.729702  1529.089209

                             ****ORCA TERMINATED NORMALLY****
TOTAL RUN TIME: 0 days 0 hours 0 minutes 5 seconds 591 msec
