                         Program Version 5.0.0 -  RELEASE  -
|  1> !PBE D3BJ RIJCOSX def2-SVPD def2/J TightSCF
|  2> *xyz 0 1
|  3> C          5.55821       -1.99291       -6.21505
|  4> C          4.18188       -2.58967       -6.29891
|  5> C          3.14587       -1.76843       -6.48675
|  6> N          4.01910       -3.86431       -6.22743
|  7> H          4.76849       -4.59115       -5.99077
|  8> H          3.12241       -4.33339       -6.31462
|  9> H          3.28164       -0.77779       -6.56655
| 10> H          2.21255       -2.13419       -6.56225
| 11> C          6.41926       -2.54294       -5.07763
| 12> C          5.89651       -2.16931       -3.69455
| 13> H          7.42888       -2.14367       -5.20808
| 14> H          6.50589       -3.62754       -5.17550
| 15> H          6.03683       -2.19819       -7.17685
| 16> H          5.46761       -0.90737       -6.12797
| 17> H          5.81870       -1.10488       -3.61824
| 18> H          6.57185       -2.53200       -2.94804
| 19> H          4.93221       -2.60892       -3.54698
| 20> *
| 21>
| 22> %MaxCore 64000
| 23>
| 24> %pal nprocs 8
| 25> end
| 26>
| 27> %scf
| 28>   MaxIter 150
| 29> end
| 30>
| 31>
| 32>                          ****END OF INPUT****

CARTESIAN COORDINATES (ANGSTROEM)
---------------------------------
  C      5.558210   -1.992910   -6.215050
  C      4.181880   -2.589670   -6.298910
  C      3.145870   -1.768430   -6.486750
  N      4.019100   -3.864310   -6.227430
  H      4.768490   -4.591150   -5.990770
  H      3.122410   -4.333390   -6.314620
  H      3.281640   -0.777790   -6.566550
  H      2.212550   -2.134190   -6.562250
  C      6.419260   -2.542940   -5.077630
  C      5.896510   -2.169310   -3.694550
  H      7.428880   -2.143670   -5.208080
  H      6.505890   -3.627540   -5.175500
  H      6.036830   -2.198190   -7.176850
  H      5.467610   -0.907370   -6.127970
  H      5.818700   -1.104880   -3.618240
  H      6.571850   -2.532000   -2.948040
  H      4.932210   -2.608920   -3.546980

 Total Charge           Charge          ....    0
 Multiplicity           Mult            ....    1
 Number of Electrons    NEL             ....   48
 Basis Dimension        Dim             ....  208

ORBITAL ENERGIES
----------------

  NO   OCC          E(Eh)            E(eV)
   0   2.0000     -14.010829      -381.2540
   1   2.0000      -9.914015      -269.7741
   2   2.0000      -9.895525      -269.2709
   3   2.0000      -9.892826      -269.1975
   4   2.0000      -9.876481      -268.7527
   5   2.0000      -9.825817      -267.3741
   6   2.0000      -0.847507       -23.0618
   7   2.0000      -0.715177       -19.4610
   8   2.0000      -0.658178       -17.9099
   9   2.0000      -0.608089       -16.5470
  10   2.0000      -0.538764       -14.6605
  11   2.0000      -0.520181       -14.1548
  12   2.0000      -0.468069       -12.7368
  13   2.0000      -0.415981       -11.3194
  14   2.0000      -0.406153       -11.0520
  15   2.0000      -0.398488       -10.8434
  16   2.0000      -0.349682        -9.5153
  17   2.0000      -0.344563        -9.3760
  18   2.0000      -0.330021        -8.9803
  19   2.0000      -0.324142        -8.8204
  20   2.0000      -0.296366        -8.0645
  21   2.0000      -0.285346        -7.7647
  22   2.0000      -0.281081        -7.6486
  23   2.0000      -0.156267        -4.2522
  24   0.0000      -0.009099        -0.2476
  25   0.0000       0.011039         0.3004
  26   0.0000       0.024859         0.6765
  27   0.0000       0.029300         0.7973
  28   0.0000       0.045224         1.2306

MULLIKEN ATOMIC CHARGES
-----------------------
   0 C :    0.265662
   1 C :   -0.082096
   2 C :    0.580057
   3 N :    0.140575
   4 H :   -0.066622
   5 H :   -0.254191
   6 H :   -0.191334
   7 H :   -0.479576
   8 C :   -0.355379
   9 C :    0.743497
  10 H :   -0.130916
  11 H :   -0.108168
  12 H :   -0.133041
  13 H :    0.205125
  14 H :    0.009842
  15 H :   -0.080318
  16 H :   -0.063117
Sum of atomic charges:   -0.0000000

LOEWDIN ATOMIC CHARGES
----------------------
   0 C :    0.002339
   1 C :   -0.276561
   2 C :    0.183600
   3 N :    0.164067
   4 H :    0.037928
   5 H :    0.008271
   6 H :   -0.093201
   7 H :   -0.092367
   8 C :   -0.083005
   9 C :    0.127142
  10 H :    0.020263
  11 H :    0.001344
  12 H :    0.027562
  13 H :    0.027677
  14 H :   -0.014345
  15 H :   -0.020409
  16 H :   -0.020306

  Mayer bond orders larger than 0.100000
B(  0-C ,  1-C ) :   1.0976 B(  0-C ,  2-C ) :   0.1488 B(  0-C ,  3-N ) :   0.1024
B(  0-C ,  6-H ) :  -0.1165 B(  0-C ,  8-C ) :   1.2272 B(  0-C , 10-H ) :   0.1703
B(  0-C , 11-H ) :   0.1703 B(  0-C , 12-H ) :   0.8038 B(  0-C , 13-H ) :   0.7524
B(  1-C ,  2-C ) :   1.4954 B(  1-C ,  3-N ) :   1.2482 B(  1-C ,  5-H ) :  -0.1386
B(  1-C ,  7-H ) :   0.2776 B(  1-C , 12-H ) :   0.2638 B(  2-C ,  3-N ) :   0.3171
B(  2-C ,  6-H ) :   1.0500 B(  2-C ,  7-H ) :   0.5690 B(  3-N ,  4-H ) :   1.1791
B(  3-N ,  5-H ) :   1.2852 B(  4-H ,  5-H ) :  -0.1765 B(  8-C ,  9-C ) :   1.3525
B(  8-C , 10-H ) :   0.9186 B(  8-C , 11-H ) :   0.8858 B(  8-C , 13-H ) :   0.1754
B(  8-C , 14-H ) :   0.2436 B(  8-C , 15-H ) :   0.2277 B(  8-C , 16-H ) :   0.2371
B(  9-C , 14-H ) :   0.7548 B(  9-C , 15-H ) :   0.7440 B(  9-C , 16-H ) :   0.8177

Dispersion correction           -0.013957755
FINAL SINGLE POINT ENERGY      -251.366652773942

DIPOLE MOMENT
-------------
                                X             Y             Z
Electronic contribution:     -1.95238      -1.41327      -2.52726
Nuclear contribution   :      2.30279       0.65856       2.66048
                        -----------------------------------------
Total Dipole Moment    :      0.35042      -0.75471       0.13321
                        -----------------------------------------
Magnitude (a.u.)       :      0.84269
Magnitude (Debye)      :      2.14195

Rotational constants in cm-1:     0.189707     0.076319     0.071159
Rotational constants in MHz :  5687.269526  2287.988194  2133.283230

                             ****ORCA TERMINATED NORMALLY****
TOTAL RUN TIME: 0 days 0 hours 0 minutes 5 seconds 937 msec
