                         Program Version 5.0.0 -  RELEASE  -
|  1> !PBE D3BJ RIJCOSX def2-SVPD def2/J TightSCF
|  2> *xyz 0 1
|  3> C          4.93020       -7.37532       -2.64962
|  4> C          3.84189       -6.95161       -3.63283
|  5> H          3.45814       -5.95442       -3.40712
|  6> H          2.98848       -7.64361       -3.56708
|  7> S          4.31812       -6.91593       -5.36869
|  8> O          5.40615       -5.89948       -5.51297
|  9> F          3.11191       -6.44508       -6.04379
| 10> C          6.17399       -6.48552       -2.60631
| 11> H          4.46961       -7.40617       -1.65588
| 12> H          5.23013       -8.39868       -2.88591
| 13> O          4.76340       -8.23942       -5.69863
| 14> H          6.62449       -6.45478       -3.57637
| 15> H          6.87304       -6.88376       -1.90088
| 16> H          5.89434       -5.49571       -2.31140
| 17> *
| 18>
| 19> %MaxCore 64000
| 20>
| 21> %pal nprocs 8
| 22> end
| 23>
| 24> %scf
| 25>   MaxIter 150
| 26> end
| 27>
| 28>
| 29>                          ****END OF INPUT****

CARTESIAN COORDINATES (ANGSTROEM)
---------------------------------
  C      4.930200   -7.375320   -2.649620
  C      3.841890   -6.951610   -3.632830
  H      3.458140   -5.954420   -3.407120
  H      2.988480   -7.643610   -3.567080
  S      4.318120   -6.915930   -5.368690
  O      5.406150   -5.899480   -5.512970
  F      3.111910   -6.445080   -6.043790
  C      6.173990   -6.485520   -2.606310
  H      4.469610   -7.406170   -1.655880
  H      5.230130   -8.398680   -2.885910
  O      4.763400   -8.239420   -5.698630
  H      6.624490   -6.454780   -3.576370
  H      6.873040   -6.883760   -1.900880
  H      5.894340   -5.495710   -2.311400

 Total Charge           Charge          ....    0
 Multiplicity           Mult            ....    1
 Number of Electrons    NEL             ....   66
 Basis Dimension        Dim             ....  212

ORBITAL ENERGIES
----------------

  NO   OCC          E(Eh)            E(eV)
   0   2.0000     -88.308825     -2403.0053
   1   2.0000     -24.379485      -663.3995
   2   2.0000     -18.781587      -511.0730
   3   2.0000     -18.765477      -510.6346
   4   2.0000      -9.958827      -270.9935
   5   2.0000      -9.926942      -270.1258
   6   2.0000      -9.887750      -269.0593
   7   2.0000      -7.913831      -215.3463
   8   2.0000      -5.944966      -161.7707
   9   2.0000      -5.938753      -161.6017
  10   2.0000      -5.937123      -161.5573
  11   2.0000      -1.256157       -34.1818
  12   2.0000      -1.020687       -27.7743
  13   2.0000      -0.916356       -24.9353
  14   2.0000      -0.755078       -20.5467
  15   2.0000      -0.684521       -18.6268
  16   2.0000      -0.635311       -17.2877
  17   2.0000      -0.571814       -15.5599
  18   2.0000      -0.513580       -13.9752
  19   2.0000      -0.512307       -13.9406
  20   2.0000      -0.497736       -13.5441
  21   2.0000      -0.443335       -12.0638
  22   2.0000      -0.435786       -11.8583
  23   2.0000      -0.405104       -11.0234
  24   2.0000      -0.398132       -10.8337
  25   2.0000      -0.385440       -10.4884
  26   2.0000      -0.343930        -9.3588
  27   2.0000      -0.333856        -9.0847
  28   2.0000      -0.330977        -9.0063
  29   2.0000      -0.318073        -8.6552
  30   2.0000      -0.294919        -8.0251
  31   2.0000      -0.274638        -7.4733
  32   2.0000      -0.261239        -7.1087
  33   0.0000      -0.025083        -0.6826
  34   0.0000      -0.011358        -0.3091
  35   0.0000       0.016648         0.4530
  36   0.0000       0.019835         0.5397
  37   0.0000       0.024942         0.6787

MULLIKEN ATOMIC CHARGES
-----------------------
   0 C :   -0.294574
   1 C :   -0.052054
   2 H :    0.050755
   3 H :    0.063579
   4 S :    1.396141
   5 O :   -0.672242
   6 F :   -0.397115
   7 C :    0.843680
   8 H :   -0.092627
   9 H :   -0.018779
  10 O :   -0.600717
  11 H :   -0.129068
  12 H :   -0.078690
  13 H :   -0.018288
Sum of atomic charges:   -0.0000000

LOEWDIN ATOMIC CHARGES
----------------------
   0 C :   -0.068711
   1 C :   -0.072895
   2 H :    0.023387
   3 H :    0.027986
   4 S :    1.078245
   5 O :   -0.455971
   6 F :   -0.251413
   7 C :    0.140928
   8 H :    0.033947
   9 H :    0.031154
  10 O :   -0.433801
  11 H :   -0.033931
  12 H :   -0.011804
  13 H :   -0.007120

  Mayer bond orders larger than 0.100000
B(  0-C ,  1-C ) :   1.3374 B(  0-C ,  2-H ) :   0.1453 B(  0-C ,  3-H ) :   0.1492
B(  0-C ,  7-C ) :   1.3217 B(  0-C ,  8-H ) :   0.8503 B(  0-C ,  9-H ) :   0.8897
B(  0-C , 11-H ) :   0.2358 B(  0-C , 12-H ) :   0.2133 B(  0-C , 13-H ) :   0.2334
B(  1-C ,  2-H ) :   0.9068 B(  1-C ,  3-H ) :   0.8501 B(  1-C ,  4-S ) :   0.9446
B(  1-C ,  8-H ) :   0.1597 B(  1-C ,  9-H ) :   0.1450 B(  4-S ,  5-O ) :   1.4600
B(  4-S ,  6-F ) :   0.6961 B(  4-S , 10-O ) :   1.5208 B(  7-C , 11-H ) :   0.8130
B(  7-C , 12-H ) :   0.7350 B(  7-C , 13-H ) :   0.7218 B( 11-H , 13-H ) :   0.1149

Dispersion correction           -0.012853705
FINAL SINGLE POINT ENERGY      -766.001165652905

DIPOLE MOMENT
-------------
                                X             Y             Z
Electronic contribution:     -5.79296       0.46538     -12.77088
Nuclear contribution   :      4.74176      -0.43068      13.97705
                        -----------------------------------------
Total Dipole Moment    :     -1.05120       0.03469       1.20617
                        -----------------------------------------
Magnitude (a.u.)       :      1.60033
Magnitude (Debye)      :      4.06772

Rotational constants in cm-1:     0.131248     0.052952     0.050354
Rotational constants in MHz :  3934.713341  1587.473971  1509.583923

                             ****ORCA TERMINATED NORMALLY****
TOTAL RUN TIME: 0 days 0 hours 0 minutes 5 seconds 824 msec
