                         Program Version 5.0.0 -  RELEASE  -
|  1> !PBE D3BJ RIJCOSX def2-SVPD def2/J TightSCF
|  2> *xyz 0 1
|  3> C          5.55821       -1.99291       -6.21505
|  4> C          4.18188       -2.58967       -6.29891
|  5> N          3.14587       -1.76843       -6.48675
|  6> C          4.01910       -3.86431       -6.22743
|  7> H          4.76849       -4.59115       -5.99077
|  8> H          3.12241       -4.33339       -6.31462
|  9> H          3.28164       -0.77779       -6.56655
| 10> H          2.21255       -2.13419       -6.56225
| 11> C          6.41926       -2.54294       -5.07763
| 12> C          5.89651       -2.16931       -3.69455
| 13> H          7.42888       -2.14367       -5.20808
| 14> H          6.50589       -3.62754       -5.17550
| 15> H          6.03683       -2.19819       -7.17685
| 16> H          5.46761       -0.90737       -6.12797
| 17> H          5.81870       -1.10488       -3.61824
| 18> H          6.57185       -2.53200       -2.94804
| 19> H          4.93221       -2.60892       -3.54698
| 20> *
| 21>
| 22> %MaxCore 64000
| 23>
| 24> %pal nprocs 8
| 25> end
| 26>
| 27> %scf
| 28>   MaxIter 150
| 29> end
| 30>
| 31>
| 32>                          ****END OF INPUT****

CARTESIAN COORDINATES (ANGSTROEM)
---------------------------------
  C      5.558210   -1.992910   -6.215050
  C      4.181880   -2.589670   -6.298910
  N      3.145870   -1.768430   -6.486750
  C      4.019100   -3.864310   -6.227430
  H      4.768490   -4.591150   -5.990770
  H      3.122410   -4.333390   -6.314620
  H      3.281640   -0.777790   -6.566550
  H      2.212550   -2.134190   -6.562250
  C      6.419260   -2.542940   -5.077630
  C      5.896510   -2.169310   -3.694550
  H      7.428880   -2.143670   -5.208080
  H      6.505890   -3.627540   -5.175500
  H      6.036830   -2.198190   -7.176850
  H      5.467610   -0.907370   -6.127970
  H      5.818700   -1.104880   -3.618240
  H      6.571850   -2.532000   -2.948040
  H      4.932210   -2.608920   -3.546980

 Total Charge           Charge          ....    0
 Multiplicity           Mult            ....    1
 Number of Electrons    NEL             ....   48
 Basis Dimension        Dim             ....  208

ORBITAL ENERGIES
----------------

  NO   OCC          E(Eh)            E(eV)
   0   2.0000     -14.000793      -380.9809
   1   2.0000      -9.912267      -269.7265
   2   2.0000      -9.894283      -269.2371
   3   2.0000      -9.889903      -269.1180
   4   2.0000      -9.872632      -268.6480
   5   2.0000      -9.832364      -267.5522
   6   2.0000      -0.838133       -22.8068
   7   2.0000      -0.716127       -19.4868
   8   2.0000      -0.655864       -17.8470
   9   2.0000      -0.611621       -16.6431
  10   2.0000      -0.542992       -14.7756
  11   2.0000      -0.496143       -13.5007
  12   2.0000      -0.470653       -12.8071
  13   2.0000      -0.438628       -11.9357
  14   2.0000      -0.404086       -10.9957
  15   2.0000      -0.388400       -10.5689
  16   2.0000      -0.355633        -9.6773
  17   2.0000      -0.344413        -9.3720
  18   2.0000      -0.322484        -8.7752
  19   2.0000      -0.307950        -8.3797
  20   2.0000      -0.292600        -7.9621
  21   2.0000      -0.285343        -7.7646
  22   2.0000      -0.279847        -7.6150
  23   2.0000      -0.162696        -4.4272
  24   0.0000       0.001240         0.0337
  25   0.0000       0.010620         0.2890
  26   0.0000       0.023711         0.6452
  27   0.0000       0.033985         0.9248
  28   0.0000       0.048094         1.3087

MULLIKEN ATOMIC CHARGES
-----------------------
   0 C :    0.374370
   1 C :    0.320854
   2 N :    0.180637
   3 C :    0.135059
   4 H :    0.084254
   5 H :   -0.600463
   6 H :   -0.183819
   7 H :   -0.209292
   8 C :   -0.382012
   9 C :    0.738927
  10 H :   -0.129028
  11 H :   -0.054267
  12 H :   -0.121722
  13 H :   -0.020119
  14 H :    0.016399
  15 H :   -0.116852
  16 H :   -0.032927
Sum of atomic charges:    0.0000000

LOEWDIN ATOMIC CHARGES
----------------------
   0 C :   -0.000341
   1 C :   -0.262829
   2 N :    0.192456
   3 C :    0.154499
   4 H :   -0.044889
   5 H :   -0.085080
   6 H :   -0.017004
   7 H :   -0.001495
   8 C :   -0.075561
   9 C :    0.126424
  10 H :    0.019760
  11 H :    0.009218
  12 H :    0.030059
  13 H :    0.014522
  14 H :   -0.019058
  15 H :   -0.020172
  16 H :   -0.020511

  Mayer bond orders larger than 0.100000
B(  0-C ,  1-C ) :   0.9130 B(  0-C ,  2-N ) :   0.1212 B(  0-C ,  8-C ) :   1.2482
B(  0-C , 10-H ) :   0.1386 B(  0-C , 11-H ) :   0.1706 B(  0-C , 12-H ) :   0.8622
B(  0-C , 13-H ) :   0.6941 B(  1-C ,  2-N ) :   0.9906 B(  1-C ,  3-C ) :   1.4676
B(  1-C ,  5-H ) :   0.1276 B(  1-C ,  7-H ) :  -0.1562 B(  1-C , 11-H ) :  -0.1018
B(  1-C , 12-H ) :   0.1456 B(  1-C , 13-H ) :   0.1414 B(  2-N ,  3-C ) :   0.3620
B(  2-N ,  6-H ) :   1.1481 B(  2-N ,  7-H ) :   1.3105 B(  3-C ,  4-H ) :   0.7832
B(  3-C ,  5-H ) :   0.8109 B(  4-H ,  5-H ) :  -0.1322 B(  6-H ,  7-H ) :  -0.1671
B(  8-C ,  9-C ) :   1.3676 B(  8-C , 10-H ) :   0.9218 B(  8-C , 11-H ) :   0.8666
B(  8-C , 12-H ) :   0.1338 B(  8-C , 13-H ) :   0.1741 B(  8-C , 14-H ) :   0.2445
B(  8-C , 15-H ) :   0.2338 B(  8-C , 16-H ) :   0.2359 B(  9-C , 11-H ) :   0.1003
B(  9-C , 14-H ) :   0.7621 B(  9-C , 15-H ) :   0.7611 B(  9-C , 16-H ) :   0.8165

Dispersion correction           -0.014000616
FINAL SINGLE POINT ENERGY      -251.375499907210

DIPOLE MOMENT
-------------
                                X             Y             Z
Electronic contribution:     -2.71959       0.43473      -2.79645
Nuclear contribution   :      2.50934       0.16282       2.72182
                        -----------------------------------------
Total Dipole Moment    :     -0.21025       0.59755      -0.07464
                        -----------------------------------------
Magnitude (a.u.)       :      0.63784
Magnitude (Debye)      :      1.62126

Rotational constants in cm-1:     0.192764     0.074934     0.070466
Rotational constants in MHz :  5778.908020  2246.454937  2112.518546

                             ****ORCA TERMINATED NORMALLY****
TOTAL RUN TIME: 0 days 0 hours 0 minutes 5 seconds 906 msec
