                         Program Version 5.0.0 -  RELEASE  -
|  1> !PBE D3BJ RIJCOSX def2-SVPD def2/J TightSCF
|  2> *xyz 0 1
|  3> C          4.93020       -7.37532       -2.64962
|  4> C          3.84189       -6.95161       -3.63283
|  5> H          3.45814       -5.95442       -3.40712
|  6> H          2.98848       -7.64361       -3.56708
|  7> S          4.31812       -6.91593       -5.36869
|  8> O          5.40615       -5.89948       -5.51297
|  9> O          3.11191       -6.44508       -6.04379
| 10> C          6.17399       -6.48552       -2.60631
| 11> H          4.46961       -7.40617       -1.65588
| 12> H          5.23013       -8.39868       -2.88591
| 13> F          4.76340       -8.23942       -5.69863
| 14> H          6.62449       -6.45478       -3.57637
| 15> H          6.87304       -6.88376       -1.90088
| 16> H          5.89434       -5.49571       -2.31140
| 17> *
| 18>
| 19> %MaxCore 64000
| 20>
| 21> %pal nprocs 8
| 22> end
| 23>
| 24> %scf
| 25>   MaxIter 150
| 26> end
| 27>
| 28>
| 29>                          ****END OF INPUT****

CARTESIAN COORDINATES (ANGSTROEM)
---------------------------------
  C      4.930200   -7.375320   -2.649620
  C      3.841890   -6.951610   -3.632830
  H      3.458140   -5.954420   -3.407120
  H      2.988480   -7.643610   -3.567080
  S      4.318120   -6.915930   -5.368690
  O      5.406150   -5.899480   -5.512970
  O      3.111910   -6.445080   -6.043790
  C      6.173990   -6.485520   -2.606310
  H      4.469610   -7.406170   -1.655880
  H      5.230130   -8.398680   -2.885910
  F      4.763400   -8.239420   -5.698630
  H      6.624490   -6.454780   -3.576370
  H      6.873040   -6.883760   -1.900880
  H      5.894340   -5.495710   -2.311400

 Total Charge           Charge          ....    0
 Multiplicity           Mult            ....    1
 Number of Electrons    NEL             ....   66
 Basis Dimension        Dim             ....  212

ORBITAL ENERGIES
----------------

  NO   OCC          E(Eh)            E(eV)
   0   2.0000     -88.310664     -2403.0553
   1   2.0000     -24.393234      -663.7736
   2   2.0000     -18.772757      -510.8327
   3   2.0000     -18.766181      -510.6538
   4   2.0000      -9.959139      -271.0019
   5   2.0000      -9.928839      -270.1775
   6   2.0000      -9.891309      -269.1562
   7   2.0000      -7.915559      -215.3933
   8   2.0000      -5.947031      -161.8269
   9   2.0000      -5.940209      -161.6413
  10   2.0000      -5.938691      -161.6000
  11   2.0000      -1.278549       -34.7911
  12   2.0000      -1.009901       -27.4808
  13   2.0000      -0.908982       -24.7347
  14   2.0000      -0.758034       -20.6272
  15   2.0000      -0.685246       -18.6465
  16   2.0000      -0.646646       -17.5961
  17   2.0000      -0.575603       -15.6630
  18   2.0000      -0.534985       -14.5577
  19   2.0000      -0.527340       -14.3497
  20   2.0000      -0.490907       -13.3583
  21   2.0000      -0.442773       -12.0485
  22   2.0000      -0.437069       -11.8933
  23   2.0000      -0.409755       -11.1500
  24   2.0000      -0.392556       -10.6820
  25   2.0000      -0.387537       -10.5454
  26   2.0000      -0.340057        -9.2534
  27   2.0000      -0.338510        -9.2113
  28   2.0000      -0.335283        -9.1235
  29   2.0000      -0.318619        -8.6701
  30   2.0000      -0.283604        -7.7173
  31   2.0000      -0.276208        -7.5160
  32   2.0000      -0.254323        -6.9205
  33   0.0000      -0.033388        -0.9085
  34   0.0000      -0.002375        -0.0646
  35   0.0000       0.010773         0.2932
  36   0.0000       0.017827         0.4851
  37   0.0000       0.019546         0.5319

MULLIKEN ATOMIC CHARGES
-----------------------
   0 C :   -0.264508
   1 C :   -0.028144
   2 H :    0.039393
   3 H :    0.049721
   4 S :    1.356384
   5 O :   -0.658584
   6 O :   -0.628171
   7 C :    0.857274
   8 H :   -0.098160
   9 H :   -0.040108
  10 F :   -0.356022
  11 H :   -0.134112
  12 H :   -0.077501
  13 H :   -0.017463
Sum of atomic charges:   -0.0000000

LOEWDIN ATOMIC CHARGES
----------------------
   0 C :   -0.084387
   1 C :   -0.061444
   2 H :    0.037625
   3 H :    0.028988
   4 S :    1.078166
   5 O :   -0.451029
   6 O :   -0.447427
   7 C :    0.137490
   8 H :    0.031073
   9 H :    0.023961
  10 F :   -0.235939
  11 H :   -0.039441
  12 H :   -0.012651
  13 H :   -0.004984

  Mayer bond orders larger than 0.100000
B(  0-C ,  1-C ) :   1.2838 B(  0-C ,  2-H ) :   0.1447 B(  0-C ,  3-H ) :   0.1373
B(  0-C ,  7-C ) :   1.3301 B(  0-C ,  8-H ) :   0.8502 B(  0-C ,  9-H ) :   0.8848
B(  0-C , 11-H ) :   0.2447 B(  0-C , 12-H ) :   0.2123 B(  0-C , 13-H ) :   0.2371
B(  1-C ,  2-H ) :   0.9168 B(  1-C ,  3-H ) :   0.8795 B(  1-C ,  4-S ) :   0.9720
B(  1-C ,  8-H ) :   0.1565 B(  1-C ,  9-H ) :   0.1394 B(  4-S ,  5-O ) :   1.4930
B(  4-S ,  6-O ) :   1.5724 B(  4-S , 10-F ) :   0.6987 B(  7-C , 11-H ) :   0.8036
B(  7-C , 12-H ) :   0.7392 B(  7-C , 13-H ) :   0.7239 B( 11-H , 13-H ) :   0.1175

Dispersion correction           -0.012787660
FINAL SINGLE POINT ENERGY      -765.989138661154

DIPOLE MOMENT
-------------
                                X             Y             Z
Electronic contribution:     -3.00603      -2.53381     -12.17620
Nuclear contribution   :      2.96568       1.49902      13.60585
                        -----------------------------------------
Total Dipole Moment    :     -0.04036      -1.03479       1.42965
                        -----------------------------------------
Magnitude (a.u.)       :      1.76531
Magnitude (Debye)      :      4.48706

Rotational constants in cm-1:     0.127173     0.053596     0.051689
Rotational constants in MHz :  3812.547794  1606.772866  1549.597841

                             ****ORCA TERMINATED NORMALLY****
TOTAL RUN TIME: 0 days 0 hours 0 minutes 5 seconds 590 msec
