                         Program Version 5.0.0 -  RELEASE  -
|  1> !PBE D3BJ RIJCOSX def2-SVPD def2/J TightSCF xyzfile
|  2>
|  3> *xyzfile 0 1 D6.xyz
|  4>
|  5> %MaxCore 64000
|  6>
|  7> %pal nprocs 4
|  8> end
|  9>
| 10> %scf
| 11>   MaxIter 150
| 12> end
| 13>
| 14>
| 15>                          ****END OF INPUT****

CARTESIAN COORDINATES (ANGSTROEM)
---------------------------------
  C      5.558206   -1.992914   -6.215054
  C      4.930199   -7.375319   -2.649623
  C      3.841892   -6.951611   -3.632829
  H      3.458144   -5.954425   -3.407121
  H      2.988484   -7.643606   -3.567078
  S      4.318115   -6.915930   -5.368692
  C      4.181880   -2.589671   -6.298911
  N      3.145873   -1.768431   -6.486753
  C      4.019102   -3.864307   -6.227427
  H      4.768490   -4.591153   -5.990773
  H      3.122405   -4.333392   -6.314620
  H      3.281635   -0.777786   -6.566549
  H      2.212549   -2.134193   -6.562246
  O      5.406154   -5.899480   -5.512972
  O      3.111910   -6.445079   -6.043792
  C      6.419260   -2.542944   -5.077630
  C      5.872267   -5.002756   -2.427819
  C      6.173994   -6.485522   -2.606315
  H      6.734852   -6.613767   -3.534015
  H      6.821463   -6.831018   -1.793617
  H      4.469612   -7.406168   -1.655876
  H      5.230134   -8.398678   -2.885906
  C      5.896512   -2.169314   -3.694552
  H      7.428880   -2.143665   -5.208078
  H      6.505894   -3.627541   -5.175502
  C      6.807804   -2.623428   -2.551019
  H      4.894708   -2.589732   -3.557501
  H      5.778823   -1.081255   -3.635790
  C      7.111544   -4.122463   -2.520363
  H      7.751615   -2.071393   -2.614406
  H      6.345837   -2.326401   -1.604086
  H      5.362882   -4.828697   -1.471335
  H      5.174429   -4.702577   -3.211298
  H      7.778329   -4.329347   -1.677651
  H      7.673189   -4.402845   -3.417586
  F      4.763396   -8.239424   -5.698629
  H      6.036826   -2.198189   -7.176852
  H      5.467610   -0.907371   -6.127968

 Total Charge           Charge          ....    0
 Multiplicity           Mult            ....    1
 Number of Electrons    NEL             ....  136
 Basis Dimension        Dim             ....  512

ORBITAL ENERGIES
----------------

  NO   OCC          E(Eh)            E(eV)
   0   2.0000     -88.315493     -2403.1867
   1   2.0000     -24.394262      -663.8016
   2   2.0000     -18.774842      -510.8894
   3   2.0000     -18.771825      -510.8073
   4   2.0000     -13.979413      -380.3992
   5   2.0000      -9.957189      -270.9489
   6   2.0000      -9.925056      -270.0745
   7   2.0000      -9.898720      -269.3579
   8   2.0000      -9.888572      -269.0817
   9   2.0000      -9.884638      -268.9747
  10   2.0000      -9.884516      -268.9714
  11   2.0000      -9.881999      -268.9029
  12   2.0000      -9.876957      -268.7657
  13   2.0000      -9.875496      -268.7259
  14   2.0000      -9.874910      -268.7100
  15   2.0000      -9.787481      -266.3309
  16   2.0000      -7.918851      -215.4829
  17   2.0000      -5.950312      -161.9162
  18   2.0000      -5.943701      -161.7363
  19   2.0000      -5.942096      -161.6927
  20   2.0000      -1.278823       -34.7985
  21   2.0000      -1.016094       -27.6493
  22   2.0000      -0.917203       -24.9584
  23   2.0000      -0.815707       -22.1965
  24   2.0000      -0.762253       -20.7420
  25   2.0000      -0.727614       -19.7994
  26   2.0000      -0.701930       -19.1005
  27   2.0000      -0.680875       -18.5275
  28   2.0000      -0.655602       -17.8398
  29   2.0000      -0.632642       -17.2151
  30   2.0000      -0.608661       -16.5625
  31   2.0000      -0.581051       -15.8112
  32   2.0000      -0.554252       -15.0820
  33   2.0000      -0.540295       -14.7022
  34   2.0000      -0.532070       -14.4784
  35   2.0000      -0.519812       -14.1448
  36   2.0000      -0.499121       -13.5818
  37   2.0000      -0.489946       -13.3321
  38   2.0000      -0.473745       -12.8913
  39   2.0000      -0.454116       -12.3571
  40   2.0000      -0.446076       -12.1383
  41   2.0000      -0.439132       -11.9494
  42   2.0000      -0.423421       -11.5219
  43   2.0000      -0.417836       -11.3699
  44   2.0000      -0.411442       -11.1959
  45   2.0000      -0.401213       -10.9176
  46   2.0000      -0.396659       -10.7936
  47   2.0000      -0.376094       -10.2340
  48   2.0000      -0.370901       -10.0927
  49   2.0000      -0.365877        -9.9560
  50   2.0000      -0.364070        -9.9068
  51   2.0000      -0.348915        -9.4945
  52   2.0000      -0.329985        -8.9793
  53   2.0000      -0.323944        -8.8150
  54   2.0000      -0.314905        -8.5690
  55   2.0000      -0.305417        -8.3108
  56   2.0000      -0.302715        -8.2373
  57   2.0000      -0.298875        -8.1328
  58   2.0000      -0.289512        -7.8780
  59   2.0000      -0.283584        -7.7167
  60   2.0000      -0.278188        -7.5699
  61   2.0000      -0.276911        -7.5351
  62   2.0000      -0.275249        -7.4899
  63   2.0000      -0.267305        -7.2737
  64   2.0000      -0.261059        -7.1038
  65   2.0000      -0.255114        -6.9420
  66   2.0000      -0.226785        -6.1711
  67   2.0000      -0.136718        -3.7203
  68   0.0000      -0.031076        -0.8456
  69   0.0000      -0.003698        -0.1006
  70   0.0000       0.005560         0.1513
  71   0.0000       0.009667         0.2630
  72   0.0000       0.012601         0.3429

MULLIKEN ATOMIC CHARGES
-----------------------
   0 C :    0.829161
   1 C :    0.509791
   2 C :   -0.058032
   3 H :    0.271698
   4 H :   -0.224673
   5 S :    1.482150
   6 C :    0.175873
   7 N :    0.170239
   8 C :    1.070960
   9 H :   -0.042972
  10 H :   -1.143366
  11 H :   -0.178940
  12 H :   -0.224354
  13 O :   -0.851458
  14 O :   -0.686610
  15 C :    0.272338
  16 C :   -0.079882
  17 C :    0.248506
  18 H :    0.110144
  19 H :   -0.345863
  20 H :    0.055200
  21 H :   -0.013509
  22 C :   -0.129045
  23 H :   -0.120927
  24 H :   -0.534244
  25 C :    0.633712
  26 H :    0.217141
  27 H :   -0.349102
  28 C :    0.078188
  29 H :    0.030407
  30 H :   -0.047923
  31 H :    0.019738
  32 H :   -0.279195
  33 H :   -0.330853
  34 H :    0.118029
  35 F :   -0.523918
  36 H :   -0.151147
  37 H :    0.022740
Sum of atomic charges:    0.0000000

LOEWDIN ATOMIC CHARGES
----------------------
   0 C :    0.011529
   1 C :   -0.035943
   2 C :   -0.044882
   3 H :    0.030178
   4 H :    0.029556
   5 S :    1.130718
   6 C :   -0.245285
   7 N :    0.186433
   8 C :    0.182714
   9 H :   -0.157080
  10 H :   -0.097056
  11 H :   -0.024346
  12 H :   -0.004836
  13 O :   -0.437851
  14 O :   -0.427885
  15 C :   -0.021187
  16 C :   -0.033140
  17 C :   -0.033579
  18 H :    0.011835
  19 H :    0.029958
  20 H :    0.035916
  21 H :    0.025215
  22 C :   -0.033922
  23 H :    0.027687
  24 H :   -0.001834
  25 C :   -0.035155
  26 H :    0.014719
  27 H :    0.022431
  28 C :   -0.033637
  29 H :    0.021491
  30 H :    0.020441
  31 H :    0.038396
  32 H :   -0.010570
  33 H :    0.023381
  34 H :    0.021392
  35 F :   -0.227687
  36 H :    0.030770
  37 H :    0.011117

  Mayer bond orders larger than 0.100000
B(  0-C ,  6-C ) :   0.9251 B(  0-C ,  8-C ) :   0.1998 B(  0-C ,  9-H ) :  -0.1231
B(  0-C , 15-C ) :   1.2369 B(  0-C , 24-H ) :   0.1405 B(  0-C , 36-H ) :   0.5306
B(  0-C , 37-H ) :   0.6652 B(  1-C ,  2-C ) :   1.2582 B(  1-C ,  4-H ) :   0.1683
B(  1-C , 17-C ) :   1.2407 B(  1-C , 20-H ) :   0.6796 B(  1-C , 21-H ) :   0.6283
B(  2-C ,  3-H ) :   0.7769 B(  2-C ,  4-H ) :   0.8398 B(  2-C ,  5-S ) :   0.9943
B(  2-C , 20-H ) :   0.1875 B(  2-C , 21-H ) :   0.1194 B(  2-C , 35-F ) :   0.1426
B(  4-H ,  5-S ) :   0.1126 B(  5-S , 13-O ) :   1.3043 B(  5-S , 14-O ) :   1.4921
B(  5-S , 35-F ) :   0.5474 B(  6-C ,  7-N ) :   0.8143 B(  6-C ,  8-C ) :   1.8007
B(  6-C ,  9-H ) :  -0.1761 B(  6-C , 10-H ) :   0.1936 B(  6-C , 12-H ) :  -0.1621
B(  6-C , 36-H ) :   0.2653 B(  7-N ,  8-C ) :   0.5632 B(  7-N ,  9-H ) :   0.1035
B(  7-N , 10-H ) :  -0.1159 B(  7-N , 11-H ) :   1.1494 B(  7-N , 12-H ) :   1.3295
B(  8-C ,  9-H ) :   0.3911 B(  8-C , 10-H ) :  -0.2633 B(  8-C , 14-O ) :  -0.2032
B(  8-C , 24-H ) :   0.1758 B(  9-H , 10-H ) :  -0.2065 B(  9-H , 15-C ) :   0.1008
B(  9-H , 24-H ) :   0.1339 B( 10-H , 14-O ) :   0.3400 B( 10-H , 24-H ) :  -0.1421
B( 11-H , 12-H ) :  -0.1619 B( 13-O , 14-O ) :   0.1579 B( 13-O , 24-H ) :   0.1676
B( 13-O , 35-F ) :   0.1100 B( 15-C , 22-C ) :   1.2290 B( 15-C , 23-H ) :   0.7299
B( 15-C , 24-H ) :   0.6730 B( 15-C , 26-H ) :   0.1441 B( 15-C , 27-H ) :   0.2020
B( 15-C , 36-H ) :   0.3375 B( 15-C , 37-H ) :   0.1722 B( 16-C , 17-C ) :   1.2197
B( 16-C , 18-H ) :   0.1383 B( 16-C , 19-H ) :   0.1709 B( 16-C , 28-C ) :   1.2448
B( 16-C , 31-H ) :   0.7447 B( 16-C , 32-H ) :   1.0263 B( 16-C , 33-H ) :   0.2232
B( 16-C , 34-H ) :   0.1567 B( 17-C , 18-H ) :   0.8119 B( 17-C , 19-H ) :   0.8410
B( 17-C , 20-H ) :   0.1137 B( 17-C , 21-H ) :   0.2610 B( 17-C , 28-C ) :   0.1535
B( 17-C , 31-H ) :   0.1106 B( 20-H , 21-H ) :  -0.1070 B( 22-C , 23-H ) :   0.1701
B( 22-C , 24-H ) :   0.2004 B( 22-C , 25-C ) :   1.0920 B( 22-C , 26-H ) :   0.7813
B( 22-C , 27-H ) :   1.0752 B( 22-C , 28-C ) :   0.1485 B( 22-C , 29-H ) :   0.1716
B( 22-C , 30-H ) :   0.2565 B( 25-C , 28-C ) :   1.1421 B( 25-C , 29-H ) :   0.6326
B( 25-C , 30-H ) :   0.6649 B( 25-C , 34-H ) :   0.1008 B( 26-H , 32-H ) :   0.1572
B( 28-C , 29-H ) :   0.2291 B( 28-C , 30-H ) :   0.1343 B( 28-C , 31-H ) :   0.1226
B( 28-C , 33-H ) :   0.9571 B( 28-C , 34-H ) :   0.7898 B( 29-H , 30-H ) :  -0.1064
B( 36-H , 37-H ) :  -0.1393

Dispersion correction           -0.046524292
FINAL SINGLE POINT ENERGY     -1133.863169960400

DIPOLE MOMENT
-------------
                                X             Y             Z
Electronic contribution:     -8.86135     -21.39796     -14.09908
Nuclear contribution   :      8.67311      20.60825      15.35056
                        -----------------------------------------
Total Dipole Moment    :     -0.18825      -0.78971       1.25148
                        -----------------------------------------
Magnitude (a.u.)       :      1.49174
Magnitude (Debye)      :      3.79170

Rotational constants in cm-1:     0.017976     0.012151     0.008188
Rotational constants in MHz :   538.898457   364.286417   245.482451

                             ****ORCA TERMINATED NORMALLY****
TOTAL RUN TIME: 0 days 0 hours 1 minutes 2 seconds 225 msec
