                         Program Version 5.0.0 -  RELEASE  -
|  1> !wB97X-D3 RIJCOSX def2-TZVP def2/J TightSCF
|  2> *xyz -1 1
|  3> C          4.12921        0.89839       -3.41895
|  4> C          5.01734        1.31521       -2.22130
|  5> O          4.73706        0.85411       -1.12283
|  6> O          5.92815        2.16811       -2.49136
|  7> H          4.48610        1.37210       -4.30953
|  8> H          3.11885        1.19903       -3.23540
|  9> H          4.16886       -0.16404       -3.53966
| 10> *
| 11> %MaxCore 64000
| 12>
| 13> %pal nprocs 18
| 14> end
| 15>
| 16> %scf
| 17>   MaxIter 150
| 18> end
| 19>
| 20>
| 21>                          ****END OF INPUT****

CARTESIAN COORDINATES (ANGSTROEM)
---------------------------------
  C      4.129210    0.898390   -3.418950
  C      5.017340    1.315210   -2.221300
  O      4.737060    0.854110   -1.122830
  O      5.928150    2.168110   -2.491360
  H      4.486100    1.372100   -4.309530
  H      3.118850    1.199030   -3.235400
  H      4.168860   -0.164040   -3.539660

 Total Charge           Charge          ....   -1
 Multiplicity           Mult            ....    1
 Number of Electrons    NEL             ....   32
 Basis Dimension        Dim             ....  142

ORBITAL ENERGIES
----------------

  NO   OCC          E(Eh)            E(eV)
   0   2.0000     -18.953514      -515.7513
   1   2.0000     -18.943191      -515.4704
   2   2.0000     -10.147825      -276.1364
   3   2.0000     -10.076614      -274.1986
   4   2.0000      -0.927922       -25.2500
   5   2.0000      -0.829239       -22.5647
   6   2.0000      -0.648076       -17.6351
   7   2.0000      -0.399616       -10.8741
   8   2.0000      -0.352129        -9.5819
   9   2.0000      -0.336911        -9.1678
  10   2.0000      -0.318331        -8.6622
  11   2.0000      -0.275533        -7.4976
  12   2.0000      -0.256743        -6.9863
  13   2.0000      -0.129388        -3.5208
  14   2.0000      -0.122835        -3.3425
  15   2.0000      -0.110988        -3.0201
  16   0.0000       0.287023         7.8103
  17   0.0000       0.333094         9.0640
  18   0.0000       0.359997         9.7960
  19   0.0000       0.386508        10.5174
  20   0.0000       0.393986        10.7209

MULLIKEN ATOMIC CHARGES
-----------------------
   0 C :   -0.317191
   1 C :    0.275771
   2 O :   -0.533692
   3 O :   -0.603868
   4 H :    0.063520
   5 H :    0.059620
   6 H :    0.055840
Sum of atomic charges:   -1.0000000

LOEWDIN ATOMIC CHARGES
----------------------
   0 C :   -0.329210
   1 C :   -0.720413
   2 O :   -0.080162
   3 O :   -0.166924
   4 H :    0.098077
   5 H :    0.100163
   6 H :    0.098470

  Mayer bond orders larger than 0.100000
B(  0-C ,  1-C ) :   0.9261 B(  0-C ,  4-H ) :   0.9767 B(  0-C ,  5-H ) :   0.9717
B(  0-C ,  6-H ) :   0.9711 B(  1-C ,  2-O ) :   1.8705 B(  1-C ,  3-O ) :   1.8094

Dispersion correction           -0.000905406
FINAL SINGLE POINT ENERGY      -228.546897144094

DIPOLE MOMENT
-------------
                                X             Y             Z
Electronic contribution:      2.06441       0.95970       2.92089
Nuclear contribution   :     -2.87913      -1.42371      -3.86600
                        -----------------------------------------
Total Dipole Moment    :     -0.81472      -0.46401      -0.94511
                        -----------------------------------------
Magnitude (a.u.)       :      1.33128
Magnitude (Debye)      :      3.38385

Rotational constants in cm-1:     0.390018     0.334370     0.186171
Rotational constants in MHz : 11692.450907 10024.149143  5581.251544

                             ****ORCA TERMINATED NORMALLY****
TOTAL RUN TIME: 0 days 0 hours 0 minutes 7 seconds 646 msec
