                         Program Version 5.0.0 -  RELEASE  -
|  1> !wB97X-D3 RIJCOSX def2-TZVP def2/J TightSCF
|  2> *xyz 1 1
|  3> C          3.34350        3.35457       -3.59200
|  4> C          4.25587        3.70385       -4.72605
|  5> N          3.73403        4.29378       -5.80077
|  6> N          5.51504        3.40725       -4.63718
|  7> H          6.14919        3.60120       -5.39905
|  8> H          5.81358        2.89950       -3.80879
|  9> H          2.74138        4.51311       -5.82470
| 10> H          4.28755        4.52126       -6.61434
| 11> H          2.34726        3.66659       -3.82664
| 12> H          3.67283        3.85124       -2.70331
| 13> H          3.35820        2.29620       -3.43538
| 14> *
| 15> %MaxCore 64000
| 16>
| 17> %pal nprocs 18
| 18> end
| 19>
| 20> %scf
| 21>   MaxIter 150
| 22> end
| 23>
| 24>
| 25>                          ****END OF INPUT****

CARTESIAN COORDINATES (ANGSTROEM)
---------------------------------
  C      3.343500    3.354570   -3.592000
  C      4.255870    3.703850   -4.726050
  N      3.734030    4.293780   -5.800770
  N      5.515040    3.407250   -4.637180
  H      6.149190    3.601200   -5.399050
  H      5.813580    2.899500   -3.808790
  H      2.741380    4.513110   -5.824700
  H      4.287550    4.521260   -6.614340
  H      2.347260    3.666590   -3.826640
  H      3.672830    3.851240   -2.703310
  H      3.358200    2.296200   -3.435380

 Total Charge           Charge          ....    1
 Multiplicity           Mult            ....    1
 Number of Electrons    NEL             ....   32
 Basis Dimension        Dim             ....  166

ORBITAL ENERGIES
----------------

  NO   OCC          E(Eh)            E(eV)
   0   2.0000     -14.674417      -399.3112
   1   2.0000     -14.670617      -399.2078
   2   2.0000     -10.609750      -288.7060
   3   2.0000     -10.472048      -284.9589
   4   2.0000      -1.328798       -36.1584
   5   2.0000      -1.231288       -33.5051
   6   2.0000      -1.071101       -29.1461
   7   2.0000      -0.950564       -25.8662
   8   2.0000      -0.886928       -24.1345
   9   2.0000      -0.874270       -23.7901
  10   2.0000      -0.806174       -21.9371
  11   2.0000      -0.765744       -20.8370
  12   2.0000      -0.713922       -19.4268
  13   2.0000      -0.700720       -19.0676
  14   2.0000      -0.674966       -18.3667
  15   2.0000      -0.592412       -16.1204
  16   0.0000      -0.127755        -3.4764
  17   0.0000      -0.078684        -2.1411
  18   0.0000      -0.031363        -0.8534
  19   0.0000      -0.027212        -0.7405
  20   0.0000      -0.004556        -0.1240

MULLIKEN ATOMIC CHARGES
-----------------------
   0 C :   -0.347982
   1 C :    0.341784
   2 N :   -0.403595
   3 N :   -0.364753
   4 H :    0.301738
   5 H :    0.321371
   6 H :    0.316471
   7 H :    0.299439
   8 H :    0.145597
   9 H :    0.195583
  10 H :    0.194347
Sum of atomic charges:    1.0000000

LOEWDIN ATOMIC CHARGES
----------------------
   0 C :   -0.201089
   1 C :   -0.303837
   2 N :    0.096569
   3 N :    0.121863
   4 H :    0.204875
   5 H :    0.218806
   6 H :    0.210478
   7 H :    0.197840
   8 H :    0.144250
   9 H :    0.155132
  10 H :    0.155113

  Mayer bond orders larger than 0.100000
B(  0-C ,  1-C ) :   0.9841 B(  0-C ,  8-H ) :   0.9702 B(  0-C ,  9-H ) :   0.9403
B(  0-C , 10-H ) :   0.9375 B(  1-C ,  2-N ) :   1.4463 B(  1-C ,  3-N ) :   1.4793
B(  2-N ,  6-H ) :   0.8790 B(  2-N ,  7-H ) :   0.8872 B(  3-N ,  4-H ) :   0.8832
B(  3-N ,  5-H ) :   0.8787

Dispersion correction           -0.001665635
FINAL SINGLE POINT ENERGY      -189.738182187689

DIPOLE MOMENT
-------------
                                X             Y             Z
Electronic contribution:      1.42073       0.50006      -1.59976
Nuclear contribution   :     -1.09951      -0.46604       1.22975
                        -----------------------------------------
Total Dipole Moment    :      0.32122       0.03402      -0.37001
                        -----------------------------------------
Magnitude (a.u.)       :      0.49117
Magnitude (Debye)      :      1.24846

Rotational constants in cm-1:     0.329035     0.303839     0.162676
Rotational constants in MHz :  9864.215808  9108.853745  4876.907929

                             ****ORCA TERMINATED NORMALLY****
TOTAL RUN TIME: 0 days 0 hours 0 minutes 7 seconds 555 msec
