                         Program Version 5.0.0 -  RELEASE  -
|  1> !wB97X-D3 RIJCOSX def2-TZVP def2/J TightSCF
|  2> *xyz 0 1
|  3> C          4.12921        0.89839       -3.41895
|  4> C          5.01734        1.31521       -2.22130
|  5> F          4.73706        0.85411       -1.12283
|  6> O          5.92815        2.16811       -2.49136
|  7> H          4.48610        1.37210       -4.30953
|  8> H          3.11885        1.19903       -3.23540
|  9> H          4.16886       -0.16404       -3.53966
| 10> *
| 11> %MaxCore 64000
| 12>
| 13> %pal nprocs 18
| 14> end
| 15>
| 16> %scf
| 17>   MaxIter 150
| 18> end
| 19>
| 20>
| 21>                          ****END OF INPUT****

CARTESIAN COORDINATES (ANGSTROEM)
---------------------------------
  C      4.129210    0.898390   -3.418950
  C      5.017340    1.315210   -2.221300
  F      4.737060    0.854110   -1.122830
  O      5.928150    2.168110   -2.491360
  H      4.486100    1.372100   -4.309530
  H      3.118850    1.199030   -3.235400
  H      4.168860   -0.164040   -3.539660

 Total Charge           Charge          ....    0
 Multiplicity           Mult            ....    1
 Number of Electrons    NEL             ....   32
 Basis Dimension        Dim             ....  142

ORBITAL ENERGIES
----------------

  NO   OCC          E(Eh)            E(eV)
   0   2.0000     -24.870033      -676.7480
   1   2.0000     -19.232123      -523.3327
   2   2.0000     -10.461840      -284.6811
   3   2.0000     -10.297752      -280.2161
   4   2.0000      -1.462397       -39.7939
   5   2.0000      -1.136070       -30.9140
   6   2.0000      -0.883795       -24.0493
   7   2.0000      -0.781786       -21.2735
   8   2.0000      -0.669245       -18.2111
   9   2.0000      -0.662184       -18.0190
  10   2.0000      -0.606386       -16.5006
  11   2.0000      -0.542820       -14.7709
  12   2.0000      -0.530737       -14.4421
  13   2.0000      -0.493532       -13.4297
  14   2.0000      -0.443131       -12.0582
  15   2.0000      -0.383489       -10.4353
  16   0.0000       0.060618         1.6495
  17   0.0000       0.117994         3.2108
  18   0.0000       0.189429         5.1546
  19   0.0000       0.191785         5.2187
  20   0.0000       0.205597         5.5946

MULLIKEN ATOMIC CHARGES
-----------------------
   0 C :   -0.352588
   1 C :    0.388680
   2 F :   -0.077939
   3 O :   -0.380974
   4 H :    0.153221
   5 H :    0.136248
   6 H :    0.133351
Sum of atomic charges:    0.0000000

LOEWDIN ATOMIC CHARGES
----------------------
   0 C :   -0.263301
   1 C :   -0.521501
   2 F :    0.372966
   3 O :    0.022110
   4 H :    0.134022
   5 H :    0.128739
   6 H :    0.126964

  Mayer bond orders larger than 0.100000
B(  0-C ,  1-C ) :   0.9994 B(  0-C ,  4-H ) :   0.9716 B(  0-C ,  5-H ) :   0.9504
B(  0-C ,  6-H ) :   0.9521 B(  1-C ,  2-F ) :   1.1854 B(  1-C ,  3-O ) :   2.0106

Dispersion correction           -0.000899171
FINAL SINGLE POINT ENERGY      -253.109224068290

DIPOLE MOMENT
-------------
                                X             Y             Z
Electronic contribution:      1.71832       0.21524       4.86550
Nuclear contribution   :     -2.65749      -0.95231      -5.09883
                        -----------------------------------------
Total Dipole Moment    :     -0.93916      -0.73707      -0.23333
                        -----------------------------------------
Magnitude (a.u.)       :      1.21645
Magnitude (Debye)      :      3.09196

Rotational constants in cm-1:     0.365278     0.322469     0.176821
Rotational constants in MHz : 10950.755781  9667.377070  5300.957073

                             ****ORCA TERMINATED NORMALLY****
TOTAL RUN TIME: 0 days 0 hours 0 minutes 8 seconds 288 msec
