                         Program Version 5.0.0 -  RELEASE  -
|  1> !wB97X-D3 RIJCOSX def2-TZVP def2/J TightSCF
|  2> *xyz 0 1
|  3> C          3.34350        3.35457       -3.59200
|  4> C          4.25587        3.70385       -4.72605
|  5> C          3.73403        4.29378       -5.80077
|  6> N          5.51504        3.40725       -4.63718
|  7> H          6.14919        3.60120       -5.39905
|  8> H          5.81358        2.89950       -3.80879
|  9> H          2.74138        4.51311       -5.82470
| 10> H          4.28755        4.52126       -6.61434
| 11> H          2.34726        3.66659       -3.82664
| 12> H          3.67283        3.85124       -2.70331
| 13> H          3.35820        2.29620       -3.43538
| 14> *
| 15> %MaxCore 64000
| 16>
| 17> %pal nprocs 18
| 18> end
| 19>
| 20> %scf
| 21>   MaxIter 150
| 22> end
| 23>
| 24>
| 25>                          ****END OF INPUT****

CARTESIAN COORDINATES (ANGSTROEM)
---------------------------------
  C      3.343500    3.354570   -3.592000
  C      4.255870    3.703850   -4.726050
  C      3.734030    4.293780   -5.800770
  N      5.515040    3.407250   -4.637180
  H      6.149190    3.601200   -5.399050
  H      5.813580    2.899500   -3.808790
  H      2.741380    4.513110   -5.824700
  H      4.287550    4.521260   -6.614340
  H      2.347260    3.666590   -3.826640
  H      3.672830    3.851240   -2.703310
  H      3.358200    2.296200   -3.435380

 Total Charge           Charge          ....    0
 Multiplicity           Mult            ....    1
 Number of Electrons    NEL             ....   32
 Basis Dimension        Dim             ....  166

ORBITAL ENERGIES
----------------

  NO   OCC          E(Eh)            E(eV)
   0   2.0000     -14.422488      -392.4558
   1   2.0000     -10.297453      -280.2079
   2   2.0000     -10.262589      -279.2593
   3   2.0000     -10.201482      -277.5964
   4   2.0000      -1.053676       -28.6720
   5   2.0000      -0.871114       -23.7042
   6   2.0000      -0.799099       -21.7446
   7   2.0000      -0.680172       -18.5084
   8   2.0000      -0.634343       -17.2614
   9   2.0000      -0.574457       -15.6318
  10   2.0000      -0.534730       -14.5507
  11   2.0000      -0.493579       -13.4310
  12   2.0000      -0.486957       -13.2508
  13   2.0000      -0.444361       -12.0917
  14   2.0000      -0.435839       -11.8598
  15   2.0000      -0.274357        -7.4656
  16   0.0000       0.109728         2.9859
  17   0.0000       0.134105         3.6492
  18   0.0000       0.153116         4.1665
  19   0.0000       0.167927         4.5695
  20   0.0000       0.185468         5.0468

MULLIKEN ATOMIC CHARGES
-----------------------
   0 C :   -0.345232
   1 C :    0.230315
   2 C :   -0.453442
   3 N :   -0.482478
   4 H :    0.247123
   5 H :    0.244416
   6 H :    0.101325
   7 H :    0.098430
   8 H :    0.120368
   9 H :    0.120099
  10 H :    0.119075
Sum of atomic charges:   -0.0000000

LOEWDIN ATOMIC CHARGES
----------------------
   0 C :   -0.244393
   1 C :   -0.394889
   2 C :   -0.290344
   3 N :    0.004382
   4 H :    0.177528
   5 H :    0.177113
   6 H :    0.102762
   7 H :    0.093485
   8 H :    0.131423
   9 H :    0.121401
  10 H :    0.121532

  Mayer bond orders larger than 0.100000
B(  0-C ,  1-C ) :   0.9442 B(  0-C ,  8-H ) :   0.9906 B(  0-C ,  9-H ) :   0.9734
B(  0-C , 10-H ) :   0.9690 B(  1-C ,  2-C ) :   1.7368 B(  1-C ,  3-N ) :   1.1865
B(  2-C ,  6-H ) :   0.9979 B(  2-C ,  7-H ) :   0.9999 B(  3-N ,  4-H ) :   0.9166
B(  3-N ,  5-H ) :   0.9221

Dispersion correction           -0.001676388
FINAL SINGLE POINT ENERGY      -173.267738813499

DIPOLE MOMENT
-------------
                                X             Y             Z
Electronic contribution:      1.80240      -0.06838      -0.52108
Nuclear contribution   :     -1.20871      -0.33119       0.98382
                        -----------------------------------------
Total Dipole Moment    :      0.59370      -0.39958       0.46273
                        -----------------------------------------
Magnitude (a.u.)       :      0.85221
Magnitude (Debye)      :      2.16614

Rotational constants in cm-1:     0.348453     0.308655     0.168735
Rotational constants in MHz : 10446.369928  9253.232733  5058.539653

                             ****ORCA TERMINATED NORMALLY****
TOTAL RUN TIME: 0 days 0 hours 0 minutes 9 seconds 683 msec
