                         Program Version 5.0.0 -  RELEASE  -
|  1> !wB97X-D3 RIJCOSX def2-TZVP def2/J TightSCF
|  2> *xyz 0 1
|  3> C          4.12921        0.89839       -3.41895
|  4> C          5.01734        1.31521       -2.22130
|  5> O          4.73706        0.85411       -1.12283
|  6> F          5.92815        2.16811       -2.49136
|  7> H          4.48610        1.37210       -4.30953
|  8> H          3.11885        1.19903       -3.23540
|  9> H          4.16886       -0.16404       -3.53966
| 10> *
| 11> %MaxCore 64000
| 12>
| 13> %pal nprocs 18
| 14> end
| 15>
| 16> %scf
| 17>   MaxIter 150
| 18> end
| 19>
| 20>
| 21>                          ****END OF INPUT****

CARTESIAN COORDINATES (ANGSTROEM)
---------------------------------
  C      4.129210    0.898390   -3.418950
  C      5.017340    1.315210   -2.221300
  O      4.737060    0.854110   -1.122830
  F      5.928150    2.168110   -2.491360
  H      4.486100    1.372100   -4.309530
  H      3.118850    1.199030   -3.235400
  H      4.168860   -0.164040   -3.539660

 Total Charge           Charge          ....    0
 Multiplicity           Mult            ....    1
 Number of Electrons    NEL             ....   32
 Basis Dimension        Dim             ....  142

ORBITAL ENERGIES
----------------

  NO   OCC          E(Eh)            E(eV)
   0   2.0000     -24.848758      -676.1691
   1   2.0000     -19.241299      -523.5824
   2   2.0000     -10.457668      -284.5676
   3   2.0000     -10.297916      -280.2205
   4   2.0000      -1.421926       -38.6926
   5   2.0000      -1.169812       -31.8322
   6   2.0000      -0.882530       -24.0149
   7   2.0000      -0.759868       -20.6771
   8   2.0000      -0.645128       -17.5548
   9   2.0000      -0.643134       -17.5006
  10   2.0000      -0.609105       -16.5746
  11   2.0000      -0.542579       -14.7643
  12   2.0000      -0.532356       -14.4861
  13   2.0000      -0.502021       -13.6607
  14   2.0000      -0.460563       -12.5326
  15   2.0000      -0.396690       -10.7945
  16   0.0000       0.062189         1.6922
  17   0.0000       0.118493         3.2244
  18   0.0000       0.184061         5.0086
  19   0.0000       0.199877         5.4389
  20   0.0000       0.207671         5.6510

MULLIKEN ATOMIC CHARGES
-----------------------
   0 C :   -0.358218
   1 C :    0.379107
   2 O :   -0.321810
   3 F :   -0.121295
   4 H :    0.126593
   5 H :    0.148629
   6 H :    0.146994
Sum of atomic charges:   -0.0000000

LOEWDIN ATOMIC CHARGES
----------------------
   0 C :   -0.263162
   1 C :   -0.511355
   2 O :    0.097884
   3 F :    0.286280
   4 H :    0.120775
   5 H :    0.135213
   6 H :    0.134365

  Mayer bond orders larger than 0.100000
B(  0-C ,  1-C ) :   0.9895 B(  0-C ,  4-H ) :   0.9688 B(  0-C ,  5-H ) :   0.9543
B(  0-C ,  6-H ) :   0.9560 B(  1-C ,  2-O ) :   2.0752 B(  1-C ,  3-F ) :   1.1351

Dispersion correction           -0.000910782
FINAL SINGLE POINT ENERGY      -253.125170779660

DIPOLE MOMENT
-------------
                                X             Y             Z
Electronic contribution:      3.66251       2.36064       2.61954
Nuclear contribution   :     -3.88824      -2.31007      -3.68473
                        -----------------------------------------
Total Dipole Moment    :     -0.22573       0.05057      -1.06519
                        -----------------------------------------
Magnitude (a.u.)       :      1.09001
Magnitude (Debye)      :      2.77060

Rotational constants in cm-1:     0.367620     0.319924     0.176595
Rotational constants in MHz : 11020.955969  9591.092757  5294.190719

                             ****ORCA TERMINATED NORMALLY****
TOTAL RUN TIME: 0 days 0 hours 0 minutes 7 seconds 333 msec
