                         Program Version 5.0.0 -  RELEASE  -
|  1> !wB97X-D3 RIJCOSX def2-TZVP def2/J TightSCF
|  2> *xyz 0 1
|  3> C          3.34350        3.35457       -3.59200
|  4> C          4.25587        3.70385       -4.72605
|  5> N          3.73403        4.29378       -5.80077
|  6> C          5.51504        3.40725       -4.63718
|  7> H          6.14919        3.60120       -5.39905
|  8> H          5.81358        2.89950       -3.80879
|  9> H          2.74138        4.51311       -5.82470
| 10> H          4.28755        4.52126       -6.61434
| 11> H          2.34726        3.66659       -3.82664
| 12> H          3.67283        3.85124       -2.70331
| 13> H          3.35820        2.29620       -3.43538
| 14> *
| 15> %MaxCore 64000
| 16>
| 17> %pal nprocs 18
| 18> end
| 19>
| 20> %scf
| 21>   MaxIter 150
| 22> end
| 23>
| 24>
| 25>                          ****END OF INPUT****

CARTESIAN COORDINATES (ANGSTROEM)
---------------------------------
  C      3.343500    3.354570   -3.592000
  C      4.255870    3.703850   -4.726050
  N      3.734030    4.293780   -5.800770
  C      5.515040    3.407250   -4.637180
  H      6.149190    3.601200   -5.399050
  H      5.813580    2.899500   -3.808790
  H      2.741380    4.513110   -5.824700
  H      4.287550    4.521260   -6.614340
  H      2.347260    3.666590   -3.826640
  H      3.672830    3.851240   -2.703310
  H      3.358200    2.296200   -3.435380

 Total Charge           Charge          ....    0
 Multiplicity           Mult            ....    1
 Number of Electrons    NEL             ....   32
 Basis Dimension        Dim             ....  166

ORBITAL ENERGIES
----------------

  NO   OCC          E(Eh)            E(eV)
   0   2.0000     -14.418793      -392.3553
   1   2.0000     -10.294331      -280.1230
   2   2.0000     -10.262136      -279.2469
   3   2.0000     -10.197853      -277.4977
   4   2.0000      -1.039022       -28.2732
   5   2.0000      -0.875777       -23.8311
   6   2.0000      -0.802852       -21.8467
   7   2.0000      -0.674408       -18.3516
   8   2.0000      -0.623439       -16.9646
   9   2.0000      -0.576044       -15.6749
  10   2.0000      -0.531029       -14.4500
  11   2.0000      -0.493415       -13.4265
  12   2.0000      -0.488436       -13.2910
  13   2.0000      -0.448005       -12.1908
  14   2.0000      -0.430407       -11.7120
  15   2.0000      -0.277907        -7.5622
  16   0.0000       0.111666         3.0386
  17   0.0000       0.131374         3.5749
  18   0.0000       0.153295         4.1714
  19   0.0000       0.162009         4.4085
  20   0.0000       0.199936         5.4405

MULLIKEN ATOMIC CHARGES
-----------------------
   0 C :   -0.329682
   1 C :    0.231783
   2 N :   -0.511096
   3 C :   -0.435053
   4 H :    0.098351
   5 H :    0.108555
   6 H :    0.237773
   7 H :    0.242315
   8 H :    0.086229
   9 H :    0.136014
  10 H :    0.134811
Sum of atomic charges:    0.0000000

LOEWDIN ATOMIC CHARGES
----------------------
   0 C :   -0.242020
   1 C :   -0.384824
   2 N :   -0.019540
   3 C :   -0.278358
   4 H :    0.099234
   5 H :    0.110631
   6 H :    0.168028
   7 H :    0.169976
   8 H :    0.115280
   9 H :    0.130827
  10 H :    0.130764

  Mayer bond orders larger than 0.100000
B(  0-C ,  1-C ) :   0.9210 B(  0-C ,  8-H ) :   0.9902 B(  0-C ,  9-H ) :   0.9782
B(  0-C , 10-H ) :   0.9760 B(  1-C ,  2-N ) :   1.1482 B(  1-C ,  3-C ) :   1.7766
B(  2-N ,  6-H ) :   0.9227 B(  2-N ,  7-H ) :   0.9194 B(  3-C ,  4-H ) :   0.9949
B(  3-C ,  5-H ) :   1.0017

Dispersion correction           -0.001663070
FINAL SINGLE POINT ENERGY      -173.266768472892

DIPOLE MOMENT
-------------
                                X             Y             Z
Electronic contribution:      0.15037       0.75413      -1.56330
Nuclear contribution   :     -0.80929      -0.53001       1.24477
                        -----------------------------------------
Total Dipole Moment    :     -0.65892       0.22412      -0.31853
                        -----------------------------------------
Magnitude (a.u.)       :      0.76542
Magnitude (Debye)      :      1.94554

Rotational constants in cm-1:     0.352070     0.305406     0.168593
Rotational constants in MHz : 10554.792117  9155.853997  5054.288053

                             ****ORCA TERMINATED NORMALLY****
TOTAL RUN TIME: 0 days 0 hours 0 minutes 9 seconds 119 msec
