                         Program Version 5.0.0 -  RELEASE  -
|  1> !wB97X-D3 RIJCOSX def2-TZVP def2/J TightSCF xyzfile
|  2>
|  3> *xyzfile 0 1 D1.xyz
|  4>
|  5> %MaxCore 64000
|  6>
|  7> %pal nprocs 18
|  8> end
|  9>
| 10> %scf
| 11>   MaxIter 150
| 12> end
| 13>
| 14>
| 15>                          ****END OF INPUT****

CARTESIAN COORDINATES (ANGSTROEM)
---------------------------------
  C      3.343500    3.354571   -3.591998
  C      2.952633    1.863077   -3.574849
  C      4.129209    0.898394   -3.418950
  H      3.733687   -0.100605   -3.237633
  H      4.719095    0.862556   -4.339005
  C      5.017344    1.315212   -2.221305
  C      4.255868    3.703851   -4.726054
  C      3.734032    4.293783   -5.800770
  N      5.515039    3.407255   -4.637185
  H      6.149187    3.601203   -5.399053
  H      5.813584    2.899504   -3.808785
  H      2.741380    4.513109   -5.824701
  H      4.287548    4.521260   -6.614341
  H      2.278938    1.735250   -2.725496
  H      2.377466    1.625787   -4.475869
  F      4.737055    0.854112   -1.122825
  O      5.928146    2.168108   -2.491365
  H      3.861246    3.597252   -2.662979
  H      2.446493    3.973461   -3.656556

 Total Charge           Charge          ....    0
 Multiplicity           Mult            ....    1
 Number of Electrons    NEL             ....   70
 Basis Dimension        Dim             ....  339

ORBITAL ENERGIES
----------------

  NO   OCC          E(Eh)            E(eV)
   0   2.0000     -24.891788      -677.3400
   1   2.0000     -19.260508      -524.1051
   2   2.0000     -14.384220      -391.4145
   3   2.0000     -10.486700      -285.3576
   4   2.0000     -10.315698      -280.7044
   5   2.0000     -10.298542      -280.2376
   6   2.0000     -10.284959      -279.8680
   7   2.0000     -10.276729      -279.6440
   8   2.0000     -10.191076      -277.3133
   9   2.0000      -1.483132       -40.3581
  10   2.0000      -1.174625       -31.9632
  11   2.0000      -1.032359       -28.0919
  12   2.0000      -0.940916       -25.6036
  13   2.0000      -0.866351       -23.5746
  14   2.0000      -0.822800       -22.3895
  15   2.0000      -0.790510       -21.5109
  16   2.0000      -0.741608       -20.1802
  17   2.0000      -0.691208       -18.8087
  18   2.0000      -0.682424       -18.5697
  19   2.0000      -0.653392       -17.7797
  20   2.0000      -0.650247       -17.6941
  21   2.0000      -0.610113       -16.6020
  22   2.0000      -0.586883       -15.9699
  23   2.0000      -0.560288       -15.2462
  24   2.0000      -0.542599       -14.7649
  25   2.0000      -0.529429       -14.4065
  26   2.0000      -0.491329       -13.3697
  27   2.0000      -0.480870       -13.0851
  28   2.0000      -0.470791       -12.8109
  29   2.0000      -0.468313       -12.7434
  30   2.0000      -0.452031       -12.3004
  31   2.0000      -0.422691       -11.5020
  32   2.0000      -0.416934       -11.3453
  33   2.0000      -0.399228       -10.8635
  34   2.0000      -0.258784        -7.0419
  35   0.0000       0.030372         0.8265
  36   0.0000       0.108837         2.9616
  37   0.0000       0.130525         3.5518
  38   0.0000       0.146342         3.9822
  39   0.0000       0.150417         4.0930

MULLIKEN ATOMIC CHARGES
-----------------------
   0 C :   -0.257266
   1 C :   -0.210247
   2 C :   -0.259777
   3 H :    0.131478
   4 H :    0.164224
   5 C :    0.420847
   6 C :    0.225335
   7 C :   -0.469325
   8 N :   -0.498674
   9 H :    0.222978
  10 H :    0.277651
  11 H :    0.094893
  12 H :    0.095129
  13 H :    0.114405
  14 H :    0.129039
  15 F :   -0.064607
  16 O :   -0.379621
  17 H :    0.135062
  18 H :    0.128477
Sum of atomic charges:    0.0000000

LOEWDIN ATOMIC CHARGES
----------------------
   0 C :   -0.210203
   1 C :   -0.248097
   2 C :   -0.230237
   3 H :    0.143910
   4 H :    0.156861
   5 C :   -0.469173
   6 C :   -0.377125
   7 C :   -0.298533
   8 N :    0.013019
   9 H :    0.168687
  10 H :    0.132732
  11 H :    0.100338
  12 H :    0.092851
  13 H :    0.138915
  14 H :    0.146779
  15 F :    0.389834
  16 O :    0.055843
  17 H :    0.142351
  18 H :    0.151248

  Mayer bond orders larger than 0.100000
B(  0-C ,  1-C ) :   0.9469 B(  0-C ,  6-C ) :   0.9260 B(  0-C , 17-H ) :   0.9922
B(  0-C , 18-H ) :   0.9816 B(  1-C ,  2-C ) :   0.9791 B(  1-C , 13-H ) :   0.9744
B(  1-C , 14-H ) :   0.9600 B(  2-C ,  3-H ) :   0.9628 B(  2-C ,  4-H ) :   0.9514
B(  2-C ,  5-C ) :   0.9902 B(  5-C , 15-F ) :   1.2139 B(  5-C , 16-O ) :   1.8654
B(  6-C ,  7-C ) :   1.7192 B(  6-C ,  8-N ) :   1.2229 B(  7-C , 11-H ) :   0.9993
B(  7-C , 12-H ) :   0.9978 B(  8-N ,  9-H ) :   0.9254 B(  8-N , 10-H ) :   0.8344
B( 10-H , 16-O ) :   0.1300

Dispersion correction           -0.006923573
FINAL SINGLE POINT ENERGY      -464.488114799367

DIPOLE MOMENT
-------------
                                X             Y             Z
Electronic contribution:      5.54585      -5.98702      10.59137
Nuclear contribution   :     -5.86483       4.68058     -10.07545
                        -----------------------------------------
Total Dipole Moment    :     -0.31898      -1.30644       0.51592
                        -----------------------------------------
Magnitude (a.u.)       :      1.44038
Magnitude (Debye)      :      3.66116

Rotational constants in cm-1:     0.107256     0.035474     0.030113
Rotational constants in MHz :  3215.453922  1063.481574   902.777619

                             ****ORCA TERMINATED NORMALLY****
TOTAL RUN TIME: 0 days 0 hours 0 minutes 30 seconds 924 msec
