                         Program Version 5.0.0 -  RELEASE  -
|  1> !wB97X-D3 RIJCOSX def2-TZVP def2/J TightSCF xyzfile
|  2>
|  3> *xyzfile 0 1 D2.xyz
|  4>
|  5> %MaxCore 64000
|  6>
|  7> %pal nprocs 18
|  8> end
|  9>
| 10> %scf
| 11>   MaxIter 150
| 12> end
| 13>
| 14>
| 15>                          ****END OF INPUT****

CARTESIAN COORDINATES (ANGSTROEM)
---------------------------------
  C      3.343500    3.354571   -3.591998
  C      2.952633    1.863077   -3.574849
  C      4.129209    0.898394   -3.418950
  H      3.733687   -0.100605   -3.237633
  H      4.719095    0.862556   -4.339005
  C      5.017344    1.315212   -2.221305
  C      4.255868    3.703851   -4.726054
  N      3.734032    4.293783   -5.800770
  C      5.515039    3.407255   -4.637185
  H      6.149187    3.601203   -5.399053
  H      5.813584    2.899504   -3.808785
  H      2.741380    4.513109   -5.824701
  H      4.287548    4.521260   -6.614341
  H      2.278938    1.735250   -2.725496
  H      2.377466    1.625787   -4.475869
  F      4.737055    0.854112   -1.122825
  O      5.928146    2.168108   -2.491365
  H      3.861246    3.597252   -2.662979
  H      2.446493    3.973461   -3.656556

 Total Charge           Charge          ....    0
 Multiplicity           Mult            ....    1
 Number of Electrons    NEL             ....   70
 Basis Dimension        Dim             ....  339

ORBITAL ENERGIES
----------------

  NO   OCC          E(Eh)            E(eV)
   0   2.0000     -24.872875      -676.8253
   1   2.0000     -19.233701      -523.3756
   2   2.0000     -14.407531      -392.0488
   3   2.0000     -10.463976      -284.7393
   4   2.0000     -10.302556      -280.3468
   5   2.0000     -10.294248      -280.1207
   6   2.0000     -10.277982      -279.6781
   7   2.0000     -10.275533      -279.6115
   8   2.0000     -10.167876      -276.6820
   9   2.0000      -1.464880       -39.8614
  10   2.0000      -1.148810       -31.2607
  11   2.0000      -1.029265       -28.0077
  12   2.0000      -0.934040       -25.4165
  13   2.0000      -0.863477       -23.4964
  14   2.0000      -0.813558       -22.1380
  15   2.0000      -0.787979       -21.4420
  16   2.0000      -0.730178       -19.8692
  17   2.0000      -0.678889       -18.4735
  18   2.0000      -0.667041       -18.1511
  19   2.0000      -0.649131       -17.6638
  20   2.0000      -0.631048       -17.1717
  21   2.0000      -0.600078       -16.3290
  22   2.0000      -0.579651       -15.7731
  23   2.0000      -0.565606       -15.3909
  24   2.0000      -0.545860       -14.8536
  25   2.0000      -0.514322       -13.9954
  26   2.0000      -0.487423       -13.2634
  27   2.0000      -0.486373       -13.2349
  28   2.0000      -0.456950       -12.4343
  29   2.0000      -0.448438       -12.2026
  30   2.0000      -0.443289       -12.0625
  31   2.0000      -0.418908       -11.3991
  32   2.0000      -0.411534       -11.1984
  33   2.0000      -0.360063        -9.7978
  34   2.0000      -0.263999        -7.1838
  35   0.0000       0.049364         1.3433
  36   0.0000       0.106995         2.9115
  37   0.0000       0.129485         3.5235
  38   0.0000       0.137197         3.7333
  39   0.0000       0.152865         4.1597

MULLIKEN ATOMIC CHARGES
-----------------------
   0 C :   -0.251260
   1 C :   -0.206217
   2 C :   -0.249337
   3 H :    0.124025
   4 H :    0.167142
   5 C :    0.387271
   6 C :    0.235797
   7 N :   -0.520865
   8 C :   -0.502669
   9 H :    0.078923
  10 H :    0.201411
  11 H :    0.227936
  12 H :    0.238875
  13 H :    0.115933
  14 H :    0.116529
  15 F :   -0.073823
  16 O :   -0.342070
  17 H :    0.152841
  18 H :    0.099558
Sum of atomic charges:    0.0000000

LOEWDIN ATOMIC CHARGES
----------------------
   0 C :   -0.212464
   1 C :   -0.249374
   2 C :   -0.229692
   3 H :    0.141134
   4 H :    0.158228
   5 C :   -0.482549
   6 C :   -0.377391
   7 N :   -0.026698
   8 C :   -0.255409
   9 H :    0.094485
  10 H :    0.087767
  11 H :    0.163826
  12 H :    0.168001
  13 H :    0.138491
  14 H :    0.142116
  15 F :    0.380246
  16 O :    0.070350
  17 H :    0.152726
  18 H :    0.136207

  Mayer bond orders larger than 0.100000
B(  0-C ,  1-C ) :   0.9459 B(  0-C ,  6-C ) :   0.9222 B(  0-C , 17-H ) :   1.0012
B(  0-C , 18-H ) :   0.9836 B(  1-C ,  2-C ) :   0.9817 B(  1-C , 13-H ) :   0.9782
B(  1-C , 14-H ) :   0.9605 B(  2-C ,  3-H ) :   0.9649 B(  2-C ,  4-H ) :   0.9539
B(  2-C ,  5-C ) :   0.9903 B(  5-C , 15-F ) :   1.1957 B(  5-C , 16-O ) :   1.9354
B(  6-C ,  7-N ) :   1.1099 B(  6-C ,  8-C ) :   1.7423 B(  7-N , 11-H ) :   0.9256
B(  7-N , 12-H ) :   0.9210 B(  8-C ,  9-H ) :   1.0003 B(  8-C , 10-H ) :   0.9653

Dispersion correction           -0.006784691
FINAL SINGLE POINT ENERGY      -464.462544676830

DIPOLE MOMENT
-------------
                                X             Y             Z
Electronic contribution:      4.27323      -5.15728       9.57639
Nuclear contribution   :     -5.64491       4.57111      -9.93176
                        -----------------------------------------
Total Dipole Moment    :     -1.37167      -0.58617      -0.35537
                        -----------------------------------------
Magnitude (a.u.)       :      1.53342
Magnitude (Debye)      :      3.89764

Rotational constants in cm-1:     0.109825     0.034347     0.029470
Rotational constants in MHz :  3292.465653  1029.684117   883.494260

                             ****ORCA TERMINATED NORMALLY****
TOTAL RUN TIME: 0 days 0 hours 0 minutes 30 seconds 480 msec
