                         Program Version 5.0.0 -  RELEASE  -
|  1> !BLYP D3BJ RIJCOSX def2-SVP def2/J TightSCF
|  2> *xyz -1 1
|  3> C         -0.05517        1.61942       -3.78858
|  4> C          1.22302        2.46987       -3.75691
|  5> H          1.11470        3.25807       -4.53300
|  6> H          1.23773        3.01124       -2.79216
|  7> O          2.35381        1.71203       -3.93448
|  8> H         -0.10198        1.08015       -4.71156
|  9> H         -0.91014        2.25726       -3.70441
| 10> H         -0.04403        0.92826       -2.97183
| 11> *
| 12>
| 13> %MaxCore 64000
| 14>
| 15> %pal nprocs 4
| 16> end
| 17>
| 18> %scf
| 19>   MaxIter 150
| 20> end
| 21>
| 22>
| 23>                          ****END OF INPUT****

CARTESIAN COORDINATES (ANGSTROEM)
---------------------------------
  C     -0.055170    1.619420   -3.788580
  C      1.223020    2.469870   -3.756910
  H      1.114700    3.258070   -4.533000
  H      1.237730    3.011240   -2.792160
  O      2.353810    1.712030   -3.934480
  H     -0.101980    1.080150   -4.711560
  H     -0.910140    2.257260   -3.704410
  H     -0.044030    0.928260   -2.971830

 Total Charge           Charge          ....   -1
 Multiplicity           Mult            ....    1
 Number of Electrons    NEL             ....   26
 Basis Dimension        Dim             ....   67

ORBITAL ENERGIES
----------------

  NO   OCC          E(Eh)            E(eV)
   0   2.0000     -18.404833      -500.8210
   1   2.0000      -9.708946      -264.1938
   2   2.0000      -9.696550      -263.8566
   3   2.0000      -0.538095       -14.6423
   4   2.0000      -0.419523       -11.4158
   5   2.0000      -0.278133        -7.5684
   6   2.0000      -0.176960        -4.8153
   7   2.0000      -0.154962        -4.2167
   8   2.0000      -0.102457        -2.7880
   9   2.0000      -0.086953        -2.3661
  10   2.0000      -0.018904        -0.5144
  11   2.0000       0.121322         3.3013
  12   2.0000       0.125986         3.4283
  13   0.0000       0.233503         6.3539
  14   0.0000       0.274172         7.4606
  15   0.0000       0.285950         7.7811
  16   0.0000       0.295769         8.0483
  17   0.0000       0.335770         9.1368

MULLIKEN ATOMIC CHARGES
-----------------------
   0 C :    0.185982
   1 C :    0.273587
   2 H :   -0.210812
   3 H :   -0.208459
   4 O :   -0.633514
   5 H :   -0.113815
   6 H :   -0.181320
   7 H :   -0.111650
Sum of atomic charges:   -1.0000000

LOEWDIN ATOMIC CHARGES
----------------------
   0 C :   -0.096376
   1 C :    0.010872
   2 H :   -0.095081
   3 H :   -0.092125
   4 O :   -0.613890
   5 H :   -0.029085
   6 H :   -0.056291
   7 H :   -0.028024

  Mayer bond orders larger than 0.100000
B(  0-C ,  1-C ) :   1.0153 B(  0-C ,  4-O ) :  -0.1220 B(  0-C ,  5-H ) :   0.9302
B(  0-C ,  6-H ) :   0.8629 B(  0-C ,  7-H ) :   0.9342 B(  1-C ,  2-H ) :   0.8274
B(  1-C ,  3-H ) :   0.8304 B(  1-C ,  4-O ) :   1.5594 B(  4-O ,  6-H ) :   0.1208

Dispersion correction           -0.007748558
FINAL SINGLE POINT ENERGY      -154.214377094814

DIPOLE MOMENT
-------------
                                X             Y             Z
Electronic contribution:      3.34388      -0.80300      -0.31229
Nuclear contribution   :     -4.28298       0.81046       0.39340
                        -----------------------------------------
Total Dipole Moment    :     -0.93910       0.00746       0.08112
                        -----------------------------------------
Magnitude (a.u.)       :      0.94262
Magnitude (Debye)      :      2.39596

Rotational constants in cm-1:     1.266793     0.328147     0.288309
Rotational constants in MHz : 37977.512300  9837.594308  8643.275638

                             ****ORCA TERMINATED NORMALLY****
TOTAL RUN TIME: 0 days 0 hours 0 minutes 6 seconds 214 msec
