                         Program Version 5.0.0 -  RELEASE  -
|  1> !BLYP D3BJ RIJCOSX def2-SVP def2/J TightSCF
|  2> *xyz 1 1
|  3> C          1.63556       -1.67040       -5.29211
|  4> C          0.33848       -1.50091       -4.50540
|  5> N          2.48451       -0.50741       -5.14039
|  6> H          1.39834       -1.82924       -6.35259
|  7> H          2.15586       -2.56540       -4.93209
|  8> C          3.45115       -0.14953       -5.95259
|  9> N          3.92267        1.08956       -5.85071
| 10> N          3.96616       -1.00618       -6.86788
| 11> H          3.52139       -1.90647       -6.99527
| 12> H          4.44482       -0.62347       -7.67035
| 13> H          2.25200        0.24080       -4.49879
| 14> H          3.46428        1.64078       -5.13639
| 15> H          4.83447        1.31375       -6.22465
| 16> H         -0.17658       -0.62881       -4.85045
| 17> H          0.56384       -1.39374       -3.46490
| 18> H         -0.28102       -2.36136       -4.64938
| 19> *
| 20>
| 21> %MaxCore 64000
| 22>
| 23> %pal nprocs 4
| 24> end
| 25>
| 26> %scf
| 27>   MaxIter 150
| 28> end
| 29>
| 30>
| 31>                          ****END OF INPUT****

CARTESIAN COORDINATES (ANGSTROEM)
---------------------------------
  C      1.635560   -1.670400   -5.292110
  C      0.338480   -1.500910   -4.505400
  N      2.484510   -0.507410   -5.140390
  H      1.398340   -1.829240   -6.352590
  H      2.155860   -2.565400   -4.932090
  C      3.451150   -0.149530   -5.952590
  N      3.922670    1.089560   -5.850710
  N      3.966160   -1.006180   -6.867880
  H      3.521390   -1.906470   -6.995270
  H      4.444820   -0.623470   -7.670350
  H      2.252000    0.240800   -4.498790
  H      3.464280    1.640780   -5.136390
  H      4.834470    1.313750   -6.224650
  H     -0.176580   -0.628810   -4.850450
  H      0.563840   -1.393740   -3.464900
  H     -0.281020   -2.361360   -4.649380

 Total Charge           Charge          ....    1
 Multiplicity           Mult            ....    1
 Number of Electrons    NEL             ....   48
 Basis Dimension        Dim             ....  134

ORBITAL ENERGIES
----------------

  NO   OCC          E(Eh)            E(eV)
   0   2.0000     -14.243388      -387.5823
   1   2.0000     -14.241625      -387.5343
   2   2.0000     -14.239046      -387.4641
   3   2.0000     -10.240767      -278.6654
   4   2.0000     -10.129038      -275.6251
   5   2.0000     -10.062213      -273.8067
   6   2.0000      -1.113695       -30.3052
   7   2.0000      -1.008685       -27.4477
   8   2.0000      -0.995813       -27.0974
   9   2.0000      -0.850958       -23.1557
  10   2.0000      -0.758404       -20.6372
  11   2.0000      -0.742325       -20.1997
  12   2.0000      -0.712669       -19.3927
  13   2.0000      -0.681678       -18.5494
  14   2.0000      -0.634285       -17.2598
  15   2.0000      -0.627950       -17.0874
  16   2.0000      -0.602239       -16.3878
  17   2.0000      -0.586952       -15.9718
  18   2.0000      -0.545733       -14.8502
  19   2.0000      -0.496118       -13.5001
  20   2.0000      -0.481593       -13.1048
  21   2.0000      -0.470760       -12.8100
  22   2.0000      -0.425121       -11.5681
  23   2.0000      -0.406485       -11.0610
  24   0.0000      -0.187695        -5.1074
  25   0.0000      -0.165791        -4.5114
  26   0.0000      -0.130674        -3.5558
  27   0.0000      -0.112964        -3.0739
  28   0.0000      -0.093625        -2.5477

MULLIKEN ATOMIC CHARGES
-----------------------
   0 C :    0.074256
   1 C :    0.048857
   2 N :   -0.001222
   3 H :    0.032252
   4 H :    0.045191
   5 C :   -0.132877
   6 N :    0.075850
   7 N :    0.036730
   8 H :    0.144452
   9 H :    0.152073
  10 H :    0.131075
  11 H :    0.142448
  12 H :    0.158638
  13 H :    0.021924
  14 H :    0.027452
  15 H :    0.042900
Sum of atomic charges:    1.0000000

LOEWDIN ATOMIC CHARGES
----------------------
   0 C :    0.040555
   1 C :   -0.025305
   2 N :    0.058095
   3 H :    0.029804
   4 H :    0.035572
   5 C :    0.110572
   6 N :    0.067823
   7 N :    0.057254
   8 H :    0.101778
   9 H :    0.105506
  10 H :    0.096579
  11 H :    0.102206
  12 H :    0.109299
  13 H :    0.029453
  14 H :    0.032438
  15 H :    0.048369

  Mayer bond orders larger than 0.100000
B(  0-C ,  1-C ) :   1.1311 B(  0-C ,  2-N ) :   0.9535 B(  0-C ,  3-H ) :   0.9364
B(  0-C ,  4-H ) :   0.9373 B(  1-C , 13-H ) :   0.9676 B(  1-C , 14-H ) :   0.9635
B(  1-C , 15-H ) :   0.9516 B(  2-N ,  5-C ) :   1.4012 B(  2-N , 10-H ) :   0.9024
B(  5-C ,  6-N ) :   1.3930 B(  5-C ,  7-N ) :   1.3883 B(  6-N , 11-H ) :   0.9205
B(  6-N , 12-H ) :   0.9244 B(  7-N ,  8-H ) :   0.9257 B(  7-N ,  9-H ) :   0.9281

Dispersion correction           -0.024363920
FINAL SINGLE POINT ENERGY      -284.076154437845

DIPOLE MOMENT
-------------
                                X             Y             Z
Electronic contribution:      4.77130       2.52702      -1.72734
Nuclear contribution   :     -3.96322      -1.85512       1.24891
                        -----------------------------------------
Total Dipole Moment    :      0.80808       0.67190      -0.47843
                        -----------------------------------------
Magnitude (a.u.)       :      1.15471
Magnitude (Debye)      :      2.93503

Rotational constants in cm-1:     0.261404     0.067000     0.054949
Rotational constants in MHz :  7836.702504  2008.609425  1647.329138

                             ****ORCA TERMINATED NORMALLY****
TOTAL RUN TIME: 0 days 0 hours 0 minutes 9 seconds 104 msec
