                         Program Version 5.0.0 -  RELEASE  -
|  1> !BLYP D3BJ RIJCOSX def2-SVP def2/J TightSCF
|  2> *xyz 0 1
|  3> C         -0.05517        1.61942       -3.78858
|  4> C          1.22302        2.46987       -3.75691
|  5> H          1.11470        3.25807       -4.53300
|  6> H          1.23773        3.01124       -2.79216
|  7> F          2.35381        1.71203       -3.93448
|  8> H         -0.10198        1.08015       -4.71156
|  9> H         -0.91014        2.25726       -3.70441
| 10> H         -0.04403        0.92826       -2.97183
| 11> *
| 12>
| 13> %MaxCore 64000
| 14>
| 15> %pal nprocs 4
| 16> end
| 17>
| 18> %scf
| 19>   MaxIter 150
| 20> end
| 21>
| 22>
| 23>                          ****END OF INPUT****

CARTESIAN COORDINATES (ANGSTROEM)
---------------------------------
  C     -0.055170    1.619420   -3.788580
  C      1.223020    2.469870   -3.756910
  H      1.114700    3.258070   -4.533000
  H      1.237730    3.011240   -2.792160
  F      2.353810    1.712030   -3.934480
  H     -0.101980    1.080150   -4.711560
  H     -0.910140    2.257260   -3.704410
  H     -0.044030    0.928260   -2.971830

 Total Charge           Charge          ....    0
 Multiplicity           Mult            ....    1
 Number of Electrons    NEL             ....   26
 Basis Dimension        Dim             ....   67

ORBITAL ENERGIES
----------------

  NO   OCC          E(Eh)            E(eV)
   0   2.0000     -24.265850      -660.3073
   1   2.0000      -9.992388      -271.9067
   2   2.0000      -9.916034      -269.8290
   3   2.0000      -1.055419       -28.7194
   4   2.0000      -0.673945       -18.3390
   5   2.0000      -0.549406       -14.9501
   6   2.0000      -0.436385       -11.8746
   7   2.0000      -0.426756       -11.6126
   8   2.0000      -0.386248       -10.5103
   9   2.0000      -0.345704        -9.4071
  10   2.0000      -0.340428        -9.2635
  11   2.0000      -0.271242        -7.3809
  12   2.0000      -0.268745        -7.3129
  13   0.0000       0.042468         1.1556
  14   0.0000       0.085503         2.3267
  15   0.0000       0.090869         2.4727
  16   0.0000       0.102871         2.7993
  17   0.0000       0.118813         3.2331

MULLIKEN ATOMIC CHARGES
-----------------------
   0 C :    0.038582
   1 C :    0.241067
   2 H :   -0.017640
   3 H :   -0.018423
   4 F :   -0.230788
   5 H :   -0.000017
   6 H :   -0.012275
   7 H :   -0.000506
Sum of atomic charges:    0.0000000

LOEWDIN ATOMIC CHARGES
----------------------
   0 C :   -0.059842
   1 C :    0.107883
   2 H :    0.003514
   3 H :    0.003192
   4 F :   -0.118736
   5 H :    0.020176
   6 H :    0.024370
   7 H :    0.019443

  Mayer bond orders larger than 0.100000
B(  0-C ,  1-C ) :   1.1210 B(  0-C ,  5-H ) :   0.9642 B(  0-C ,  6-H ) :   0.9501
B(  0-C ,  7-H ) :   0.9656 B(  1-C ,  2-H ) :   0.9466 B(  1-C ,  3-H ) :   0.9467
B(  1-C ,  4-F ) :   1.0485

Dispersion correction           -0.007138537
FINAL SINGLE POINT ENERGY      -178.859555238776

DIPOLE MOMENT
-------------
                                X             Y             Z
Electronic contribution:      5.13140      -0.79136      -0.44497
Nuclear contribution   :     -5.66833       1.07099       0.52006
                        -----------------------------------------
Total Dipole Moment    :     -0.53693       0.27963       0.07509
                        -----------------------------------------
Magnitude (a.u.)       :      0.61002
Magnitude (Debye)      :      1.55054

Rotational constants in cm-1:     1.245689     0.305293     0.269541
Rotational constants in MHz : 37344.801915  9152.442838  8080.640229

                             ****ORCA TERMINATED NORMALLY****
TOTAL RUN TIME: 0 days 0 hours 0 minutes 5 seconds 208 msec
