                         Program Version 5.0.0 -  RELEASE  -
|  1> !BLYP D3BJ RIJCOSX def2-SVP def2/J TightSCF
|  2> *xyz 0 1
|  3> C          1.63556       -1.67040       -5.29211
|  4> C          0.33848       -1.50091       -4.50540
|  5> C          2.48451       -0.50741       -5.14039
|  6> H          1.39834       -1.82924       -6.35259
|  7> H          2.15586       -2.56540       -4.93209
|  8> C          3.45115       -0.14953       -5.95259
|  9> N          3.92267        1.08956       -5.85071
| 10> N          3.96616       -1.00618       -6.86788
| 11> H          3.52139       -1.90647       -6.99527
| 12> H          4.44482       -0.62347       -7.67035
| 13> H          2.25200        0.24080       -4.49879
| 14> H          3.46428        1.64078       -5.13639
| 15> H          4.83447        1.31375       -6.22465
| 16> H         -0.17658       -0.62881       -4.85045
| 17> H          0.56384       -1.39374       -3.46490
| 18> H         -0.28102       -2.36136       -4.64938
| 19> *
| 20>
| 21> %MaxCore 64000
| 22>
| 23> %pal nprocs 4
| 24> end
| 25>
| 26> %scf
| 27>   MaxIter 150
| 28> end
| 29>
| 30>
| 31>                          ****END OF INPUT****

CARTESIAN COORDINATES (ANGSTROEM)
---------------------------------
  C      1.635560   -1.670400   -5.292110
  C      0.338480   -1.500910   -4.505400
  C      2.484510   -0.507410   -5.140390
  H      1.398340   -1.829240   -6.352590
  H      2.155860   -2.565400   -4.932090
  C      3.451150   -0.149530   -5.952590
  N      3.922670    1.089560   -5.850710
  N      3.966160   -1.006180   -6.867880
  H      3.521390   -1.906470   -6.995270
  H      4.444820   -0.623470   -7.670350
  H      2.252000    0.240800   -4.498790
  H      3.464280    1.640780   -5.136390
  H      4.834470    1.313750   -6.224650
  H     -0.176580   -0.628810   -4.850450
  H      0.563840   -1.393740   -3.464900
  H     -0.281020   -2.361360   -4.649380

 Total Charge           Charge          ....    0
 Multiplicity           Mult            ....    1
 Number of Electrons    NEL             ....   48
 Basis Dimension        Dim             ....  134

ORBITAL ENERGIES
----------------

  NO   OCC          E(Eh)            E(eV)
   0   2.0000     -14.012495      -381.2994
   1   2.0000     -14.008096      -381.1797
   2   2.0000      -9.945346      -270.6266
   3   2.0000      -9.892078      -269.1771
   4   2.0000      -9.887061      -269.0406
   5   2.0000      -9.833245      -267.5762
   6   2.0000      -0.847039       -23.0491
   7   2.0000      -0.766849       -20.8670
   8   2.0000      -0.679126       -18.4799
   9   2.0000      -0.607473       -16.5302
  10   2.0000      -0.531479       -14.4623
  11   2.0000      -0.506817       -13.7912
  12   2.0000      -0.466539       -12.6952
  13   2.0000      -0.444089       -12.0843
  14   2.0000      -0.405633       -11.0378
  15   2.0000      -0.377701       -10.2778
  16   2.0000      -0.366482        -9.9725
  17   2.0000      -0.333095        -9.0640
  18   2.0000      -0.316051        -8.6002
  19   2.0000      -0.286228        -7.7887
  20   2.0000      -0.276761        -7.5310
  21   2.0000      -0.275229        -7.4894
  22   2.0000      -0.201883        -5.4935
  23   2.0000      -0.113520        -3.0890
  24   0.0000       0.025313         0.6888
  25   0.0000       0.054620         1.4863
  26   0.0000       0.069408         1.8887
  27   0.0000       0.072358         1.9690
  28   0.0000       0.081958         2.2302

MULLIKEN ATOMIC CHARGES
-----------------------
   0 C :    0.124180
   1 C :    0.096370
   2 C :   -0.064360
   3 H :   -0.048331
   4 H :   -0.039335
   5 C :   -0.216142
   6 N :    0.050116
   7 N :    0.006809
   8 H :    0.089549
   9 H :    0.075343
  10 H :   -0.155516
  11 H :    0.091245
  12 H :    0.075791
  13 H :   -0.026698
  14 H :   -0.021648
  15 H :   -0.037373
Sum of atomic charges:    0.0000000

LOEWDIN ATOMIC CHARGES
----------------------
   0 C :   -0.029304
   1 C :   -0.032830
   2 C :   -0.209222
   3 H :    0.000263
   4 H :    0.004262
   5 C :    0.006621
   6 N :   -0.006269
   7 N :   -0.012589
   8 H :    0.071780
   9 H :    0.055697
  10 H :   -0.016619
  11 H :    0.076292
  12 H :    0.056787
  13 H :    0.011504
  14 H :    0.013728
  15 H :    0.009901

  Mayer bond orders larger than 0.100000
B(  0-C ,  1-C ) :   1.1283 B(  0-C ,  2-C ) :   1.0702 B(  0-C ,  3-H ) :   0.9155
B(  0-C ,  4-H ) :   0.9007 B(  1-C , 13-H ) :   0.9664 B(  1-C , 14-H ) :   0.9606
B(  1-C , 15-H ) :   0.9513 B(  2-C ,  5-C ) :   1.6393 B(  2-C , 10-H ) :   0.9054
B(  5-C ,  6-N ) :   1.2676 B(  5-C ,  7-N ) :   1.2705 B(  6-N , 11-H ) :   0.9254
B(  6-N , 12-H ) :   0.9383 B(  7-N ,  8-H ) :   0.9359 B(  7-N ,  9-H ) :   0.9398

Dispersion correction           -0.025483976
FINAL SINGLE POINT ENERGY      -267.590011945184

DIPOLE MOMENT
-------------
                                X             Y             Z
Electronic contribution:      4.68294       2.23935      -1.98484
Nuclear contribution   :     -3.99655      -1.83277       1.34879
                        -----------------------------------------
Total Dipole Moment    :      0.68639       0.40658      -0.63605
                        -----------------------------------------
Magnitude (a.u.)       :      1.02029
Magnitude (Debye)      :      2.59338

Rotational constants in cm-1:     0.262971     0.067064     0.055026
Rotational constants in MHz :  7883.664566  2010.513309  1649.636654

                             ****ORCA TERMINATED NORMALLY****
TOTAL RUN TIME: 0 days 0 hours 0 minutes 8 seconds 526 msec
