                         Program Version 5.0.0 -  RELEASE  -
|  1> !BLYP D3BJ RIJCOSX def2-SVP def2/J TightSCF
|  2> *xyz 0 1
|  3> C          1.63556       -1.67040       -5.29211
|  4> C          0.33848       -1.50091       -4.50540
|  5> N          2.48451       -0.50741       -5.14039
|  6> H          1.39834       -1.82924       -6.35259
|  7> H          2.15586       -2.56540       -4.93209
|  8> C          3.45115       -0.14953       -5.95259
|  9> C          3.92267        1.08956       -5.85071
| 10> N          3.96616       -1.00618       -6.86788
| 11> H          3.52139       -1.90647       -6.99527
| 12> H          4.44482       -0.62347       -7.67035
| 13> H          2.25200        0.24080       -4.49879
| 14> H          3.46428        1.64078       -5.13639
| 15> H          4.83447        1.31375       -6.22465
| 16> H         -0.17658       -0.62881       -4.85045
| 17> H          0.56384       -1.39374       -3.46490
| 18> H         -0.28102       -2.36136       -4.64938
| 19> *
| 20>
| 21> %MaxCore 64000
| 22>
| 23> %pal nprocs 4
| 24> end
| 25>
| 26> %scf
| 27>   MaxIter 150
| 28> end
| 29>
| 30>
| 31>                          ****END OF INPUT****

CARTESIAN COORDINATES (ANGSTROEM)
---------------------------------
  C      1.635560   -1.670400   -5.292110
  C      0.338480   -1.500910   -4.505400
  N      2.484510   -0.507410   -5.140390
  H      1.398340   -1.829240   -6.352590
  H      2.155860   -2.565400   -4.932090
  C      3.451150   -0.149530   -5.952590
  C      3.922670    1.089560   -5.850710
  N      3.966160   -1.006180   -6.867880
  H      3.521390   -1.906470   -6.995270
  H      4.444820   -0.623470   -7.670350
  H      2.252000    0.240800   -4.498790
  H      3.464280    1.640780   -5.136390
  H      4.834470    1.313750   -6.224650
  H     -0.176580   -0.628810   -4.850450
  H      0.563840   -1.393740   -3.464900
  H     -0.281020   -2.361360   -4.649380

 Total Charge           Charge          ....    0
 Multiplicity           Mult            ....    1
 Number of Electrons    NEL             ....   48
 Basis Dimension        Dim             ....  134

ORBITAL ENERGIES
----------------

  NO   OCC          E(Eh)            E(eV)
   0   2.0000     -14.011921      -381.2837
   1   2.0000     -14.010868      -381.2551
   2   2.0000      -9.959458      -271.0106
   3   2.0000      -9.948712      -270.7182
   4   2.0000      -9.922591      -270.0074
   5   2.0000      -9.824695      -267.3436
   6   2.0000      -0.860728       -23.4216
   7   2.0000      -0.780091       -21.2273
   8   2.0000      -0.688304       -18.7297
   9   2.0000      -0.613292       -16.6885
  10   2.0000      -0.550468       -14.9790
  11   2.0000      -0.522800       -14.2261
  12   2.0000      -0.467985       -12.7345
  13   2.0000      -0.433191       -11.7877
  14   2.0000      -0.420123       -11.4321
  15   2.0000      -0.404179       -10.9983
  16   2.0000      -0.361209        -9.8290
  17   2.0000      -0.339000        -9.2247
  18   2.0000      -0.326802        -8.8927
  19   2.0000      -0.320904        -8.7322
  20   2.0000      -0.319516        -8.6945
  21   2.0000      -0.291901        -7.9430
  22   2.0000      -0.199280        -5.4227
  23   2.0000      -0.111741        -3.0406
  24   0.0000       0.027317         0.7433
  25   0.0000       0.047517         1.2930
  26   0.0000       0.053482         1.4553
  27   0.0000       0.068220         1.8564
  28   0.0000       0.087137         2.3711

MULLIKEN ATOMIC CHARGES
-----------------------
   0 C :    0.129176
   1 C :    0.055872
   2 N :   -0.022381
   3 H :   -0.021023
   4 H :   -0.017011
   5 C :   -0.161227
   6 C :   -0.001716
   7 N :   -0.009346
   8 H :    0.072649
   9 H :    0.098766
  10 H :    0.093995
  11 H :   -0.111855
  12 H :   -0.091581
  13 H :   -0.002642
  14 H :   -0.003764
  15 H :   -0.007912
Sum of atomic charges:    0.0000000

LOEWDIN ATOMIC CHARGES
----------------------
   0 C :    0.035112
   1 C :   -0.039438
   2 N :   -0.006617
   3 H :    0.005700
   4 H :    0.005873
   5 C :    0.017367
   6 C :   -0.244961
   7 N :   -0.010783
   8 H :    0.056229
   9 H :    0.075162
  10 H :    0.078354
  11 H :   -0.018538
  12 H :   -0.015474
  13 H :    0.018833
  14 H :    0.018858
  15 H :    0.024322

  Mayer bond orders larger than 0.100000
B(  0-C ,  1-C ) :   1.1333 B(  0-C ,  2-N ) :   1.0279 B(  0-C ,  3-H ) :   0.9257
B(  0-C ,  4-H ) :   0.9315 B(  1-C , 13-H ) :   0.9658 B(  1-C , 14-H ) :   0.9628
B(  1-C , 15-H ) :   0.9544 B(  2-N ,  5-C ) :   1.2492 B(  2-N , 10-H ) :   0.9123
B(  5-C ,  6-C ) :   1.7237 B(  5-C ,  7-N ) :   1.2359 B(  6-C , 11-H ) :   0.8917
B(  6-C , 12-H ) :   0.9270 B(  7-N ,  8-H ) :   0.9485 B(  7-N ,  9-H ) :   0.9466

Dispersion correction           -0.025175891
FINAL SINGLE POINT ENERGY      -267.581356670220

DIPOLE MOMENT
-------------
                                X             Y             Z
Electronic contribution:      3.00507       0.54489      -1.32839
Nuclear contribution   :     -3.69145      -1.49398       1.19810
                        -----------------------------------------
Total Dipole Moment    :     -0.68638      -0.94909      -0.13029
                        -----------------------------------------
Magnitude (a.u.)       :      1.17850
Magnitude (Debye)      :      2.99551

Rotational constants in cm-1:     0.270790     0.068966     0.056679
Rotational constants in MHz :  8118.084803  2067.559423  1699.196934

                             ****ORCA TERMINATED NORMALLY****
TOTAL RUN TIME: 0 days 0 hours 0 minutes 9 seconds 1 msec
