                         Program Version 5.0.0 -  RELEASE  -
|  1> !BLYP D3BJ RIJCOSX def2-SVP def2/J TightSCF
|  2> *xyz 0 1
|  3> C          1.63556       -1.67040       -5.29211
|  4> C          0.33848       -1.50091       -4.50540
|  5> N          2.48451       -0.50741       -5.14039
|  6> H          1.39834       -1.82924       -6.35259
|  7> H          2.15586       -2.56540       -4.93209
|  8> C          3.45115       -0.14953       -5.95259
|  9> N          3.92267        1.08956       -5.85071
| 10> C          3.96616       -1.00618       -6.86788
| 11> H          3.52139       -1.90647       -6.99527
| 12> H          4.44482       -0.62347       -7.67035
| 13> H          2.25200        0.24080       -4.49879
| 14> H          3.46428        1.64078       -5.13639
| 15> H          4.83447        1.31375       -6.22465
| 16> H         -0.17658       -0.62881       -4.85045
| 17> H          0.56384       -1.39374       -3.46490
| 18> H         -0.28102       -2.36136       -4.64938
| 19> *
| 20>
| 21> %MaxCore 64000
| 22>
| 23> %pal nprocs 4
| 24> end
| 25>
| 26> %scf
| 27>   MaxIter 150
| 28> end
| 29>
| 30>
| 31>                          ****END OF INPUT****

CARTESIAN COORDINATES (ANGSTROEM)
---------------------------------
  C      1.635560   -1.670400   -5.292110
  C      0.338480   -1.500910   -4.505400
  N      2.484510   -0.507410   -5.140390
  H      1.398340   -1.829240   -6.352590
  H      2.155860   -2.565400   -4.932090
  C      3.451150   -0.149530   -5.952590
  N      3.922670    1.089560   -5.850710
  C      3.966160   -1.006180   -6.867880
  H      3.521390   -1.906470   -6.995270
  H      4.444820   -0.623470   -7.670350
  H      2.252000    0.240800   -4.498790
  H      3.464280    1.640780   -5.136390
  H      4.834470    1.313750   -6.224650
  H     -0.176580   -0.628810   -4.850450
  H      0.563840   -1.393740   -3.464900
  H     -0.281020   -2.361360   -4.649380

 Total Charge           Charge          ....    0
 Multiplicity           Mult            ....    1
 Number of Electrons    NEL             ....   48
 Basis Dimension        Dim             ....  134

ORBITAL ENERGIES
----------------

  NO   OCC          E(Eh)            E(eV)
   0   2.0000     -14.017623      -381.4389
   1   2.0000     -14.013536      -381.3277
   2   2.0000      -9.951297      -270.7886
   3   2.0000      -9.950194      -270.7585
   4   2.0000      -9.918267      -269.8898
   5   2.0000      -9.824619      -267.3415
   6   2.0000      -0.868603       -23.6359
   7   2.0000      -0.784935       -21.3592
   8   2.0000      -0.675243       -18.3743
   9   2.0000      -0.611134       -16.6298
  10   2.0000      -0.567245       -15.4355
  11   2.0000      -0.496138       -13.5006
  12   2.0000      -0.468228       -12.7411
  13   2.0000      -0.457730       -12.4555
  14   2.0000      -0.413563       -11.2536
  15   2.0000      -0.408133       -11.1059
  16   2.0000      -0.344477        -9.3737
  17   2.0000      -0.338776        -9.2186
  18   2.0000      -0.334325        -9.0974
  19   2.0000      -0.314965        -8.5706
  20   2.0000      -0.305924        -8.3246
  21   2.0000      -0.292787        -7.9671
  22   2.0000      -0.194963        -5.3052
  23   2.0000      -0.114420        -3.1135
  24   0.0000       0.017295         0.4706
  25   0.0000       0.044452         1.2096
  26   0.0000       0.062363         1.6970
  27   0.0000       0.074539         2.0283
  28   0.0000       0.094453         2.5702

MULLIKEN ATOMIC CHARGES
-----------------------
   0 C :    0.151198
   1 C :    0.057949
   2 N :   -0.040913
   3 H :   -0.005726
   4 H :   -0.012317
   5 C :   -0.149950
   6 N :    0.022653
   7 C :   -0.050113
   8 H :   -0.088646
   9 H :   -0.092333
  10 H :    0.063512
  11 H :    0.067848
  12 H :    0.104141
  13 H :   -0.010691
  14 H :   -0.010839
  15 H :   -0.005774
Sum of atomic charges:   -0.0000000

LOEWDIN ATOMIC CHARGES
----------------------
   0 C :    0.050564
   1 C :   -0.042721
   2 N :   -0.001896
   3 H :    0.015072
   4 H :    0.011549
   5 C :    0.010593
   6 N :   -0.001295
   7 C :   -0.254205
   8 H :   -0.016360
   9 H :   -0.016723
  10 H :    0.055360
  11 H :    0.054424
  12 H :    0.079335
  13 H :    0.015261
  14 H :    0.015482
  15 H :    0.025561

  Mayer bond orders larger than 0.100000
B(  0-C ,  1-C ) :   1.1229 B(  0-C ,  2-N ) :   1.0268 B(  0-C ,  3-H ) :   0.9246
B(  0-C ,  4-H ) :   0.9345 B(  1-C , 13-H ) :   0.9641 B(  1-C , 14-H ) :   0.9617
B(  1-C , 15-H ) :   0.9552 B(  2-N ,  5-C ) :   1.2278 B(  2-N , 10-H ) :   0.9223
B(  5-C ,  6-N ) :   1.2483 B(  5-C ,  7-C ) :   1.7219 B(  6-N , 11-H ) :   0.9437
B(  6-N , 12-H ) :   0.9411 B(  7-C ,  8-H ) :   0.9177 B(  7-C ,  9-H ) :   0.9234

Dispersion correction           -0.025289959
FINAL SINGLE POINT ENERGY      -267.581276975829

DIPOLE MOMENT
-------------
                                X             Y             Z
Electronic contribution:      3.09354       2.73676      -0.15120
Nuclear contribution   :     -3.68222      -1.93858       0.98231
                        -----------------------------------------
Total Dipole Moment    :     -0.58868       0.79818       0.83111
                        -----------------------------------------
Magnitude (a.u.)       :      1.29398
Magnitude (Debye)      :      3.28903

Rotational constants in cm-1:     0.275407     0.068040     0.056255
Rotational constants in MHz :  8256.498401  2039.796466  1686.484500

                             ****ORCA TERMINATED NORMALLY****
TOTAL RUN TIME: 0 days 0 hours 0 minutes 8 seconds 324 msec
