                         Program Version 5.0.0 -  RELEASE  -
|  1> !BLYP D3BJ RIJCOSX def2-TZVP def2/J TightSCF xyzfile
|  2>
|  3> *xyzfile 0 1 D3.xyz
|  4>
|  5> %MaxCore 64000
|  6>
|  7> %pal nprocs 18
|  8> end
|  9>
| 10> %scf
| 11>   MaxIter 150
| 12> end
| 13>
| 14>
| 15>                          ****END OF INPUT****

CARTESIAN COORDINATES (ANGSTROEM)
---------------------------------
  C      1.635557   -1.670396   -5.292109
  C      0.338484   -1.500907   -4.505398
  N      2.484511   -0.507410   -5.140392
  C     -0.684873   -0.528026   -5.099889
  C     -0.290406    0.951335   -5.153423
  H      0.607991    1.070692   -5.764412
  C     -0.055168    1.619420   -3.788577
  H     -1.080912    1.483775   -5.689436
  H      0.045006    0.862302   -3.003015
  H     -0.922936    2.230329   -3.517028
  C      1.223022    2.469865   -3.756911
  H      1.114701    3.258074   -4.532999
  H      1.237732    3.011242   -2.792157
  F      2.353815    1.712032   -3.934477
  H      1.398337   -1.829239   -6.352591
  H      2.155864   -2.565398   -4.932091
  C      3.451149   -0.149530   -5.952589
  N      3.922667    1.089559   -5.850711
  C      3.966162   -1.006183   -6.867880
  H      3.521391   -1.906467   -6.995270
  H      4.444824   -0.623472   -7.670348
  H      2.251995    0.240804   -4.498792
  H      3.464277    1.640782   -5.136392
  H      4.834470    1.313745   -6.224653
  H     -0.937999   -0.869056   -6.110838
  H     -1.604638   -0.622496   -4.513132
  H      0.594887   -1.211578   -3.482312
  H     -0.126530   -2.487656   -4.434176

 Total Charge           Charge          ....    0
 Multiplicity           Mult            ....    1
 Number of Electrons    NEL             ....   88
 Basis Dimension        Dim             ....  443

ORBITAL ENERGIES
----------------

  NO   OCC          E(Eh)            E(eV)
   0   2.0000     -24.327162      -661.9757
   1   2.0000     -13.980839      -380.4380
   2   2.0000     -13.976110      -380.3093
   3   2.0000     -10.008357      -272.3413
   4   2.0000      -9.927646      -270.1450
   5   2.0000      -9.924196      -270.0511
   6   2.0000      -9.921878      -269.9880
   7   2.0000      -9.910674      -269.6832
   8   2.0000      -9.907525      -269.5975
   9   2.0000      -9.904321      -269.5103
  10   2.0000      -9.797246      -266.5966
  11   2.0000      -1.154170       -31.4066
  12   2.0000      -0.865146       -23.5418
  13   2.0000      -0.783509       -21.3204
  14   2.0000      -0.742075       -20.1929
  15   2.0000      -0.701612       -19.0918
  16   2.0000      -0.654871       -17.8199
  17   2.0000      -0.618349       -16.8261
  18   2.0000      -0.589683       -16.0461
  19   2.0000      -0.567454       -15.4412
  20   2.0000      -0.516331       -14.0501
  21   2.0000      -0.509006       -13.8508
  22   2.0000      -0.495985       -13.4964
  23   2.0000      -0.470760       -12.8100
  24   2.0000      -0.468184       -12.7399
  25   2.0000      -0.439923       -11.9709
  26   2.0000      -0.434040       -11.8108
  27   2.0000      -0.419473       -11.4144
  28   2.0000      -0.408874       -11.1260
  29   2.0000      -0.385176       -10.4812
  30   2.0000      -0.375686       -10.2229
  31   2.0000      -0.365610        -9.9487
  32   2.0000      -0.350970        -9.5504
  33   2.0000      -0.330297        -8.9878
  34   2.0000      -0.327634        -8.9154
  35   2.0000      -0.316764        -8.6196
  36   2.0000      -0.310806        -8.4575
  37   2.0000      -0.306028        -8.3274
  38   2.0000      -0.295667        -8.0455
  39   2.0000      -0.289820        -7.8864
  40   2.0000      -0.281553        -7.6614
  41   2.0000      -0.276090        -7.5128
  42   2.0000      -0.185055        -5.0356
  43   2.0000      -0.111912        -3.0453
  44   0.0000       0.001852         0.0504
  45   0.0000       0.017792         0.4842
  46   0.0000       0.022163         0.6031
  47   0.0000       0.029423         0.8006
  48   0.0000       0.038194         1.0393

MULLIKEN ATOMIC CHARGES
-----------------------
   0 C :   -0.027067
   1 C :   -0.183166
   2 N :   -0.266101
   3 C :   -0.138802
   4 C :   -0.198195
   5 H :    0.125809
   6 C :   -0.175328
   7 H :    0.079668
   8 H :    0.099015
   9 H :    0.098613
  10 C :    0.030019
  11 H :    0.099308
  12 H :    0.101027
  13 F :   -0.231903
  14 H :    0.075581
  15 H :    0.085057
  16 C :    0.310189
  17 N :   -0.447345
  18 C :   -0.511718
  19 H :    0.059567
  20 H :    0.059016
  21 H :    0.201792
  22 H :    0.217098
  23 H :    0.209692
  24 H :    0.083045
  25 H :    0.076170
  26 H :    0.082271
  27 H :    0.086690
Sum of atomic charges:   -0.0000000

LOEWDIN ATOMIC CHARGES
----------------------
   0 C :   -0.272199
   1 C :   -0.266036
   2 N :    0.129535
   3 C :   -0.261131
   4 C :   -0.266900
   5 H :    0.140409
   6 C :   -0.265767
   7 H :    0.132998
   8 H :    0.137646
   9 H :    0.142262
  10 C :   -0.340983
  11 H :    0.126122
  12 H :    0.124534
  13 F :    0.154857
  14 H :    0.130236
  15 H :    0.126374
  16 C :   -0.479622
  17 N :   -0.014698
  18 C :   -0.365536
  19 H :    0.091031
  20 H :    0.088658
  21 H :    0.157604
  22 H :    0.143871
  23 H :    0.167402
  24 H :    0.137355
  25 H :    0.134154
  26 H :    0.128803
  27 H :    0.139021

  Mayer bond orders larger than 0.100000
B(  0-C ,  1-C ) :   0.9669 B(  0-C ,  2-N ) :   0.9496 B(  0-C , 14-H ) :   0.9501
B(  0-C , 15-H ) :   0.9547 B(  1-C ,  3-C ) :   0.9786 B(  1-C , 26-H ) :   0.9695
B(  1-C , 27-H ) :   0.9665 B(  2-N , 16-C ) :   1.1962 B(  2-N , 21-H ) :   0.8940
B(  3-C ,  4-C ) :   0.9637 B(  3-C , 24-H ) :   0.9564 B(  3-C , 25-H ) :   0.9604
B(  4-C ,  5-H ) :   0.9747 B(  4-C ,  6-C ) :   0.9234 B(  4-C ,  7-H ) :   0.9597
B(  6-C ,  8-H ) :   0.9650 B(  6-C ,  9-H ) :   0.9435 B(  6-C , 10-C ) :   0.9703
B( 10-C , 11-H ) :   0.9705 B( 10-C , 12-H ) :   0.9604 B( 10-C , 13-F ) :   0.9024
B( 16-C , 17-N ) :   1.1517 B( 16-C , 18-C ) :   1.5842 B( 17-N , 22-H ) :   0.8927
B( 17-N , 23-H ) :   0.9295 B( 18-C , 19-H ) :   1.0070 B( 18-C , 20-H ) :   0.9984

Dispersion correction           -0.057369429
FINAL SINGLE POINT ENERGY      -524.387662570286

DIPOLE MOMENT
-------------
                                X             Y             Z
Electronic contribution:      6.32770       4.45925       2.80776
Nuclear contribution   :     -7.84660      -3.08098      -1.66782
                        -----------------------------------------
Total Dipole Moment    :     -1.51890       1.37826       1.13994
                        -----------------------------------------
Magnitude (a.u.)       :      2.34652
Magnitude (Debye)      :      5.96437

Rotational constants in cm-1:     0.043547     0.029898     0.020008
Rotational constants in MHz :  1305.520367   896.323854   599.829375

                             ****ORCA TERMINATED NORMALLY****
TOTAL RUN TIME: 0 days 0 hours 0 minutes 17 seconds 160 msec
