                         Program Version 5.0.0 -  RELEASE  -
|  1> !M062X D3Zero RIJCOSX def2-TZVPD def2/J TightSCF
|  2> *xyz -1 1
|  3> C          0.61188        1.65763       -4.50029
|  4> C          1.69499        1.54179       -5.57045
|  5> H          2.69733        1.73466       -5.18400
|  6> H          1.50666        2.27224       -6.35808
|  7> S          1.78029       -0.03313       -6.42874
|  8> O          2.56929        0.21366       -7.60736
|  9> O          0.41688       -0.46297       -6.61859
| 10> O          2.50513       -0.93326       -5.48257
| 11> H         -0.34424        1.45871       -4.93752
| 12> H          0.61845        2.64655       -4.09174
| 13> H          0.80247        0.94882       -3.72173
| 14> *
| 15> %MaxCore 64000
| 16>
| 17> %pal nprocs 4
| 18> end
| 19>
| 20> %scf
| 21>   MaxIter 150
| 22> end
| 23>
| 24>
| 25>                          ****END OF INPUT****

CARTESIAN COORDINATES (ANGSTROEM)
---------------------------------
  C      0.611880    1.657630   -4.500290
  C      1.694990    1.541790   -5.570450
  H      2.697330    1.734660   -5.184000
  H      1.506660    2.272240   -6.358080
  S      1.780290   -0.033130   -6.428740
  O      2.569290    0.213660   -7.607360
  O      0.416880   -0.462970   -6.618590
  O      2.505130   -0.933260   -5.482570
  H     -0.344240    1.458710   -4.937520
  H      0.618450    2.646550   -4.091740
  H      0.802470    0.948820   -3.721730

 Total Charge           Charge          ....   -1
 Multiplicity           Mult            ....    1
 Number of Electrons    NEL             ....   58
 Basis Dimension        Dim             ....  285

ORBITAL ENERGIES
----------------

  NO   OCC          E(Eh)            E(eV)
   0   2.0000     -89.889026     -2446.0048
   1   2.0000     -19.408938      -528.1441
   2   2.0000     -19.408035      -528.1195
   3   2.0000     -19.389698      -527.6205
   4   2.0000     -10.396085      -282.8919
   5   2.0000     -10.390152      -282.7304
   6   2.0000      -8.213920      -223.5121
   7   2.0000      -6.136589      -166.9851
   8   2.0000      -6.135501      -166.9555
   9   2.0000      -6.135269      -166.9492
  10   2.0000      -1.047971       -28.5167
  11   2.0000      -0.919008       -25.0075
  12   2.0000      -0.884431       -24.0666
  13   2.0000      -0.730326       -19.8732
  14   2.0000      -0.596807       -16.2400
  15   2.0000      -0.467021       -12.7083
  16   2.0000      -0.393992       -10.7211
  17   2.0000      -0.389669       -10.6034
  18   2.0000      -0.353293        -9.6136
  19   2.0000      -0.340619        -9.2687
  20   2.0000      -0.328941        -8.9509
  21   2.0000      -0.294182        -8.0051
  22   2.0000      -0.279361        -7.6018
  23   2.0000      -0.229474        -6.2443
  24   2.0000      -0.227131        -6.1806
  25   2.0000      -0.192898        -5.2490
  26   2.0000      -0.177635        -4.8337
  27   2.0000      -0.165612        -4.5065
  28   2.0000      -0.137283        -3.7357
  29   0.0000       0.127839         3.4787
  30   0.0000       0.143849         3.9143
  31   0.0000       0.145878         3.9695
  32   0.0000       0.156663         4.2630
  33   0.0000       0.174338         4.7440

MULLIKEN ATOMIC CHARGES
-----------------------
   0 C :   -1.138199
   1 C :   -0.494378
   2 H :    0.322910
   3 H :    0.340188
   4 S :    1.350764
   5 O :   -0.746857
   6 O :   -0.756219
   7 O :   -0.794393
   8 H :    0.287591
   9 H :    0.334110
  10 H :    0.294482
Sum of atomic charges:   -1.0000000

LOEWDIN ATOMIC CHARGES
----------------------
   0 C :   -0.147261
   1 C :   -0.331600
   2 H :    0.087078
   3 H :    0.081502
   4 S :    0.365649
   5 O :   -0.397213
   6 O :   -0.391047
   7 O :   -0.439978
   8 H :    0.057776
   9 H :    0.050376
  10 H :    0.064718

  Mayer bond orders larger than 0.100000
B(  0-C ,  1-C ) :   0.5192 B(  0-C ,  8-H ) :   1.0126 B(  0-C ,  9-H ) :   0.9302
B(  0-C , 10-H ) :   0.9937 B(  1-C ,  2-H ) :   0.9543 B(  1-C ,  3-H ) :   0.9314
B(  1-C ,  4-S ) :   0.8774 B(  1-C ,  5-O ) :   0.1210 B(  1-C ,  7-O ) :   0.1218
B(  4-S ,  5-O ) :   1.4417 B(  4-S ,  6-O ) :   1.4503 B(  4-S ,  7-O ) :   1.3927

Dispersion correction           -0.000147532
FINAL SINGLE POINT ENERGY      -703.159951309734

DIPOLE MOMENT
-------------
                                X             Y             Z
Electronic contribution:      2.22159      -5.58714      -4.97779
Nuclear contribution   :     -2.69163       7.29476       5.86550
                        -----------------------------------------
Total Dipole Moment    :     -0.47004       1.70762       0.88771
                        -----------------------------------------
Magnitude (a.u.)       :      1.98115
Magnitude (Debye)      :      5.03568

Rotational constants in cm-1:     0.163060     0.082831     0.081111
Rotational constants in MHz :  4888.419330  2483.225008  2431.646841

                             ****ORCA TERMINATED NORMALLY****
TOTAL RUN TIME: 0 days 0 hours 0 minutes 36 seconds 47 msec
