                         Program Version 5.0.0 -  RELEASE  -
|  1> !M062X D3Zero RIJCOSX def2-TZVPD def2/J TightSCF
|  2> *xyz 1 1
|  3> C          1.96337       -1.74915       -1.89689
|  4> N          2.73849       -2.01517       -3.09711
|  5> C          4.04974       -2.15472       -3.15204
|  6> N          4.65821       -1.98629       -4.31866
|  7> N          4.76423       -2.45444       -2.05049
|  8> H          4.28736       -2.77626       -1.21750
|  9> H          5.75082       -2.65835       -2.12599
| 10> H          2.34518       -1.69027       -3.97145
| 11> H          4.10900       -1.59268       -5.07176
| 12> H          5.64910       -2.15646       -4.42724
| 13> C          2.08852       -0.30091       -1.41520
| 14> H          2.23127       -2.45162       -1.10264
| 15> H          0.93025       -1.97780       -2.15544
| 16> H          1.82118        0.36368       -2.21003
| 17> H          3.09792       -0.11068       -1.11551
| 18> H          1.43391       -0.14382       -0.58352
| 19> *
| 20> %MaxCore 64000
| 21>
| 22> %pal nprocs 4
| 23> end
| 24>
| 25> %scf
| 26>   MaxIter 150
| 27> end
| 28>
| 29>
| 30>                          ****END OF INPUT****

CARTESIAN COORDINATES (ANGSTROEM)
---------------------------------
  C      1.963370   -1.749150   -1.896890
  N      2.738490   -2.015170   -3.097110
  C      4.049740   -2.154720   -3.152040
  N      4.658210   -1.986290   -4.318660
  N      4.764230   -2.454440   -2.050490
  H      4.287360   -2.776260   -1.217500
  H      5.750820   -2.658350   -2.125990
  H      2.345180   -1.690270   -3.971450
  H      4.109000   -1.592680   -5.071760
  H      5.649100   -2.156460   -4.427240
  C      2.088520   -0.300910   -1.415200
  H      2.231270   -2.451620   -1.102640
  H      0.930250   -1.977800   -2.155440
  H      1.821180    0.363680   -2.210030
  H      3.097920   -0.110680   -1.115510
  H      1.433910   -0.143820   -0.583520

 Total Charge           Charge          ....    1
 Multiplicity           Mult            ....    1
 Number of Electrons    NEL             ....   48
 Basis Dimension        Dim             ....  312

ORBITAL ENERGIES
----------------

  NO   OCC          E(Eh)            E(eV)
   0   2.0000     -14.972897      -407.4332
   1   2.0000     -14.972042      -407.4100
   2   2.0000     -14.971087      -407.3840
   3   2.0000     -10.877681      -295.9968
   4   2.0000     -10.744153      -292.3633
   5   2.0000     -10.669932      -290.3436
   6   2.0000      -1.332130       -36.2491
   7   2.0000      -1.212379       -32.9905
   8   2.0000      -1.198623       -32.6162
   9   2.0000      -1.026607       -27.9354
  10   2.0000      -0.929435       -25.2912
  11   2.0000      -0.888802       -24.1855
  12   2.0000      -0.861447       -23.4412
  13   2.0000      -0.822416       -22.3791
  14   2.0000      -0.764729       -20.8093
  15   2.0000      -0.757395       -20.6098
  16   2.0000      -0.730461       -19.8769
  17   2.0000      -0.699468       -19.0335
  18   2.0000      -0.669380       -18.2148
  19   2.0000      -0.630959       -17.1693
  20   2.0000      -0.596728       -16.2378
  21   2.0000      -0.576005       -15.6739
  22   2.0000      -0.543840       -14.7986
  23   2.0000      -0.511591       -13.9211
  24   0.0000      -0.144604        -3.9349
  25   0.0000      -0.133596        -3.6353
  26   0.0000      -0.113986        -3.1017
  27   0.0000      -0.106227        -2.8906
  28   0.0000      -0.078733        -2.1424

MULLIKEN ATOMIC CHARGES
-----------------------
   0 C :   -0.601806
   1 N :   -0.376067
   2 C :    1.138339
   3 N :   -0.583545
   4 N :   -0.558102
   5 H :    0.254622
   6 H :    0.267726
   7 H :    0.283550
   8 H :    0.237744
   9 H :    0.245988
  10 C :   -1.026973
  11 H :    0.343640
  12 H :    0.366644
  13 H :    0.329175
  14 H :    0.309154
  15 H :    0.369912
Sum of atomic charges:    1.0000000

LOEWDIN ATOMIC CHARGES
----------------------
   0 C :   -0.204033
   1 N :    0.073466
   2 C :   -0.437057
   3 N :    0.204593
   4 N :    0.213191
   5 H :    0.130027
   6 H :    0.138811
   7 H :    0.167186
   8 H :    0.141688
   9 H :    0.144206
  10 C :   -0.056199
  11 H :    0.120227
  12 H :    0.130949
  13 H :    0.078394
  14 H :    0.071513
  15 H :    0.083039

  Mayer bond orders larger than 0.100000
B(  0-C ,  1-N ) :   0.7490 B(  0-C ,  2-C ) :  -0.1076 B(  0-C , 10-C ) :   0.6021
B(  0-C , 11-H ) :   0.8997 B(  0-C , 12-H ) :   0.9081 B(  1-N ,  2-C ) :   1.1667
B(  1-N ,  7-H ) :   0.9568 B(  2-C ,  3-N ) :   0.9181 B(  2-C ,  4-N ) :   1.0035
B(  3-N ,  8-H ) :   0.9784 B(  3-N ,  9-H ) :   0.9935 B(  4-N ,  5-H ) :   0.9367
B(  4-N ,  6-H ) :   0.9668 B( 10-C , 13-H ) :   0.9896 B( 10-C , 14-H ) :   0.9390
B( 10-C , 15-H ) :   0.9506

Dispersion correction           -0.000320300
FINAL SINGLE POINT ENERGY      -284.371586549433

DIPOLE MOMENT
-------------
                                X             Y             Z
Electronic contribution:      3.00568      -2.69928      -3.07627
Nuclear contribution   :     -2.17768       2.37118       2.44574
                        -----------------------------------------
Total Dipole Moment    :      0.82799      -0.32810      -0.63053
                        -----------------------------------------
Magnitude (a.u.)       :      1.09123
Magnitude (Debye)      :      2.77369

Rotational constants in cm-1:     0.215650     0.075183     0.066454
Rotational constants in MHz :  6465.033740  2253.919004  1992.232519

                             ****ORCA TERMINATED NORMALLY****
TOTAL RUN TIME: 0 days 0 hours 0 minutes 51 seconds 83 msec
