                         Program Version 5.0.0 -  RELEASE  -
|  1> !M062X D3Zero RIJCOSX def2-TZVPD def2/J TightSCF xyzfile
|  2>
|  3> *xyzfile 0 1 B.xyz
|  4>
|  5> %MaxCore 64000
|  6>
|  7> %pal nprocs 4
|  8> end
|  9>
| 10> %scf
| 11>   MaxIter 150
| 12> end
| 13>
| 14>
| 15>                          ****END OF INPUT****

CARTESIAN COORDINATES (ANGSTROEM)
---------------------------------
  C      1.963365   -1.749150   -1.896887
  N      2.738490   -2.015170   -3.097113
  C      0.611877    1.657634   -4.500288
  C      1.694991    1.541794   -5.570447
  H      2.697326    1.734659   -5.183996
  H      1.506656    2.272239   -6.358076
  S      1.780287   -0.033128   -6.428739
  C      4.049736   -2.154717   -3.152044
  N      4.658206   -1.986293   -4.318655
  N      4.764231   -2.454435   -2.050491
  H      4.287363   -2.776259   -1.217496
  H      5.750825   -2.658351   -2.125988
  H      2.345176   -1.690274   -3.971447
  H      4.109004   -1.592677   -5.071760
  H      5.649095   -2.156462   -4.427237
  O      2.569287    0.213657   -7.607360
  O      0.416880   -0.462969   -6.618595
  C      2.088520   -0.300912   -1.415204
  H      2.231272   -2.451616   -1.102643
  H      0.930249   -1.977801   -2.155438
  C      0.680356    0.655418   -3.348038
  H     -0.356865    1.549231   -4.991128
  H      0.650228    2.675438   -4.096000
  C      1.968993    0.733582   -2.535654
  H      3.051356   -0.168602   -0.911868
  H      1.316501   -0.136231   -0.657252
  O      2.505129   -0.933263   -5.482570
  H      2.824195    0.624726   -3.208464
  H      2.058919    1.730331   -2.093112
  H      0.542252   -0.344731   -3.766662
  H     -0.174219    0.829692   -2.685182

 Total Charge           Charge          ....    0
 Multiplicity           Mult            ....    1
 Number of Electrons    NEL             ....  120
 Basis Dimension        Dim             ....  689

ORBITAL ENERGIES
----------------

  NO   OCC          E(Eh)            E(eV)
   0   2.0000     -90.037517     -2450.0454
   1   2.0000     -19.567725      -532.4649
   2   2.0000     -19.546980      -531.9004
   3   2.0000     -19.545387      -531.8570
   4   2.0000     -14.836424      -403.7196
   5   2.0000     -14.807806      -402.9409
   6   2.0000     -14.804096      -402.8399
   7   2.0000     -10.726146      -291.8733
   8   2.0000     -10.610124      -288.7162
   9   2.0000     -10.558673      -287.3161
  10   2.0000     -10.539234      -286.7871
  11   2.0000     -10.527557      -286.4694
  12   2.0000     -10.524587      -286.3886
  13   2.0000     -10.523581      -286.3612
  14   2.0000      -8.362651      -227.5593
  15   2.0000      -6.285516      -171.0376
  16   2.0000      -6.284544      -171.0111
  17   2.0000      -6.283411      -170.9803
  18   2.0000      -1.197979       -32.5987
  19   2.0000      -1.179835       -32.1049
  20   2.0000      -1.067215       -29.0404
  21   2.0000      -1.056653       -28.7530
  22   2.0000      -1.055489       -28.7213
  23   2.0000      -1.046898       -28.4875
  24   2.0000      -0.922454       -25.1012
  25   2.0000      -0.881026       -23.9739
  26   2.0000      -0.829271       -22.5656
  27   2.0000      -0.786705       -21.4073
  28   2.0000      -0.756412       -20.5830
  29   2.0000      -0.717662       -19.5286
  30   2.0000      -0.710596       -19.3363
  31   2.0000      -0.675632       -18.3849
  32   2.0000      -0.655539       -17.8381
  33   2.0000      -0.632928       -17.2229
  34   2.0000      -0.614747       -16.7281
  35   2.0000      -0.598075       -16.2745
  36   2.0000      -0.582444       -15.8491
  37   2.0000      -0.552806       -15.0426
  38   2.0000      -0.549406       -14.9501
  39   2.0000      -0.543120       -14.7790
  40   2.0000      -0.528610       -14.3842
  41   2.0000      -0.515940       -14.0394
  42   2.0000      -0.501070       -13.6348
  43   2.0000      -0.490775       -13.3547
  44   2.0000      -0.477926       -13.0050
  45   2.0000      -0.465538       -12.6679
  46   2.0000      -0.443325       -12.0635
  47   2.0000      -0.435525       -11.8512
  48   2.0000      -0.428337       -11.6556
  49   2.0000      -0.403259       -10.9732
  50   2.0000      -0.401196       -10.9171
  51   2.0000      -0.392095       -10.6694
  52   2.0000      -0.380497       -10.3538
  53   2.0000      -0.375175       -10.2090
  54   2.0000      -0.372698       -10.1416
  55   2.0000      -0.357864        -9.7380
  56   2.0000      -0.337784        -9.1916
  57   2.0000      -0.328410        -8.9365
  58   2.0000      -0.311311        -8.4712
  59   2.0000      -0.295024        -8.0280
  60   0.0000      -0.029002        -0.7892
  61   0.0000      -0.002750        -0.0748
  62   0.0000       0.004045         0.1101
  63   0.0000       0.018807         0.5118
  64   0.0000       0.025210         0.6860

MULLIKEN ATOMIC CHARGES
-----------------------
   0 C :   -1.147737
   1 N :   -0.316635
   2 C :   -0.921117
   3 C :   -0.725656
   4 H :    0.305248
   5 H :    0.418409
   6 S :    1.256883
   7 C :    1.031250
   8 N :   -0.579640
   9 N :   -0.602945
  10 H :    0.244471
  11 H :    0.255911
  12 H :    0.655614
  13 H :    0.441435
  14 H :    0.208198
  15 O :   -0.804480
  16 O :   -0.777641
  17 C :   -0.612386
  18 H :    0.399645
  19 H :    0.450868
  20 C :   -0.546172
  21 H :    0.350636
  22 H :    0.386291
  23 C :   -0.325966
  24 H :    0.320094
  25 H :    0.434098
  26 O :   -0.966403
  27 H :    0.136471
  28 H :    0.436621
  29 H :    0.213928
  30 H :    0.380706
Sum of atomic charges:   -0.0000000

LOEWDIN ATOMIC CHARGES
----------------------
   0 C :   -0.169177
   1 N :    0.087888
   2 C :   -0.229933
   3 C :   -0.251406
   4 H :    0.095853
   5 H :    0.101569
   6 S :    0.457818
   7 C :   -0.442609
   8 N :    0.202588
   9 N :    0.184060
  10 H :    0.115466
  11 H :    0.123400
  12 H :    0.089133
  13 H :    0.085109
  14 H :    0.132491
  15 O :   -0.344364
  16 O :   -0.334277
  17 C :   -0.183893
  18 H :    0.112112
  19 H :    0.127849
  20 C :   -0.217648
  21 H :    0.112611
  22 H :    0.114498
  23 C :   -0.210983
  24 H :    0.107704
  25 H :    0.117707
  26 O :   -0.429735
  27 H :    0.103130
  28 H :    0.121784
  29 H :    0.099796
  30 H :    0.121459

  Mayer bond orders larger than 0.100000
B(  0-C ,  1-N ) :   0.8533 B(  0-C ,  7-C ) :  -0.1781 B(  0-C ,  9-N ) :   0.1309
B(  0-C , 12-H ) :  -0.2218 B(  0-C , 17-C ) :   0.5625 B(  0-C , 18-H ) :   0.8523
B(  0-C , 19-H ) :   0.8636 B(  0-C , 20-C ) :   0.1458 B(  0-C , 25-H ) :  -0.1117
B(  1-N ,  7-C ) :   1.1852 B(  1-N , 12-H ) :   0.6551 B(  1-N , 26-O ) :  -0.1127
B(  2-C ,  3-C ) :   0.7010 B(  2-C , 20-C ) :   0.7007 B(  2-C , 21-H ) :   0.9791
B(  2-C , 22-H ) :   0.9323 B(  2-C , 23-C ) :   0.1786 B(  3-C ,  4-H ) :   0.9546
B(  3-C ,  5-H ) :   0.8720 B(  3-C ,  6-S ) :   0.8074 B(  3-C , 15-O ) :   0.1555
B(  3-C , 26-O ) :   0.1000 B(  6-S , 15-O ) :   1.3194 B(  6-S , 16-O ) :   1.4405
B(  6-S , 26-O ) :   1.4902 B(  7-C ,  8-N ) :   0.9731 B(  7-C ,  9-N ) :   0.9183
B(  8-N , 13-H ) :   0.8088 B(  8-N , 14-H ) :   1.0345 B(  9-N , 10-H ) :   0.9527
B(  9-N , 11-H ) :   0.9771 B( 12-H , 26-O ) :  -0.2488 B( 17-C , 20-C ) :   0.1625
B( 17-C , 23-C ) :   0.6806 B( 17-C , 24-H ) :   0.9525 B( 17-C , 25-H ) :   0.9329
B( 20-C , 23-C ) :   0.1524 B( 20-C , 27-H ) :  -0.1253 B( 20-C , 29-H ) :   1.0649
B( 20-C , 30-H ) :   0.8736 B( 23-C , 27-H ) :   1.1356 B( 23-C , 28-H ) :   0.8115
B( 23-C , 29-H ) :  -0.1920 B( 26-O , 29-H ) :   0.1015

Dispersion correction           -0.001931847
FINAL SINGLE POINT ENERGY     -1065.117425028760

DIPOLE MOMENT
-------------
                                X             Y             Z
Electronic contribution:      2.24296      -4.95105     -14.17120
Nuclear contribution   :      0.44641       3.59123      19.13564
                        -----------------------------------------
Total Dipole Moment    :      2.68937      -1.35982       4.96444
                        -----------------------------------------
Magnitude (a.u.)       :      5.80753
Magnitude (Debye)      :     14.76158

Rotational constants in cm-1:     0.029186     0.014646     0.011115
Rotational constants in MHz :   874.975540   439.070287   333.231642

                             ****ORCA TERMINATED NORMALLY****
TOTAL RUN TIME: 0 days 0 hours 6 minutes 8 seconds 709 msec
