                         Program Version 5.0.0 -  RELEASE  -
|  1> !M062X D3Zero RIJCOSX def2-TZVPD def2/J TightSCF
|  2> *xyz 0 1
|  3> C          0.61188        1.65763       -4.50029
|  4> C          1.69499        1.54179       -5.57045
|  5> H          2.69733        1.73466       -5.18400
|  6> H          1.50666        2.27224       -6.35808
|  7> S          1.78029       -0.03313       -6.42874
|  8> F          2.56929        0.21366       -7.60736
|  9> O          0.41688       -0.46297       -6.61859
| 10> O          2.50513       -0.93326       -5.48257
| 11> H         -0.34424        1.45871       -4.93752
| 12> H          0.61845        2.64655       -4.09174
| 13> H          0.80247        0.94882       -3.72173
| 14> *
| 15> %MaxCore 64000
| 16>
| 17> %pal nprocs 4
| 18> end
| 19>
| 20> %scf
| 21>   MaxIter 150
| 22> end
| 23>
| 24>
| 25>                          ****END OF INPUT****

CARTESIAN COORDINATES (ANGSTROEM)
---------------------------------
  C      0.611880    1.657630   -4.500290
  C      1.694990    1.541790   -5.570450
  H      2.697330    1.734660   -5.184000
  H      1.506660    2.272240   -6.358080
  S      1.780290   -0.033130   -6.428740
  F      2.569290    0.213660   -7.607360
  O      0.416880   -0.462970   -6.618590
  O      2.505130   -0.933260   -5.482570
  H     -0.344240    1.458710   -4.937520
  H      0.618450    2.646550   -4.091740
  H      0.802470    0.948820   -3.721730

 Total Charge           Charge          ....    0
 Multiplicity           Mult            ....    1
 Number of Electrons    NEL             ....   58
 Basis Dimension        Dim             ....  285

ORBITAL ENERGIES
----------------

  NO   OCC          E(Eh)            E(eV)
   0   2.0000     -90.153351     -2453.1974
   1   2.0000     -25.371294      -690.3880
   2   2.0000     -19.643784      -534.5345
   3   2.0000     -19.624266      -534.0034
   4   2.0000     -10.599500      -288.4271
   5   2.0000     -10.554694      -287.2078
   6   2.0000      -8.478710      -230.7174
   7   2.0000      -6.403478      -174.2475
   8   2.0000      -6.398576      -174.1141
   9   2.0000      -6.398033      -174.0993
  10   2.0000      -1.535061       -41.7711
  11   2.0000      -1.227711       -33.4077
  12   2.0000      -1.120361       -30.4866
  13   2.0000      -0.923269       -25.1234
  14   2.0000      -0.840167       -22.8621
  15   2.0000      -0.769634       -20.9428
  16   2.0000      -0.693109       -18.8605
  17   2.0000      -0.686407       -18.6781
  18   2.0000      -0.643842       -17.5198
  19   2.0000      -0.569332       -15.4923
  20   2.0000      -0.563081       -15.3222
  21   2.0000      -0.520598       -14.1662
  22   2.0000      -0.501600       -13.6492
  23   2.0000      -0.476866       -12.9762
  24   2.0000      -0.459964       -12.5162
  25   2.0000      -0.455054       -12.3827
  26   2.0000      -0.408996       -11.1294
  27   2.0000      -0.388859       -10.5814
  28   2.0000      -0.379254       -10.3200
  29   0.0000      -0.000657        -0.0179
  30   0.0000       0.017825         0.4850
  31   0.0000       0.025144         0.6842
  32   0.0000       0.029802         0.8110
  33   0.0000       0.055186         1.5017

MULLIKEN ATOMIC CHARGES
-----------------------
   0 C :   -1.155304
   1 C :   -0.534920
   2 H :    0.386653
   3 H :    0.411359
   4 S :    1.319049
   5 F :   -0.117891
   6 O :   -0.643863
   7 O :   -0.671814
   8 H :    0.331479
   9 H :    0.342989
  10 H :    0.332263
Sum of atomic charges:   -0.0000000

LOEWDIN ATOMIC CHARGES
----------------------
   0 C :   -0.100644
   1 C :   -0.287337
   2 H :    0.104759
   3 H :    0.097778
   4 S :    0.617792
   5 F :   -0.057736
   6 O :   -0.280532
   7 O :   -0.323816
   8 H :    0.073198
   9 H :    0.076048
  10 H :    0.080490

  Mayer bond orders larger than 0.100000
B(  0-C ,  1-C ) :   0.6085 B(  0-C ,  8-H ) :   0.9630 B(  0-C ,  9-H ) :   0.9258
B(  0-C , 10-H ) :   0.9546 B(  1-C ,  2-H ) :   0.8877 B(  1-C ,  3-H ) :   0.8404
B(  1-C ,  4-S ) :   0.8783 B(  4-S ,  5-F ) :   0.9329 B(  4-S ,  6-O ) :   1.6383
B(  4-S ,  7-O ) :   1.5663

Dispersion correction           -0.000142776
FINAL SINGLE POINT ENERGY      -727.670212370394

DIPOLE MOMENT
-------------
                                X             Y             Z
Electronic contribution:      3.85985      -5.60132      -7.53115
Nuclear contribution   :     -3.66946       7.33549       7.42434
                        -----------------------------------------
Total Dipole Moment    :      0.19039       1.73417      -0.10681
                        -----------------------------------------
Magnitude (a.u.)       :      1.74786
Magnitude (Debye)      :      4.44270

Rotational constants in cm-1:     0.158379     0.080294     0.077843
Rotational constants in MHz :  4748.076444  2407.152850  2333.668303

                             ****ORCA TERMINATED NORMALLY****
TOTAL RUN TIME: 0 days 0 hours 0 minutes 40 seconds 442 msec
