                         Program Version 5.0.0 -  RELEASE  -
|  1> !M062X D3Zero RIJCOSX def2-TZVPD def2/J TightSCF
|  2> *xyz 0 1
|  3> C          1.96337       -1.74915       -1.89689
|  4> C          2.73849       -2.01517       -3.09711
|  5> C          4.04974       -2.15472       -3.15204
|  6> N          4.65821       -1.98629       -4.31866
|  7> N          4.76423       -2.45444       -2.05049
|  8> H          4.28736       -2.77626       -1.21750
|  9> H          5.75082       -2.65835       -2.12599
| 10> H          2.34518       -1.69027       -3.97145
| 11> H          4.10900       -1.59268       -5.07176
| 12> H          5.64910       -2.15646       -4.42724
| 13> C          2.08852       -0.30091       -1.41520
| 14> H          2.23127       -2.45162       -1.10264
| 15> H          0.93025       -1.97780       -2.15544
| 16> H          1.82118        0.36368       -2.21003
| 17> H          3.09792       -0.11068       -1.11551
| 18> H          1.43391       -0.14382       -0.58352
| 19> *
| 20> %MaxCore 64000
| 21>
| 22> %pal nprocs 4
| 23> end
| 24>
| 25> %scf
| 26>   MaxIter 150
| 27> end
| 28>
| 29>
| 30>                          ****END OF INPUT****

CARTESIAN COORDINATES (ANGSTROEM)
---------------------------------
  C      1.963370   -1.749150   -1.896890
  C      2.738490   -2.015170   -3.097110
  C      4.049740   -2.154720   -3.152040
  N      4.658210   -1.986290   -4.318660
  N      4.764230   -2.454440   -2.050490
  H      4.287360   -2.776260   -1.217500
  H      5.750820   -2.658350   -2.125990
  H      2.345180   -1.690270   -3.971450
  H      4.109000   -1.592680   -5.071760
  H      5.649100   -2.156460   -4.427240
  C      2.088520   -0.300910   -1.415200
  H      2.231270   -2.451620   -1.102640
  H      0.930250   -1.977800   -2.155440
  H      1.821180    0.363680   -2.210030
  H      3.097920   -0.110680   -1.115510
  H      1.433910   -0.143820   -0.583520

 Total Charge           Charge          ....    0
 Multiplicity           Mult            ....    1
 Number of Electrons    NEL             ....   48
 Basis Dimension        Dim             ....  312

ORBITAL ENERGIES
----------------

  NO   OCC          E(Eh)            E(eV)
   0   2.0000     -14.749567      -401.3561
   1   2.0000     -14.746751      -401.2795
   2   2.0000     -10.581914      -287.9485
   3   2.0000     -10.508397      -285.9480
   4   2.0000     -10.496670      -285.6289
   5   2.0000     -10.455850      -284.5181
   6   2.0000      -1.071978       -29.1700
   7   2.0000      -0.975806       -26.5530
   8   2.0000      -0.872324       -23.7371
   9   2.0000      -0.786757       -21.4088
  10   2.0000      -0.702675       -19.1208
  11   2.0000      -0.658572       -17.9207
  12   2.0000      -0.616895       -16.7866
  13   2.0000      -0.584768       -15.9123
  14   2.0000      -0.541684       -14.7400
  15   2.0000      -0.507587       -13.8122
  16   2.0000      -0.489963       -13.3326
  17   2.0000      -0.456927       -12.4336
  18   2.0000      -0.446177       -12.1411
  19   2.0000      -0.417527       -11.3615
  20   2.0000      -0.389022       -10.5858
  21   2.0000      -0.379154       -10.3173
  22   2.0000      -0.332840        -9.0570
  23   2.0000      -0.212553        -5.7839
  24   0.0000       0.011225         0.3054
  25   0.0000       0.035760         0.9731
  26   0.0000       0.039516         1.0753
  27   0.0000       0.050667         1.3787
  28   0.0000       0.065497         1.7823

MULLIKEN ATOMIC CHARGES
-----------------------
   0 C :   -0.610544
   1 C :   -0.514505
   2 C :    0.821597
   3 N :   -0.636485
   4 N :   -0.616494
   5 H :    0.226131
   6 H :    0.227317
   7 H :    0.174231
   8 H :    0.216031
   9 H :    0.209320
  10 C :   -1.115261
  11 H :    0.385866
  12 H :    0.306101
  13 H :    0.322713
  14 H :    0.278937
  15 H :    0.325045
Sum of atomic charges:   -0.0000000

LOEWDIN ATOMIC CHARGES
----------------------
   0 C :   -0.288742
   1 C :   -0.155037
   2 C :   -0.549616
   3 N :    0.100948
   4 N :    0.121934
   5 H :    0.103754
   6 H :    0.099776
   7 H :    0.066603
   8 H :    0.113274
   9 H :    0.103718
  10 C :   -0.103626
  11 H :    0.096541
  12 H :    0.102394
  13 H :    0.067214
  14 H :    0.062902
  15 H :    0.057961

  Mayer bond orders larger than 0.100000
B(  0-C ,  1-C ) :   0.4502 B(  0-C , 10-C ) :   0.4913 B(  0-C , 11-H ) :   0.9300
B(  0-C , 12-H ) :   1.0719 B(  1-C ,  2-C ) :   1.2723 B(  1-C ,  7-H ) :   1.3038
B(  1-C , 11-H ) :  -0.1184 B(  1-C , 12-H ) :  -0.1141 B(  2-C ,  3-N ) :   0.8820
B(  2-C ,  4-N ) :   0.8694 B(  2-C ,  7-H ) :  -0.3426 B(  3-N ,  8-H ) :   0.9930
B(  3-N ,  9-H ) :   1.0253 B(  4-N ,  5-H ) :   0.9714 B(  4-N ,  6-H ) :   1.0015
B( 10-C , 13-H ) :   1.0050 B( 10-C , 14-H ) :   1.0015 B( 10-C , 15-H ) :   0.9628

Dispersion correction           -0.000318455
FINAL SINGLE POINT ENERGY      -267.889363800537

DIPOLE MOMENT
-------------
                                X             Y             Z
Electronic contribution:      3.25757      -2.42508      -2.51508
Nuclear contribution   :     -2.31778       2.31977       2.35294
                        -----------------------------------------
Total Dipole Moment    :      0.93980      -0.10531      -0.16215
                        -----------------------------------------
Magnitude (a.u.)       :      0.95948
Magnitude (Debye)      :      2.43880

Rotational constants in cm-1:     0.219415     0.075373     0.066689
Rotational constants in MHz :  6577.897266  2259.621393  1999.290981

                             ****ORCA TERMINATED NORMALLY****
TOTAL RUN TIME: 0 days 0 hours 0 minutes 51 seconds 979 msec
