                         Program Version 5.0.0 -  RELEASE  -
|  1> !M062X D3Zero RIJCOSX def2-TZVPD def2/J TightSCF
|  2> *xyz 0 1
|  3> C          0.61188        1.65763       -4.50029
|  4> C          1.69499        1.54179       -5.57045
|  5> H          2.69733        1.73466       -5.18400
|  6> H          1.50666        2.27224       -6.35808
|  7> S          1.78029       -0.03313       -6.42874
|  8> O          2.56929        0.21366       -7.60736
|  9> F          0.41688       -0.46297       -6.61859
| 10> O          2.50513       -0.93326       -5.48257
| 11> H         -0.34424        1.45871       -4.93752
| 12> H          0.61845        2.64655       -4.09174
| 13> H          0.80247        0.94882       -3.72173
| 14> *
| 15> %MaxCore 64000
| 16>
| 17> %pal nprocs 4
| 18> end
| 19>
| 20> %scf
| 21>   MaxIter 150
| 22> end
| 23>
| 24>
| 25>                          ****END OF INPUT****

CARTESIAN COORDINATES (ANGSTROEM)
---------------------------------
  C      0.611880    1.657630   -4.500290
  C      1.694990    1.541790   -5.570450
  H      2.697330    1.734660   -5.184000
  H      1.506660    2.272240   -6.358080
  S      1.780290   -0.033130   -6.428740
  O      2.569290    0.213660   -7.607360
  F      0.416880   -0.462970   -6.618590
  O      2.505130   -0.933260   -5.482570
  H     -0.344240    1.458710   -4.937520
  H      0.618450    2.646550   -4.091740
  H      0.802470    0.948820   -3.721730

 Total Charge           Charge          ....    0
 Multiplicity           Mult            ....    1
 Number of Electrons    NEL             ....   58
 Basis Dimension        Dim             ....  285

ORBITAL ENERGIES
----------------

  NO   OCC          E(Eh)            E(eV)
   0   2.0000     -90.153089     -2453.1903
   1   2.0000     -25.371063      -690.3817
   2   2.0000     -19.643185      -534.5182
   3   2.0000     -19.624502      -534.0098
   4   2.0000     -10.599392      -288.4241
   5   2.0000     -10.560130      -287.3558
   6   2.0000      -8.478475      -230.7110
   7   2.0000      -6.403419      -174.2459
   8   2.0000      -6.398182      -174.1034
   9   2.0000      -6.397771      -174.0922
  10   2.0000      -1.533680       -41.7336
  11   2.0000      -1.228776       -33.4367
  12   2.0000      -1.120171       -30.4814
  13   2.0000      -0.927298       -25.2331
  14   2.0000      -0.836614       -22.7654
  15   2.0000      -0.773692       -21.0532
  16   2.0000      -0.698150       -18.9976
  17   2.0000      -0.691352       -18.8126
  18   2.0000      -0.634552       -17.2670
  19   2.0000      -0.570311       -15.5189
  20   2.0000      -0.557059       -15.1584
  21   2.0000      -0.528169       -14.3722
  22   2.0000      -0.511516       -13.9191
  23   2.0000      -0.482112       -13.1189
  24   2.0000      -0.464618       -12.6429
  25   2.0000      -0.454568       -12.3694
  26   2.0000      -0.406792       -11.0694
  27   2.0000      -0.389489       -10.5985
  28   2.0000      -0.379483       -10.3263
  29   0.0000      -0.002259        -0.0615
  30   0.0000       0.019858         0.5404
  31   0.0000       0.023724         0.6455
  32   0.0000       0.029205         0.7947
  33   0.0000       0.054004         1.4695

MULLIKEN ATOMIC CHARGES
-----------------------
   0 C :   -1.164878
   1 C :   -0.484280
   2 H :    0.362516
   3 H :    0.388524
   4 S :    1.322224
   5 O :   -0.632943
   6 F :   -0.139171
   7 O :   -0.673205
   8 H :    0.347111
   9 H :    0.337734
  10 H :    0.336368
Sum of atomic charges:   -0.0000000

LOEWDIN ATOMIC CHARGES
----------------------
   0 C :   -0.111743
   1 C :   -0.278147
   2 H :    0.114399
   3 H :    0.100770
   4 S :    0.615503
   5 O :   -0.282240
   6 F :   -0.056879
   7 O :   -0.322897
   8 H :    0.068874
   9 H :    0.075054
  10 H :    0.077306

  Mayer bond orders larger than 0.100000
B(  0-C ,  1-C ) :   0.5195 B(  0-C ,  8-H ) :   0.9282 B(  0-C ,  9-H ) :   0.9483
B(  0-C , 10-H ) :   0.9756 B(  1-C ,  2-H ) :   0.9077 B(  1-C ,  3-H ) :   0.8901
B(  1-C ,  4-S ) :   0.8774 B(  4-S ,  5-O ) :   1.6306 B(  4-S ,  6-F ) :   0.9377
B(  4-S ,  7-O ) :   1.5808

Dispersion correction           -0.000154283
FINAL SINGLE POINT ENERGY      -727.669873262584

DIPOLE MOMENT
-------------
                                X             Y             Z
Electronic contribution:      0.21671      -6.73412      -5.83418
Nuclear contribution   :     -1.42658       8.04056       6.39401
                        -----------------------------------------
Total Dipole Moment    :     -1.20987       1.30644       0.55983
                        -----------------------------------------
Magnitude (a.u.)       :      1.86655
Magnitude (Debye)      :      4.74439

Rotational constants in cm-1:     0.153659     0.082363     0.078978
Rotational constants in MHz :  4606.587369  2469.179541  2367.702074

                             ****ORCA TERMINATED NORMALLY****
TOTAL RUN TIME: 0 days 0 hours 0 minutes 40 seconds 389 msec
