                         Program Version 5.0.0 -  RELEASE  -
|  1> !M062X D3Zero RIJCOSX def2-TZVPD def2/J TightSCF
|  2> *xyz 0 1
|  3> C          1.96337       -1.74915       -1.89689
|  4> N          2.73849       -2.01517       -3.09711
|  5> C          4.04974       -2.15472       -3.15204
|  6> C          4.65821       -1.98629       -4.31866
|  7> N          4.76423       -2.45444       -2.05049
|  8> H          4.28736       -2.77626       -1.21750
|  9> H          5.75082       -2.65835       -2.12599
| 10> H          2.34518       -1.69027       -3.97145
| 11> H          4.10900       -1.59268       -5.07176
| 12> H          5.64910       -2.15646       -4.42724
| 13> C          2.08852       -0.30091       -1.41520
| 14> H          2.23127       -2.45162       -1.10264
| 15> H          0.93025       -1.97780       -2.15544
| 16> H          1.82118        0.36368       -2.21003
| 17> H          3.09792       -0.11068       -1.11551
| 18> H          1.43391       -0.14382       -0.58352
| 19> *
| 20> %MaxCore 64000
| 21>
| 22> %pal nprocs 4
| 23> end
| 24>
| 25> %scf
| 26>   MaxIter 150
| 27> end
| 28>
| 29>
| 30>                          ****END OF INPUT****

CARTESIAN COORDINATES (ANGSTROEM)
---------------------------------
  C      1.963370   -1.749150   -1.896890
  N      2.738490   -2.015170   -3.097110
  C      4.049740   -2.154720   -3.152040
  C      4.658210   -1.986290   -4.318660
  N      4.764230   -2.454440   -2.050490
  H      4.287360   -2.776260   -1.217500
  H      5.750820   -2.658350   -2.125990
  H      2.345180   -1.690270   -3.971450
  H      4.109000   -1.592680   -5.071760
  H      5.649100   -2.156460   -4.427240
  C      2.088520   -0.300910   -1.415200
  H      2.231270   -2.451620   -1.102640
  H      0.930250   -1.977800   -2.155440
  H      1.821180    0.363680   -2.210030
  H      3.097920   -0.110680   -1.115510
  H      1.433910   -0.143820   -0.583520

 Total Charge           Charge          ....    0
 Multiplicity           Mult            ....    1
 Number of Electrons    NEL             ....   48
 Basis Dimension        Dim             ....  312

ORBITAL ENERGIES
----------------

  NO   OCC          E(Eh)            E(eV)
   0   2.0000     -14.747829      -401.3088
   1   2.0000     -14.746157      -401.2633
   2   2.0000     -10.582915      -287.9758
   3   2.0000     -10.575481      -287.7735
   4   2.0000     -10.521537      -286.3056
   5   2.0000     -10.448047      -284.3058
   6   2.0000      -1.080523       -29.4025
   7   2.0000      -0.988659       -26.9028
   8   2.0000      -0.867804       -23.6141
   9   2.0000      -0.795289       -21.6409
  10   2.0000      -0.716149       -19.4874
  11   2.0000      -0.678895       -18.4737
  12   2.0000      -0.610693       -16.6178
  13   2.0000      -0.568501       -15.4697
  14   2.0000      -0.548691       -14.9306
  15   2.0000      -0.507141       -13.8000
  16   2.0000      -0.502746       -13.6804
  17   2.0000      -0.468530       -12.7494
  18   2.0000      -0.449856       -12.2412
  19   2.0000      -0.437850       -11.9145
  20   2.0000      -0.425803       -11.5867
  21   2.0000      -0.419154       -11.4058
  22   2.0000      -0.318876        -8.6770
  23   2.0000      -0.216601        -5.8940
  24   0.0000       0.011150         0.3034
  25   0.0000       0.034819         0.9475
  26   0.0000       0.038085         1.0363
  27   0.0000       0.041185         1.1207
  28   0.0000       0.068413         1.8616

MULLIKEN ATOMIC CHARGES
-----------------------
   0 C :   -0.611943
   1 N :   -0.389796
   2 C :    1.067279
   3 C :   -1.155306
   4 N :   -0.614671
   5 H :    0.226792
   6 H :    0.234068
   7 H :    0.280890
   8 H :    0.169106
   9 H :    0.197003
  10 C :   -1.015001
  11 H :    0.317516
  12 H :    0.354255
  13 H :    0.290409
  14 H :    0.288470
  15 H :    0.360930
Sum of atomic charges:   -0.0000000

LOEWDIN ATOMIC CHARGES
----------------------
   0 C :   -0.242564
   1 N :   -0.000504
   2 C :   -0.572368
   3 C :    0.004407
   4 N :    0.116492
   5 H :    0.093514
   6 H :    0.111030
   7 H :    0.144453
   8 H :    0.008773
   9 H :    0.007560
  10 C :   -0.084436
  11 H :    0.105119
  12 H :    0.112032
  13 H :    0.068355
  14 H :    0.065016
  15 H :    0.063122

  Mayer bond orders larger than 0.100000
B(  0-C ,  1-N ) :   0.7590 B(  0-C ,  2-C ) :  -0.1121 B(  0-C ,  4-N ) :   0.1067
B(  0-C , 10-C ) :   0.5863 B(  0-C , 11-H ) :   0.9212 B(  0-C , 12-H ) :   0.9250
B(  1-N ,  2-C ) :   0.9754 B(  1-N ,  7-H ) :   0.9138 B(  2-C ,  3-C ) :   1.0222
B(  2-C ,  4-N ) :   0.7634 B(  2-C ,  8-H ) :  -0.1205 B(  2-C ,  9-H ) :  -0.1554
B(  3-C ,  4-N ) :   0.1006 B(  3-C ,  8-H ) :   1.0955 B(  3-C ,  9-H ) :   1.1634
B(  4-N ,  5-H ) :   0.9835 B(  4-N ,  6-H ) :   0.9839 B( 10-C , 13-H ) :   1.0131
B( 10-C , 14-H ) :   0.9710 B( 10-C , 15-H ) :   0.9619

Dispersion correction           -0.000314216
FINAL SINGLE POINT ENERGY      -267.885252849859

DIPOLE MOMENT
-------------
                                X             Y             Z
Electronic contribution:      1.40451      -2.32599      -1.22071
Nuclear contribution   :     -1.91052       2.32590       2.09379
                        -----------------------------------------
Total Dipole Moment    :     -0.50601      -0.00009       0.87309
                        -----------------------------------------
Magnitude (a.u.)       :      1.00912
Magnitude (Debye)      :      2.56498

Rotational constants in cm-1:     0.219448     0.077923     0.068804
Rotational constants in MHz :  6578.886179  2336.083179  2062.700476

                             ****ORCA TERMINATED NORMALLY****
TOTAL RUN TIME: 0 days 0 hours 0 minutes 54 seconds 718 msec
