                         Program Version 5.0.0 -  RELEASE  -
|  1> !M062X D3Zero RIJCOSX def2-TZVPD def2/J TightSCF
|  2> *xyz 0 1
|  3> C          0.61188        1.65763       -4.50029
|  4> C          1.69499        1.54179       -5.57045
|  5> H          2.69733        1.73466       -5.18400
|  6> H          1.50666        2.27224       -6.35808
|  7> S          1.78029       -0.03313       -6.42874
|  8> O          2.56929        0.21366       -7.60736
|  9> O          0.41688       -0.46297       -6.61859
| 10> F          2.50513       -0.93326       -5.48257
| 11> H         -0.34424        1.45871       -4.93752
| 12> H          0.61845        2.64655       -4.09174
| 13> H          0.80247        0.94882       -3.72173
| 14> *
| 15> %MaxCore 64000
| 16>
| 17> %pal nprocs 4
| 18> end
| 19>
| 20> %scf
| 21>   MaxIter 150
| 22> end
| 23>
| 24>
| 25>                          ****END OF INPUT****

CARTESIAN COORDINATES (ANGSTROEM)
---------------------------------
  C      0.611880    1.657630   -4.500290
  C      1.694990    1.541790   -5.570450
  H      2.697330    1.734660   -5.184000
  H      1.506660    2.272240   -6.358080
  S      1.780290   -0.033130   -6.428740
  O      2.569290    0.213660   -7.607360
  O      0.416880   -0.462970   -6.618590
  F      2.505130   -0.933260   -5.482570
  H     -0.344240    1.458710   -4.937520
  H      0.618450    2.646550   -4.091740
  H      0.802470    0.948820   -3.721730

 Total Charge           Charge          ....    0
 Multiplicity           Mult            ....    1
 Number of Electrons    NEL             ....   58
 Basis Dimension        Dim             ....  285

ORBITAL ENERGIES
----------------

  NO   OCC          E(Eh)            E(eV)
   0   2.0000     -90.150681     -2453.1247
   1   2.0000     -25.343312      -689.6266
   2   2.0000     -19.643456      -534.5256
   3   2.0000     -19.642413      -534.4972
   4   2.0000     -10.598292      -288.3942
   5   2.0000     -10.555104      -287.2190
   6   2.0000      -8.475960      -230.6426
   7   2.0000      -6.400896      -174.1772
   8   2.0000      -6.395986      -174.0436
   9   2.0000      -6.395195      -174.0221
  10   2.0000      -1.489077       -40.5198
  11   2.0000      -1.241288       -33.7772
  12   2.0000      -1.148817       -31.2609
  13   2.0000      -0.923294       -25.1241
  14   2.0000      -0.818839       -22.2817
  15   2.0000      -0.761674       -20.7262
  16   2.0000      -0.668332       -18.1862
  17   2.0000      -0.659707       -17.9515
  18   2.0000      -0.637718       -17.3532
  19   2.0000      -0.571322       -15.5465
  20   2.0000      -0.557207       -15.1624
  21   2.0000      -0.540091       -14.6966
  22   2.0000      -0.505514       -13.7557
  23   2.0000      -0.479191       -13.0394
  24   2.0000      -0.471570       -12.8321
  25   2.0000      -0.452058       -12.3011
  26   2.0000      -0.418442       -11.3864
  27   2.0000      -0.402804       -10.9609
  28   2.0000      -0.399660       -10.8753
  29   0.0000       0.000484         0.0132
  30   0.0000       0.022165         0.6032
  31   0.0000       0.024090         0.6555
  32   0.0000       0.029209         0.7948
  33   0.0000       0.054823         1.4918

MULLIKEN ATOMIC CHARGES
-----------------------
   0 C :   -1.124216
   1 C :   -0.534203
   2 H :    0.401600
   3 H :    0.382662
   4 S :    1.350564
   5 O :   -0.644923
   6 O :   -0.649335
   7 F :   -0.183539
   8 H :    0.327688
   9 H :    0.344885
  10 H :    0.328816
Sum of atomic charges:    0.0000000

LOEWDIN ATOMIC CHARGES
----------------------
   0 C :   -0.110946
   1 C :   -0.278734
   2 H :    0.104002
   3 H :    0.108980
   4 S :    0.617134
   5 O :   -0.283714
   6 O :   -0.278786
   7 F :   -0.099376
   8 H :    0.072277
   9 H :    0.074361
  10 H :    0.074802

  Mayer bond orders larger than 0.100000
B(  0-C ,  1-C ) :   0.5485 B(  0-C ,  8-H ) :   0.9913 B(  0-C ,  9-H ) :   0.9378
B(  0-C , 10-H ) :   0.9384 B(  1-C ,  2-H ) :   0.8626 B(  1-C ,  3-H ) :   0.8891
B(  1-C ,  4-S ) :   0.8850 B(  4-S ,  5-O ) :   1.6222 B(  4-S ,  6-O ) :   1.6387
B(  4-S ,  7-F ) :   0.8658

Dispersion correction           -0.000152465
FINAL SINGLE POINT ENERGY      -727.693515593420

DIPOLE MOMENT
-------------
                                X             Y             Z
Electronic contribution:      3.77369      -7.57248      -3.89020
Nuclear contribution   :     -3.60260       8.53062       5.21025
                        -----------------------------------------
Total Dipole Moment    :      0.17108       0.95814       1.32005
                        -----------------------------------------
Magnitude (a.u.)       :      1.64007
Magnitude (Debye)      :      4.16872

Rotational constants in cm-1:     0.154011     0.080858     0.079602
Rotational constants in MHz :  4617.134198  2424.070332  2386.404775

                             ****ORCA TERMINATED NORMALLY****
TOTAL RUN TIME: 0 days 0 hours 0 minutes 35 seconds 256 msec
