                         Program Version 5.0.0 -  RELEASE  -
|  1> !M062X D3Zero RIJCOSX def2-TZVPD def2/J TightSCF
|  2> *xyz 0 1
|  3> C          1.96337       -1.74915       -1.89689
|  4> N          2.73849       -2.01517       -3.09711
|  5> C          4.04974       -2.15472       -3.15204
|  6> N          4.65821       -1.98629       -4.31866
|  7> C          4.76423       -2.45444       -2.05049
|  8> H          4.28736       -2.77626       -1.21750
|  9> H          5.75082       -2.65835       -2.12599
| 10> H          2.34518       -1.69027       -3.97145
| 11> H          4.10900       -1.59268       -5.07176
| 12> H          5.64910       -2.15646       -4.42724
| 13> C          2.08852       -0.30091       -1.41520
| 14> H          2.23127       -2.45162       -1.10264
| 15> H          0.93025       -1.97780       -2.15544
| 16> H          1.82118        0.36368       -2.21003
| 17> H          3.09792       -0.11068       -1.11551
| 18> H          1.43391       -0.14382       -0.58352
| 19> *
| 20> %MaxCore 64000
| 21>
| 22> %pal nprocs 4
| 23> end
| 24>
| 25> %scf
| 26>   MaxIter 150
| 27> end
| 28>
| 29>
| 30>                          ****END OF INPUT****

CARTESIAN COORDINATES (ANGSTROEM)
---------------------------------
  C      1.963370   -1.749150   -1.896890
  N      2.738490   -2.015170   -3.097110
  C      4.049740   -2.154720   -3.152040
  N      4.658210   -1.986290   -4.318660
  C      4.764230   -2.454440   -2.050490
  H      4.287360   -2.776260   -1.217500
  H      5.750820   -2.658350   -2.125990
  H      2.345180   -1.690270   -3.971450
  H      4.109000   -1.592680   -5.071760
  H      5.649100   -2.156460   -4.427240
  C      2.088520   -0.300910   -1.415200
  H      2.231270   -2.451620   -1.102640
  H      0.930250   -1.977800   -2.155440
  H      1.821180    0.363680   -2.210030
  H      3.097920   -0.110680   -1.115510
  H      1.433910   -0.143820   -0.583520

 Total Charge           Charge          ....    0
 Multiplicity           Mult            ....    1
 Number of Electrons    NEL             ....   48
 Basis Dimension        Dim             ....  312

ORBITAL ENERGIES
----------------

  NO   OCC          E(Eh)            E(eV)
   0   2.0000     -14.750582      -401.3837
   1   2.0000     -14.749607      -401.3572
   2   2.0000     -10.584952      -288.0312
   3   2.0000     -10.569519      -287.6112
   4   2.0000     -10.515198      -286.1331
   5   2.0000     -10.448560      -284.3198
   6   2.0000      -1.086607       -29.5681
   7   2.0000      -0.992939       -27.0192
   8   2.0000      -0.850212       -23.1355
   9   2.0000      -0.801139       -21.8001
  10   2.0000      -0.729532       -19.8516
  11   2.0000      -0.642271       -17.4771
  12   2.0000      -0.621207       -16.9039
  13   2.0000      -0.599795       -16.3212
  14   2.0000      -0.537500       -14.6261
  15   2.0000      -0.508463       -13.8360
  16   2.0000      -0.487255       -13.2589
  17   2.0000      -0.464462       -12.6387
  18   2.0000      -0.446857       -12.1596
  19   2.0000      -0.434792       -11.8313
  20   2.0000      -0.428194       -11.6518
  21   2.0000      -0.409085       -11.1318
  22   2.0000      -0.315638        -8.5889
  23   2.0000      -0.218121        -5.9354
  24   0.0000       0.011551         0.3143
  25   0.0000       0.031198         0.8489
  26   0.0000       0.041542         1.1304
  27   0.0000       0.043654         1.1879
  28   0.0000       0.068699         1.8694

MULLIKEN ATOMIC CHARGES
-----------------------
   0 C :   -0.568341
   1 N :   -0.419762
   2 C :    1.036878
   3 N :   -0.596825
   4 C :   -1.137278
   5 H :    0.178476
   6 H :    0.235238
   7 H :    0.274735
   8 H :    0.204291
   9 H :    0.223336
  10 C :   -1.049366
  11 H :    0.310898
  12 H :    0.350521
  13 H :    0.298366
  14 H :    0.297860
  15 H :    0.360973
Sum of atomic charges:    0.0000000

LOEWDIN ATOMIC CHARGES
----------------------
   0 C :   -0.237340
   1 N :   -0.002501
   2 C :   -0.574740
   3 N :    0.107918
   4 C :    0.011901
   5 H :    0.001756
   6 H :    0.004331
   7 H :    0.137054
   8 H :    0.102912
   9 H :    0.116390
  10 C :   -0.083332
  11 H :    0.110601
  12 H :    0.111674
  13 H :    0.065340
  14 H :    0.063686
  15 H :    0.064351

  Mayer bond orders larger than 0.100000
B(  0-C ,  1-N ) :   0.6973 B(  0-C ,  4-C ) :   0.1470 B(  0-C , 10-C ) :   0.5913
B(  0-C , 11-H ) :   0.9243 B(  0-C , 12-H ) :   0.9017 B(  1-N ,  2-C ) :   0.9352
B(  1-N ,  7-H ) :   0.9603 B(  2-C ,  3-N ) :   0.7812 B(  2-C ,  4-C ) :   1.1539
B(  2-C ,  6-H ) :  -0.1405 B(  3-N ,  4-C ) :   0.1079 B(  3-N ,  8-H ) :   1.0179
B(  3-N ,  9-H ) :   0.9940 B(  4-C ,  5-H ) :   1.0598 B(  4-C ,  6-H ) :   1.1048
B( 10-C , 13-H ) :   0.9977 B( 10-C , 14-H ) :   0.9938 B( 10-C , 15-H ) :   0.9419

Dispersion correction           -0.000315779
FINAL SINGLE POINT ENERGY      -267.884995820995

DIPOLE MOMENT
-------------
                                X             Y             Z
Electronic contribution:      1.34021      -1.82409      -3.38635
Nuclear contribution   :     -1.88803       2.22658       2.57497
                        -----------------------------------------
Total Dipole Moment    :     -0.54782       0.40249      -0.81138
                        -----------------------------------------
Magnitude (a.u.)       :      1.05850
Magnitude (Debye)      :      2.69050

Rotational constants in cm-1:     0.226509     0.075782     0.067928
Rotational constants in MHz :  6790.555051  2271.890226  2036.439218

                             ****ORCA TERMINATED NORMALLY****
TOTAL RUN TIME: 0 days 0 hours 0 minutes 52 seconds 351 msec
