                         Program Version 5.0.0 -  RELEASE  -
|  1> !M062X D3Zero RIJCOSX def2-TZVPD def2/J TightSCF xyzfile
|  2>
|  3> *xyzfile 0 1 D1.xyz
|  4>
|  5> %MaxCore 64000
|  6>
|  7> %pal nprocs 4
|  8> end
|  9>
| 10> %scf
| 11>   MaxIter 150
| 12> end
| 13>
| 14>
| 15>                          ****END OF INPUT****

CARTESIAN COORDINATES (ANGSTROEM)
---------------------------------
  C      1.963365   -1.749150   -1.896887
  C      2.738490   -2.015170   -3.097113
  C      0.611877    1.657634   -4.500288
  C      1.694991    1.541794   -5.570447
  H      2.697326    1.734659   -5.183996
  H      1.506656    2.272239   -6.358076
  S      1.780287   -0.033128   -6.428739
  C      4.049736   -2.154717   -3.152044
  N      4.658206   -1.986293   -4.318655
  N      4.764231   -2.454435   -2.050491
  H      4.287363   -2.776259   -1.217496
  H      5.750825   -2.658351   -2.125988
  H      2.345176   -1.690274   -3.971447
  H      4.109004   -1.592677   -5.071760
  H      5.649095   -2.156462   -4.427237
  F      2.569287    0.213657   -7.607360
  O      0.416880   -0.462969   -6.618595
  C      2.088520   -0.300912   -1.415204
  H      2.231272   -2.451616   -1.102643
  H      0.930249   -1.977801   -2.155438
  C      0.680356    0.655418   -3.348038
  H     -0.356865    1.549231   -4.991128
  H      0.650228    2.675438   -4.096000
  C      1.968993    0.733582   -2.535654
  H      3.051356   -0.168602   -0.911868
  H      1.316501   -0.136231   -0.657252
  O      2.505129   -0.933263   -5.482570
  H      2.824195    0.624726   -3.208464
  H      2.058919    1.730331   -2.093112
  H      0.542252   -0.344731   -3.766662
  H     -0.174219    0.829692   -2.685182

 Total Charge           Charge          ....    0
 Multiplicity           Mult            ....    1
 Number of Electrons    NEL             ....  120
 Basis Dimension        Dim             ....  689

ORBITAL ENERGIES
----------------

  NO   OCC          E(Eh)            E(eV)
   0   2.0000     -90.163362     -2453.4698
   1   2.0000     -25.379357      -690.6074
   2   2.0000     -19.652895      -534.7825
   3   2.0000     -19.639189      -534.4095
   4   2.0000     -14.731679      -400.8694
   5   2.0000     -14.716589      -400.4587
   6   2.0000     -10.600531      -288.4551
   7   2.0000     -10.560784      -287.3736
   8   2.0000     -10.559276      -287.3325
   9   2.0000     -10.529112      -286.5117
  10   2.0000     -10.517230      -286.1884
  11   2.0000     -10.507103      -285.9128
  12   2.0000     -10.495281      -285.5911
  13   2.0000     -10.424893      -283.6758
  14   2.0000      -8.489173      -231.0021
  15   2.0000      -6.413904      -174.5312
  16   2.0000      -6.408851      -174.3937
  17   2.0000      -6.408607      -174.3871
  18   2.0000      -1.543648       -42.0048
  19   2.0000      -1.240303       -33.7504
  20   2.0000      -1.139831       -31.0164
  21   2.0000      -1.049593       -28.5609
  22   2.0000      -0.954066       -25.9615
  23   2.0000      -0.937356       -25.5068
  24   2.0000      -0.891928       -24.2706
  25   2.0000      -0.855619       -23.2826
  26   2.0000      -0.823664       -22.4130
  27   2.0000      -0.785394       -21.3716
  28   2.0000      -0.743843       -20.2410
  29   2.0000      -0.710847       -19.3431
  30   2.0000      -0.704626       -19.1738
  31   2.0000      -0.681079       -18.5331
  32   2.0000      -0.674003       -18.3405
  33   2.0000      -0.634125       -17.2554
  34   2.0000      -0.629390       -17.1266
  35   2.0000      -0.600225       -16.3329
  36   2.0000      -0.575171       -15.6512
  37   2.0000      -0.567955       -15.4549
  38   2.0000      -0.561803       -15.2875
  39   2.0000      -0.542551       -14.7636
  40   2.0000      -0.535753       -14.5786
  41   2.0000      -0.516003       -14.0412
  42   2.0000      -0.503301       -13.6955
  43   2.0000      -0.494449       -13.4546
  44   2.0000      -0.482490       -13.1292
  45   2.0000      -0.473984       -12.8978
  46   2.0000      -0.449855       -12.2412
  47   2.0000      -0.445320       -12.1178
  48   2.0000      -0.437782       -11.9126
  49   2.0000      -0.429876       -11.6975
  50   2.0000      -0.421684       -11.4746
  51   2.0000      -0.398223       -10.8362
  52   2.0000      -0.396598       -10.7920
  53   2.0000      -0.394495       -10.7348
  54   2.0000      -0.386872       -10.5273
  55   2.0000      -0.371945       -10.1211
  56   2.0000      -0.358369        -9.7517
  57   2.0000      -0.346121        -9.4184
  58   2.0000      -0.310796        -8.4572
  59   2.0000      -0.190684        -5.1888
  60   0.0000      -0.005965        -0.1623
  61   0.0000       0.011980         0.3260
  62   0.0000       0.017784         0.4839
  63   0.0000       0.023057         0.6274
  64   0.0000       0.035143         0.9563

MULLIKEN ATOMIC CHARGES
-----------------------
   0 C :   -0.923133
   1 C :   -0.066927
   2 C :   -0.953052
   3 C :   -0.759710
   4 H :    0.407648
   5 H :    0.479259
   6 S :    1.167366
   7 C :    0.293619
   8 N :   -0.625308
   9 N :   -0.629120
  10 H :    0.235715
  11 H :    0.224256
  12 H :    0.360384
  13 H :    0.407525
  14 H :    0.185569
  15 F :   -0.134481
  16 O :   -0.695023
  17 C :   -0.818356
  18 H :    0.603551
  19 H :    0.283880
  20 C :   -0.503154
  21 H :    0.350140
  22 H :    0.397728
  23 C :   -0.337962
  24 H :    0.296257
  25 H :    0.389634
  26 O :   -0.805179
  27 H :    0.162689
  28 H :    0.425188
  29 H :    0.180437
  30 H :    0.400557
Sum of atomic charges:    0.0000000

LOEWDIN ATOMIC CHARGES
----------------------
   0 C :   -0.230398
   1 C :   -0.146660
   2 C :   -0.216659
   3 C :   -0.224345
   4 H :    0.108889
   5 H :    0.104016
   6 S :    0.677919
   7 C :   -0.533928
   8 N :    0.109455
   9 N :    0.118879
  10 H :    0.100165
  11 H :    0.095851
  12 H :    0.021350
  13 H :    0.063546
  14 H :    0.102422
  15 F :   -0.046927
  16 O :   -0.254428
  17 C :   -0.199598
  18 H :    0.100184
  19 H :    0.106248
  20 C :   -0.208690
  21 H :    0.114266
  22 H :    0.124405
  23 C :   -0.213192
  24 H :    0.109463
  25 H :    0.107001
  26 O :   -0.340475
  27 H :    0.104213
  28 H :    0.115681
  29 H :    0.105911
  30 H :    0.125437

  Mayer bond orders larger than 0.100000
B(  0-C ,  1-C ) :   0.2798 B(  0-C ,  7-C ) :   0.2027 B(  0-C , 17-C ) :   0.6013
B(  0-C , 18-H ) :   0.7419 B(  0-C , 19-H ) :   1.1052 B(  0-C , 20-C ) :   0.1566
B(  0-C , 23-C ) :  -0.1617 B(  1-C ,  7-C ) :   1.8120 B(  1-C , 12-H ) :   1.1984
B(  1-C , 17-C ) :  -0.2428 B(  1-C , 18-H ) :  -0.2164 B(  1-C , 26-O ) :   0.1166
B(  2-C ,  3-C ) :   0.7756 B(  2-C , 20-C ) :   0.6466 B(  2-C , 21-H ) :   0.9694
B(  2-C , 22-H ) :   0.9189 B(  2-C , 23-C ) :   0.1639 B(  3-C ,  4-H ) :   0.8736
B(  3-C ,  5-H ) :   0.7780 B(  3-C ,  6-S ) :   0.8078 B(  6-S , 15-F ) :   0.8454
B(  6-S , 16-O ) :   1.6213 B(  6-S , 26-O ) :   1.7154 B(  7-C ,  8-N ) :   0.8622
B(  7-C ,  9-N ) :   0.8621 B(  7-C , 12-H ) :  -0.2478 B(  7-C , 17-C ) :   0.1828
B(  8-N , 13-H ) :   0.8661 B(  8-N , 14-H ) :   1.0396 B(  9-N , 10-H ) :   0.9749
B(  9-N , 11-H ) :   0.9969 B( 12-H , 26-O ) :  -0.3357 B( 17-C , 20-C ) :   0.1982
B( 17-C , 23-C ) :   0.7223 B( 17-C , 24-H ) :   0.9931 B( 17-C , 25-H ) :   0.9263
B( 20-C , 23-C ) :   0.1863 B( 20-C , 27-H ) :  -0.1601 B( 20-C , 29-H ) :   1.0857
B( 20-C , 30-H ) :   0.8588 B( 23-C , 27-H ) :   1.1473 B( 23-C , 28-H ) :   0.8306
B( 23-C , 29-H ) :  -0.1358 B( 27-H , 28-H ) :   0.1000

Dispersion correction           -0.001893218
FINAL SINGLE POINT ENERGY     -1072.972965767986

DIPOLE MOMENT
-------------
                                X             Y             Z
Electronic contribution:      0.68708      -0.96350     -23.52288
Nuclear contribution   :      0.18720       2.58739      22.98820
                        -----------------------------------------
Total Dipole Moment    :      0.87428       1.62389      -0.53468
                        -----------------------------------------
Magnitude (a.u.)       :      1.92023
Magnitude (Debye)      :      4.88083

Rotational constants in cm-1:     0.028798     0.014448     0.010940
Rotational constants in MHz :   863.355869   433.126694   327.985023

                             ****ORCA TERMINATED NORMALLY****
TOTAL RUN TIME: 0 days 0 hours 7 minutes 12 seconds 778 msec
