                         Program Version 5.0.0 -  RELEASE  -
|  1> !M062X D3Zero RIJCOSX def2-TZVPD def2/J TightSCF xyzfile
|  2>
|  3> *xyzfile 0 1 D2.xyz
|  4>
|  5> %MaxCore 64000
|  6>
|  7> %pal nprocs 4
|  8> end
|  9>
| 10> %scf
| 11>   MaxIter 150
| 12> end
| 13>
| 14>
| 15>                          ****END OF INPUT****

CARTESIAN COORDINATES (ANGSTROEM)
---------------------------------
  C      1.963365   -1.749150   -1.896887
  N      2.738490   -2.015170   -3.097113
  C      0.611877    1.657634   -4.500288
  C      1.694991    1.541794   -5.570447
  H      2.697326    1.734659   -5.183996
  H      1.506656    2.272239   -6.358076
  S      1.780287   -0.033128   -6.428739
  C      4.049736   -2.154717   -3.152044
  C      4.658206   -1.986293   -4.318655
  N      4.764231   -2.454435   -2.050491
  H      4.287363   -2.776259   -1.217496
  H      5.750825   -2.658351   -2.125988
  H      2.345176   -1.690274   -3.971447
  H      4.109004   -1.592677   -5.071760
  H      5.649095   -2.156462   -4.427237
  F      2.569287    0.213657   -7.607360
  O      0.416880   -0.462969   -6.618595
  C      2.088520   -0.300912   -1.415204
  H      2.231272   -2.451616   -1.102643
  H      0.930249   -1.977801   -2.155438
  C      0.680356    0.655418   -3.348038
  H     -0.356865    1.549231   -4.991128
  H      0.650228    2.675438   -4.096000
  C      1.968993    0.733582   -2.535654
  H      3.051356   -0.168602   -0.911868
  H      1.316501   -0.136231   -0.657252
  O      2.505129   -0.933263   -5.482570
  H      2.824195    0.624726   -3.208464
  H      2.058919    1.730331   -2.093112
  H      0.542252   -0.344731   -3.766662
  H     -0.174219    0.829692   -2.685182

 Total Charge           Charge          ....    0
 Multiplicity           Mult            ....    1
 Number of Electrons    NEL             ....  120
 Basis Dimension        Dim             ....  689

ORBITAL ENERGIES
----------------

  NO   OCC          E(Eh)            E(eV)
   0   2.0000     -90.165916     -2453.5393
   1   2.0000     -25.380645      -690.6425
   2   2.0000     -19.654565      -534.8279
   3   2.0000     -19.638550      -534.3921
   4   2.0000     -14.729285      -400.8042
   5   2.0000     -14.714211      -400.3940
   6   2.0000     -10.603768      -288.5432
   7   2.0000     -10.568414      -287.5812
   8   2.0000     -10.559851      -287.3481
   9   2.0000     -10.558886      -287.3219
  10   2.0000     -10.542598      -286.8787
  11   2.0000     -10.532313      -286.5988
  12   2.0000     -10.527275      -286.4617
  13   2.0000     -10.418370      -283.4983
  14   2.0000      -8.491515      -231.0659
  15   2.0000      -6.416085      -174.5906
  16   2.0000      -6.411281      -174.4598
  17   2.0000      -6.411089      -174.4546
  18   2.0000      -1.544361       -42.0242
  19   2.0000      -1.241837       -33.7921
  20   2.0000      -1.140527       -31.0353
  21   2.0000      -1.057746       -28.7827
  22   2.0000      -0.969761       -26.3885
  23   2.0000      -0.943658       -25.6782
  24   2.0000      -0.893070       -24.3017
  25   2.0000      -0.860074       -23.4038
  26   2.0000      -0.821012       -22.3409
  27   2.0000      -0.791048       -21.5255
  28   2.0000      -0.751342       -20.4451
  29   2.0000      -0.717448       -19.5228
  30   2.0000      -0.705530       -19.1984
  31   2.0000      -0.686337       -18.6762
  32   2.0000      -0.677831       -18.4447
  33   2.0000      -0.648445       -17.6451
  34   2.0000      -0.640799       -17.4370
  35   2.0000      -0.592351       -16.1187
  36   2.0000      -0.579618       -15.7722
  37   2.0000      -0.573442       -15.6041
  38   2.0000      -0.551347       -15.0029
  39   2.0000      -0.550933       -14.9917
  40   2.0000      -0.537947       -14.6383
  41   2.0000      -0.529612       -14.4115
  42   2.0000      -0.511602       -13.9214
  43   2.0000      -0.499700       -13.5975
  44   2.0000      -0.486022       -13.2253
  45   2.0000      -0.473224       -12.8771
  46   2.0000      -0.456868       -12.4320
  47   2.0000      -0.449170       -12.2225
  48   2.0000      -0.439381       -11.9562
  49   2.0000      -0.432606       -11.7718
  50   2.0000      -0.423144       -11.5143
  51   2.0000      -0.418833       -11.3970
  52   2.0000      -0.417298       -11.3553
  53   2.0000      -0.401765       -10.9326
  54   2.0000      -0.391387       -10.6502
  55   2.0000      -0.385043       -10.4776
  56   2.0000      -0.379232       -10.3194
  57   2.0000      -0.374596       -10.1933
  58   2.0000      -0.296750        -8.0750
  59   2.0000      -0.193519        -5.2659
  60   0.0000      -0.004847        -0.1319
  61   0.0000       0.012718         0.3461
  62   0.0000       0.017844         0.4856
  63   0.0000       0.019283         0.5247
  64   0.0000       0.033829         0.9205

MULLIKEN ATOMIC CHARGES
-----------------------
   0 C :   -1.121048
   1 N :   -0.336247
   2 C :   -0.963596
   3 C :   -0.762599
   4 H :    0.400104
   5 H :    0.488748
   6 S :    1.190094
   7 C :    1.022746
   8 C :   -0.993466
   9 N :   -0.621494
  10 H :    0.222275
  11 H :    0.250785
  12 H :    0.560958
  13 H :    0.118301
  14 H :    0.187331
  15 F :   -0.131468
  16 O :   -0.709151
  17 C :   -0.661534
  18 H :    0.389311
  19 H :    0.410396
  20 C :   -0.539959
  21 H :    0.351219
  22 H :    0.396800
  23 C :   -0.372114
  24 H :    0.338392
  25 H :    0.437561
  26 O :   -0.800054
  27 H :    0.207891
  28 H :    0.422598
  29 H :    0.215259
  30 H :    0.401962
Sum of atomic charges:   -0.0000000

LOEWDIN ATOMIC CHARGES
----------------------
   0 C :   -0.191698
   1 N :    0.018152
   2 C :   -0.215497
   3 C :   -0.222894
   4 H :    0.110557
   5 H :    0.104838
   6 S :    0.679544
   7 C :   -0.556705
   8 C :    0.010303
   9 N :    0.113787
  10 H :    0.089816
  11 H :    0.107554
  12 H :    0.080494
  13 H :   -0.026002
  14 H :    0.009204
  15 F :   -0.038761
  16 O :   -0.258590
  17 C :   -0.187149
  18 H :    0.108211
  19 H :    0.115191
  20 C :   -0.212903
  21 H :    0.114990
  22 H :    0.125383
  23 C :   -0.209142
  24 H :    0.109945
  25 H :    0.110428
  26 O :   -0.340911
  27 H :    0.105417
  28 H :    0.118687
  29 H :    0.102353
  30 H :    0.125396

  Mayer bond orders larger than 0.100000
B(  0-C ,  1-N ) :   0.8623 B(  0-C ,  7-C ) :  -0.1659 B(  0-C ,  9-N ) :   0.1457
B(  0-C , 12-H ) :  -0.1980 B(  0-C , 17-C ) :   0.5401 B(  0-C , 18-H ) :   0.8726
B(  0-C , 19-H ) :   0.9253 B(  0-C , 20-C ) :   0.1253 B(  0-C , 25-H ) :  -0.1063
B(  1-N ,  7-C ) :   0.8760 B(  1-N , 12-H ) :   0.6659 B(  2-C ,  3-C ) :   0.7704
B(  2-C , 20-C ) :   0.6623 B(  2-C , 21-H ) :   0.9717 B(  2-C , 22-H ) :   0.9157
B(  2-C , 23-C ) :   0.1582 B(  3-C ,  4-H ) :   0.8890 B(  3-C ,  5-H ) :   0.7705
B(  3-C ,  6-S ) :   0.8038 B(  3-C , 23-C ) :   0.1012 B(  6-S , 15-F ) :   0.8557
B(  6-S , 16-O ) :   1.5998 B(  6-S , 26-O ) :   1.7228 B(  7-C ,  8-C ) :   1.0376
B(  7-C ,  9-N ) :   0.7484 B(  7-C , 14-H ) :  -0.2229 B(  8-C , 13-H ) :   1.0319
B(  8-C , 14-H ) :   1.2424 B(  8-C , 26-O ) :   0.1223 B(  9-N , 10-H ) :   0.9936
B(  9-N , 11-H ) :   0.9771 B( 12-H , 26-O ) :  -0.1475 B( 13-H , 26-O ) :  -0.1538
B( 17-C , 20-C ) :   0.2032 B( 17-C , 23-C ) :   0.7464 B( 17-C , 24-H ) :   0.9394
B( 17-C , 25-H ) :   0.9480 B( 20-C , 23-C ) :   0.1198 B( 20-C , 27-H ) :  -0.1478
B( 20-C , 29-H ) :   1.0734 B( 20-C , 30-H ) :   0.8689 B( 23-C , 27-H ) :   1.1103
B( 23-C , 28-H ) :   0.8181 B( 23-C , 29-H ) :  -0.1672

Dispersion correction           -0.001889559
FINAL SINGLE POINT ENERGY     -1072.970084076745

DIPOLE MOMENT
-------------
                                X             Y             Z
Electronic contribution:     -0.89338      -0.78401     -22.50546
Nuclear contribution   :      0.43347       2.59110      22.83150
                        -----------------------------------------
Total Dipole Moment    :     -0.45991       1.80709       0.32604
                        -----------------------------------------
Magnitude (a.u.)       :      1.89299
Magnitude (Debye)      :      4.81160

Rotational constants in cm-1:     0.029257     0.014415     0.010996
Rotational constants in MHz :   877.098782   432.159206   329.643335

                             ****ORCA TERMINATED NORMALLY****
TOTAL RUN TIME: 0 days 0 hours 6 minutes 43 seconds 322 msec
