                         Program Version 5.0.0 -  RELEASE  -
|  1> !M062X D3Zero RIJCOSX def2-TZVPD def2/J TightSCF xyzfile
|  2>
|  3> *xyzfile 0 1 D3.xyz
|  4>
|  5> %MaxCore 64000
|  6>
|  7> %pal nprocs 4
|  8> end
|  9>
| 10> %scf
| 11>   MaxIter 150
| 12> end
| 13>
| 14>
| 15>                          ****END OF INPUT****

CARTESIAN COORDINATES (ANGSTROEM)
---------------------------------
  C      1.963365   -1.749150   -1.896887
  N      2.738490   -2.015170   -3.097113
  C      0.611877    1.657634   -4.500288
  C      1.694991    1.541794   -5.570447
  H      2.697326    1.734659   -5.183996
  H      1.506656    2.272239   -6.358076
  S      1.780287   -0.033128   -6.428739
  C      4.049736   -2.154717   -3.152044
  N      4.658206   -1.986293   -4.318655
  C      4.764231   -2.454435   -2.050491
  H      4.287363   -2.776259   -1.217496
  H      5.750825   -2.658351   -2.125988
  H      2.345176   -1.690274   -3.971447
  H      4.109004   -1.592677   -5.071760
  H      5.649095   -2.156462   -4.427237
  F      2.569287    0.213657   -7.607360
  O      0.416880   -0.462969   -6.618595
  C      2.088520   -0.300912   -1.415204
  H      2.231272   -2.451616   -1.102643
  H      0.930249   -1.977801   -2.155438
  C      0.680356    0.655418   -3.348038
  H     -0.356865    1.549231   -4.991128
  H      0.650228    2.675438   -4.096000
  C      1.968993    0.733582   -2.535654
  H      3.051356   -0.168602   -0.911868
  H      1.316501   -0.136231   -0.657252
  O      2.505129   -0.933263   -5.482570
  H      2.824195    0.624726   -3.208464
  H      2.058919    1.730331   -2.093112
  H      0.542252   -0.344731   -3.766662
  H     -0.174219    0.829692   -2.685182

 Total Charge           Charge          ....    0
 Multiplicity           Mult            ....    1
 Number of Electrons    NEL             ....  120
 Basis Dimension        Dim             ....  689

ORBITAL ENERGIES
----------------

  NO   OCC          E(Eh)            E(eV)
   0   2.0000     -90.182072     -2453.9789
   1   2.0000     -25.395103      -691.0359
   2   2.0000     -19.668743      -535.2137
   3   2.0000     -19.659998      -534.9757
   4   2.0000     -14.715967      -400.4418
   5   2.0000     -14.715705      -400.4347
   6   2.0000     -10.614448      -288.8338
   7   2.0000     -10.574524      -287.7474
   8   2.0000     -10.561605      -287.3959
   9   2.0000     -10.552624      -287.1515
  10   2.0000     -10.545666      -286.9622
  11   2.0000     -10.533145      -286.6215
  12   2.0000     -10.522063      -286.3199
  13   2.0000     -10.426895      -283.7302
  14   2.0000      -8.507612      -231.5039
  15   2.0000      -6.432240      -175.0301
  16   2.0000      -6.427425      -174.8991
  17   2.0000      -6.427099      -174.8902
  18   2.0000      -1.558972       -42.4218
  19   2.0000      -1.257874       -34.2285
  20   2.0000      -1.159143       -31.5419
  21   2.0000      -1.059039       -28.8179
  22   2.0000      -0.968166       -26.3451
  23   2.0000      -0.951164       -25.8825
  24   2.0000      -0.897098       -24.4113
  25   2.0000      -0.861396       -23.4398
  26   2.0000      -0.821089       -22.3430
  27   2.0000      -0.783910       -21.3313
  28   2.0000      -0.770583       -20.9686
  29   2.0000      -0.729752       -19.8576
  30   2.0000      -0.718770       -19.5587
  31   2.0000      -0.699177       -19.0256
  32   2.0000      -0.677391       -18.4327
  33   2.0000      -0.654450       -17.8085
  34   2.0000      -0.620607       -16.8876
  35   2.0000      -0.600136       -16.3305
  36   2.0000      -0.594492       -16.1770
  37   2.0000      -0.583470       -15.8770
  38   2.0000      -0.572504       -15.5786
  39   2.0000      -0.553900       -15.0724
  40   2.0000      -0.539149       -14.6710
  41   2.0000      -0.527134       -14.3441
  42   2.0000      -0.510648       -13.8954
  43   2.0000      -0.494459       -13.4549
  44   2.0000      -0.489808       -13.3283
  45   2.0000      -0.487574       -13.2676
  46   2.0000      -0.457780       -12.4568
  47   2.0000      -0.451974       -12.2988
  48   2.0000      -0.443934       -12.0801
  49   2.0000      -0.435769       -11.8579
  50   2.0000      -0.429195       -11.6790
  51   2.0000      -0.420656       -11.4466
  52   2.0000      -0.415709       -11.3120
  53   2.0000      -0.410209       -11.1623
  54   2.0000      -0.405547       -11.0355
  55   2.0000      -0.391854       -10.6629
  56   2.0000      -0.386682       -10.5221
  57   2.0000      -0.374460       -10.1896
  58   2.0000      -0.288379        -7.8472
  59   2.0000      -0.195403        -5.3172
  60   0.0000      -0.013359        -0.3635
  61   0.0000       0.005435         0.1479
  62   0.0000       0.011606         0.3158
  63   0.0000       0.020358         0.5540
  64   0.0000       0.034661         0.9432

MULLIKEN ATOMIC CHARGES
-----------------------
   0 C :   -1.097594
   1 N :   -0.400319
   2 C :   -0.952173
   3 C :   -0.766034
   4 H :    0.406444
   5 H :    0.483124
   6 S :    1.196906
   7 C :    0.965377
   8 N :   -0.618822
   9 C :   -1.231582
  10 H :    0.189266
  11 H :    0.281571
  12 H :    0.630107
  13 H :    0.431787
  14 H :    0.190458
  15 F :   -0.131726
  16 O :   -0.686854
  17 C :   -0.642278
  18 H :    0.387570
  19 H :    0.402601
  20 C :   -0.535060
  21 H :    0.353473
  22 H :    0.402358
  23 C :   -0.359331
  24 H :    0.305635
  25 H :    0.426584
  26 O :   -0.838937
  27 H :    0.196278
  28 H :    0.413144
  29 H :    0.198063
  30 H :    0.399961
Sum of atomic charges:    0.0000000

LOEWDIN ATOMIC CHARGES
----------------------
   0 C :   -0.186227
   1 N :    0.015814
   2 C :   -0.214732
   3 C :   -0.221912
   4 H :    0.110379
   5 H :    0.106191
   6 S :    0.683759
   7 C :   -0.562987
   8 N :    0.113472
   9 C :    0.005900
  10 H :   -0.003886
  11 H :   -0.001032
  12 H :    0.075607
  13 H :    0.055944
  14 H :    0.115108
  15 F :   -0.038868
  16 O :   -0.250473
  17 C :   -0.182871
  18 H :    0.113606
  19 H :    0.114988
  20 C :   -0.213107
  21 H :    0.115465
  22 H :    0.126573
  23 C :   -0.210372
  24 H :    0.109747
  25 H :    0.112250
  26 O :   -0.339880
  27 H :    0.104425
  28 H :    0.118872
  29 H :    0.101770
  30 H :    0.126479

  Mayer bond orders larger than 0.100000
B(  0-C ,  1-N ) :   0.7946 B(  0-C ,  9-C ) :   0.1576 B(  0-C , 12-H ) :  -0.2332
B(  0-C , 17-C ) :   0.5900 B(  0-C , 18-H ) :   0.8855 B(  0-C , 19-H ) :   0.9183
B(  0-C , 20-C ) :   0.1287 B(  0-C , 25-H ) :  -0.1020 B(  1-N ,  7-C ) :   0.8291
B(  1-N ,  9-C ) :   0.1104 B(  1-N , 12-H ) :   0.5503 B(  2-C ,  3-C ) :   0.7637
B(  2-C , 20-C ) :   0.6618 B(  2-C , 21-H ) :   0.9734 B(  2-C , 22-H ) :   0.9137
B(  2-C , 23-C ) :   0.1548 B(  3-C ,  4-H ) :   0.8781 B(  3-C ,  5-H ) :   0.7726
B(  3-C ,  6-S ) :   0.8068 B(  3-C , 23-C ) :   0.1012 B(  6-S , 15-F ) :   0.8597
B(  6-S , 16-O ) :   1.6244 B(  6-S , 26-O ) :   1.6919 B(  7-C ,  8-N ) :   0.7626
B(  7-C ,  9-C ) :   1.1221 B(  7-C , 11-H ) :  -0.1514 B(  8-N ,  9-C ) :   0.1198
B(  8-N , 13-H ) :   0.8227 B(  8-N , 14-H ) :   1.0367 B(  9-C , 10-H ) :   1.0722
B(  9-C , 11-H ) :   1.0802 B( 12-H , 26-O ) :  -0.1447 B( 17-C , 20-C ) :   0.1960
B( 17-C , 23-C ) :   0.7647 B( 17-C , 24-H ) :   0.9640 B( 17-C , 25-H ) :   0.9356
B( 20-C , 23-C ) :   0.1074 B( 20-C , 27-H ) :  -0.1639 B( 20-C , 29-H ) :   1.0908
B( 20-C , 30-H ) :   0.8683 B( 23-C , 27-H ) :   1.1206 B( 23-C , 28-H ) :   0.8275
B( 23-C , 29-H ) :  -0.1761

Dispersion correction           -0.001905070
FINAL SINGLE POINT ENERGY     -1072.981560394526

DIPOLE MOMENT
-------------
                                X             Y             Z
Electronic contribution:     -1.12758      -0.20244     -24.49720
Nuclear contribution   :      0.44707       2.53104      23.12246
                        -----------------------------------------
Total Dipole Moment    :     -0.68051       2.32860      -1.37473
                        -----------------------------------------
Magnitude (a.u.)       :      2.78844
Magnitude (Debye)      :      7.08764

Rotational constants in cm-1:     0.028906     0.014696     0.011110
Rotational constants in MHz :   866.591909   440.585554   333.081943

                             ****ORCA TERMINATED NORMALLY****
TOTAL RUN TIME: 0 days 0 hours 7 minutes 36 seconds 586 msec
