                         Program Version 5.0.0 -  RELEASE  -
|  1> !M062X D3Zero RIJCOSX def2-TZVPD def2/J TightSCF xyzfile
|  2>
|  3> *xyzfile 0 1 D4.xyz
|  4>
|  5> %MaxCore 64000
|  6>
|  7> %pal nprocs 4
|  8> end
|  9>
| 10> %scf
| 11>   MaxIter 150
| 12> end
| 13>
| 14>
| 15>                          ****END OF INPUT****

CARTESIAN COORDINATES (ANGSTROEM)
---------------------------------
  C      1.963365   -1.749150   -1.896887
  C      2.738490   -2.015170   -3.097113
  C      0.611877    1.657634   -4.500288
  C      1.694991    1.541794   -5.570447
  H      2.697326    1.734659   -5.183996
  H      1.506656    2.272239   -6.358076
  S      1.780287   -0.033128   -6.428739
  C      4.049736   -2.154717   -3.152044
  N      4.658206   -1.986293   -4.318655
  N      4.764231   -2.454435   -2.050491
  H      4.287363   -2.776259   -1.217496
  H      5.750825   -2.658351   -2.125988
  H      2.345176   -1.690274   -3.971447
  H      4.109004   -1.592677   -5.071760
  H      5.649095   -2.156462   -4.427237
  O      2.569287    0.213657   -7.607360
  F      0.416880   -0.462969   -6.618595
  C      2.088520   -0.300912   -1.415204
  H      2.231272   -2.451616   -1.102643
  H      0.930249   -1.977801   -2.155438
  C      0.680356    0.655418   -3.348038
  H     -0.356865    1.549231   -4.991128
  H      0.650228    2.675438   -4.096000
  C      1.968993    0.733582   -2.535654
  H      3.051356   -0.168602   -0.911868
  H      1.316501   -0.136231   -0.657252
  O      2.505129   -0.933263   -5.482570
  H      2.824195    0.624726   -3.208464
  H      2.058919    1.730331   -2.093112
  H      0.542252   -0.344731   -3.766662
  H     -0.174219    0.829692   -2.685182

 Total Charge           Charge          ....    0
 Multiplicity           Mult            ....    1
 Number of Electrons    NEL             ....  120
 Basis Dimension        Dim             ....  689

ORBITAL ENERGIES
----------------

  NO   OCC          E(Eh)            E(eV)
   0   2.0000     -90.163802     -2453.4818
   1   2.0000     -25.379296      -690.6057
   2   2.0000     -19.651943      -534.7566
   3   2.0000     -19.637168      -534.3545
   4   2.0000     -14.732250      -400.8849
   5   2.0000     -14.715897      -400.4399
   6   2.0000     -10.600434      -288.4525
   7   2.0000     -10.565373      -287.4984
   8   2.0000     -10.560056      -287.3537
   9   2.0000     -10.537556      -286.7415
  10   2.0000     -10.521703      -286.3101
  11   2.0000     -10.510198      -285.9970
  12   2.0000     -10.498028      -285.6659
  13   2.0000     -10.424773      -283.6725
  14   2.0000      -8.489503      -231.0111
  15   2.0000      -6.414302      -174.5420
  16   2.0000      -6.409207      -174.4034
  17   2.0000      -6.408856      -174.3938
  18   2.0000      -1.541816       -41.9549
  19   2.0000      -1.241193       -33.7746
  20   2.0000      -1.139016       -30.9942
  21   2.0000      -1.049657       -28.5626
  22   2.0000      -0.954020       -25.9602
  23   2.0000      -0.942621       -25.6500
  24   2.0000      -0.893769       -24.3207
  25   2.0000      -0.854111       -23.2415
  26   2.0000      -0.825561       -22.4647
  27   2.0000      -0.789346       -21.4792
  28   2.0000      -0.744584       -20.2612
  29   2.0000      -0.714209       -19.4346
  30   2.0000      -0.703332       -19.1386
  31   2.0000      -0.692422       -18.8418
  32   2.0000      -0.671084       -18.2611
  33   2.0000      -0.636460       -17.3190
  34   2.0000      -0.626976       -17.0609
  35   2.0000      -0.598557       -16.2876
  36   2.0000      -0.572594       -15.5811
  37   2.0000      -0.570538       -15.5251
  38   2.0000      -0.554630       -15.0923
  39   2.0000      -0.547155       -14.8888
  40   2.0000      -0.542691       -14.7674
  41   2.0000      -0.518035       -14.0964
  42   2.0000      -0.506577       -13.7847
  43   2.0000      -0.501216       -13.6388
  44   2.0000      -0.488222       -13.2852
  45   2.0000      -0.469533       -12.7766
  46   2.0000      -0.454908       -12.3787
  47   2.0000      -0.446951       -12.1621
  48   2.0000      -0.439539       -11.9605
  49   2.0000      -0.434934       -11.8352
  50   2.0000      -0.423390       -11.5210
  51   2.0000      -0.412470       -11.2239
  52   2.0000      -0.399833       -10.8800
  53   2.0000      -0.394670       -10.7395
  54   2.0000      -0.383162       -10.4264
  55   2.0000      -0.375346       -10.2137
  56   2.0000      -0.361847        -9.8464
  57   2.0000      -0.344545        -9.3755
  58   2.0000      -0.310629        -8.4527
  59   2.0000      -0.191362        -5.2072
  60   0.0000      -0.003678        -0.1001
  61   0.0000       0.012814         0.3487
  62   0.0000       0.018235         0.4962
  63   0.0000       0.021656         0.5893
  64   0.0000       0.034196         0.9305

MULLIKEN ATOMIC CHARGES
-----------------------
   0 C :   -0.917641
   1 C :   -0.039748
   2 C :   -0.963952
   3 C :   -0.665913
   4 H :    0.374966
   5 H :    0.416572
   6 S :    1.189791
   7 C :    0.300563
   8 N :   -0.620435
   9 N :   -0.630624
  10 H :    0.234643
  11 H :    0.225644
  12 H :    0.340896
  13 H :    0.393913
  14 H :    0.190156
  15 O :   -0.713446
  16 F :   -0.161606
  17 C :   -0.817709
  18 H :    0.599685
  19 H :    0.277863
  20 C :   -0.414922
  21 H :    0.355764
  22 H :    0.399504
  23 C :   -0.360078
  24 H :    0.299520
  25 H :    0.389330
  26 O :   -0.807765
  27 H :    0.162365
  28 H :    0.430143
  29 H :    0.137916
  30 H :    0.394603
Sum of atomic charges:   -0.0000000

LOEWDIN ATOMIC CHARGES
----------------------
   0 C :   -0.232836
   1 C :   -0.151617
   2 C :   -0.227026
   3 C :   -0.214305
   4 H :    0.118304
   5 H :    0.106973
   6 S :    0.676303
   7 C :   -0.533481
   8 N :    0.115031
   9 N :    0.119365
  10 H :    0.100011
  11 H :    0.096479
  12 H :    0.016930
  13 H :    0.069089
  14 H :    0.104453
  15 O :   -0.267151
  16 F :   -0.036655
  17 C :   -0.199357
  18 H :    0.100082
  19 H :    0.104268
  20 C :   -0.214015
  21 H :    0.110314
  22 H :    0.123273
  23 C :   -0.210888
  24 H :    0.110237
  25 H :    0.106878
  26 O :   -0.340234
  27 H :    0.105789
  28 H :    0.116900
  29 H :    0.102073
  30 H :    0.124810

  Mayer bond orders larger than 0.100000
B(  0-C ,  1-C ) :   0.2624 B(  0-C ,  7-C ) :   0.2004 B(  0-C , 12-H ) :  -0.1010
B(  0-C , 17-C ) :   0.6001 B(  0-C , 18-H ) :   0.7505 B(  0-C , 19-H ) :   1.1053
B(  0-C , 20-C ) :   0.1600 B(  0-C , 23-C ) :  -0.1633 B(  1-C ,  7-C ) :   1.8290
B(  1-C , 12-H ) :   1.2761 B(  1-C , 17-C ) :  -0.2432 B(  1-C , 18-H ) :  -0.2209
B(  1-C , 26-O ) :   0.1698 B(  2-C ,  3-C ) :   0.6633 B(  2-C , 20-C ) :   0.5546
B(  2-C , 21-H ) :   0.9839 B(  2-C , 22-H ) :   0.9219 B(  2-C , 23-C ) :   0.1788
B(  3-C ,  4-H ) :   0.9074 B(  3-C ,  5-H ) :   0.8911 B(  3-C ,  6-S ) :   0.8171
B(  3-C , 15-O ) :   0.1182 B(  6-S , 15-O ) :   1.4826 B(  6-S , 16-F ) :   0.9051
B(  6-S , 26-O ) :   1.7762 B(  7-C ,  8-N ) :   0.8548 B(  7-C ,  9-N ) :   0.8664
B(  7-C , 12-H ) :  -0.2608 B(  7-C , 17-C ) :   0.1833 B(  8-N , 13-H ) :   0.8638
B(  8-N , 14-H ) :   1.0354 B(  9-N , 10-H ) :   0.9751 B(  9-N , 11-H ) :   0.9963
B( 12-H , 26-O ) :  -0.4383 B( 17-C , 20-C ) :   0.1979 B( 17-C , 23-C ) :   0.7301
B( 17-C , 24-H ) :   0.9908 B( 17-C , 25-H ) :   0.9259 B( 20-C , 23-C ) :   0.2610
B( 20-C , 27-H ) :  -0.1567 B( 20-C , 29-H ) :   1.0755 B( 20-C , 30-H ) :   0.8739
B( 23-C , 27-H ) :   1.1438 B( 23-C , 28-H ) :   0.8262 B( 23-C , 29-H ) :  -0.1146

Dispersion correction           -0.001902221
FINAL SINGLE POINT ENERGY     -1072.972437557476

DIPOLE MOMENT
-------------
                                X             Y             Z
Electronic contribution:     -3.06407      -2.13390     -21.72441
Nuclear contribution   :      2.64598       3.36033      21.85869
                        -----------------------------------------
Total Dipole Moment    :     -0.41808       1.22644       0.13428
                        -----------------------------------------
Magnitude (a.u.)       :      1.30268
Magnitude (Debye)      :      3.31114

Rotational constants in cm-1:     0.028973     0.014435     0.011026
Rotational constants in MHz :   868.588266   432.748309   330.548534

                             ****ORCA TERMINATED NORMALLY****
TOTAL RUN TIME: 0 days 0 hours 8 minutes 34 seconds 420 msec
