                         Program Version 5.0.0 -  RELEASE  -
|  1> !M062X D3Zero RIJCOSX def2-TZVPD def2/J TightSCF xyzfile
|  2>
|  3> *xyzfile 0 1 D5.xyz
|  4>
|  5> %MaxCore 64000
|  6>
|  7> %pal nprocs 4
|  8> end
|  9>
| 10> %scf
| 11>   MaxIter 150
| 12> end
| 13>
| 14>
| 15>                          ****END OF INPUT****

CARTESIAN COORDINATES (ANGSTROEM)
---------------------------------
  C      1.963365   -1.749150   -1.896887
  N      2.738490   -2.015170   -3.097113
  C      0.611877    1.657634   -4.500288
  C      1.694991    1.541794   -5.570447
  H      2.697326    1.734659   -5.183996
  H      1.506656    2.272239   -6.358076
  S      1.780287   -0.033128   -6.428739
  C      4.049736   -2.154717   -3.152044
  C      4.658206   -1.986293   -4.318655
  N      4.764231   -2.454435   -2.050491
  H      4.287363   -2.776259   -1.217496
  H      5.750825   -2.658351   -2.125988
  H      2.345176   -1.690274   -3.971447
  H      4.109004   -1.592677   -5.071760
  H      5.649095   -2.156462   -4.427237
  O      2.569287    0.213657   -7.607360
  F      0.416880   -0.462969   -6.618595
  C      2.088520   -0.300912   -1.415204
  H      2.231272   -2.451616   -1.102643
  H      0.930249   -1.977801   -2.155438
  C      0.680356    0.655418   -3.348038
  H     -0.356865    1.549231   -4.991128
  H      0.650228    2.675438   -4.096000
  C      1.968993    0.733582   -2.535654
  H      3.051356   -0.168602   -0.911868
  H      1.316501   -0.136231   -0.657252
  O      2.505129   -0.933263   -5.482570
  H      2.824195    0.624726   -3.208464
  H      2.058919    1.730331   -2.093112
  H      0.542252   -0.344731   -3.766662
  H     -0.174219    0.829692   -2.685182

 Total Charge           Charge          ....    0
 Multiplicity           Mult            ....    1
 Number of Electrons    NEL             ....  120
 Basis Dimension        Dim             ....  689

ORBITAL ENERGIES
----------------

  NO   OCC          E(Eh)            E(eV)
   0   2.0000     -90.164674     -2453.5055
   1   2.0000     -25.380441      -690.6369
   2   2.0000     -19.652973      -534.7846
   3   2.0000     -19.639454      -534.4167
   4   2.0000     -14.729209      -400.8021
   5   2.0000     -14.714433      -400.4001
   6   2.0000     -10.603168      -288.5269
   7   2.0000     -10.572801      -287.7005
   8   2.0000     -10.561656      -287.3973
   9   2.0000     -10.559273      -287.3324
  10   2.0000     -10.550868      -287.1037
  11   2.0000     -10.536723      -286.7188
  12   2.0000     -10.530378      -286.5461
  13   2.0000     -10.418088      -283.4906
  14   2.0000      -8.490381      -231.0350
  15   2.0000      -6.415297      -174.5691
  16   2.0000      -6.410153      -174.4291
  17   2.0000      -6.409585      -174.4137
  18   2.0000      -1.543324       -41.9960
  19   2.0000      -1.241832       -33.7920
  20   2.0000      -1.140250       -31.0278
  21   2.0000      -1.058177       -28.7945
  22   2.0000      -0.970423       -26.4066
  23   2.0000      -0.948943       -25.8220
  24   2.0000      -0.894905       -24.3516
  25   2.0000      -0.858663       -23.3654
  26   2.0000      -0.823510       -22.4089
  27   2.0000      -0.794033       -21.6067
  28   2.0000      -0.752206       -20.4686
  29   2.0000      -0.719960       -19.5911
  30   2.0000      -0.704866       -19.1804
  31   2.0000      -0.698865       -19.0171
  32   2.0000      -0.677523       -18.4363
  33   2.0000      -0.653383       -17.7794
  34   2.0000      -0.633269       -17.2321
  35   2.0000      -0.593325       -16.1452
  36   2.0000      -0.576870       -15.6974
  37   2.0000      -0.571006       -15.5379
  38   2.0000      -0.555744       -15.1226
  39   2.0000      -0.546182       -14.8624
  40   2.0000      -0.546054       -14.8589
  41   2.0000      -0.530942       -14.4477
  42   2.0000      -0.515167       -14.0184
  43   2.0000      -0.500355       -13.6154
  44   2.0000      -0.495437       -13.4815
  45   2.0000      -0.471412       -12.8278
  46   2.0000      -0.466397       -12.6913
  47   2.0000      -0.452240       -12.3061
  48   2.0000      -0.443661       -12.0726
  49   2.0000      -0.433741       -11.8027
  50   2.0000      -0.427892       -11.6435
  51   2.0000      -0.418983       -11.4011
  52   2.0000      -0.408818       -11.1245
  53   2.0000      -0.398973       -10.8566
  54   2.0000      -0.393892       -10.7184
  55   2.0000      -0.389615       -10.6020
  56   2.0000      -0.382748       -10.4151
  57   2.0000      -0.380502       -10.3540
  58   2.0000      -0.297500        -8.0954
  59   2.0000      -0.193171        -5.2564
  60   0.0000      -0.006639        -0.1806
  61   0.0000       0.010201         0.2776
  62   0.0000       0.015286         0.4160
  63   0.0000       0.020536         0.5588
  64   0.0000       0.032067         0.8726

MULLIKEN ATOMIC CHARGES
-----------------------
   0 C :   -1.120179
   1 N :   -0.341963
   2 C :   -0.981038
   3 C :   -0.677932
   4 H :    0.367714
   5 H :    0.425491
   6 S :    1.197722
   7 C :    1.042979
   8 C :   -1.063672
   9 N :   -0.623335
  10 H :    0.221261
  11 H :    0.251163
  12 H :    0.575854
  13 H :    0.181717
  14 H :    0.178612
  15 O :   -0.702614
  16 F :   -0.166447
  17 C :   -0.661484
  18 H :    0.390442
  19 H :    0.400782
  20 C :   -0.441661
  21 H :    0.356359
  22 H :    0.398484
  23 C :   -0.396246
  24 H :    0.341380
  25 H :    0.437729
  26 O :   -0.789881
  27 H :    0.208197
  28 H :    0.427189
  29 H :    0.162939
  30 H :    0.400440
Sum of atomic charges:   -0.0000000

LOEWDIN ATOMIC CHARGES
----------------------
   0 C :   -0.193722
   1 N :    0.013909
   2 C :   -0.225892
   3 C :   -0.213439
   4 H :    0.119769
   5 H :    0.107695
   6 S :    0.676020
   7 C :   -0.557285
   8 C :    0.016926
   9 N :    0.113270
  10 H :    0.089306
  11 H :    0.107800
  12 H :    0.076117
  13 H :   -0.019871
  14 H :    0.011550
  15 O :   -0.257801
  16 F :   -0.040822
  17 C :   -0.186776
  18 H :    0.108203
  19 H :    0.113350
  20 C :   -0.218459
  21 H :    0.111080
  22 H :    0.124197
  23 C :   -0.206826
  24 H :    0.110738
  25 H :    0.110317
  26 O :   -0.339251
  27 H :    0.106986
  28 H :    0.119906
  29 H :    0.098264
  30 H :    0.124739

  Mayer bond orders larger than 0.100000
B(  0-C ,  1-N ) :   0.8600 B(  0-C ,  7-C ) :  -0.1667 B(  0-C ,  9-N ) :   0.1470
B(  0-C , 12-H ) :  -0.1985 B(  0-C , 17-C ) :   0.5375 B(  0-C , 18-H ) :   0.8699
B(  0-C , 19-H ) :   0.9338 B(  0-C , 20-C ) :   0.1234 B(  0-C , 25-H ) :  -0.1079
B(  1-N ,  7-C ) :   0.8768 B(  1-N , 12-H ) :   0.6784 B(  2-C ,  3-C ) :   0.6582
B(  2-C , 20-C ) :   0.5679 B(  2-C , 21-H ) :   0.9894 B(  2-C , 22-H ) :   0.9180
B(  2-C , 23-C ) :   0.1727 B(  3-C ,  4-H ) :   0.9237 B(  3-C ,  5-H ) :   0.8828
B(  3-C ,  6-S ) :   0.8233 B(  3-C , 15-O ) :   0.1246 B(  3-C , 23-C ) :   0.1012
B(  6-S , 15-O ) :   1.5005 B(  6-S , 16-F ) :   0.8797 B(  6-S , 26-O ) :   1.7603
B(  7-C ,  8-C ) :   1.0084 B(  7-C ,  9-N ) :   0.7463 B(  7-C , 14-H ) :  -0.2301
B(  8-C , 13-H ) :   1.0117 B(  8-C , 14-H ) :   1.2564 B(  8-C , 26-O ) :   0.1425
B(  9-N , 10-H ) :   0.9949 B(  9-N , 11-H ) :   0.9768 B( 12-H , 26-O ) :  -0.1911
B( 13-H , 26-O ) :  -0.1058 B( 17-C , 20-C ) :   0.1970 B( 17-C , 23-C ) :   0.7569
B( 17-C , 24-H ) :   0.9377 B( 17-C , 25-H ) :   0.9482 B( 20-C , 23-C ) :   0.1943
B( 20-C , 27-H ) :  -0.1450 B( 20-C , 29-H ) :   1.0687 B( 20-C , 30-H ) :   0.8823
B( 23-C , 27-H ) :   1.1094 B( 23-C , 28-H ) :   0.8106 B( 23-C , 29-H ) :  -0.1498

Dispersion correction           -0.001897491
FINAL SINGLE POINT ENERGY     -1072.969117890577

DIPOLE MOMENT
-------------
                                X             Y             Z
Electronic contribution:     -4.64340      -1.96145     -20.71868
Nuclear contribution   :      2.89225       3.36404      21.70199
                        -----------------------------------------
Total Dipole Moment    :     -1.75115       1.40259       0.98331
                        -----------------------------------------
Magnitude (a.u.)       :      2.44963
Magnitude (Debye)      :      6.22647

Rotational constants in cm-1:     0.029431     0.014408     0.011084
Rotational constants in MHz :   882.306106   431.946714   332.288152

                             ****ORCA TERMINATED NORMALLY****
TOTAL RUN TIME: 0 days 0 hours 6 minutes 40 seconds 565 msec
