                         Program Version 5.0.0 -  RELEASE  -
|  1> !M062X D3Zero RIJCOSX def2-TZVPD def2/J TightSCF xyzfile
|  2>
|  3> *xyzfile 0 1 D6.xyz
|  4>
|  5> %MaxCore 64000
|  6>
|  7> %pal nprocs 4
|  8> end
|  9>
| 10> %scf
| 11>   MaxIter 150
| 12> end
| 13>
| 14>
| 15>                          ****END OF INPUT****

CARTESIAN COORDINATES (ANGSTROEM)
---------------------------------
  C      1.963365   -1.749150   -1.896887
  N      2.738490   -2.015170   -3.097113
  C      0.611877    1.657634   -4.500288
  C      1.694991    1.541794   -5.570447
  H      2.697326    1.734659   -5.183996
  H      1.506656    2.272239   -6.358076
  S      1.780287   -0.033128   -6.428739
  C      4.049736   -2.154717   -3.152044
  N      4.658206   -1.986293   -4.318655
  C      4.764231   -2.454435   -2.050491
  H      4.287363   -2.776259   -1.217496
  H      5.750825   -2.658351   -2.125988
  H      2.345176   -1.690274   -3.971447
  H      4.109004   -1.592677   -5.071760
  H      5.649095   -2.156462   -4.427237
  O      2.569287    0.213657   -7.607360
  F      0.416880   -0.462969   -6.618595
  C      2.088520   -0.300912   -1.415204
  H      2.231272   -2.451616   -1.102643
  H      0.930249   -1.977801   -2.155438
  C      0.680356    0.655418   -3.348038
  H     -0.356865    1.549231   -4.991128
  H      0.650228    2.675438   -4.096000
  C      1.968993    0.733582   -2.535654
  H      3.051356   -0.168602   -0.911868
  H      1.316501   -0.136231   -0.657252
  O      2.505129   -0.933263   -5.482570
  H      2.824195    0.624726   -3.208464
  H      2.058919    1.730331   -2.093112
  H      0.542252   -0.344731   -3.766662
  H     -0.174219    0.829692   -2.685182

 Total Charge           Charge          ....    0
 Multiplicity           Mult            ....    1
 Number of Electrons    NEL             ....  120
 Basis Dimension        Dim             ....  689

ORBITAL ENERGIES
----------------

  NO   OCC          E(Eh)            E(eV)
   0   2.0000     -90.181676     -2453.9682
   1   2.0000     -25.394518      -691.0200
   2   2.0000     -19.667764      -535.1871
   3   2.0000     -19.659518      -534.9627
   4   2.0000     -14.716343      -400.4520
   5   2.0000     -14.715064      -400.4172
   6   2.0000     -10.614163      -288.8261
   7   2.0000     -10.578978      -287.8686
   8   2.0000     -10.561767      -287.4003
   9   2.0000     -10.555667      -287.2343
  10   2.0000     -10.554104      -287.1918
  11   2.0000     -10.537700      -286.7454
  12   2.0000     -10.525381      -286.4102
  13   2.0000     -10.427164      -283.7376
  14   2.0000      -8.507223      -231.4933
  15   2.0000      -6.432042      -175.0248
  16   2.0000      -6.427099      -174.8903
  17   2.0000      -6.426456      -174.8728
  18   2.0000      -1.557099       -42.3708
  19   2.0000      -1.258507       -34.2457
  20   2.0000      -1.158722       -31.5304
  21   2.0000      -1.059430       -28.8286
  22   2.0000      -0.968981       -26.3673
  23   2.0000      -0.955853       -26.0101
  24   2.0000      -0.898240       -24.4424
  25   2.0000      -0.859850       -23.3977
  26   2.0000      -0.825608       -22.4659
  27   2.0000      -0.785321       -21.3697
  28   2.0000      -0.771641       -20.9974
  29   2.0000      -0.732169       -19.9233
  30   2.0000      -0.717139       -19.5143
  31   2.0000      -0.711083       -19.3495
  32   2.0000      -0.674202       -18.3460
  33   2.0000      -0.658170       -17.9097
  34   2.0000      -0.617131       -16.7930
  35   2.0000      -0.600686       -16.3455
  36   2.0000      -0.588303       -16.0085
  37   2.0000      -0.583485       -15.8774
  38   2.0000      -0.572768       -15.5858
  39   2.0000      -0.561474       -15.2785
  40   2.0000      -0.542753       -14.7691
  41   2.0000      -0.529703       -14.4139
  42   2.0000      -0.511623       -13.9220
  43   2.0000      -0.504838       -13.7374
  44   2.0000      -0.493610       -13.4318
  45   2.0000      -0.483168       -13.1477
  46   2.0000      -0.463811       -12.6209
  47   2.0000      -0.458004       -12.4629
  48   2.0000      -0.444958       -12.1079
  49   2.0000      -0.435772       -11.8579
  50   2.0000      -0.434458       -11.8222
  51   2.0000      -0.427466       -11.6319
  52   2.0000      -0.415848       -11.3158
  53   2.0000      -0.406339       -11.0571
  54   2.0000      -0.405004       -11.0207
  55   2.0000      -0.394499       -10.7349
  56   2.0000      -0.391171       -10.6443
  57   2.0000      -0.378237       -10.2924
  58   2.0000      -0.288711        -7.8562
  59   2.0000      -0.195738        -5.3263
  60   0.0000      -0.013017        -0.3542
  61   0.0000       0.005471         0.1489
  62   0.0000       0.011440         0.3113
  63   0.0000       0.018047         0.4911
  64   0.0000       0.032186         0.8758

MULLIKEN ATOMIC CHARGES
-----------------------
   0 C :   -1.092942
   1 N :   -0.406079
   2 C :   -0.971238
   3 C :   -0.674810
   4 H :    0.374676
   5 H :    0.422218
   6 S :    1.213014
   7 C :    0.967655
   8 N :   -0.615210
   9 C :   -1.228592
  10 H :    0.187866
  11 H :    0.283072
  12 H :    0.650909
  13 H :    0.420654
  14 H :    0.194420
  15 O :   -0.701741
  16 F :   -0.158461
  17 C :   -0.643593
  18 H :    0.388599
  19 H :    0.391436
  20 C :   -0.437681
  21 H :    0.360391
  22 H :    0.403307
  23 C :   -0.386382
  24 H :    0.308736
  25 H :    0.427095
  26 O :   -0.837077
  27 H :    0.198276
  28 H :    0.418540
  29 H :    0.146603
  30 H :    0.396338
Sum of atomic charges:   -0.0000000

LOEWDIN ATOMIC CHARGES
----------------------
   0 C :   -0.188093
   1 N :    0.012147
   2 C :   -0.225258
   3 C :   -0.212002
   4 H :    0.119753
   5 H :    0.109148
   6 S :    0.681328
   7 C :   -0.563226
   8 N :    0.118665
   9 C :    0.005994
  10 H :   -0.004242
  11 H :   -0.000505
  12 H :    0.071334
  13 H :    0.061380
  14 H :    0.116840
  15 O :   -0.257032
  16 F :   -0.034430
  17 C :   -0.182464
  18 H :    0.113646
  19 H :    0.113203
  20 C :   -0.218573
  21 H :    0.111515
  22 H :    0.125359
  23 C :   -0.208013
  24 H :    0.110527
  25 H :    0.112192
  26 O :   -0.338969
  27 H :    0.106046
  28 H :    0.120131
  29 H :    0.097740
  30 H :    0.125860

  Mayer bond orders larger than 0.100000
B(  0-C ,  1-N ) :   0.7923 B(  0-C ,  9-C ) :   0.1566 B(  0-C , 12-H ) :  -0.2350
B(  0-C , 17-C ) :   0.5891 B(  0-C , 18-H ) :   0.8840 B(  0-C , 19-H ) :   0.9275
B(  0-C , 20-C ) :   0.1256 B(  0-C , 25-H ) :  -0.1029 B(  1-N ,  7-C ) :   0.8248
B(  1-N ,  9-C ) :   0.1115 B(  1-N , 12-H ) :   0.5647 B(  2-C ,  3-C ) :   0.6507
B(  2-C , 20-C ) :   0.5676 B(  2-C , 21-H ) :   0.9883 B(  2-C , 22-H ) :   0.9170
B(  2-C , 23-C ) :   0.1701 B(  3-C ,  4-H ) :   0.9132 B(  3-C ,  5-H ) :   0.8856
B(  3-C ,  6-S ) :   0.8191 B(  3-C , 15-O ) :   0.1167 B(  3-C , 23-C ) :   0.1039
B(  6-S , 15-O ) :   1.5033 B(  6-S , 16-F ) :   0.9080 B(  6-S , 26-O ) :   1.7395
B(  7-C ,  8-N ) :   0.7570 B(  7-C ,  9-C ) :   1.1213 B(  7-C , 11-H ) :  -0.1503
B(  8-N ,  9-C ) :   0.1240 B(  8-N , 13-H ) :   0.8192 B(  8-N , 14-H ) :   1.0326
B(  9-C , 10-H ) :   1.0741 B(  9-C , 11-H ) :   1.0777 B( 12-H , 26-O ) :  -0.1947
B( 17-C , 20-C ) :   0.1911 B( 17-C , 23-C ) :   0.7742 B( 17-C , 24-H ) :   0.9636
B( 17-C , 25-H ) :   0.9358 B( 20-C , 23-C ) :   0.1797 B( 20-C , 27-H ) :  -0.1593
B( 20-C , 29-H ) :   1.0843 B( 20-C , 30-H ) :   0.8839 B( 23-C , 27-H ) :   1.1193
B( 23-C , 28-H ) :   0.8211 B( 23-C , 29-H ) :  -0.1592

Dispersion correction           -0.001913574
FINAL SINGLE POINT ENERGY     -1072.981220578796

DIPOLE MOMENT
-------------
                                X             Y             Z
Electronic contribution:     -4.88026      -1.37487     -22.70008
Nuclear contribution   :      2.90585       3.30398      21.99296
                        -----------------------------------------
Total Dipole Moment    :     -1.97441       1.92912      -0.70712
                        -----------------------------------------
Magnitude (a.u.)       :      2.84953
Magnitude (Debye)      :      7.24293

Rotational constants in cm-1:     0.029065     0.014689     0.011200
Rotational constants in MHz :   871.338526   440.374927   335.770911

                             ****ORCA TERMINATED NORMALLY****
TOTAL RUN TIME: 0 days 0 hours 7 minutes 6 seconds 434 msec
