                         Program Version 5.0.0 -  RELEASE  -
|  1> !M062X D3Zero RIJCOSX def2-TZVPD def2/J TightSCF xyzfile
|  2>
|  3> *xyzfile 0 1 D7.xyz
|  4>
|  5> %MaxCore 64000
|  6>
|  7> %pal nprocs 4
|  8> end
|  9>
| 10> %scf
| 11>   MaxIter 150
| 12> end
| 13>
| 14>
| 15>                          ****END OF INPUT****

CARTESIAN COORDINATES (ANGSTROEM)
---------------------------------
  C      1.963365   -1.749150   -1.896887
  C      2.738490   -2.015170   -3.097113
  C      0.611877    1.657634   -4.500288
  C      1.694991    1.541794   -5.570447
  H      2.697326    1.734659   -5.183996
  H      1.506656    2.272239   -6.358076
  S      1.780287   -0.033128   -6.428739
  C      4.049736   -2.154717   -3.152044
  N      4.658206   -1.986293   -4.318655
  N      4.764231   -2.454435   -2.050491
  H      4.287363   -2.776259   -1.217496
  H      5.750825   -2.658351   -2.125988
  H      2.345176   -1.690274   -3.971447
  H      4.109004   -1.592677   -5.071760
  H      5.649095   -2.156462   -4.427237
  O      2.569287    0.213657   -7.607360
  O      0.416880   -0.462969   -6.618595
  C      2.088520   -0.300912   -1.415204
  H      2.231272   -2.451616   -1.102643
  H      0.930249   -1.977801   -2.155438
  C      0.680356    0.655418   -3.348038
  H     -0.356865    1.549231   -4.991128
  H      0.650228    2.675438   -4.096000
  C      1.968993    0.733582   -2.535654
  H      3.051356   -0.168602   -0.911868
  H      1.316501   -0.136231   -0.657252
  F      2.505129   -0.933263   -5.482570
  H      2.824195    0.624726   -3.208464
  H      2.058919    1.730331   -2.093112
  H      0.542252   -0.344731   -3.766662
  H     -0.174219    0.829692   -2.685182

 Total Charge           Charge          ....    0
 Multiplicity           Mult            ....    1
 Number of Electrons    NEL             ....  120
 Basis Dimension        Dim             ....  689

ORBITAL ENERGIES
----------------

  NO   OCC          E(Eh)            E(eV)
   0   2.0000     -90.153141     -2453.1917
   1   2.0000     -25.353961      -689.9163
   2   2.0000     -19.645891      -534.5919
   3   2.0000     -19.645739      -534.5877
   4   2.0000     -14.751649      -401.4128
   5   2.0000     -14.746390      -401.2697
   6   2.0000     -10.594816      -288.2996
   7   2.0000     -10.584530      -288.0197
   8   2.0000     -10.558208      -287.3034
   9   2.0000     -10.538809      -286.7756
  10   2.0000     -10.529986      -286.5355
  11   2.0000     -10.520806      -286.2857
  12   2.0000     -10.513008      -286.0735
  13   2.0000     -10.453568      -284.4560
  14   2.0000      -8.478916      -230.7230
  15   2.0000      -6.404004      -174.2618
  16   2.0000      -6.398741      -174.1186
  17   2.0000      -6.398000      -174.0984
  18   2.0000      -1.505437       -40.9650
  19   2.0000      -1.245521       -33.8923
  20   2.0000      -1.151765       -31.3411
  21   2.0000      -1.074462       -29.2376
  22   2.0000      -0.978733       -26.6327
  23   2.0000      -0.938452       -25.5366
  24   2.0000      -0.901320       -24.5262
  25   2.0000      -0.854005       -23.2387
  26   2.0000      -0.831975       -22.6392
  27   2.0000      -0.790986       -21.5238
  28   2.0000      -0.757209       -20.6047
  29   2.0000      -0.714619       -19.4458
  30   2.0000      -0.685385       -18.6503
  31   2.0000      -0.674732       -18.3604
  32   2.0000      -0.661839       -18.0096
  33   2.0000      -0.655085       -17.8258
  34   2.0000      -0.629254       -17.1229
  35   2.0000      -0.617971       -16.8159
  36   2.0000      -0.583442       -15.8763
  37   2.0000      -0.572655       -15.5827
  38   2.0000      -0.561822       -15.2879
  39   2.0000      -0.546457       -14.8699
  40   2.0000      -0.540966       -14.7204
  41   2.0000      -0.535417       -14.5694
  42   2.0000      -0.517062       -14.0700
  43   2.0000      -0.502308       -13.6685
  44   2.0000      -0.490737       -13.3536
  45   2.0000      -0.472606       -12.8603
  46   2.0000      -0.469373       -12.7723
  47   2.0000      -0.459622       -12.5069
  48   2.0000      -0.453061       -12.3284
  49   2.0000      -0.433636       -11.7998
  50   2.0000      -0.427501       -11.6329
  51   2.0000      -0.409574       -11.1451
  52   2.0000      -0.408651       -11.1200
  53   2.0000      -0.401758       -10.9324
  54   2.0000      -0.397318       -10.8116
  55   2.0000      -0.384379       -10.4595
  56   2.0000      -0.374162       -10.1815
  57   2.0000      -0.368566       -10.0292
  58   2.0000      -0.334490        -9.1019
  59   2.0000      -0.215469        -5.8632
  60   0.0000       0.002327         0.0633
  61   0.0000       0.010576         0.2878
  62   0.0000       0.018469         0.5026
  63   0.0000       0.022660         0.6166
  64   0.0000       0.032568         0.8862

MULLIKEN ATOMIC CHARGES
-----------------------
   0 C :   -0.904639
   1 C :   -0.015605
   2 C :   -0.896444
   3 C :   -0.705597
   4 H :    0.378101
   5 H :    0.435150
   6 S :    1.207489
   7 C :    0.355308
   8 N :   -0.634917
   9 N :   -0.633217
  10 H :    0.239090
  11 H :    0.227192
  12 H :    0.218797
  13 H :    0.372304
  14 H :    0.187698
  15 O :   -0.717250
  16 O :   -0.692355
  17 C :   -0.830669
  18 H :    0.603567
  19 H :    0.287091
  20 C :   -0.513852
  21 H :    0.354849
  22 H :    0.406086
  23 C :   -0.285652
  24 H :    0.305065
  25 H :    0.389210
  26 F :   -0.252035
  27 H :    0.139834
  28 H :    0.426665
  29 H :    0.169042
  30 H :    0.379690
Sum of atomic charges:   -0.0000000

LOEWDIN ATOMIC CHARGES
----------------------
   0 C :   -0.227809
   1 C :   -0.145232
   2 C :   -0.224598
   3 C :   -0.220069
   4 H :    0.107419
   5 H :    0.114385
   6 S :    0.641434
   7 C :   -0.529274
   8 N :    0.118064
   9 N :    0.126902
  10 H :    0.103883
  11 H :    0.100422
  12 H :    0.036559
  13 H :    0.083965
  14 H :    0.110419
  15 O :   -0.274193
  16 O :   -0.258943
  17 C :   -0.198012
  18 H :    0.102959
  19 H :    0.108178
  20 C :   -0.212023
  21 H :    0.114423
  22 H :    0.122584
  23 C :   -0.214174
  24 H :    0.110479
  25 H :    0.109392
  26 F :   -0.156250
  27 H :    0.101912
  28 H :    0.118355
  29 H :    0.102559
  30 H :    0.126285

  Mayer bond orders larger than 0.100000
B(  0-C ,  1-C ) :   0.3155 B(  0-C ,  7-C ) :   0.1828 B(  0-C , 12-H ) :  -0.1069
B(  0-C , 17-C ) :   0.6051 B(  0-C , 18-H ) :   0.7362 B(  0-C , 19-H ) :   1.1051
B(  0-C , 20-C ) :   0.1401 B(  0-C , 23-C ) :  -0.1581 B(  1-C ,  7-C ) :   1.7888
B(  1-C , 12-H ) :   1.1612 B(  1-C , 17-C ) :  -0.2325 B(  1-C , 18-H ) :  -0.2224
B(  1-C , 26-F ) :   0.1393 B(  2-C ,  3-C ) :   0.6955 B(  2-C , 20-C ) :   0.6830
B(  2-C , 21-H ) :   0.9845 B(  2-C , 22-H ) :   0.9225 B(  2-C , 23-C ) :   0.1337
B(  3-C ,  4-H ) :   0.9037 B(  3-C ,  5-H ) :   0.8375 B(  3-C ,  6-S ) :   0.8553
B(  3-C , 15-O ) :   0.1079 B(  3-C , 26-F ) :   0.1010 B(  6-S , 15-O ) :   1.4272
B(  6-S , 16-O ) :   1.5445 B(  6-S , 26-F ) :   1.0450 B(  7-C ,  8-N ) :   0.7914
B(  7-C ,  9-N ) :   0.8653 B(  7-C , 12-H ) :  -0.2122 B(  7-C , 17-C ) :   0.1745
B(  8-N , 13-H ) :   0.8855 B(  8-N , 14-H ) :   1.0491 B(  9-N , 10-H ) :   0.9702
B(  9-N , 11-H ) :   0.9996 B( 12-H , 26-F ) :  -0.1706 B( 17-C , 20-C ) :   0.2001
B( 17-C , 23-C ) :   0.7397 B( 17-C , 24-H ) :   0.9867 B( 17-C , 25-H ) :   0.9278
B( 20-C , 23-C ) :   0.1053 B( 20-C , 27-H ) :  -0.1904 B( 20-C , 29-H ) :   1.1187
B( 20-C , 30-H ) :   0.8710 B( 23-C , 27-H ) :   1.1861 B( 23-C , 28-H ) :   0.8236
B( 23-C , 29-H ) :  -0.1996

Dispersion correction           -0.001915123
FINAL SINGLE POINT ENERGY     -1072.990384879882

DIPOLE MOMENT
-------------
                                X             Y             Z
Electronic contribution:      0.74577      -3.10924     -19.35905
Nuclear contribution   :      0.26049       3.89757      20.56096
                        -----------------------------------------
Total Dipole Moment    :      1.00626       0.78833       1.20191
                        -----------------------------------------
Magnitude (a.u.)       :      1.75460
Magnitude (Debye)      :      4.45984

Rotational constants in cm-1:     0.029090     0.014735     0.011139
Rotational constants in MHz :   872.086433   441.731892   333.928051

                             ****ORCA TERMINATED NORMALLY****
TOTAL RUN TIME: 0 days 0 hours 7 minutes 1 seconds 287 msec
