                         Program Version 5.0.0 -  RELEASE  -
|  1> !M062X D3Zero RIJCOSX def2-TZVPD def2/J TightSCF xyzfile
|  2>
|  3> *xyzfile 0 1 D8.xyz
|  4>
|  5> %MaxCore 64000
|  6>
|  7> %pal nprocs 4
|  8> end
|  9>
| 10> %scf
| 11>   MaxIter 150
| 12> end
| 13>
| 14>
| 15>                          ****END OF INPUT****

CARTESIAN COORDINATES (ANGSTROEM)
---------------------------------
  C      1.963365   -1.749150   -1.896887
  N      2.738490   -2.015170   -3.097113
  C      0.611877    1.657634   -4.500288
  C      1.694991    1.541794   -5.570447
  H      2.697326    1.734659   -5.183996
  H      1.506656    2.272239   -6.358076
  S      1.780287   -0.033128   -6.428739
  C      4.049736   -2.154717   -3.152044
  C      4.658206   -1.986293   -4.318655
  N      4.764231   -2.454435   -2.050491
  H      4.287363   -2.776259   -1.217496
  H      5.750825   -2.658351   -2.125988
  H      2.345176   -1.690274   -3.971447
  H      4.109004   -1.592677   -5.071760
  H      5.649095   -2.156462   -4.427237
  O      2.569287    0.213657   -7.607360
  O      0.416880   -0.462969   -6.618595
  C      2.088520   -0.300912   -1.415204
  H      2.231272   -2.451616   -1.102643
  H      0.930249   -1.977801   -2.155438
  C      0.680356    0.655418   -3.348038
  H     -0.356865    1.549231   -4.991128
  H      0.650228    2.675438   -4.096000
  C      1.968993    0.733582   -2.535654
  H      3.051356   -0.168602   -0.911868
  H      1.316501   -0.136231   -0.657252
  F      2.505129   -0.933263   -5.482570
  H      2.824195    0.624726   -3.208464
  H      2.058919    1.730331   -2.093112
  H      0.542252   -0.344731   -3.766662
  H     -0.174219    0.829692   -2.685182

 Total Charge           Charge          ....    0
 Multiplicity           Mult            ....    1
 Number of Electrons    NEL             ....  120
 Basis Dimension        Dim             ....  689

ORBITAL ENERGIES
----------------

  NO   OCC          E(Eh)            E(eV)
   0   2.0000     -90.154558     -2453.2302
   1   2.0000     -25.354787      -689.9388
   2   2.0000     -19.647813      -534.6442
   3   2.0000     -19.645617      -534.5844
   4   2.0000     -14.749250      -401.3475
   5   2.0000     -14.744136      -401.2083
   6   2.0000     -10.598014      -288.3866
   7   2.0000     -10.584836      -288.0280
   8   2.0000     -10.577505      -287.8285
   9   2.0000     -10.566147      -287.5195
  10   2.0000     -10.553198      -287.1671
  11   2.0000     -10.545796      -286.9657
  12   2.0000     -10.541626      -286.8522
  13   2.0000     -10.446682      -284.2687
  14   2.0000      -8.480247      -230.7592
  15   2.0000      -6.405333      -174.2980
  16   2.0000      -6.400154      -174.1571
  17   2.0000      -6.399292      -174.1336
  18   2.0000      -1.505966       -40.9794
  19   2.0000      -1.246352       -33.9150
  20   2.0000      -1.152557       -31.3627
  21   2.0000      -1.083007       -29.4701
  22   2.0000      -0.992255       -27.0006
  23   2.0000      -0.945924       -25.7399
  24   2.0000      -0.900234       -24.4966
  25   2.0000      -0.864615       -23.5274
  26   2.0000      -0.818731       -22.2788
  27   2.0000      -0.806221       -21.9384
  28   2.0000      -0.764654       -20.8073
  29   2.0000      -0.723490       -19.6872
  30   2.0000      -0.688799       -18.7432
  31   2.0000      -0.682371       -18.5683
  32   2.0000      -0.668966       -18.2035
  33   2.0000      -0.662924       -18.0391
  34   2.0000      -0.637185       -17.3387
  35   2.0000      -0.610191       -16.6041
  36   2.0000      -0.580408       -15.7937
  37   2.0000      -0.573143       -15.5960
  38   2.0000      -0.563431       -15.3317
  39   2.0000      -0.555324       -15.1111
  40   2.0000      -0.546912       -14.8822
  41   2.0000      -0.541907       -14.7460
  42   2.0000      -0.519024       -14.1233
  43   2.0000      -0.508406       -13.8344
  44   2.0000      -0.493766       -13.4361
  45   2.0000      -0.480751       -13.0819
  46   2.0000      -0.473096       -12.8736
  47   2.0000      -0.461881       -12.5684
  48   2.0000      -0.452061       -12.3012
  49   2.0000      -0.443365       -12.0646
  50   2.0000      -0.435957       -11.8630
  51   2.0000      -0.432717       -11.7748
  52   2.0000      -0.421435       -11.4678
  53   2.0000      -0.410467       -11.1694
  54   2.0000      -0.404945       -11.0191
  55   2.0000      -0.400233       -10.8909
  56   2.0000      -0.395840       -10.7713
  57   2.0000      -0.391104       -10.6425
  58   2.0000      -0.319880        -8.7044
  59   2.0000      -0.218599        -5.9484
  60   0.0000       0.002737         0.0745
  61   0.0000       0.009794         0.2665
  62   0.0000       0.015978         0.4348
  63   0.0000       0.021023         0.5721
  64   0.0000       0.031445         0.8557

MULLIKEN ATOMIC CHARGES
-----------------------
   0 C :   -1.113929
   1 N :   -0.362443
   2 C :   -0.912403
   3 C :   -0.708979
   4 H :    0.372142
   5 H :    0.441900
   6 S :    1.234765
   7 C :    1.036602
   8 C :   -1.059993
   9 N :   -0.625643
  10 H :    0.225241
  11 H :    0.250370
  12 H :    0.545238
  13 H :    0.174203
  14 H :    0.183038
  15 O :   -0.709466
  16 O :   -0.701361
  17 C :   -0.662245
  18 H :    0.385335
  19 H :    0.404020
  20 C :   -0.539552
  21 H :    0.358389
  22 H :    0.404775
  23 C :   -0.327780
  24 H :    0.339652
  25 H :    0.438499
  26 F :   -0.263558
  27 H :    0.190246
  28 H :    0.422238
  29 H :    0.204089
  30 H :    0.376610
Sum of atomic charges:   -0.0000000

LOEWDIN ATOMIC CHARGES
----------------------
   0 C :   -0.188466
   1 N :    0.018729
   2 C :   -0.223683
   3 C :   -0.218535
   4 H :    0.109153
   5 H :    0.115283
   6 S :    0.641560
   7 C :   -0.552174
   8 C :    0.020116
   9 N :    0.121887
  10 H :    0.093671
  11 H :    0.111620
  12 H :    0.097733
  13 H :   -0.008550
  14 H :    0.015983
  15 O :   -0.265862
  16 O :   -0.262946
  17 C :   -0.185523
  18 H :    0.111040
  19 H :    0.116930
  20 C :   -0.215710
  21 H :    0.115181
  22 H :    0.123579
  23 C :   -0.209718
  24 H :    0.111092
  25 H :    0.112915
  26 F :   -0.156292
  27 H :    0.103703
  28 H :    0.121477
  29 H :    0.099417
  30 H :    0.126391

  Mayer bond orders larger than 0.100000
B(  0-C ,  1-N ) :   0.8688 B(  0-C ,  7-C ) :  -0.1733 B(  0-C ,  9-N ) :   0.1510
B(  0-C , 12-H ) :  -0.2039 B(  0-C , 17-C ) :   0.5353 B(  0-C , 18-H ) :   0.8773
B(  0-C , 19-H ) :   0.9275 B(  0-C , 20-C ) :   0.1071 B(  0-C , 25-H ) :  -0.1075
B(  1-N ,  7-C ) :   0.8673 B(  1-N , 12-H ) :   0.6386 B(  2-C ,  3-C ) :   0.6826
B(  2-C , 20-C ) :   0.7096 B(  2-C , 21-H ) :   0.9873 B(  2-C , 22-H ) :   0.9198
B(  2-C , 23-C ) :   0.1315 B(  3-C ,  4-H ) :   0.9226 B(  3-C ,  5-H ) :   0.8289
B(  3-C ,  6-S ) :   0.8389 B(  3-C , 15-O ) :   0.1182 B(  3-C , 26-F ) :   0.1013
B(  6-S , 15-O ) :   1.4344 B(  6-S , 16-O ) :   1.5362 B(  6-S , 26-F ) :   1.0610
B(  7-C ,  8-C ) :   1.0207 B(  7-C ,  9-N ) :   0.7582 B(  7-C , 14-H ) :  -0.2168
B(  8-C , 13-H ) :   0.9487 B(  8-C , 14-H ) :   1.2542 B(  8-C , 26-F ) :   0.1490
B(  9-N , 10-H ) :   0.9903 B(  9-N , 11-H ) :   0.9772 B( 12-H , 26-F ) :  -0.1028
B( 17-C , 20-C ) :   0.2072 B( 17-C , 23-C ) :   0.7608 B( 17-C , 24-H ) :   0.9453
B( 17-C , 25-H ) :   0.9503 B( 20-C , 27-H ) :  -0.1877 B( 20-C , 29-H ) :   1.1097
B( 20-C , 30-H ) :   0.8838 B( 23-C , 27-H ) :   1.1598 B( 23-C , 28-H ) :   0.8077
B( 23-C , 29-H ) :  -0.2405

Dispersion correction           -0.001910975
FINAL SINGLE POINT ENERGY     -1072.987350985598

DIPOLE MOMENT
-------------
                                X             Y             Z
Electronic contribution:     -0.86027      -2.92413     -18.31628
Nuclear contribution   :      0.50676       3.90127      20.40426
                        -----------------------------------------
Total Dipole Moment    :     -0.35351       0.97715       2.08798
                        -----------------------------------------
Magnitude (a.u.)       :      2.33227
Magnitude (Debye)      :      5.92815

Rotational constants in cm-1:     0.029548     0.014706     0.011197
Rotational constants in MHz :   885.834387   440.871746   335.667619

                             ****ORCA TERMINATED NORMALLY****
TOTAL RUN TIME: 0 days 0 hours 6 minutes 11 seconds 887 msec
