                         Program Version 5.0.0 -  RELEASE  -
|  1> !M062X D3Zero RIJCOSX def2-TZVPD def2/J TightSCF xyzfile
|  2>
|  3> *xyzfile 0 1 D9.xyz
|  4>
|  5> %MaxCore 64000
|  6>
|  7> %pal nprocs 4
|  8> end
|  9>
| 10> %scf
| 11>   MaxIter 150
| 12> end
| 13>
| 14>
| 15>                          ****END OF INPUT****

CARTESIAN COORDINATES (ANGSTROEM)
---------------------------------
  C      1.963365   -1.749150   -1.896887
  N      2.738490   -2.015170   -3.097113
  C      0.611877    1.657634   -4.500288
  C      1.694991    1.541794   -5.570447
  H      2.697326    1.734659   -5.183996
  H      1.506656    2.272239   -6.358076
  S      1.780287   -0.033128   -6.428739
  C      4.049736   -2.154717   -3.152044
  N      4.658206   -1.986293   -4.318655
  C      4.764231   -2.454435   -2.050491
  H      4.287363   -2.776259   -1.217496
  H      5.750825   -2.658351   -2.125988
  H      2.345176   -1.690274   -3.971447
  H      4.109004   -1.592677   -5.071760
  H      5.649095   -2.156462   -4.427237
  O      2.569287    0.213657   -7.607360
  O      0.416880   -0.462969   -6.618595
  C      2.088520   -0.300912   -1.415204
  H      2.231272   -2.451616   -1.102643
  H      0.930249   -1.977801   -2.155438
  C      0.680356    0.655418   -3.348038
  H     -0.356865    1.549231   -4.991128
  H      0.650228    2.675438   -4.096000
  C      1.968993    0.733582   -2.535654
  H      3.051356   -0.168602   -0.911868
  H      1.316501   -0.136231   -0.657252
  F      2.505129   -0.933263   -5.482570
  H      2.824195    0.624726   -3.208464
  H      2.058919    1.730331   -2.093112
  H      0.542252   -0.344731   -3.766662
  H     -0.174219    0.829692   -2.685182

 Total Charge           Charge          ....    0
 Multiplicity           Mult            ....    1
 Number of Electrons    NEL             ....  120
 Basis Dimension        Dim             ....  689

ORBITAL ENERGIES
----------------

  NO   OCC          E(Eh)            E(eV)
   0   2.0000     -90.167780     -2453.5900
   1   2.0000     -25.376403      -690.5270
   2   2.0000     -19.660147      -534.9798
   3   2.0000     -19.659446      -534.9607
   4   2.0000     -14.745956      -401.2579
   5   2.0000     -14.745857      -401.2552
   6   2.0000     -10.607741      -288.6513
   7   2.0000     -10.584791      -288.0268
   8   2.0000     -10.571469      -287.6643
   9   2.0000     -10.571289      -287.6594
  10   2.0000     -10.555637      -287.2335
  11   2.0000     -10.546321      -286.9800
  12   2.0000     -10.536366      -286.7091
  13   2.0000     -10.448677      -284.3230
  14   2.0000      -8.493671      -231.1245
  15   2.0000      -6.418909      -174.6674
  16   2.0000      -6.413371      -174.5167
  17   2.0000      -6.412621      -174.4963
  18   2.0000      -1.527190       -41.5570
  19   2.0000      -1.259847       -34.2822
  20   2.0000      -1.165449       -31.7135
  21   2.0000      -1.087244       -29.5854
  22   2.0000      -0.994327       -27.0570
  23   2.0000      -0.951553       -25.8931
  24   2.0000      -0.901307       -24.5258
  25   2.0000      -0.863197       -23.4888
  26   2.0000      -0.831383       -22.6231
  27   2.0000      -0.794858       -21.6292
  28   2.0000      -0.785237       -21.3674
  29   2.0000      -0.729784       -19.8584
  30   2.0000      -0.706781       -19.2325
  31   2.0000      -0.694154       -18.8889
  32   2.0000      -0.677569       -18.4376
  33   2.0000      -0.653063       -17.7707
  34   2.0000      -0.630737       -17.1632
  35   2.0000      -0.618365       -16.8266
  36   2.0000      -0.596441       -16.2300
  37   2.0000      -0.586784       -15.9672
  38   2.0000      -0.575481       -15.6596
  39   2.0000      -0.560760       -15.2591
  40   2.0000      -0.553204       -15.0534
  41   2.0000      -0.535404       -14.5691
  42   2.0000      -0.518114       -14.0986
  43   2.0000      -0.509153       -13.8548
  44   2.0000      -0.498187       -13.5564
  45   2.0000      -0.486682       -13.2433
  46   2.0000      -0.472699       -12.8628
  47   2.0000      -0.467759       -12.7284
  48   2.0000      -0.449680       -12.2364
  49   2.0000      -0.442055       -12.0289
  50   2.0000      -0.438956       -11.9446
  51   2.0000      -0.433778       -11.8037
  52   2.0000      -0.430716       -11.7204
  53   2.0000      -0.417660       -11.3651
  54   2.0000      -0.412873       -11.2349
  55   2.0000      -0.404762       -11.0141
  56   2.0000      -0.399992       -10.8843
  57   2.0000      -0.388153       -10.5622
  58   2.0000      -0.314762        -8.5651
  59   2.0000      -0.218140        -5.9359
  60   0.0000      -0.002622        -0.0713
  61   0.0000       0.009329         0.2539
  62   0.0000       0.013173         0.3585
  63   0.0000       0.017626         0.4796
  64   0.0000       0.034570         0.9407

MULLIKEN ATOMIC CHARGES
-----------------------
   0 C :   -1.103557
   1 N :   -0.437295
   2 C :   -0.899047
   3 C :   -0.714782
   4 H :    0.379647
   5 H :    0.439014
   6 S :    1.219713
   7 C :    0.986384
   8 N :   -0.621811
   9 C :   -1.232366
  10 H :    0.194348
  11 H :    0.285092
  12 H :    0.623638
  13 H :    0.399876
  14 H :    0.190732
  15 O :   -0.708051
  16 O :   -0.683945
  17 C :   -0.644591
  18 H :    0.386951
  19 H :    0.400726
  20 C :   -0.533055
  21 H :    0.360448
  22 H :    0.410224
  23 C :   -0.314618
  24 H :    0.307055
  25 H :    0.427685
  26 F :   -0.263963
  27 H :    0.171239
  28 H :    0.415302
  29 H :    0.183652
  30 H :    0.375353
Sum of atomic charges:   -0.0000000

LOEWDIN ATOMIC CHARGES
----------------------
   0 C :   -0.183135
   1 N :    0.015728
   2 C :   -0.223042
   3 C :   -0.218207
   4 H :    0.108660
   5 H :    0.116375
   6 S :    0.642905
   7 C :   -0.560523
   8 N :    0.121407
   9 C :    0.017888
  10 H :    0.001697
  11 H :    0.004963
  12 H :    0.092787
  13 H :    0.075873
  14 H :    0.122009
  15 O :   -0.265971
  16 O :   -0.256395
  17 C :   -0.181222
  18 H :    0.116262
  19 H :    0.116780
  20 C :   -0.216094
  21 H :    0.115585
  22 H :    0.124591
  23 C :   -0.211155
  24 H :    0.111097
  25 H :    0.114621
  26 F :   -0.153434
  27 H :    0.102270
  28 H :    0.121590
  29 H :    0.098747
  30 H :    0.127344

  Mayer bond orders larger than 0.100000
B(  0-C ,  1-N ) :   0.8325 B(  0-C ,  9-C ) :   0.1525 B(  0-C , 12-H ) :  -0.2431
B(  0-C , 17-C ) :   0.5951 B(  0-C , 18-H ) :   0.8810 B(  0-C , 19-H ) :   0.9154
B(  0-C , 20-C ) :   0.1132 B(  0-C , 25-H ) :  -0.1057 B(  1-N ,  7-C ) :   0.8047
B(  1-N ,  9-C ) :   0.1053 B(  1-N , 12-H ) :   0.5276 B(  2-C ,  3-C ) :   0.6755
B(  2-C , 20-C ) :   0.7091 B(  2-C , 21-H ) :   0.9877 B(  2-C , 22-H ) :   0.9191
B(  2-C , 23-C ) :   0.1281 B(  3-C ,  4-H ) :   0.9076 B(  3-C ,  5-H ) :   0.8317
B(  3-C ,  6-S ) :   0.8439 B(  3-C , 15-O ) :   0.1075 B(  6-S , 15-O ) :   1.4485
B(  6-S , 16-O ) :   1.5664 B(  6-S , 26-F ) :   1.0336 B(  7-C ,  8-N ) :   0.7102
B(  7-C ,  9-C ) :   1.1014 B(  7-C , 11-H ) :  -0.1570 B(  8-N ,  9-C ) :   0.1187
B(  8-N , 13-H ) :   0.8398 B(  8-N , 14-H ) :   1.0457 B(  9-C , 10-H ) :   1.0697
B(  9-C , 11-H ) :   1.0734 B( 17-C , 20-C ) :   0.1971 B( 17-C , 23-C ) :   0.7787
B( 17-C , 24-H ) :   0.9701 B( 17-C , 25-H ) :   0.9370 B( 20-C , 27-H ) :  -0.2029
B( 20-C , 29-H ) :   1.1273 B( 20-C , 30-H ) :   0.8820 B( 23-C , 27-H ) :   1.1732
B( 23-C , 28-H ) :   0.8151 B( 23-C , 29-H ) :  -0.2503

Dispersion correction           -0.001927384
FINAL SINGLE POINT ENERGY     -1072.990398848092

DIPOLE MOMENT
-------------
                                X             Y             Z
Electronic contribution:     -1.04336      -2.37316     -20.26567
Nuclear contribution   :      0.52036       3.84122      20.69523
                        -----------------------------------------
Total Dipole Moment    :     -0.52300       1.46806       0.42956
                        -----------------------------------------
Magnitude (a.u.)       :      1.61656
Magnitude (Debye)      :      4.10896

Rotational constants in cm-1:     0.029184     0.014996     0.011314
Rotational constants in MHz :   874.907122   449.569665   339.178205

                             ****ORCA TERMINATED NORMALLY****
TOTAL RUN TIME: 0 days 0 hours 6 minutes 10 seconds 782 msec
