                         Program Version 5.0.0 -  RELEASE  -
|  1> !B3LYP D3BJ RIJCOSX def2-SVP def2/J TightSCF
|  2> *xyz -1 1
|  3> C          0.70466        1.44313       -4.50363
|  4> C          1.72854        1.42432       -5.63944
|  5> H          2.64672        1.95379       -5.38105
|  6> H          1.29992        1.93061       -6.50361
|  7> S          2.25263       -0.18811       -6.27184
|  8> O          3.56261       -0.44446       -5.63155
|  9> O          2.34494       -0.03374       -7.69650
| 10> O          1.26606       -1.15918       -5.80536
| 11> H         -0.17385        0.91270       -4.80656
| 12> H          0.44778        2.45562       -4.27173
| 13> H          1.12367        0.97423       -3.63791
| 14> *
| 15>
| 16> %MaxCore 64000
| 17>
| 18> %pal nprocs 4
| 19> end
| 20>
| 21> %scf
| 22>   MaxIter 150
| 23> end
| 24>
| 25>
| 26>                          ****END OF INPUT****

CARTESIAN COORDINATES (ANGSTROEM)
---------------------------------
  C      0.704660    1.443130   -4.503630
  C      1.728540    1.424320   -5.639440
  H      2.646720    1.953790   -5.381050
  H      1.299920    1.930610   -6.503610
  S      2.252630   -0.188110   -6.271840
  O      3.562610   -0.444460   -5.631550
  O      2.344940   -0.033740   -7.696500
  O      1.266060   -1.159180   -5.805360
  H     -0.173850    0.912700   -4.806560
  H      0.447780    2.455620   -4.271730
  H      1.123670    0.974230   -3.637910

 Total Charge           Charge          ....   -1
 Multiplicity           Mult            ....    1
 Number of Electrons    NEL             ....   58
 Basis Dimension        Dim             ....  113

ORBITAL ENERGIES
----------------

  NO   OCC          E(Eh)            E(eV)
   0   2.0000     -88.837289     -2417.3855
   1   2.0000     -18.880493      -513.7643
   2   2.0000     -18.874330      -513.5966
   3   2.0000     -18.862165      -513.2656
   4   2.0000     -10.035617      -273.0830
   5   2.0000     -10.026163      -272.8258
   6   2.0000      -7.898012      -214.9158
   7   2.0000      -5.866378      -159.6323
   8   2.0000      -5.866241      -159.6285
   9   2.0000      -5.866015      -159.6224
  10   2.0000      -0.896052       -24.3828
  11   2.0000      -0.755861       -20.5680
  12   2.0000      -0.730694       -19.8832
  13   2.0000      -0.613761       -16.7013
  14   2.0000      -0.489983       -13.3331
  15   2.0000      -0.357246        -9.7212
  16   2.0000      -0.306610        -8.3433
  17   2.0000      -0.291701        -7.9376
  18   2.0000      -0.257757        -7.0139
  19   2.0000      -0.236082        -6.4241
  20   2.0000      -0.230647        -6.2762
  21   2.0000      -0.210765        -5.7352
  22   2.0000      -0.204428        -5.5628
  23   2.0000      -0.114653        -3.1199
  24   2.0000      -0.113904        -3.0995
  25   2.0000      -0.082872        -2.2551
  26   2.0000      -0.077796        -2.1169
  27   2.0000      -0.063661        -1.7323
  28   2.0000      -0.028922        -0.7870
  29   0.0000       0.200413         5.4535
  30   0.0000       0.255769         6.9598
  31   0.0000       0.259708         7.0670
  32   0.0000       0.266654         7.2560
  33   0.0000       0.287361         7.8195

MULLIKEN ATOMIC CHARGES
-----------------------
   0 C :    0.067706
   1 C :   -0.078880
   2 H :   -0.010512
   3 H :   -0.019359
   4 S :    0.880048
   5 O :   -0.621689
   6 O :   -0.570414
   7 O :   -0.588893
   8 H :   -0.004404
   9 H :   -0.047330
  10 H :   -0.006272
Sum of atomic charges:   -1.0000000

LOEWDIN ATOMIC CHARGES
----------------------
   0 C :   -0.062885
   1 C :   -0.185331
   2 H :    0.005220
   3 H :    0.001011
   4 S :    1.104175
   5 O :   -0.655903
   6 O :   -0.603907
   7 O :   -0.626124
   8 H :    0.012899
   9 H :   -0.002201
  10 H :    0.013046

  Mayer bond orders larger than 0.100000
B(  0-C ,  1-C ) :   1.0846 B(  0-C ,  8-H ) :   0.9628 B(  0-C ,  9-H ) :   0.9533
B(  0-C , 10-H ) :   0.9668 B(  1-C ,  2-H ) :   0.9407 B(  1-C ,  3-H ) :   0.9393
B(  1-C ,  4-S ) :   0.8761 B(  4-S ,  5-O ) :   1.5896 B(  4-S ,  6-O ) :   1.6412
B(  4-S ,  7-O ) :   1.6213

Dispersion correction           -0.016511522
FINAL SINGLE POINT ENERGY      -702.521672090488

DIPOLE MOMENT
-------------
                                X             Y             Z
Electronic contribution:      3.71247      -5.76368      -4.37130
Nuclear contribution   :     -4.50297       7.24642       5.01775
                        -----------------------------------------
Total Dipole Moment    :     -0.79050       1.48274       0.64645
                        -----------------------------------------
Magnitude (a.u.)       :      1.80036
Magnitude (Debye)      :      4.57615

Rotational constants in cm-1:     0.162459     0.081286     0.079601
Rotational constants in MHz :  4870.394399  2436.893583  2386.374948

                             ****ORCA TERMINATED NORMALLY****
TOTAL RUN TIME: 0 days 0 hours 0 minutes 12 seconds 834 msec
