                         Program Version 5.0.0 -  RELEASE  -
|  1> !B3LYP D3BJ RIJCOSX def2-SVP def2/J TightSCF
|  2> *xyz 1 1
|  3> C          2.91632       -1.24259       -1.54313
|  4> C          3.46659       -1.59097       -2.88908
|  5> N          4.65227       -1.14316       -3.25969
|  6> N          2.75226       -2.29204       -3.72803
|  7> H          1.77836       -2.48960       -3.51274
|  8> H          2.94861       -2.20854       -4.71681
|  9> H          5.14672       -0.51251       -2.63385
| 10> H          4.78303       -1.00720       -4.25350
| 11> C          2.80408        0.29070       -1.35924
| 12> H          1.94047       -1.71653       -1.44116
| 13> H          3.55857       -1.66343       -0.76637
| 14> H          2.17393        0.69633       -2.12297
| 15> H          3.77707        0.73043       -1.42880
| 16> H          2.38369        0.50492       -0.39889
| 17> *
| 18>
| 19> %MaxCore 64000
| 20>
| 21> %pal nprocs 4
| 22> end
| 23>
| 24> %scf
| 25>   MaxIter 150
| 26> end
| 27>
| 28>
| 29>                          ****END OF INPUT****

CARTESIAN COORDINATES (ANGSTROEM)
---------------------------------
  C      2.916320   -1.242590   -1.543130
  C      3.466590   -1.590970   -2.889080
  N      4.652270   -1.143160   -3.259690
  N      2.752260   -2.292040   -3.728030
  H      1.778360   -2.489600   -3.512740
  H      2.948610   -2.208540   -4.716810
  H      5.146720   -0.512510   -2.633850
  H      4.783030   -1.007200   -4.253500
  C      2.804080    0.290700   -1.359240
  H      1.940470   -1.716530   -1.441160
  H      3.558570   -1.663430   -0.766370
  H      2.173930    0.696330   -2.122970
  H      3.777070    0.730430   -1.428800
  H      2.383690    0.504920   -0.398890

 Total Charge           Charge          ....    1
 Multiplicity           Mult            ....    1
 Number of Electrons    NEL             ....   40
 Basis Dimension        Dim             ....  115

ORBITAL ENERGIES
----------------

  NO   OCC          E(Eh)            E(eV)
   0   2.0000     -14.578118      -396.6907
   1   2.0000     -14.572808      -396.5463
   2   2.0000     -10.504813      -285.8505
   3   2.0000     -10.383831      -282.5584
   4   2.0000     -10.346719      -281.5485
   5   2.0000      -1.201605       -32.6973
   6   2.0000      -1.102362       -29.9968
   7   2.0000      -0.963578       -26.2203
   8   2.0000      -0.858417       -23.3587
   9   2.0000      -0.814070       -22.1520
  10   2.0000      -0.769808       -20.9475
  11   2.0000      -0.749953       -20.4072
  12   2.0000      -0.700092       -19.0505
  13   2.0000      -0.663188       -18.0463
  14   2.0000      -0.624801       -17.0017
  15   2.0000      -0.599723       -16.3193
  16   2.0000      -0.552791       -15.0422
  17   2.0000      -0.542947       -14.7743
  18   2.0000      -0.530534       -14.4366
  19   2.0000      -0.497156       -13.5283
  20   0.0000      -0.216627        -5.8947
  21   0.0000      -0.146206        -3.9785
  22   0.0000      -0.103849        -2.8259
  23   0.0000      -0.101737        -2.7684
  24   0.0000      -0.067277        -1.8307

MULLIKEN ATOMIC CHARGES
-----------------------
   0 C :    0.045443
   1 C :   -0.111316
   2 N :    0.035250
   3 N :    0.052045
   4 H :    0.179509
   5 H :    0.163549
   6 H :    0.174828
   7 H :    0.167843
   8 C :    0.021470
   9 H :    0.039316
  10 H :    0.088248
  11 H :    0.041679
  12 H :    0.029403
  13 H :    0.072733
Sum of atomic charges:    1.0000000

LOEWDIN ATOMIC CHARGES
----------------------
   0 C :   -0.025555
   1 C :    0.147021
   2 N :    0.096036
   3 N :    0.110201
   4 H :    0.121101
   5 H :    0.110197
   6 H :    0.116657
   7 H :    0.109873
   8 C :   -0.014421
   9 H :    0.048466
  10 H :    0.066994
  11 H :    0.034841
  12 H :    0.025688
  13 H :    0.052903

  Mayer bond orders larger than 0.100000
B(  0-C ,  1-C ) :   1.0373 B(  0-C ,  8-C ) :   1.0737 B(  0-C ,  9-H ) :   0.9177
B(  0-C , 10-H ) :   0.9130 B(  1-C ,  2-N ) :   1.4926 B(  1-C ,  3-N ) :   1.5268
B(  2-N ,  6-H ) :   0.9259 B(  2-N ,  7-H ) :   0.9307 B(  3-N ,  4-H ) :   0.9199
B(  3-N ,  5-H ) :   0.9313 B(  8-C , 11-H ) :   0.9705 B(  8-C , 12-H ) :   0.9711
B(  8-C , 13-H ) :   0.9588

Dispersion correction           -0.016830365
FINAL SINGLE POINT ENERGY      -228.727717854167

DIPOLE MOMENT
-------------
                                X             Y             Z
Electronic contribution:      1.32668      -2.85670      -2.82937
Nuclear contribution   :     -1.30215       2.77761       1.84194
                        -----------------------------------------
Total Dipole Moment    :      0.02454      -0.07909      -0.98744
                        -----------------------------------------
Magnitude (a.u.)       :      0.99090
Magnitude (Debye)      :      2.51868

Rotational constants in cm-1:     0.267442     0.127541     0.099068
Rotational constants in MHz :  8017.703171  3823.592522  2969.992494

                             ****ORCA TERMINATED NORMALLY****
TOTAL RUN TIME: 0 days 0 hours 0 minutes 13 seconds 472 msec
