                         Program Version 5.0.0 -  RELEASE  -
|  1> !B3LYP D3BJ RIJCOSX def2-TZVP def2/J TightSCF xyzfile
|  2>
|  3> *xyzfile 0 1 B.xyz
|  4>
|  5> %MaxCore 64000
|  6>
|  7> %pal nprocs 18
|  8> end
|  9>
| 10> %scf
| 11>   MaxIter 150
| 12> end
| 13>
| 14>
| 15>                          ****END OF INPUT****

CARTESIAN COORDINATES (ANGSTROEM)
---------------------------------
  C      2.916324   -1.242589   -1.543125
  C      0.704661    1.443129   -4.503630
  C      1.728539    1.424320   -5.639443
  H      2.646718    1.953794   -5.381054
  H      1.299916    1.930613   -6.503614
  S      2.252625   -0.188115   -6.271840
  C      3.466585   -1.590971   -2.889082
  N      4.652275   -1.143164   -3.259692
  N      2.752264   -2.292043   -3.728029
  H      1.778364   -2.489604   -3.512738
  H      2.948612   -2.208544   -4.716813
  H      5.146723   -0.512508   -2.633852
  H      4.783030   -1.007203   -4.253498
  O      3.562607   -0.444464   -5.631552
  O      2.344944   -0.033742   -7.696501
  C      2.804084    0.290698   -1.359243
  C      1.052550    0.695659   -3.214915
  H     -0.232483    1.032925   -4.884449
  H      0.511700    2.495794   -4.267966
  C      2.388380    1.093669   -2.597108
  H      3.763425    0.674718   -0.999889
  H      2.094788    0.461222   -0.545756
  O      1.266058   -1.159177   -5.805365
  H      3.167316    1.013242   -3.359430
  H      2.357690    2.149375   -2.310997
  H      1.039284   -0.368429   -3.449329
  H      0.250787    0.865605   -2.488283
  H      1.940472   -1.716529   -1.441161
  H      3.558569   -1.663433   -0.766371

 Total Charge           Charge          ....    0
 Multiplicity           Mult            ....    1
 Number of Electrons    NEL             ....  112
 Basis Dimension        Dim             ....  505

ORBITAL ENERGIES
----------------

  NO   OCC          E(Eh)            E(eV)
   0   2.0000     -88.989668     -2421.5320
   1   2.0000     -19.060993      -518.6760
   2   2.0000     -19.053941      -518.4841
   3   2.0000     -19.044472      -518.2264
   4   2.0000     -14.386691      -391.4818
   5   2.0000     -14.386097      -391.4656
   6   2.0000     -10.326404      -280.9957
   7   2.0000     -10.232821      -278.4492
   8   2.0000     -10.211271      -277.8628
   9   2.0000     -10.182625      -277.0833
  10   2.0000     -10.169617      -276.7294
  11   2.0000     -10.165376      -276.6140
  12   2.0000     -10.162849      -276.5452
  13   2.0000      -8.033237      -218.5955
  14   2.0000      -5.996711      -163.1788
  15   2.0000      -5.996203      -163.1650
  16   2.0000      -5.994948      -163.1308
  17   2.0000      -1.077029       -29.3075
  18   2.0000      -1.040486       -28.3131
  19   2.0000      -0.944084       -25.6898
  20   2.0000      -0.939907       -25.5762
  21   2.0000      -0.936591       -25.4859
  22   2.0000      -0.845779       -23.0148
  23   2.0000      -0.799053       -21.7433
  24   2.0000      -0.752449       -20.4752
  25   2.0000      -0.700011       -19.0483
  26   2.0000      -0.672305       -18.2943
  27   2.0000      -0.637101       -17.3364
  28   2.0000      -0.602325       -16.3901
  29   2.0000      -0.591194       -16.0872
  30   2.0000      -0.580931       -15.8079
  31   2.0000      -0.536472       -14.5981
  32   2.0000      -0.525011       -14.2863
  33   2.0000      -0.513524       -13.9737
  34   2.0000      -0.496462       -13.5094
  35   2.0000      -0.470559       -12.8046
  36   2.0000      -0.462363       -12.5815
  37   2.0000      -0.443922       -12.0797
  38   2.0000      -0.433350       -11.7921
  39   2.0000      -0.429881       -11.6977
  40   2.0000      -0.424548       -11.5525
  41   2.0000      -0.413603       -11.2547
  42   2.0000      -0.402286       -10.9468
  43   2.0000      -0.385671       -10.4947
  44   2.0000      -0.377366       -10.2687
  45   2.0000      -0.373359       -10.1596
  46   2.0000      -0.346647        -9.4327
  47   2.0000      -0.339454        -9.2370
  48   2.0000      -0.327283        -8.9058
  49   2.0000      -0.325505        -8.8574
  50   2.0000      -0.304732        -8.2922
  51   2.0000      -0.300783        -8.1847
  52   2.0000      -0.266093        -7.2408
  53   2.0000      -0.260472        -7.0878
  54   2.0000      -0.252375        -6.8675
  55   2.0000      -0.223136        -6.0718
  56   0.0000      -0.058808        -1.6002
  57   0.0000      -0.013538        -0.3684
  58   0.0000       0.015455         0.4205
  59   0.0000       0.034265         0.9324
  60   0.0000       0.044665         1.2154

MULLIKEN ATOMIC CHARGES
-----------------------
   0 C :   -0.218118
   1 C :   -0.118807
   2 C :   -0.285138
   3 H :    0.106030
   4 H :    0.133802
   5 S :    0.915210
   6 C :    0.265874
   7 N :   -0.331588
   8 N :   -0.273688
   9 H :    0.257931
  10 H :    0.275710
  11 H :    0.249179
  12 H :    0.296681
  13 O :   -0.657718
  14 O :   -0.499370
  15 C :   -0.244798
  16 C :   -0.172264
  17 H :    0.102378
  18 H :    0.083048
  19 C :   -0.163654
  20 H :    0.118559
  21 H :    0.111763
  22 O :   -0.580695
  23 H :    0.115923
  24 H :    0.095211
  25 H :    0.068765
  26 H :    0.082595
  27 H :    0.123147
  28 H :    0.144032
Sum of atomic charges:   -0.0000000

LOEWDIN ATOMIC CHARGES
----------------------
   0 C :   -0.205500
   1 C :   -0.280749
   2 C :   -0.381315
   3 H :    0.124957
   4 H :    0.136336
   5 S :    0.451518
   6 C :   -0.316848
   7 N :    0.090032
   8 N :    0.125602
   9 H :    0.191862
  10 H :    0.185463
  11 H :    0.188333
  12 H :    0.186170
  13 O :   -0.423375
  14 O :   -0.319476
  15 C :   -0.247932
  16 C :   -0.268680
  17 H :    0.142845
  18 H :    0.135096
  19 C :   -0.264919
  20 H :    0.134529
  21 H :    0.143261
  22 O :   -0.372985
  23 H :    0.138914
  24 H :    0.138982
  25 H :    0.129884
  26 H :    0.132658
  27 H :    0.149957
  28 H :    0.155378

  Mayer bond orders larger than 0.100000
B(  0-C ,  6-C ) :   0.9899 B(  0-C , 15-C ) :   0.9211 B(  0-C , 27-H ) :   0.9676
B(  0-C , 28-H ) :   0.9617 B(  1-C ,  2-C ) :   0.9568 B(  1-C , 16-C ) :   0.9861
B(  1-C , 17-H ) :   0.9616 B(  1-C , 18-H ) :   0.9568 B(  2-C ,  3-H ) :   0.9607
B(  2-C ,  4-H ) :   0.9561 B(  2-C ,  5-S ) :   0.8968 B(  5-S , 13-O ) :   1.5036
B(  5-S , 14-O ) :   1.9211 B(  5-S , 22-O ) :   1.6765 B(  6-C ,  7-N ) :   1.3917
B(  6-C ,  8-N ) :   1.5056 B(  7-N , 11-H ) :   0.9144 B(  7-N , 12-H ) :   0.8527
B(  8-N ,  9-H ) :   0.9006 B(  8-N , 10-H ) :   0.8470 B( 15-C , 19-C ) :   0.9372
B( 15-C , 20-H ) :   0.9844 B( 15-C , 21-H ) :   0.9617 B( 16-C , 19-C ) :   0.9435
B( 16-C , 25-H ) :   0.9503 B( 16-C , 26-H ) :   0.9607 B( 19-C , 23-H ) :   0.9712
B( 19-C , 24-H ) :   0.9613

Dispersion correction           -0.060656136
FINAL SINGLE POINT ENERGY     -1009.679174678171

DIPOLE MOMENT
-------------
                                X             Y             Z
Electronic contribution:      2.77684      -6.31899     -13.37313
Nuclear contribution   :     -1.90023       6.18953      17.82209
                        -----------------------------------------
Total Dipole Moment    :      0.87660      -0.12947       4.44896
                        -----------------------------------------
Magnitude (a.u.)       :      4.53634
Magnitude (Debye)      :     11.53047

Rotational constants in cm-1:     0.036337     0.018755     0.015005
Rotational constants in MHz :  1089.341704   562.266628   449.834770

                             ****ORCA TERMINATED NORMALLY****
TOTAL RUN TIME: 0 days 0 hours 0 minutes 52 seconds 397 msec
