                         Program Version 5.0.0 -  RELEASE  -
|  1> !B3LYP D3BJ RIJCOSX def2-SVP def2/J TightSCF
|  2> *xyz 0 1
|  3> C          0.70466        1.44313       -4.50363
|  4> C          1.72854        1.42432       -5.63944
|  5> H          2.64672        1.95379       -5.38105
|  6> H          1.29992        1.93061       -6.50361
|  7> S          2.25263       -0.18811       -6.27184
|  8> F          3.56261       -0.44446       -5.63155
|  9> O          2.34494       -0.03374       -7.69650
| 10> O          1.26606       -1.15918       -5.80536
| 11> H         -0.17385        0.91270       -4.80656
| 12> H          0.44778        2.45562       -4.27173
| 13> H          1.12367        0.97423       -3.63791
| 14> *
| 15>
| 16> %MaxCore 64000
| 17>
| 18> %pal nprocs 4
| 19> end
| 20>
| 21> %scf
| 22>   MaxIter 150
| 23> end
| 24>
| 25>
| 26>                          ****END OF INPUT****

CARTESIAN COORDINATES (ANGSTROEM)
---------------------------------
  C      0.704660    1.443130   -4.503630
  C      1.728540    1.424320   -5.639440
  H      2.646720    1.953790   -5.381050
  H      1.299920    1.930610   -6.503610
  S      2.252630   -0.188110   -6.271840
  F      3.562610   -0.444460   -5.631550
  O      2.344940   -0.033740   -7.696500
  O      1.266060   -1.159180   -5.805360
  H     -0.173850    0.912700   -4.806560
  H      0.447780    2.455620   -4.271730
  H      1.123670    0.974230   -3.637910

 Total Charge           Charge          ....    0
 Multiplicity           Mult            ....    1
 Number of Electrons    NEL             ....   58
 Basis Dimension        Dim             ....  113

ORBITAL ENERGIES
----------------

  NO   OCC          E(Eh)            E(eV)
   0   2.0000     -89.110888     -2424.8305
   1   2.0000     -24.776247      -674.1960
   2   2.0000     -19.134145      -520.6666
   3   2.0000     -19.127285      -520.4799
   4   2.0000     -10.238576      -278.6058
   5   2.0000     -10.202909      -277.6353
   6   2.0000      -8.173835      -222.4214
   7   2.0000      -6.146027      -167.2419
   8   2.0000      -6.139906      -167.0753
   9   2.0000      -6.138791      -167.0450
  10   2.0000      -1.332298       -36.2537
  11   2.0000      -1.101634       -29.9770
  12   2.0000      -1.003610       -27.3096
  13   2.0000      -0.811963       -22.0946
  14   2.0000      -0.714614       -19.4456
  15   2.0000      -0.662085       -18.0163
  16   2.0000      -0.569971       -15.5097
  17   2.0000      -0.553329       -15.0569
  18   2.0000      -0.538679       -14.6582
  19   2.0000      -0.487572       -13.2675
  20   2.0000      -0.473195       -12.8763
  21   2.0000      -0.444889       -12.1060
  22   2.0000      -0.425170       -11.5695
  23   2.0000      -0.401222       -10.9178
  24   2.0000      -0.393795       -10.7157
  25   2.0000      -0.374802       -10.1989
  26   2.0000      -0.324389        -8.8271
  27   2.0000      -0.319334        -8.6895
  28   2.0000      -0.303571        -8.2606
  29   0.0000       0.035246         0.9591
  30   0.0000       0.044979         1.2239
  31   0.0000       0.078115         2.1256
  32   0.0000       0.086443         2.3522
  33   0.0000       0.100737         2.7412

MULLIKEN ATOMIC CHARGES
-----------------------
   0 C :    0.054433
   1 C :   -0.132055
   2 H :    0.050997
   3 H :    0.073676
   4 S :    0.965578
   5 F :   -0.212770
   6 O :   -0.434423
   7 O :   -0.457430
   8 H :    0.042703
   9 H :    0.024577
  10 H :    0.024714
Sum of atomic charges:   -0.0000000

LOEWDIN ATOMIC CHARGES
----------------------
   0 C :   -0.044180
   1 C :   -0.150429
   2 H :    0.029693
   3 H :    0.044531
   4 S :    1.167472
   5 F :   -0.160512
   6 O :   -0.477237
   7 O :   -0.501778
   8 H :    0.032978
   9 H :    0.032572
  10 H :    0.026890

  Mayer bond orders larger than 0.100000
B(  0-C ,  1-C ) :   1.0803 B(  0-C ,  8-H ) :   0.9672 B(  0-C ,  9-H ) :   0.9567
B(  0-C , 10-H ) :   0.9715 B(  1-C ,  2-H ) :   0.9338 B(  1-C ,  3-H ) :   0.9388
B(  1-C ,  4-S ) :   0.9039 B(  4-S ,  5-F ) :   0.9763 B(  4-S ,  6-O ) :   1.7938
B(  4-S ,  7-O ) :   1.7747

Dispersion correction           -0.015746827
FINAL SINGLE POINT ENERGY      -727.044474037775

DIPOLE MOMENT
-------------
                                X             Y             Z
Electronic contribution:      6.32656      -6.53808      -3.74250
Nuclear contribution   :     -6.09914       7.80989       4.64238
                        -----------------------------------------
Total Dipole Moment    :      0.22743       1.27181       0.89989
                        -----------------------------------------
Magnitude (a.u.)       :      1.57449
Magnitude (Debye)      :      4.00204

Rotational constants in cm-1:     0.154372     0.078826     0.078033
Rotational constants in MHz :  4627.943144  2363.154585  2339.382767

                             ****ORCA TERMINATED NORMALLY****
TOTAL RUN TIME: 0 days 0 hours 0 minutes 12 seconds 707 msec
