                         Program Version 5.0.0 -  RELEASE  -
|  1> !B3LYP D3BJ RIJCOSX def2-SVP def2/J TightSCF
|  2> *xyz 0 1
|  3> C          2.91632       -1.24259       -1.54313
|  4> C          3.46659       -1.59097       -2.88908
|  5> C          4.65227       -1.14316       -3.25969
|  6> N          2.75226       -2.29204       -3.72803
|  7> H          1.77836       -2.48960       -3.51274
|  8> H          2.94861       -2.20854       -4.71681
|  9> H          5.14672       -0.51251       -2.63385
| 10> H          4.78303       -1.00720       -4.25350
| 11> C          2.80408        0.29070       -1.35924
| 12> H          1.94047       -1.71653       -1.44116
| 13> H          3.55857       -1.66343       -0.76637
| 14> H          2.17393        0.69633       -2.12297
| 15> H          3.77707        0.73043       -1.42880
| 16> H          2.38369        0.50492       -0.39889
| 17> *
| 18>
| 19> %MaxCore 64000
| 20>
| 21> %pal nprocs 4
| 22> end
| 23>
| 24> %scf
| 25>   MaxIter 150
| 26> end
| 27>
| 28>
| 29>                          ****END OF INPUT****

CARTESIAN COORDINATES (ANGSTROEM)
---------------------------------
  C      2.916320   -1.242590   -1.543130
  C      3.466590   -1.590970   -2.889080
  C      4.652270   -1.143160   -3.259690
  N      2.752260   -2.292040   -3.728030
  H      1.778360   -2.489600   -3.512740
  H      2.948610   -2.208540   -4.716810
  H      5.146720   -0.512510   -2.633850
  H      4.783030   -1.007200   -4.253500
  C      2.804080    0.290700   -1.359240
  H      1.940470   -1.716530   -1.441160
  H      3.558570   -1.663430   -0.766370
  H      2.173930    0.696330   -2.122970
  H      3.777070    0.730430   -1.428800
  H      2.383690    0.504920   -0.398890

 Total Charge           Charge          ....    0
 Multiplicity           Mult            ....    1
 Number of Electrons    NEL             ....   40
 Basis Dimension        Dim             ....  115

ORBITAL ENERGIES
----------------

  NO   OCC          E(Eh)            E(eV)
   0   2.0000     -14.324959      -389.8019
   1   2.0000     -10.195200      -277.4255
   2   2.0000     -10.181960      -277.0652
   3   2.0000     -10.169118      -276.7158
   4   2.0000     -10.106141      -275.0021
   5   2.0000      -0.920445       -25.0466
   6   2.0000      -0.768913       -20.9232
   7   2.0000      -0.698567       -19.0090
   8   2.0000      -0.633564       -17.2401
   9   2.0000      -0.556484       -15.1427
  10   2.0000      -0.515055       -14.0154
  11   2.0000      -0.472088       -12.8462
  12   2.0000      -0.444174       -12.0866
  13   2.0000      -0.404905       -11.0180
  14   2.0000      -0.384427       -10.4608
  15   2.0000      -0.372146       -10.1266
  16   2.0000      -0.352649        -9.5961
  17   2.0000      -0.340009        -9.2521
  18   2.0000      -0.320332        -8.7167
  19   2.0000      -0.179882        -4.8948
  20   0.0000       0.046924         1.2769
  21   0.0000       0.052860         1.4384
  22   0.0000       0.094165         2.5624
  23   0.0000       0.098563         2.6820
  24   0.0000       0.121848         3.3157

MULLIKEN ATOMIC CHARGES
-----------------------
   0 C :    0.087365
   1 C :   -0.167455
   2 C :   -0.021441
   3 N :   -0.030442
   4 H :    0.095394
   5 H :    0.103096
   6 H :   -0.050963
   7 H :   -0.058522
   8 C :    0.044473
   9 H :   -0.031863
  10 H :    0.018163
  11 H :    0.001565
  12 H :    0.013476
  13 H :   -0.002846
Sum of atomic charges:   -0.0000000

LOEWDIN ATOMIC CHARGES
----------------------
   0 C :   -0.022929
   1 C :    0.002987
   2 C :   -0.179858
   3 N :    0.008219
   4 H :    0.065570
   5 H :    0.073624
   6 H :   -0.006666
   7 H :   -0.009675
   8 C :   -0.032835
   9 H :    0.012065
  10 H :    0.034374
  11 H :    0.018277
  12 H :    0.020897
  13 H :    0.015950

  Mayer bond orders larger than 0.100000
B(  0-C ,  1-C ) :   1.0197 B(  0-C ,  8-C ) :   1.1034 B(  0-C ,  9-H ) :   0.9256
B(  0-C , 10-H ) :   0.9294 B(  1-C ,  2-C ) :   1.8486 B(  1-C ,  3-N ) :   1.2850
B(  2-C ,  6-H ) :   0.9475 B(  2-C ,  7-H ) :   0.9482 B(  3-N ,  4-H ) :   0.9477
B(  3-N ,  5-H ) :   0.9481 B(  8-C , 11-H ) :   0.9702 B(  8-C , 12-H ) :   0.9734
B(  8-C , 13-H ) :   0.9613

Dispersion correction           -0.017601889
FINAL SINGLE POINT ENERGY      -212.264869851939

DIPOLE MOMENT
-------------
                                X             Y             Z
Electronic contribution:      0.06292      -2.78898      -1.85172
Nuclear contribution   :     -0.99366       2.78648       1.68526
                        -----------------------------------------
Total Dipole Moment    :     -0.93074      -0.00251      -0.16646
                        -----------------------------------------
Magnitude (a.u.)       :      0.94551
Magnitude (Debye)      :      2.40329

Rotational constants in cm-1:     0.282898     0.128664     0.101801
Rotational constants in MHz :  8481.061354  3857.240210  3051.924245

                             ****ORCA TERMINATED NORMALLY****
TOTAL RUN TIME: 0 days 0 hours 0 minutes 13 seconds 136 msec
