                         Program Version 5.0.0 -  RELEASE  -
|  1> !B3LYP D3BJ RIJCOSX def2-SVP def2/J TightSCF
|  2> *xyz 0 1
|  3> C          0.70466        1.44313       -4.50363
|  4> C          1.72854        1.42432       -5.63944
|  5> H          2.64672        1.95379       -5.38105
|  6> H          1.29992        1.93061       -6.50361
|  7> S          2.25263       -0.18811       -6.27184
|  8> O          3.56261       -0.44446       -5.63155
|  9> F          2.34494       -0.03374       -7.69650
| 10> O          1.26606       -1.15918       -5.80536
| 11> H         -0.17385        0.91270       -4.80656
| 12> H          0.44778        2.45562       -4.27173
| 13> H          1.12367        0.97423       -3.63791
| 14> *
| 15>
| 16> %MaxCore 64000
| 17>
| 18> %pal nprocs 4
| 19> end
| 20>
| 21> %scf
| 22>   MaxIter 150
| 23> end
| 24>
| 25>
| 26>                          ****END OF INPUT****

CARTESIAN COORDINATES (ANGSTROEM)
---------------------------------
  C      0.704660    1.443130   -4.503630
  C      1.728540    1.424320   -5.639440
  H      2.646720    1.953790   -5.381050
  H      1.299920    1.930610   -6.503610
  S      2.252630   -0.188110   -6.271840
  O      3.562610   -0.444460   -5.631550
  F      2.344940   -0.033740   -7.696500
  O      1.266060   -1.159180   -5.805360
  H     -0.173850    0.912700   -4.806560
  H      0.447780    2.455620   -4.271730
  H      1.123670    0.974230   -3.637910

 Total Charge           Charge          ....    0
 Multiplicity           Mult            ....    1
 Number of Electrons    NEL             ....   58
 Basis Dimension        Dim             ....  113

ORBITAL ENERGIES
----------------

  NO   OCC          E(Eh)            E(eV)
   0   2.0000     -89.111941     -2424.8592
   1   2.0000     -24.799847      -674.8382
   2   2.0000     -19.126739      -520.4650
   3   2.0000     -19.116677      -520.1912
   4   2.0000     -10.239525      -278.6316
   5   2.0000     -10.203383      -277.6482
   6   2.0000      -8.175097      -222.4557
   7   2.0000      -6.147495      -167.2819
   8   2.0000      -6.140913      -167.1028
   9   2.0000      -6.139794      -167.0723
  10   2.0000      -1.371458       -37.3193
  11   2.0000      -1.086634       -29.5688
  12   2.0000      -0.981810       -26.7164
  13   2.0000      -0.812685       -22.1143
  14   2.0000      -0.729348       -19.8466
  15   2.0000      -0.670999       -18.2588
  16   2.0000      -0.584101       -15.8942
  17   2.0000      -0.581387       -15.8203
  18   2.0000      -0.544137       -14.8067
  19   2.0000      -0.489473       -13.3192
  20   2.0000      -0.472020       -12.8443
  21   2.0000      -0.434894       -11.8341
  22   2.0000      -0.421414       -11.4672
  23   2.0000      -0.403478       -10.9792
  24   2.0000      -0.387991       -10.5578
  25   2.0000      -0.368551       -10.0288
  26   2.0000      -0.316753        -8.6193
  27   2.0000      -0.305872        -8.3232
  28   2.0000      -0.286449        -7.7947
  29   0.0000       0.036482         0.9927
  30   0.0000       0.040507         1.1023
  31   0.0000       0.077478         2.1083
  32   0.0000       0.086102         2.3430
  33   0.0000       0.097415         2.6508

MULLIKEN ATOMIC CHARGES
-----------------------
   0 C :    0.057349
   1 C :   -0.124313
   2 H :    0.068646
   3 H :    0.039721
   4 S :    0.954981
   5 O :   -0.478473
   6 F :   -0.167653
   7 O :   -0.451472
   8 H :    0.034255
   9 H :    0.026067
  10 H :    0.040892
Sum of atomic charges:    0.0000000

LOEWDIN ATOMIC CHARGES
----------------------
   0 C :   -0.038063
   1 C :   -0.148700
   2 H :    0.039545
   3 H :    0.024694
   4 S :    1.160163
   5 O :   -0.523122
   6 F :   -0.114134
   7 O :   -0.497765
   8 H :    0.030612
   9 H :    0.033393
  10 H :    0.033377

  Mayer bond orders larger than 0.100000
B(  0-C ,  1-C ) :   1.0913 B(  0-C ,  8-H ) :   0.9654 B(  0-C ,  9-H ) :   0.9575
B(  0-C , 10-H ) :   0.9718 B(  1-C ,  2-H ) :   0.9340 B(  1-C ,  3-H ) :   0.9323
B(  1-C ,  4-S ) :   0.9051 B(  4-S ,  5-O ) :   1.7398 B(  4-S ,  6-F ) :   1.0270
B(  4-S ,  7-O ) :   1.7692

Dispersion correction           -0.015767031
FINAL SINGLE POINT ENERGY      -727.023330011920

DIPOLE MOMENT
-------------
                                X             Y             Z
Electronic contribution:      4.23349      -5.84340      -7.24978
Nuclear contribution   :     -4.83029       7.38191       6.79413
                        -----------------------------------------
Total Dipole Moment    :     -0.59680       1.53851      -0.45565
                        -----------------------------------------
Magnitude (a.u.)       :      1.71196
Magnitude (Debye)      :      4.35145

Rotational constants in cm-1:     0.156575     0.079070     0.076729
Rotational constants in MHz :  4694.010604  2370.444114  2300.280155

                             ****ORCA TERMINATED NORMALLY****
TOTAL RUN TIME: 0 days 0 hours 0 minutes 13 seconds 555 msec
