                         Program Version 5.0.0 -  RELEASE  -
|  1> !B3LYP D3BJ RIJCOSX def2-SVP def2/J TightSCF
|  2> *xyz 0 1
|  3> C          2.91632       -1.24259       -1.54313
|  4> C          3.46659       -1.59097       -2.88908
|  5> N          4.65227       -1.14316       -3.25969
|  6> C          2.75226       -2.29204       -3.72803
|  7> H          1.77836       -2.48960       -3.51274
|  8> H          2.94861       -2.20854       -4.71681
|  9> H          5.14672       -0.51251       -2.63385
| 10> H          4.78303       -1.00720       -4.25350
| 11> C          2.80408        0.29070       -1.35924
| 12> H          1.94047       -1.71653       -1.44116
| 13> H          3.55857       -1.66343       -0.76637
| 14> H          2.17393        0.69633       -2.12297
| 15> H          3.77707        0.73043       -1.42880
| 16> H          2.38369        0.50492       -0.39889
| 17> *
| 18>
| 19> %MaxCore 64000
| 20>
| 21> %pal nprocs 4
| 22> end
| 23>
| 24> %scf
| 25>   MaxIter 150
| 26> end
| 27>
| 28>
| 29>                          ****END OF INPUT****

CARTESIAN COORDINATES (ANGSTROEM)
---------------------------------
  C      2.916320   -1.242590   -1.543130
  C      3.466590   -1.590970   -2.889080
  N      4.652270   -1.143160   -3.259690
  C      2.752260   -2.292040   -3.728030
  H      1.778360   -2.489600   -3.512740
  H      2.948610   -2.208540   -4.716810
  H      5.146720   -0.512510   -2.633850
  H      4.783030   -1.007200   -4.253500
  C      2.804080    0.290700   -1.359240
  H      1.940470   -1.716530   -1.441160
  H      3.558570   -1.663430   -0.766370
  H      2.173930    0.696330   -2.122970
  H      3.777070    0.730430   -1.428800
  H      2.383690    0.504920   -0.398890

 Total Charge           Charge          ....    0
 Multiplicity           Mult            ....    1
 Number of Electrons    NEL             ....   40
 Basis Dimension        Dim             ....  115

ORBITAL ENERGIES
----------------

  NO   OCC          E(Eh)            E(eV)
   0   2.0000     -14.321640      -389.7116
   1   2.0000     -10.193932      -277.3910
   2   2.0000     -10.180334      -277.0210
   3   2.0000     -10.174885      -276.8727
   4   2.0000     -10.110781      -275.1283
   5   2.0000      -0.915892       -24.9227
   6   2.0000      -0.766872       -20.8677
   7   2.0000      -0.710145       -19.3240
   8   2.0000      -0.626369       -17.0444
   9   2.0000      -0.556152       -15.1337
  10   2.0000      -0.519585       -14.1386
  11   2.0000      -0.469518       -12.7762
  12   2.0000      -0.433464       -11.7951
  13   2.0000      -0.428459       -11.6590
  14   2.0000      -0.382398       -10.4056
  15   2.0000      -0.376843       -10.2544
  16   2.0000      -0.354664        -9.6509
  17   2.0000      -0.337841        -9.1931
  18   2.0000      -0.315558        -8.5868
  19   2.0000      -0.187307        -5.0969
  20   0.0000       0.044732         1.2172
  21   0.0000       0.053898         1.4666
  22   0.0000       0.096984         2.6391
  23   0.0000       0.104026         2.8307
  24   0.0000       0.117370         3.1938

MULLIKEN ATOMIC CHARGES
-----------------------
   0 C :    0.092227
   1 C :   -0.152974
   2 N :   -0.045023
   3 C :   -0.014875
   4 H :   -0.049714
   5 H :   -0.063330
   6 H :    0.095345
   7 H :    0.110073
   8 C :    0.034153
   9 H :   -0.008611
  10 H :   -0.000418
  11 H :    0.008063
  12 H :   -0.011447
  13 H :    0.006532
Sum of atomic charges:    0.0000000

LOEWDIN ATOMIC CHARGES
----------------------
   0 C :   -0.021585
   1 C :    0.002799
   2 N :   -0.004987
   3 C :   -0.165768
   4 H :   -0.003383
   5 H :   -0.009803
   6 H :    0.064857
   7 H :    0.074896
   8 C :   -0.040326
   9 H :    0.029730
  10 H :    0.021051
  11 H :    0.021609
  12 H :    0.009547
  13 H :    0.021364

  Mayer bond orders larger than 0.100000
B(  0-C ,  1-C ) :   1.0498 B(  0-C ,  8-C ) :   1.0893 B(  0-C ,  9-H ) :   0.9235
B(  0-C , 10-H ) :   0.9242 B(  1-C ,  2-N ) :   1.2597 B(  1-C ,  3-C ) :   1.8793
B(  2-N ,  6-H ) :   0.9551 B(  2-N ,  7-H ) :   0.9480 B(  3-C ,  4-H ) :   0.9340
B(  3-C ,  5-H ) :   0.9464 B(  8-C , 11-H ) :   0.9692 B(  8-C , 12-H ) :   0.9701
B(  8-C , 13-H ) :   0.9647

Dispersion correction           -0.017548372
FINAL SINGLE POINT ENERGY      -212.268757399292

DIPOLE MOMENT
-------------
                                X             Y             Z
Electronic contribution:      1.81120      -1.71810      -1.42231
Nuclear contribution   :     -1.43372       2.52039       1.57679
                        -----------------------------------------
Total Dipole Moment    :      0.37748       0.80228       0.15448
                        -----------------------------------------
Magnitude (a.u.)       :      0.90001
Magnitude (Debye)      :      2.28764

Rotational constants in cm-1:     0.274962     0.131786     0.102554
Rotational constants in MHz :  8243.150005  3950.846092  3074.493018

                             ****ORCA TERMINATED NORMALLY****
TOTAL RUN TIME: 0 days 0 hours 0 minutes 13 seconds 160 msec
