                         Program Version 5.0.0 -  RELEASE  -
|  1> !B3LYP D3BJ RIJCOSX def2-SVP def2/J TightSCF
|  2> *xyz 0 1
|  3> C          0.70466        1.44313       -4.50363
|  4> C          1.72854        1.42432       -5.63944
|  5> H          2.64672        1.95379       -5.38105
|  6> H          1.29992        1.93061       -6.50361
|  7> S          2.25263       -0.18811       -6.27184
|  8> O          3.56261       -0.44446       -5.63155
|  9> O          2.34494       -0.03374       -7.69650
| 10> F          1.26606       -1.15918       -5.80536
| 11> H         -0.17385        0.91270       -4.80656
| 12> H          0.44778        2.45562       -4.27173
| 13> H          1.12367        0.97423       -3.63791
| 14> *
| 15>
| 16> %MaxCore 64000
| 17>
| 18> %pal nprocs 4
| 19> end
| 20>
| 21> %scf
| 22>   MaxIter 150
| 23> end
| 24>
| 25>
| 26>                          ****END OF INPUT****

CARTESIAN COORDINATES (ANGSTROEM)
---------------------------------
  C      0.704660    1.443130   -4.503630
  C      1.728540    1.424320   -5.639440
  H      2.646720    1.953790   -5.381050
  H      1.299920    1.930610   -6.503610
  S      2.252630   -0.188110   -6.271840
  O      3.562610   -0.444460   -5.631550
  O      2.344940   -0.033740   -7.696500
  F      1.266060   -1.159180   -5.805360
  H     -0.173850    0.912700   -4.806560
  H      0.447780    2.455620   -4.271730
  H      1.123670    0.974230   -3.637910

 Total Charge           Charge          ....    0
 Multiplicity           Mult            ....    1
 Number of Electrons    NEL             ....   58
 Basis Dimension        Dim             ....  113

ORBITAL ENERGIES
----------------

  NO   OCC          E(Eh)            E(eV)
   0   2.0000     -89.110506     -2424.8202
   1   2.0000     -24.788139      -674.5196
   2   2.0000     -19.133651      -520.6531
   3   2.0000     -19.116099      -520.1755
   4   2.0000     -10.238294      -278.5982
   5   2.0000     -10.210869      -277.8519
   6   2.0000      -8.173621      -222.4155
   7   2.0000      -6.146028      -167.2419
   8   2.0000      -6.139532      -167.0652
   9   2.0000      -6.138375      -167.0337
  10   2.0000      -1.350007       -36.7355
  11   2.0000      -1.096694       -29.8426
  12   2.0000      -0.990010       -26.9395
  13   2.0000      -0.816009       -22.2047
  14   2.0000      -0.718453       -19.5501
  15   2.0000      -0.671714       -18.2783
  16   2.0000      -0.585006       -15.9188
  17   2.0000      -0.566706       -15.4208
  18   2.0000      -0.531939       -14.4748
  19   2.0000      -0.493261       -13.4223
  20   2.0000      -0.467892       -12.7320
  21   2.0000      -0.445228       -12.1153
  22   2.0000      -0.430778       -11.7221
  23   2.0000      -0.410444       -11.1687
  24   2.0000      -0.393683       -10.7126
  25   2.0000      -0.372966       -10.1489
  26   2.0000      -0.322994        -8.7891
  27   2.0000      -0.306681        -8.3452
  28   2.0000      -0.292734        -7.9657
  29   0.0000       0.020721         0.5638
  30   0.0000       0.060100         1.6354
  31   0.0000       0.083008         2.2588
  32   0.0000       0.083579         2.2743
  33   0.0000       0.098489         2.6800

MULLIKEN ATOMIC CHARGES
-----------------------
   0 C :    0.024416
   1 C :   -0.115745
   2 H :    0.081268
   3 H :    0.061369
   4 S :    0.959024
   5 O :   -0.482191
   6 O :   -0.430731
   7 F :   -0.190987
   8 H :    0.024554
   9 H :    0.033781
  10 H :    0.035241
Sum of atomic charges:   -0.0000000

LOEWDIN ATOMIC CHARGES
----------------------
   0 C :   -0.052445
   1 C :   -0.143918
   2 H :    0.047886
   3 H :    0.035731
   4 S :    1.164545
   5 O :   -0.527034
   6 O :   -0.474781
   7 F :   -0.138103
   8 H :    0.024023
   9 H :    0.035967
  10 H :    0.028129

  Mayer bond orders larger than 0.100000
B(  0-C ,  1-C ) :   1.0728 B(  0-C ,  8-H ) :   0.9719 B(  0-C ,  9-H ) :   0.9596
B(  0-C , 10-H ) :   0.9718 B(  1-C ,  2-H ) :   0.9367 B(  1-C ,  3-H ) :   0.9376
B(  1-C ,  4-S ) :   0.9167 B(  4-S ,  5-O ) :   1.7431 B(  4-S ,  6-O ) :   1.7908
B(  4-S ,  7-F ) :   1.0007

Dispersion correction           -0.015668358
FINAL SINGLE POINT ENERGY      -727.033354980485

DIPOLE MOMENT
-------------
                                X             Y             Z
Electronic contribution:      2.40291      -7.71854      -4.02677
Nuclear contribution   :     -3.70606       8.55465       4.82350
                        -----------------------------------------
Total Dipole Moment    :     -1.30315       0.83611       0.79673
                        -----------------------------------------
Magnitude (a.u.)       :      1.74129
Magnitude (Debye)      :      4.42600

Rotational constants in cm-1:     0.153201     0.080978     0.077494
Rotational constants in MHz :  4592.852844  2427.650814  2323.207507

                             ****ORCA TERMINATED NORMALLY****
TOTAL RUN TIME: 0 days 0 hours 0 minutes 13 seconds 90 msec
