                         Program Version 5.0.0 -  RELEASE  -
|  1> !B3LYP D3BJ RIJCOSX def2-TZVP def2/J TightSCF xyzfile
|  2>
|  3> *xyzfile 0 1 D1.xyz
|  4>
|  5> %MaxCore 64000
|  6>
|  7> %pal nprocs 18
|  8> end
|  9>
| 10> %scf
| 11>   MaxIter 150
| 12> end
| 13>
| 14>
| 15>                          ****END OF INPUT****

CARTESIAN COORDINATES (ANGSTROEM)
---------------------------------
  C      2.916324   -1.242589   -1.543125
  C      0.704661    1.443129   -4.503630
  C      1.728539    1.424320   -5.639443
  H      2.646718    1.953794   -5.381054
  H      1.299916    1.930613   -6.503614
  S      2.252625   -0.188115   -6.271840
  C      3.466585   -1.590971   -2.889082
  C      4.652275   -1.143164   -3.259692
  N      2.752264   -2.292043   -3.728029
  H      1.778364   -2.489604   -3.512738
  H      2.948612   -2.208544   -4.716813
  H      5.146723   -0.512508   -2.633852
  H      4.783030   -1.007203   -4.253498
  F      3.562607   -0.444464   -5.631552
  O      2.344944   -0.033742   -7.696501
  C      2.804084    0.290698   -1.359243
  C      1.052550    0.695659   -3.214915
  H     -0.232483    1.032925   -4.884449
  H      0.511700    2.495794   -4.267966
  C      2.388380    1.093669   -2.597108
  H      3.763425    0.674718   -0.999889
  H      2.094788    0.461222   -0.545756
  O      1.266058   -1.159177   -5.805365
  H      3.167316    1.013242   -3.359430
  H      2.357690    2.149375   -2.310997
  H      1.039284   -0.368429   -3.449329
  H      0.250787    0.865605   -2.488283
  H      1.940472   -1.716529   -1.441161
  H      3.558569   -1.663433   -0.766371

 Total Charge           Charge          ....    0
 Multiplicity           Mult            ....    1
 Number of Electrons    NEL             ....  112
 Basis Dimension        Dim             ....  505

ORBITAL ENERGIES
----------------

  NO   OCC          E(Eh)            E(eV)
   0   2.0000     -89.103693     -2424.6347
   1   2.0000     -24.790455      -674.5826
   2   2.0000     -19.146038      -520.9902
   3   2.0000     -19.142320      -520.8890
   4   2.0000     -14.308940      -389.3661
   5   2.0000     -10.231408      -278.4108
   6   2.0000     -10.197104      -277.4773
   7   2.0000     -10.185579      -277.1637
   8   2.0000     -10.174731      -276.8685
   9   2.0000     -10.172722      -276.8138
  10   2.0000     -10.171413      -276.7782
  11   2.0000     -10.170260      -276.7468
  12   2.0000     -10.092248      -274.6240
  13   2.0000      -8.147831      -221.7137
  14   2.0000      -6.114759      -166.3911
  15   2.0000      -6.108278      -166.2147
  16   2.0000      -6.107737      -166.2000
  17   2.0000      -1.364253       -37.1232
  18   2.0000      -1.120804       -30.4986
  19   2.0000      -1.029905       -28.0251
  20   2.0000      -0.933756       -25.4088
  21   2.0000      -0.839370       -22.8404
  22   2.0000      -0.803096       -21.8534
  23   2.0000      -0.763192       -20.7675
  24   2.0000      -0.733821       -19.9683
  25   2.0000      -0.700178       -19.0528
  26   2.0000      -0.687127       -18.6977
  27   2.0000      -0.634302       -17.2602
  28   2.0000      -0.597272       -16.2526
  29   2.0000      -0.580647       -15.8002
  30   2.0000      -0.572179       -15.5698
  31   2.0000      -0.562788       -15.3142
  32   2.0000      -0.549123       -14.9424
  33   2.0000      -0.515313       -14.0224
  34   2.0000      -0.499444       -13.5906
  35   2.0000      -0.491825       -13.3832
  36   2.0000      -0.477989       -13.0067
  37   2.0000      -0.472767       -12.8646
  38   2.0000      -0.461476       -12.5574
  39   2.0000      -0.444752       -12.1023
  40   2.0000      -0.433902       -11.8071
  41   2.0000      -0.423322       -11.5192
  42   2.0000      -0.401075       -10.9138
  43   2.0000      -0.395048       -10.7498
  44   2.0000      -0.386755       -10.5241
  45   2.0000      -0.382744       -10.4150
  46   2.0000      -0.375706       -10.2235
  47   2.0000      -0.358525        -9.7560
  48   2.0000      -0.353063        -9.6073
  49   2.0000      -0.343326        -9.3424
  50   2.0000      -0.339780        -9.2459
  51   2.0000      -0.329552        -8.9676
  52   2.0000      -0.325965        -8.8700
  53   2.0000      -0.322213        -8.7679
  54   2.0000      -0.316649        -8.6165
  55   2.0000      -0.186143        -5.0652
  56   0.0000       0.011721         0.3189
  57   0.0000       0.020123         0.5476
  58   0.0000       0.028288         0.7698
  59   0.0000       0.033942         0.9236
  60   0.0000       0.042648         1.1605

MULLIKEN ATOMIC CHARGES
-----------------------
   0 C :   -0.199557
   1 C :   -0.117263
   2 C :   -0.305724
   3 H :    0.147272
   4 H :    0.166877
   5 S :    0.908973
   6 C :    0.155988
   7 C :   -0.398182
   8 N :   -0.354494
   9 H :    0.214725
  10 H :    0.203577
  11 H :    0.076364
  12 H :    0.070776
  13 F :   -0.136763
  14 O :   -0.417195
  15 C :   -0.203611
  16 C :   -0.219670
  17 H :    0.116123
  18 H :    0.103013
  19 C :   -0.120994
  20 H :    0.104624
  21 H :    0.086579
  22 O :   -0.457150
  23 H :    0.093721
  24 H :    0.084291
  25 H :    0.097184
  26 H :    0.092174
  27 H :    0.089097
  28 H :    0.119246
Sum of atomic charges:    0.0000000

LOEWDIN ATOMIC CHARGES
----------------------
   0 C :   -0.208853
   1 C :   -0.273972
   2 C :   -0.360585
   3 H :    0.136968
   4 H :    0.149319
   5 S :    0.559403
   6 C :   -0.382216
   7 C :   -0.292568
   8 N :    0.028478
   9 H :    0.163533
  10 H :    0.156915
  11 H :    0.102305
  12 H :    0.090372
  13 F :    0.063581
  14 O :   -0.254631
  15 C :   -0.245449
  16 C :   -0.266730
  17 H :    0.144581
  18 H :    0.144370
  19 C :   -0.265227
  20 H :    0.136570
  21 H :    0.133192
  22 O :   -0.279972
  23 H :    0.133292
  24 H :    0.133591
  25 H :    0.133784
  26 H :    0.137101
  27 H :    0.133585
  28 H :    0.149264

  Mayer bond orders larger than 0.100000
B(  0-C ,  6-C ) :   0.9258 B(  0-C , 15-C ) :   0.9514 B(  0-C , 27-H ) :   0.9735
B(  0-C , 28-H ) :   0.9773 B(  1-C ,  2-C ) :   0.9474 B(  1-C , 16-C ) :   0.9712
B(  1-C , 17-H ) :   0.9668 B(  1-C , 18-H ) :   0.9487 B(  2-C ,  3-H ) :   0.9458
B(  2-C ,  4-H ) :   0.9473 B(  2-C ,  5-S ) :   0.9034 B(  5-S , 13-F ) :   1.0724
B(  5-S , 14-O ) :   1.9703 B(  5-S , 22-O ) :   1.8317 B(  6-C ,  7-C ) :   1.6794
B(  6-C ,  8-N ) :   1.2181 B(  7-C , 11-H ) :   1.0134 B(  7-C , 12-H ) :   1.0022
B(  8-N ,  9-H ) :   0.9240 B(  8-N , 10-H ) :   0.9250 B( 15-C , 19-C ) :   0.9765
B( 15-C , 20-H ) :   0.9721 B( 15-C , 21-H ) :   0.9672 B( 16-C , 19-C ) :   0.9359
B( 16-C , 25-H ) :   0.9690 B( 16-C , 26-H ) :   0.9619 B( 19-C , 23-H ) :   0.9650
B( 19-C , 24-H ) :   0.9628

Dispersion correction           -0.060347903
FINAL SINGLE POINT ENERGY     -1017.564123658845

DIPOLE MOMENT
-------------
                                X             Y             Z
Electronic contribution:      2.15336      -4.97454     -18.60040
Nuclear contribution   :     -2.89481       6.29550      19.36835
                        -----------------------------------------
Total Dipole Moment    :     -0.74145       1.32096       0.76796
                        -----------------------------------------
Magnitude (a.u.)       :      1.69837
Magnitude (Debye)      :      4.31690

Rotational constants in cm-1:     0.036515     0.018832     0.015081
Rotational constants in MHz :  1094.679513   564.567051   452.109105

                             ****ORCA TERMINATED NORMALLY****
TOTAL RUN TIME: 0 days 0 hours 0 minutes 46 seconds 800 msec
