                         Program Version 5.0.0 -  RELEASE  -
|  1> !B3LYP D3BJ RIJCOSX def2-TZVP def2/J TightSCF xyzfile
|  2>
|  3> *xyzfile 0 1 D6.xyz
|  4>
|  5> %MaxCore 64000
|  6>
|  7> %pal nprocs 18
|  8> end
|  9>
| 10> %scf
| 11>   MaxIter 150
| 12> end
| 13>
| 14>
| 15>                          ****END OF INPUT****

CARTESIAN COORDINATES (ANGSTROEM)
---------------------------------
  C      2.916324   -1.242589   -1.543125
  C      0.704661    1.443129   -4.503630
  C      1.728539    1.424320   -5.639443
  H      2.646718    1.953794   -5.381054
  H      1.299916    1.930613   -6.503614
  S      2.252625   -0.188115   -6.271840
  C      3.466585   -1.590971   -2.889082
  N      4.652275   -1.143164   -3.259692
  C      2.752264   -2.292043   -3.728029
  H      1.778364   -2.489604   -3.512738
  H      2.948612   -2.208544   -4.716813
  H      5.146723   -0.512508   -2.633852
  H      4.783030   -1.007203   -4.253498
  O      3.562607   -0.444464   -5.631552
  O      2.344944   -0.033742   -7.696501
  C      2.804084    0.290698   -1.359243
  C      1.052550    0.695659   -3.214915
  H     -0.232483    1.032925   -4.884449
  H      0.511700    2.495794   -4.267966
  C      2.388380    1.093669   -2.597108
  H      3.763425    0.674718   -0.999889
  H      2.094788    0.461222   -0.545756
  F      1.266058   -1.159177   -5.805365
  H      3.167316    1.013242   -3.359430
  H      2.357690    2.149375   -2.310997
  H      1.039284   -0.368429   -3.449329
  H      0.250787    0.865605   -2.488283
  H      1.940472   -1.716529   -1.441161
  H      3.558569   -1.663433   -0.766371

 Total Charge           Charge          ....    0
 Multiplicity           Mult            ....    1
 Number of Electrons    NEL             ....  112
 Basis Dimension        Dim             ....  505

ORBITAL ENERGIES
----------------

  NO   OCC          E(Eh)            E(eV)
   0   2.0000     -89.102869     -2424.6123
   1   2.0000     -24.793531      -674.6663
   2   2.0000     -19.143774      -520.9286
   3   2.0000     -19.129974      -520.5531
   4   2.0000     -14.293269      -388.9396
   5   2.0000     -10.229666      -278.3634
   6   2.0000     -10.199736      -277.5489
   7   2.0000     -10.174718      -276.8681
   8   2.0000     -10.174517      -276.8627
   9   2.0000     -10.171940      -276.7926
  10   2.0000     -10.169857      -276.7359
  11   2.0000     -10.164101      -276.5792
  12   2.0000     -10.086163      -274.4585
  13   2.0000      -8.146613      -221.6806
  14   2.0000      -6.113430      -166.3549
  15   2.0000      -6.107090      -166.1824
  16   2.0000      -6.106658      -166.1706
  17   2.0000      -1.371089       -37.3092
  18   2.0000      -1.113364       -30.2962
  19   2.0000      -1.017278       -27.6815
  20   2.0000      -0.916680       -24.9441
  21   2.0000      -0.840232       -22.8639
  22   2.0000      -0.798685       -21.7333
  23   2.0000      -0.757437       -20.6109
  24   2.0000      -0.730530       -19.8787
  25   2.0000      -0.707807       -19.2604
  26   2.0000      -0.677243       -18.4287
  27   2.0000      -0.630941       -17.1688
  28   2.0000      -0.597100       -16.2479
  29   2.0000      -0.582952       -15.8629
  30   2.0000      -0.573983       -15.6189
  31   2.0000      -0.559346       -15.2206
  32   2.0000      -0.540614       -14.7109
  33   2.0000      -0.508417       -13.8347
  34   2.0000      -0.494920       -13.4675
  35   2.0000      -0.491206       -13.3664
  36   2.0000      -0.473698       -12.8900
  37   2.0000      -0.464660       -12.6440
  38   2.0000      -0.456615       -12.4251
  39   2.0000      -0.441889       -12.0244
  40   2.0000      -0.437958       -11.9174
  41   2.0000      -0.416409       -11.3311
  42   2.0000      -0.404552       -11.0084
  43   2.0000      -0.393660       -10.7120
  44   2.0000      -0.384547       -10.4641
  45   2.0000      -0.382602       -10.4111
  46   2.0000      -0.365993        -9.9592
  47   2.0000      -0.359601        -9.7852
  48   2.0000      -0.348684        -9.4882
  49   2.0000      -0.335462        -9.1284
  50   2.0000      -0.331660        -9.0249
  51   2.0000      -0.325274        -8.8512
  52   2.0000      -0.323235        -8.7957
  53   2.0000      -0.306631        -8.3439
  54   2.0000      -0.304513        -8.2862
  55   2.0000      -0.183875        -5.0035
  56   0.0000       0.002484         0.0676
  57   0.0000       0.024873         0.6768
  58   0.0000       0.032756         0.8913
  59   0.0000       0.045236         1.2309
  60   0.0000       0.049136         1.3371

MULLIKEN ATOMIC CHARGES
-----------------------
   0 C :   -0.184345
   1 C :   -0.181499
   2 C :   -0.269169
   3 H :    0.153847
   4 H :    0.160344
   5 S :    0.933129
   6 C :    0.196152
   7 N :   -0.409399
   8 C :   -0.404481
   9 H :    0.070205
  10 H :    0.074091
  11 H :    0.207288
  12 H :    0.246200
  13 O :   -0.487867
  14 O :   -0.414726
  15 C :   -0.240055
  16 C :   -0.198324
  17 H :    0.116648
  18 H :    0.104777
  19 C :   -0.128876
  20 H :    0.101983
  21 H :    0.090345
  22 F :   -0.119152
  23 H :    0.099972
  24 H :    0.083108
  25 H :    0.100363
  26 H :    0.091074
  27 H :    0.101978
  28 H :    0.106389
Sum of atomic charges:    0.0000000

LOEWDIN ATOMIC CHARGES
----------------------
   0 C :   -0.211736
   1 C :   -0.283106
   2 C :   -0.354918
   3 H :    0.146138
   4 H :    0.143819
   5 S :    0.570794
   6 C :   -0.377653
   7 N :    0.009593
   8 C :   -0.289033
   9 H :    0.094892
  10 H :    0.088966
  11 H :    0.162569
  12 H :    0.168536
  13 O :   -0.301528
  14 O :   -0.252864
  15 C :   -0.254954
  16 C :   -0.265994
  17 H :    0.139440
  18 H :    0.144525
  19 C :   -0.264583
  20 H :    0.131375
  21 H :    0.134362
  22 F :    0.095321
  23 H :    0.135165
  24 H :    0.133105
  25 H :    0.137512
  26 H :    0.136678
  27 H :    0.144436
  28 H :    0.139140

  Mayer bond orders larger than 0.100000
B(  0-C ,  6-C ) :   0.9617 B(  0-C , 15-C ) :   0.9306 B(  0-C , 27-H ) :   0.9743
B(  0-C , 28-H ) :   0.9792 B(  1-C ,  2-C ) :   0.9560 B(  1-C , 16-C ) :   0.9476
B(  1-C , 17-H ) :   0.9785 B(  1-C , 18-H ) :   0.9498 B(  2-C ,  3-H ) :   0.9443
B(  2-C ,  4-H ) :   0.9476 B(  2-C ,  5-S ) :   0.9112 B(  5-S , 13-O ) :   1.7717
B(  5-S , 14-O ) :   1.9735 B(  5-S , 22-F ) :   1.1098 B(  6-C ,  7-N ) :   1.1596
B(  6-C ,  8-C ) :   1.7109 B(  7-N , 11-H ) :   0.9377 B(  7-N , 12-H ) :   0.9048
B(  8-C ,  9-H ) :   1.0096 B(  8-C , 10-H ) :   1.0090 B( 15-C , 19-C ) :   0.9519
B( 15-C , 20-H ) :   0.9816 B( 15-C , 21-H ) :   0.9656 B( 16-C , 19-C ) :   0.9083
B( 16-C , 25-H ) :   0.9835 B( 16-C , 26-H ) :   0.9625 B( 19-C , 23-H ) :   0.9686
B( 19-C , 24-H ) :   0.9628

Dispersion correction           -0.060615395
FINAL SINGLE POINT ENERGY     -1017.561524569017

DIPOLE MOMENT
-------------
                                X             Y             Z
Electronic contribution:     -0.40879      -5.35247     -18.69442
Nuclear contribution   :     -0.51418       6.96452      19.50670
                        -----------------------------------------
Total Dipole Moment    :     -0.92296       1.61205       0.81229
                        -----------------------------------------
Magnitude (a.u.)       :      2.02740
Magnitude (Debye)      :      5.15325

Rotational constants in cm-1:     0.036455     0.018603     0.015008
Rotational constants in MHz :  1092.895336   557.693628   449.926016

                             ****ORCA TERMINATED NORMALLY****
TOTAL RUN TIME: 0 days 0 hours 0 minutes 54 seconds 983 msec
