                         Program Version 5.0.0 -  RELEASE  -
|  1> !PBE D3BJ RIJCOSX def2-TZVPD def2/J TightSCF
|  2> *xyz -1 1
|  3> C          3.80351        1.37472       -3.26081
|  4> C          3.93993        0.32036       -4.36773
|  5> H          4.10504       -0.65508       -3.90773
|  6> H          3.02280        0.28052       -4.95712
|  7> C          5.10585        0.66802       -5.30546
|  8> O          4.80913        1.15019       -6.41436
|  9> O          6.26737        0.56500       -4.81948
| 10> H          3.64113        2.33595       -3.70189
| 11> H          4.69995        1.39701       -2.67703
| 12> H          2.97435        1.12625       -2.63180
| 13> *
| 14>
| 15> %MaxCore 64000
| 16>
| 17> %pal nprocs 4
| 18> end
| 19>
| 20> %scf
| 21>   MaxIter 150
| 22> end
| 23>
| 24>
| 25>                          ****END OF INPUT****

CARTESIAN COORDINATES (ANGSTROEM)
---------------------------------
  C      3.803510    1.374720   -3.260810
  C      3.939930    0.320360   -4.367730
  H      4.105040   -0.655080   -3.907730
  H      3.022800    0.280520   -4.957120
  C      5.105850    0.668020   -5.305460
  O      4.809130    1.150190   -6.414360
  O      6.267370    0.565000   -4.819480
  H      3.641130    2.335950   -3.701890
  H      4.699950    1.397010   -2.677030
  H      2.974350    1.126250   -2.631800

 Total Charge           Charge          ....   -1
 Multiplicity           Mult            ....    1
 Number of Electrons    NEL             ....   40
 Basis Dimension        Dim             ....  236

ORBITAL ENERGIES
----------------

  NO   OCC          E(Eh)            E(eV)
   0   2.0000     -18.490449      -503.1507
   1   2.0000     -18.487601      -503.0732
   2   2.0000      -9.754662      -265.4378
   3   2.0000      -9.716154      -264.3900
   4   2.0000      -9.704679      -264.0777
   5   2.0000      -0.734575       -19.9888
   6   2.0000      -0.647407       -17.6168
   7   2.0000      -0.532168       -14.4810
   8   2.0000      -0.407143       -11.0789
   9   2.0000      -0.267029        -7.2662
  10   2.0000      -0.241553        -6.5730
  11   2.0000      -0.209496        -5.7007
  12   2.0000      -0.182682        -4.9710
  13   2.0000      -0.165298        -4.4980
  14   2.0000      -0.160191        -4.3590
  15   2.0000      -0.130855        -3.5607
  16   2.0000      -0.121558        -3.3078
  17   2.0000      -0.013664        -0.3718
  18   2.0000       0.002990         0.0814
  19   2.0000       0.016359         0.4452
  20   0.0000       0.121228         3.2988
  21   0.0000       0.146985         3.9997
  22   0.0000       0.159133         4.3302
  23   0.0000       0.168566         4.5869
  24   0.0000       0.193553         5.2668

MULLIKEN ATOMIC CHARGES
-----------------------
   0 C :   -0.918607
   1 C :    0.028029
   2 H :    0.143512
   3 H :    0.142356
   4 C :    0.284214
   5 O :   -0.646643
   6 O :   -0.682115
   7 H :    0.238088
   8 H :    0.221665
   9 H :    0.189500
Sum of atomic charges:   -1.0000000

LOEWDIN ATOMIC CHARGES
----------------------
   0 C :   -0.133056
   1 C :   -0.218344
   2 H :    0.086555
   3 H :    0.083079
   4 C :   -0.799915
   5 O :   -0.078520
   6 O :   -0.095042
   7 H :    0.060481
   8 H :    0.055024
   9 H :    0.039737

  Mayer bond orders larger than 0.100000
B(  0-C ,  1-C ) :   0.6874 B(  0-C ,  4-C ) :   0.2096 B(  0-C ,  7-H ) :   0.9820
B(  0-C ,  8-H ) :   1.0158 B(  0-C ,  9-H ) :   0.9688 B(  1-C ,  2-H ) :   0.9640
B(  1-C ,  3-H ) :   1.0062 B(  1-C ,  4-C ) :   0.9181 B(  4-C ,  5-O ) :   1.4765
B(  4-C ,  6-O ) :   1.4524

Dispersion correction           -0.006570267
FINAL SINGLE POINT ENERGY      -267.642798498592

DIPOLE MOMENT
-------------
                                X             Y             Z
Electronic contribution:      3.80151      -0.47147      -4.56336
Nuclear contribution   :     -5.15232       0.33441       5.87398
                        -----------------------------------------
Total Dipole Moment    :     -1.35081      -0.13706       1.31061
                        -----------------------------------------
Magnitude (a.u.)       :      1.88711
Magnitude (Debye)      :      4.79665

Rotational constants in cm-1:     0.295355     0.137164     0.110193
Rotational constants in MHz :  8854.523706  4112.077980  3303.490503

                             ****ORCA TERMINATED NORMALLY****
TOTAL RUN TIME: 0 days 0 hours 0 minutes 20 seconds 65 msec
