                         Program Version 5.0.0 -  RELEASE  -
|  1> !PBE D3BJ RIJCOSX def2-TZVPD def2/J TightSCF
|  2> *xyz 1 1
|  3> C          3.90595        2.81985       -3.75292
|  4> N          5.29562        3.13151       -4.10533
|  5> C          3.80351        1.37472       -3.26081
|  6> C          5.70862        3.46889       -5.32419
|  7> N          6.90470        3.03895       -5.71708
|  8> N          4.98188        4.29357       -6.09746
|  9> H          5.00055        4.10131       -7.08776
| 10> H          4.08469        4.59690       -5.73965
| 11> H          5.96336        2.52611       -3.64239
| 12> H          7.04716        2.06686       -5.47360
| 13> H          7.19815        3.30799       -6.64523
| 14> H          3.28202        2.94919       -4.64026
| 15> H          3.56525        3.51457       -2.98252
| 16> H          4.14157        0.71142       -4.02935
| 17> H          2.78528        1.15146       -3.01944
| 18> H          4.41205        1.25066       -2.38949
| 19> *
| 20>
| 21> %MaxCore 64000
| 22>
| 23> %pal nprocs 4
| 24> end
| 25>
| 26> %scf
| 27>   MaxIter 150
| 28> end
| 29>
| 30>
| 31>                          ****END OF INPUT****

CARTESIAN COORDINATES (ANGSTROEM)
---------------------------------
  C      3.905950    2.819850   -3.752920
  N      5.295620    3.131510   -4.105330
  C      3.803510    1.374720   -3.260810
  C      5.708620    3.468890   -5.324190
  N      6.904700    3.038950   -5.717080
  N      4.981880    4.293570   -6.097460
  H      5.000550    4.101310   -7.087760
  H      4.084690    4.596900   -5.739650
  H      5.963360    2.526110   -3.642390
  H      7.047160    2.066860   -5.473600
  H      7.198150    3.307990   -6.645230
  H      3.282020    2.949190   -4.640260
  H      3.565250    3.514570   -2.982520
  H      4.141570    0.711420   -4.029350
  H      2.785280    1.151460   -3.019440
  H      4.412050    1.250660   -2.389490

 Total Charge           Charge          ....    1
 Multiplicity           Mult            ....    1
 Number of Electrons    NEL             ....   48
 Basis Dimension        Dim             ....  312

ORBITAL ENERGIES
----------------

  NO   OCC          E(Eh)            E(eV)
   0   2.0000     -14.212083      -386.7304
   1   2.0000     -14.210285      -386.6815
   2   2.0000     -14.209002      -386.6466
   3   2.0000     -10.204694      -277.6838
   4   2.0000     -10.091703      -274.6092
   5   2.0000     -10.025163      -272.7985
   6   2.0000      -1.136282       -30.9198
   7   2.0000      -1.030975       -28.0542
   8   2.0000      -1.023264       -27.8444
   9   2.0000      -0.866359       -23.5748
  10   2.0000      -0.775432       -21.1006
  11   2.0000      -0.750403       -20.4195
  12   2.0000      -0.722892       -19.6709
  13   2.0000      -0.692299       -18.8384
  14   2.0000      -0.651228       -17.7208
  15   2.0000      -0.639387       -17.3986
  16   2.0000      -0.602991       -16.4082
  17   2.0000      -0.581903       -15.8344
  18   2.0000      -0.549205       -14.9446
  19   2.0000      -0.517174       -14.0730
  20   2.0000      -0.494862       -13.4659
  21   2.0000      -0.479668       -13.0524
  22   2.0000      -0.449210       -12.2236
  23   2.0000      -0.422398       -11.4940
  24   0.0000      -0.225786        -6.1439
  25   0.0000      -0.184908        -5.0316
  26   0.0000      -0.151505        -4.1227
  27   0.0000      -0.138830        -3.7777
  28   0.0000      -0.123529        -3.3614

MULLIKEN ATOMIC CHARGES
-----------------------
   0 C :   -0.202814
   1 N :    0.019738
   2 C :   -1.025398
   3 C :    0.325016
   4 N :   -0.226810
   5 N :   -0.240833
   6 H :    0.200776
   7 H :    0.224017
   8 H :    0.227605
   9 H :    0.219094
  10 H :    0.213253
  11 H :    0.237932
  12 H :    0.189409
  13 H :    0.292429
  14 H :    0.237455
  15 H :    0.309134
Sum of atomic charges:    1.0000000

LOEWDIN ATOMIC CHARGES
----------------------
   0 C :   -0.205544
   1 N :    0.100119
   2 C :   -0.055896
   3 C :   -0.467706
   4 N :    0.220108
   5 N :    0.230445
   6 H :    0.135388
   7 H :    0.126393
   8 H :    0.154001
   9 H :    0.137523
  10 H :    0.134480
  11 H :    0.117520
  12 H :    0.129266
  13 H :    0.077756
  14 H :    0.085818
  15 H :    0.080331

  Mayer bond orders larger than 0.100000
B(  0-C ,  1-N ) :   0.9247 B(  0-C ,  2-C ) :   0.7865 B(  0-C , 11-H ) :   0.8655
B(  0-C , 12-H ) :   0.9898 B(  1-N ,  3-C ) :   1.3342 B(  1-N ,  8-H ) :   0.8741
B(  2-C , 11-H ) :   0.1097 B(  2-C , 13-H ) :   0.9726 B(  2-C , 14-H ) :   0.9887
B(  2-C , 15-H ) :   0.9524 B(  3-C ,  4-N ) :   1.2516 B(  3-C ,  5-N ) :   1.2219
B(  4-N ,  9-H ) :   0.9389 B(  4-N , 10-H ) :   0.9227 B(  5-N ,  6-H ) :   0.9473
B(  5-N ,  7-H ) :   0.9233

Dispersion correction           -0.012251198
FINAL SINGLE POINT ENERGY      -284.148605937293

DIPOLE MOMENT
-------------
                                X             Y             Z
Electronic contribution:      3.51138       3.41680      -2.61726
Nuclear contribution   :     -3.31456      -3.64300       1.57303
                        -----------------------------------------
Total Dipole Moment    :      0.19681      -0.22619      -1.04422
                        -----------------------------------------
Magnitude (a.u.)       :      1.08642
Magnitude (Debye)      :      2.76145

Rotational constants in cm-1:     0.229487     0.071000     0.059428
Rotational constants in MHz :  6879.840828  2128.520047  1781.605314

                             ****ORCA TERMINATED NORMALLY****
TOTAL RUN TIME: 0 days 0 hours 0 minutes 17 seconds 641 msec
