                         Program Version 5.0.0 -  RELEASE  -
|  1> !PBE D3BJ RIJCOSX def2-TZVPD def2/J TightSCF xyzfile
|  2>
|  3> *xyzfile 0 1 B.xyz
|  4>
|  5> %MaxCore 64000
|  6>
|  7> %pal nprocs 4
|  8> end
|  9>
| 10> %scf
| 11>   MaxIter 150
| 12> end
| 13>
| 14>
| 15>                          ****END OF INPUT****

CARTESIAN COORDINATES (ANGSTROEM)
---------------------------------
  C      3.905947    2.819855   -3.752920
  N      5.295615    3.131515   -4.105334
  C      3.803511    1.374716   -3.260807
  C      3.939934    0.320362   -4.367729
  H      4.105043   -0.655085   -3.907733
  H      3.022801    0.280517   -4.957117
  C      5.105846    0.668022   -5.305463
  C      5.708619    3.468885   -5.324190
  N      6.904696    3.038954   -5.717084
  N      4.981884    4.293570   -6.097457
  H      5.000546    4.101311   -7.087761
  H      4.084693    4.596899   -5.739652
  H      5.963358    2.526112   -3.642391
  H      7.047164    2.066861   -5.473604
  H      7.198145    3.307994   -6.645225
  H      3.282025    2.949187   -4.640259
  H      3.565254    3.514574   -2.982523
  H      4.574833    1.215157   -2.500443
  H      2.843514    1.260845   -2.751465
  O      4.809132    1.150187   -6.414361
  O      6.267366    0.564999   -4.819481

 Total Charge           Charge          ....    0
 Multiplicity           Mult            ....    1
 Number of Electrons    NEL             ....   78
 Basis Dimension        Dim             ....  475

ORBITAL ENERGIES
----------------

  NO   OCC          E(Eh)            E(eV)
   0   2.0000     -18.671991      -508.0907
   1   2.0000     -18.666947      -507.9534
   2   2.0000     -14.047094      -382.2409
   3   2.0000     -14.041554      -382.0901
   4   2.0000     -14.017594      -381.4381
   5   2.0000     -10.033324      -273.0206
   6   2.0000      -9.941818      -270.5306
   7   2.0000      -9.931469      -270.2490
   8   2.0000      -9.894002      -269.2295
   9   2.0000      -9.860563      -268.3196
  10   2.0000      -0.965077       -26.2611
  11   2.0000      -0.917530       -24.9673
  12   2.0000      -0.864885       -23.5347
  13   2.0000      -0.846906       -23.0455
  14   2.0000      -0.830327       -22.5943
  15   2.0000      -0.725098       -19.7309
  16   2.0000      -0.648418       -17.6444
  17   2.0000      -0.599028       -16.3004
  18   2.0000      -0.564960       -15.3733
  19   2.0000      -0.552477       -15.0337
  20   2.0000      -0.521373       -14.1873
  21   2.0000      -0.484366       -13.1803
  22   2.0000      -0.466348       -12.6900
  23   2.0000      -0.447051       -12.1649
  24   2.0000      -0.432909       -11.7801
  25   2.0000      -0.422716       -11.5027
  26   2.0000      -0.383611       -10.4386
  27   2.0000      -0.374624       -10.1940
  28   2.0000      -0.363626        -9.8948
  29   2.0000      -0.344340        -9.3700
  30   2.0000      -0.335517        -9.1299
  31   2.0000      -0.328756        -8.9459
  32   2.0000      -0.298673        -8.1273
  33   2.0000      -0.293965        -7.9992
  34   2.0000      -0.275971        -7.5096
  35   2.0000      -0.254224        -6.9178
  36   2.0000      -0.198371        -5.3980
  37   2.0000      -0.176312        -4.7977
  38   2.0000      -0.163469        -4.4482
  39   0.0000      -0.054356        -1.4791
  40   0.0000      -0.035011        -0.9527
  41   0.0000      -0.011086        -0.3017
  42   0.0000      -0.001664        -0.0453
  43   0.0000       0.014875         0.4048

MULLIKEN ATOMIC CHARGES
-----------------------
   0 C :   -0.271715
   1 N :   -0.004337
   2 C :   -0.468088
   3 C :   -0.162804
   4 H :    0.130211
   5 H :    0.167539
   6 C :    0.628674
   7 C :    0.199121
   8 N :   -0.205614
   9 N :   -0.286580
  10 H :    0.183524
  11 H :    0.206168
  12 H :    0.289250
  13 H :    0.247653
  14 H :    0.187049
  15 H :    0.235934
  16 H :    0.036032
  17 H :    0.209420
  18 H :    0.062437
  19 O :   -0.636781
  20 O :   -0.747092
Sum of atomic charges:   -0.0000000

LOEWDIN ATOMIC CHARGES
----------------------
   0 C :   -0.168372
   1 N :    0.099616
   2 C :   -0.182649
   3 C :   -0.122765
   4 H :    0.111648
   5 H :    0.108518
   6 C :   -0.731678
   7 C :   -0.502146
   8 N :    0.208774
   9 N :    0.205534
  10 H :    0.122236
  11 H :    0.110905
  12 H :    0.141513
  13 H :    0.070507
  14 H :    0.123196
  15 H :    0.120828
  16 H :    0.115867
  17 H :    0.115706
  18 H :    0.110588
  19 O :   -0.009409
  20 O :   -0.048414

  Mayer bond orders larger than 0.100000
B(  0-C ,  1-N ) :   0.9275 B(  0-C ,  2-C ) :   1.0430 B(  0-C , 15-H ) :   0.8223
B(  0-C , 16-H ) :   1.0747 B(  1-N ,  7-C ) :   1.3233 B(  1-N , 12-H ) :   0.7806
B(  2-C ,  3-C ) :   0.9672 B(  2-C ,  6-C ) :   0.1008 B(  2-C , 15-H ) :   0.1046
B(  2-C , 17-H ) :   0.8950 B(  2-C , 18-H ) :   1.0173 B(  3-C ,  4-H ) :   0.9343
B(  3-C ,  5-H ) :   0.9542 B(  3-C ,  6-C ) :   0.9787 B(  6-C , 19-O ) :   1.3878
B(  6-C , 20-O ) :   1.2137 B(  7-C ,  8-N ) :   1.2223 B(  7-C ,  9-N ) :   1.0546
B(  7-C , 19-O ) :   0.1198 B(  7-C , 20-O ) :   0.1046 B(  8-N , 13-H ) :   0.8077
B(  8-N , 14-H ) :   0.8946 B(  9-N , 10-H ) :   0.9388 B(  9-N , 11-H ) :   0.9087
B( 13-H , 20-O ) :   0.1668 B( 19-O , 20-O ) :   0.1096

Dispersion correction           -0.022948169
FINAL SINGLE POINT ENERGY      -511.506998521830

DIPOLE MOMENT
-------------
                                X             Y             Z
Electronic contribution:      4.21859       0.34022      -3.45231
Nuclear contribution   :     -4.94498       2.03334       3.78956
                        -----------------------------------------
Total Dipole Moment    :     -0.72639       2.37357       0.33724
                        -----------------------------------------
Magnitude (a.u.)       :      2.50503
Magnitude (Debye)      :      6.36729

Rotational constants in cm-1:     0.062533     0.042832     0.033687
Rotational constants in MHz :  1874.701390  1284.063603  1009.911042

                             ****ORCA TERMINATED NORMALLY****
TOTAL RUN TIME: 0 days 0 hours 0 minutes 41 seconds 708 msec
