                         Program Version 5.0.0 -  RELEASE  -
|  1> !PBE D3BJ RIJCOSX def2-TZVPD def2/J TightSCF
|  2> *xyz 0 1
|  3> C          3.80351        1.37472       -3.26081
|  4> C          3.93993        0.32036       -4.36773
|  5> H          4.10504       -0.65508       -3.90773
|  6> H          3.02280        0.28052       -4.95712
|  7> C          5.10585        0.66802       -5.30546
|  8> F          4.80913        1.15019       -6.41436
|  9> O          6.26737        0.56500       -4.81948
| 10> H          3.64113        2.33595       -3.70189
| 11> H          4.69995        1.39701       -2.67703
| 12> H          2.97435        1.12625       -2.63180
| 13> *
| 14>
| 15> %MaxCore 64000
| 16>
| 17> %pal nprocs 4
| 18> end
| 19>
| 20> %scf
| 21>   MaxIter 150
| 22> end
| 23>
| 24>
| 25>                          ****END OF INPUT****

CARTESIAN COORDINATES (ANGSTROEM)
---------------------------------
  C      3.803510    1.374720   -3.260810
  C      3.939930    0.320360   -4.367730
  H      4.105040   -0.655080   -3.907730
  H      3.022800    0.280520   -4.957120
  C      5.105850    0.668020   -5.305460
  F      4.809130    1.150190   -6.414360
  O      6.267370    0.565000   -4.819480
  H      3.641130    2.335950   -3.701890
  H      4.699950    1.397010   -2.677030
  H      2.974350    1.126250   -2.631800

 Total Charge           Charge          ....    0
 Multiplicity           Mult            ....    1
 Number of Electrons    NEL             ....   40
 Basis Dimension        Dim             ....  236

ORBITAL ENERGIES
----------------

  NO   OCC          E(Eh)            E(eV)
   0   2.0000     -24.331636      -662.0975
   1   2.0000     -18.753869      -510.3187
   2   2.0000     -10.049225      -273.4533
   3   2.0000      -9.911639      -269.7094
   4   2.0000      -9.886774      -269.0328
   5   2.0000      -1.224416       -33.3180
   6   2.0000      -0.941858       -25.6293
   7   2.0000      -0.728159       -19.8142
   8   2.0000      -0.624470       -16.9927
   9   2.0000      -0.579889       -15.7796
  10   2.0000      -0.494085       -13.4447
  11   2.0000      -0.478154       -13.0112
  12   2.0000      -0.451557       -12.2875
  13   2.0000      -0.415807       -11.3147
  14   2.0000      -0.386071       -10.5055
  15   2.0000      -0.355477        -9.6730
  16   2.0000      -0.333141        -9.0652
  17   2.0000      -0.328955        -8.9513
  18   2.0000      -0.306482        -8.3398
  19   2.0000      -0.242251        -6.5920
  20   0.0000      -0.069837        -1.9004
  21   0.0000      -0.014220        -0.3869
  22   0.0000       0.015283         0.4159
  23   0.0000       0.025385         0.6907
  24   0.0000       0.033467         0.9107

MULLIKEN ATOMIC CHARGES
-----------------------
   0 C :   -0.902395
   1 C :    0.061316
   2 H :    0.151072
   3 H :    0.160624
   4 C :    0.393516
   5 F :   -0.140348
   6 O :   -0.438302
   7 H :    0.269017
   8 H :    0.249125
   9 H :    0.196376
Sum of atomic charges:    0.0000000

LOEWDIN ATOMIC CHARGES
----------------------
   0 C :   -0.086933
   1 C :   -0.159757
   2 H :    0.117419
   3 H :    0.105458
   4 C :   -0.522410
   5 F :    0.238930
   6 O :    0.091036
   7 H :    0.073836
   8 H :    0.073653
   9 H :    0.068769

  Mayer bond orders larger than 0.100000
B(  0-C ,  1-C ) :   0.7496 B(  0-C ,  4-C ) :   0.2008 B(  0-C ,  7-H ) :   0.9369
B(  0-C ,  8-H ) :   1.0016 B(  0-C ,  9-H ) :   0.9813 B(  1-C ,  2-H ) :   0.9506
B(  1-C ,  3-H ) :   0.9718 B(  1-C ,  4-C ) :   0.9012 B(  4-C ,  5-F ) :   1.0781
B(  4-C ,  6-O ) :   1.7865

Dispersion correction           -0.006234845
FINAL SINGLE POINT ENERGY      -292.189595999835

DIPOLE MOMENT
-------------
                                X             Y             Z
Electronic contribution:      4.04116      -0.00052      -7.44569
Nuclear contribution   :     -5.17129      -0.01923       7.59895
                        -----------------------------------------
Total Dipole Moment    :     -1.13013      -0.01975       0.15326
                        -----------------------------------------
Magnitude (a.u.)       :      1.14065
Magnitude (Debye)      :      2.89930

Rotational constants in cm-1:     0.282073     0.131822     0.105134
Rotational constants in MHz :  8456.328792  3951.925810  3151.840112

                             ****ORCA TERMINATED NORMALLY****
TOTAL RUN TIME: 0 days 0 hours 0 minutes 12 seconds 653 msec
