                         Program Version 5.0.0 -  RELEASE  -
|  1> !PBE D3BJ RIJCOSX def2-TZVPD def2/J TightSCF
|  2> *xyz 0 1
|  3> C          3.90595        2.81985       -3.75292
|  4> C          5.29562        3.13151       -4.10533
|  5> C          3.80351        1.37472       -3.26081
|  6> C          5.70862        3.46889       -5.32419
|  7> N          6.90470        3.03895       -5.71708
|  8> N          4.98188        4.29357       -6.09746
|  9> H          5.00055        4.10131       -7.08776
| 10> H          4.08469        4.59690       -5.73965
| 11> H          5.96336        2.52611       -3.64239
| 12> H          7.04716        2.06686       -5.47360
| 13> H          7.19815        3.30799       -6.64523
| 14> H          3.28202        2.94919       -4.64026
| 15> H          3.56525        3.51457       -2.98252
| 16> H          4.14157        0.71142       -4.02935
| 17> H          2.78528        1.15146       -3.01944
| 18> H          4.41205        1.25066       -2.38949
| 19> *
| 20>
| 21> %MaxCore 64000
| 22>
| 23> %pal nprocs 4
| 24> end
| 25>
| 26> %scf
| 27>   MaxIter 150
| 28> end
| 29>
| 30>
| 31>                          ****END OF INPUT****

CARTESIAN COORDINATES (ANGSTROEM)
---------------------------------
  C      3.905950    2.819850   -3.752920
  C      5.295620    3.131510   -4.105330
  C      3.803510    1.374720   -3.260810
  C      5.708620    3.468890   -5.324190
  N      6.904700    3.038950   -5.717080
  N      4.981880    4.293570   -6.097460
  H      5.000550    4.101310   -7.087760
  H      4.084690    4.596900   -5.739650
  H      5.963360    2.526110   -3.642390
  H      7.047160    2.066860   -5.473600
  H      7.198150    3.307990   -6.645230
  H      3.282020    2.949190   -4.640260
  H      3.565250    3.514570   -2.982520
  H      4.141570    0.711420   -4.029350
  H      2.785280    1.151460   -3.019440
  H      4.412050    1.250660   -2.389490

 Total Charge           Charge          ....    0
 Multiplicity           Mult            ....    1
 Number of Electrons    NEL             ....   48
 Basis Dimension        Dim             ....  312

ORBITAL ENERGIES
----------------

  NO   OCC          E(Eh)            E(eV)
   0   2.0000     -13.990030      -380.6881
   1   2.0000     -13.987241      -380.6122
   2   2.0000      -9.918341      -269.8918
   3   2.0000      -9.860611      -268.3209
   4   2.0000      -9.851480      -268.0724
   5   2.0000      -9.810807      -266.9656
   6   2.0000      -0.885218       -24.0880
   7   2.0000      -0.802640       -21.8410
   8   2.0000      -0.705616       -19.2008
   9   2.0000      -0.629596       -17.1322
  10   2.0000      -0.554490       -15.0884
  11   2.0000      -0.522194       -14.2096
  12   2.0000      -0.485029       -13.1983
  13   2.0000      -0.459953       -12.5159
  14   2.0000      -0.430628       -11.7180
  15   2.0000      -0.398721       -10.8498
  16   2.0000      -0.375454       -10.2166
  17   2.0000      -0.344416        -9.3720
  18   2.0000      -0.325804        -8.8656
  19   2.0000      -0.309532        -8.4228
  20   2.0000      -0.285810        -7.7773
  21   2.0000      -0.283111        -7.7039
  22   2.0000      -0.233826        -6.3627
  23   2.0000      -0.142514        -3.8780
  24   0.0000      -0.022764        -0.6194
  25   0.0000       0.005787         0.1575
  26   0.0000       0.010979         0.2988
  27   0.0000       0.018303         0.4980
  28   0.0000       0.034286         0.9330

MULLIKEN ATOMIC CHARGES
-----------------------
   0 C :    0.243797
   1 C :   -0.558422
   2 C :   -1.136997
   3 C :   -0.038744
   4 N :   -0.287670
   5 N :   -0.316603
   6 H :    0.130863
   7 H :    0.184732
   8 H :    0.375691
   9 H :    0.180915
  10 H :    0.173853
  11 H :    0.179323
  12 H :    0.089704
  13 H :    0.291750
  14 H :    0.216585
  15 H :    0.271224
Sum of atomic charges:    0.0000000

LOEWDIN ATOMIC CHARGES
----------------------
   0 C :   -0.286609
   1 C :   -0.136141
   2 C :   -0.109595
   3 C :   -0.570672
   4 N :    0.126141
   5 N :    0.137561
   6 H :    0.091416
   7 H :    0.097889
   8 H :    0.064413
   9 H :    0.106514
  10 H :    0.092494
  11 H :    0.095358
  12 H :    0.099479
  13 H :    0.066943
  14 H :    0.058939
  15 H :    0.065870

  Mayer bond orders larger than 0.100000
B(  0-C ,  1-C ) :   0.6931 B(  0-C ,  2-C ) :   0.5565 B(  0-C , 11-H ) :   0.9226
B(  0-C , 12-H ) :   0.9866 B(  1-C ,  2-C ) :   0.3619 B(  1-C ,  3-C ) :   1.8747
B(  1-C ,  5-N ) :   0.1583 B(  1-C ,  8-H ) :   0.8409 B(  2-C , 13-H ) :   0.9845
B(  2-C , 14-H ) :   1.0058 B(  2-C , 15-H ) :   0.9829 B(  3-C ,  4-N ) :   1.1031
B(  3-C ,  5-N ) :   0.9744 B(  4-N ,  9-H ) :   0.9649 B(  4-N , 10-H ) :   0.9432
B(  5-N ,  6-H ) :   1.0203 B(  5-N ,  7-H ) :   0.9154

Dispersion correction           -0.012710731
FINAL SINGLE POINT ENERGY      -267.671733306586

DIPOLE MOMENT
-------------
                                X             Y             Z
Electronic contribution:      3.19847       3.28204      -2.79642
Nuclear contribution   :     -3.27358      -3.61654       1.70633
                        -----------------------------------------
Total Dipole Moment    :     -0.07511      -0.33451      -1.09009
                        -----------------------------------------
Magnitude (a.u.)       :      1.14273
Magnitude (Debye)      :      2.90459

Rotational constants in cm-1:     0.231961     0.071249     0.059473
Rotational constants in MHz :  6954.024434  2135.976855  1782.962814

                             ****ORCA TERMINATED NORMALLY****
TOTAL RUN TIME: 0 days 0 hours 0 minutes 19 seconds 557 msec
