                         Program Version 5.0.0 -  RELEASE  -
|  1> !PBE D3BJ RIJCOSX def2-TZVPD def2/J TightSCF
|  2> *xyz 0 1
|  3> C          3.80351        1.37472       -3.26081
|  4> C          3.93993        0.32036       -4.36773
|  5> H          4.10504       -0.65508       -3.90773
|  6> H          3.02280        0.28052       -4.95712
|  7> C          5.10585        0.66802       -5.30546
|  8> O          4.80913        1.15019       -6.41436
|  9> F          6.26737        0.56500       -4.81948
| 10> H          3.64113        2.33595       -3.70189
| 11> H          4.69995        1.39701       -2.67703
| 12> H          2.97435        1.12625       -2.63180
| 13> *
| 14>
| 15> %MaxCore 64000
| 16>
| 17> %pal nprocs 4
| 18> end
| 19>
| 20> %scf
| 21>   MaxIter 150
| 22> end
| 23>
| 24>
| 25>                          ****END OF INPUT****

CARTESIAN COORDINATES (ANGSTROEM)
---------------------------------
  C      3.803510    1.374720   -3.260810
  C      3.939930    0.320360   -4.367730
  H      4.105040   -0.655080   -3.907730
  H      3.022800    0.280520   -4.957120
  C      5.105850    0.668020   -5.305460
  O      4.809130    1.150190   -6.414360
  F      6.267370    0.565000   -4.819480
  H      3.641130    2.335950   -3.701890
  H      4.699950    1.397010   -2.677030
  H      2.974350    1.126250   -2.631800

 Total Charge           Charge          ....    0
 Multiplicity           Mult            ....    1
 Number of Electrons    NEL             ....   40
 Basis Dimension        Dim             ....  236

ORBITAL ENERGIES
----------------

  NO   OCC          E(Eh)            E(eV)
   0   2.0000     -24.324924      -661.9148
   1   2.0000     -18.756166      -510.3812
   2   2.0000     -10.047330      -273.4018
   3   2.0000      -9.911209      -269.6977
   4   2.0000      -9.889418      -269.1047
   5   2.0000      -1.211142       -32.9569
   6   2.0000      -0.952245       -25.9119
   7   2.0000      -0.729999       -19.8643
   8   2.0000      -0.619330       -16.8528
   9   2.0000      -0.578295       -15.7362
  10   2.0000      -0.488835       -13.3019
  11   2.0000      -0.474092       -12.9007
  12   2.0000      -0.448335       -12.1998
  13   2.0000      -0.415410       -11.3039
  14   2.0000      -0.386809       -10.5256
  15   2.0000      -0.357856        -9.7378
  16   2.0000      -0.337552        -9.1853
  17   2.0000      -0.329924        -8.9777
  18   2.0000      -0.315080        -8.5738
  19   2.0000      -0.243160        -6.6167
  20   0.0000      -0.066233        -1.8023
  21   0.0000      -0.015130        -0.4117
  22   0.0000       0.015267         0.4154
  23   0.0000       0.025418         0.6917
  24   0.0000       0.033930         0.9233

MULLIKEN ATOMIC CHARGES
-----------------------
   0 C :   -0.910513
   1 C :    0.070869
   2 H :    0.175644
   3 H :    0.141052
   4 C :    0.383008
   5 O :   -0.413358
   6 F :   -0.163993
   7 H :    0.270008
   8 H :    0.253110
   9 H :    0.194171
Sum of atomic charges:    0.0000000

LOEWDIN ATOMIC CHARGES
----------------------
   0 C :   -0.088391
   1 C :   -0.157502
   2 H :    0.111486
   3 H :    0.114959
   4 C :   -0.522818
   5 O :    0.107781
   6 F :    0.219293
   7 H :    0.076298
   8 H :    0.069790
   9 H :    0.069105

  Mayer bond orders larger than 0.100000
B(  0-C ,  1-C ) :   0.7156 B(  0-C ,  4-C ) :   0.2003 B(  0-C ,  7-H ) :   0.9712
B(  0-C ,  8-H ) :   0.9673 B(  0-C ,  9-H ) :   0.9854 B(  1-C ,  2-H ) :   0.9413
B(  1-C ,  3-H ) :   0.9884 B(  1-C ,  4-C ) :   0.9039 B(  4-C ,  5-O ) :   1.7978
B(  4-C ,  6-F ) :   1.0495

Dispersion correction           -0.006214541
FINAL SINGLE POINT ENERGY      -292.194659166679

DIPOLE MOMENT
-------------
                                X             Y             Z
Electronic contribution:      6.43034      -0.96865      -4.80277
Nuclear contribution   :     -6.76123       0.61881       5.86003
                        -----------------------------------------
Total Dipole Moment    :     -0.33089      -0.34985       1.05726
                        -----------------------------------------
Magnitude (a.u.)       :      1.16176
Magnitude (Debye)      :      2.95295

Rotational constants in cm-1:     0.275298     0.134631     0.105723
Rotational constants in MHz :  8253.224169  4036.137572  3169.487264

                             ****ORCA TERMINATED NORMALLY****
TOTAL RUN TIME: 0 days 0 hours 0 minutes 11 seconds 159 msec
