                         Program Version 5.0.0 -  RELEASE  -
|  1> !PBE D3BJ RIJCOSX def2-TZVPD def2/J TightSCF
|  2> *xyz 0 1
|  3> C          3.90595        2.81985       -3.75292
|  4> N          5.29562        3.13151       -4.10533
|  5> C          3.80351        1.37472       -3.26081
|  6> C          5.70862        3.46889       -5.32419
|  7> C          6.90470        3.03895       -5.71708
|  8> N          4.98188        4.29357       -6.09746
|  9> H          5.00055        4.10131       -7.08776
| 10> H          4.08469        4.59690       -5.73965
| 11> H          5.96336        2.52611       -3.64239
| 12> H          7.04716        2.06686       -5.47360
| 13> H          7.19815        3.30799       -6.64523
| 14> H          3.28202        2.94919       -4.64026
| 15> H          3.56525        3.51457       -2.98252
| 16> H          4.14157        0.71142       -4.02935
| 17> H          2.78528        1.15146       -3.01944
| 18> H          4.41205        1.25066       -2.38949
| 19> *
| 20>
| 21> %MaxCore 64000
| 22>
| 23> %pal nprocs 4
| 24> end
| 25>
| 26> %scf
| 27>   MaxIter 150
| 28> end
| 29>
| 30>
| 31>                          ****END OF INPUT****

CARTESIAN COORDINATES (ANGSTROEM)
---------------------------------
  C      3.905950    2.819850   -3.752920
  N      5.295620    3.131510   -4.105330
  C      3.803510    1.374720   -3.260810
  C      5.708620    3.468890   -5.324190
  C      6.904700    3.038950   -5.717080
  N      4.981880    4.293570   -6.097460
  H      5.000550    4.101310   -7.087760
  H      4.084690    4.596900   -5.739650
  H      5.963360    2.526110   -3.642390
  H      7.047160    2.066860   -5.473600
  H      7.198150    3.307990   -6.645230
  H      3.282020    2.949190   -4.640260
  H      3.565250    3.514570   -2.982520
  H      4.141570    0.711420   -4.029350
  H      2.785280    1.151460   -3.019440
  H      4.412050    1.250660   -2.389490

 Total Charge           Charge          ....    0
 Multiplicity           Mult            ....    1
 Number of Electrons    NEL             ....   48
 Basis Dimension        Dim             ....  312

ORBITAL ENERGIES
----------------

  NO   OCC          E(Eh)            E(eV)
   0   2.0000     -13.989878      -380.6839
   1   2.0000     -13.989379      -380.6703
   2   2.0000      -9.922107      -269.9942
   3   2.0000      -9.921101      -269.9669
   4   2.0000      -9.880023      -268.8491
   5   2.0000      -9.795344      -266.5449
   6   2.0000      -0.889465       -24.2036
   7   2.0000      -0.812964       -22.1219
   8   2.0000      -0.704707       -19.1760
   9   2.0000      -0.639732       -17.4080
  10   2.0000      -0.570488       -15.5238
  11   2.0000      -0.542042       -14.7497
  12   2.0000      -0.483526       -13.1574
  13   2.0000      -0.446887       -12.1604
  14   2.0000      -0.435963       -11.8631
  15   2.0000      -0.407096       -11.0776
  16   2.0000      -0.376856       -10.2548
  17   2.0000      -0.356539        -9.7019
  18   2.0000      -0.338331        -9.2064
  19   2.0000      -0.331690        -9.0258
  20   2.0000      -0.329268        -8.9598
  21   2.0000      -0.294919        -8.0251
  22   2.0000      -0.221950        -6.0396
  23   2.0000      -0.145484        -3.9588
  24   0.0000      -0.019800        -0.5388
  25   0.0000       0.000921         0.0251
  26   0.0000       0.011430         0.3110
  27   0.0000       0.014098         0.3836
  28   0.0000       0.032119         0.8740

MULLIKEN ATOMIC CHARGES
-----------------------
   0 C :   -0.184833
   1 N :   -0.084880
   2 C :   -0.986787
   3 C :    0.424824
   4 C :   -0.963983
   5 N :   -0.301275
   6 H :    0.172209
   7 H :    0.172507
   8 H :    0.188235
   9 H :    0.222317
  10 H :    0.224550
  11 H :    0.222653
  12 H :    0.125943
  13 H :    0.271767
  14 H :    0.231344
  15 H :    0.265410
Sum of atomic charges:   -0.0000000

LOEWDIN ATOMIC CHARGES
----------------------
   0 C :   -0.243951
   1 N :    0.029811
   2 C :   -0.086307
   3 C :   -0.586433
   4 C :   -0.002727
   5 N :    0.138569
   6 H :    0.105416
   7 H :    0.088458
   8 H :    0.127345
   9 H :    0.009761
  10 H :    0.004875
  11 H :    0.104832
  12 H :    0.106901
  13 H :    0.071405
  14 H :    0.065024
  15 H :    0.067022

  Mayer bond orders larger than 0.100000
B(  0-C ,  1-N ) :   0.8762 B(  0-C ,  2-C ) :   0.7358 B(  0-C , 11-H ) :   0.8979
B(  0-C , 12-H ) :   1.0236 B(  1-N ,  3-C ) :   1.2196 B(  1-N ,  4-C ) :   0.1400
B(  1-N ,  8-H ) :   0.8853 B(  2-C , 13-H ) :   1.0081 B(  2-C , 14-H ) :   0.9901
B(  2-C , 15-H ) :   0.9711 B(  3-C ,  4-C ) :   1.3270 B(  3-C ,  5-N ) :   1.0486
B(  4-C ,  5-N ) :   0.1164 B(  4-C ,  9-H ) :   1.0028 B(  4-C , 10-H ) :   1.1320
B(  5-N ,  6-H ) :   0.9662 B(  5-N ,  7-H ) :   0.9328

Dispersion correction           -0.012608799
FINAL SINGLE POINT ENERGY      -267.659984088974

DIPOLE MOMENT
-------------
                                X             Y             Z
Electronic contribution:      1.55322       3.25913      -1.26290
Nuclear contribution   :     -2.93222      -3.63618       1.36440
                        -----------------------------------------
Total Dipole Moment    :     -1.37900      -0.37705       0.10150
                        -----------------------------------------
Magnitude (a.u.)       :      1.43322
Magnitude (Debye)      :      3.64294

Rotational constants in cm-1:     0.237993     0.072843     0.061284
Rotational constants in MHz :  7134.860770  2183.763760  1837.240960

                             ****ORCA TERMINATED NORMALLY****
TOTAL RUN TIME: 0 days 0 hours 0 minutes 19 seconds 276 msec
