                         Program Version 5.0.0 -  RELEASE  -
|  1> !PBE D3BJ RIJCOSX def2-TZVPD def2/J TightSCF
|  2> *xyz 0 1
|  3> C          3.90595        2.81985       -3.75292
|  4> N          5.29562        3.13151       -4.10533
|  5> C          3.80351        1.37472       -3.26081
|  6> C          5.70862        3.46889       -5.32419
|  7> N          6.90470        3.03895       -5.71708
|  8> C          4.98188        4.29357       -6.09746
|  9> H          5.00055        4.10131       -7.08776
| 10> H          4.08469        4.59690       -5.73965
| 11> H          5.96336        2.52611       -3.64239
| 12> H          7.04716        2.06686       -5.47360
| 13> H          7.19815        3.30799       -6.64523
| 14> H          3.28202        2.94919       -4.64026
| 15> H          3.56525        3.51457       -2.98252
| 16> H          4.14157        0.71142       -4.02935
| 17> H          2.78528        1.15146       -3.01944
| 18> H          4.41205        1.25066       -2.38949
| 19> *
| 20>
| 21> %MaxCore 64000
| 22>
| 23> %pal nprocs 4
| 24> end
| 25>
| 26> %scf
| 27>   MaxIter 150
| 28> end
| 29>
| 30>
| 31>                          ****END OF INPUT****

CARTESIAN COORDINATES (ANGSTROEM)
---------------------------------
  C      3.905950    2.819850   -3.752920
  N      5.295620    3.131510   -4.105330
  C      3.803510    1.374720   -3.260810
  C      5.708620    3.468890   -5.324190
  N      6.904700    3.038950   -5.717080
  C      4.981880    4.293570   -6.097460
  H      5.000550    4.101310   -7.087760
  H      4.084690    4.596900   -5.739650
  H      5.963360    2.526110   -3.642390
  H      7.047160    2.066860   -5.473600
  H      7.198150    3.307990   -6.645230
  H      3.282020    2.949190   -4.640260
  H      3.565250    3.514570   -2.982520
  H      4.141570    0.711420   -4.029350
  H      2.785280    1.151460   -3.019440
  H      4.412050    1.250660   -2.389490

 Total Charge           Charge          ....    0
 Multiplicity           Mult            ....    1
 Number of Electrons    NEL             ....   48
 Basis Dimension        Dim             ....  312

ORBITAL ENERGIES
----------------

  NO   OCC          E(Eh)            E(eV)
   0   2.0000     -13.992456      -380.7541
   1   2.0000     -13.988256      -380.6398
   2   2.0000      -9.921396      -269.9749
   3   2.0000      -9.916072      -269.8300
   4   2.0000      -9.878097      -268.7967
   5   2.0000      -9.800633      -266.6888
   6   2.0000      -0.894451       -24.3393
   7   2.0000      -0.814785       -22.1714
   8   2.0000      -0.694603       -18.9011
   9   2.0000      -0.640903       -17.4399
  10   2.0000      -0.584387       -15.9020
  11   2.0000      -0.513221       -13.9654
  12   2.0000      -0.486346       -13.2342
  13   2.0000      -0.467617       -12.7245
  14   2.0000      -0.424147       -11.5416
  15   2.0000      -0.411496       -11.1974
  16   2.0000      -0.360311        -9.8045
  17   2.0000      -0.359470        -9.7817
  18   2.0000      -0.347901        -9.4669
  19   2.0000      -0.331218        -9.0129
  20   2.0000      -0.321734        -8.7548
  21   2.0000      -0.296570        -8.0701
  22   2.0000      -0.219781        -5.9806
  23   2.0000      -0.149436        -4.0664
  24   0.0000      -0.020594        -0.5604
  25   0.0000       0.003176         0.0864
  26   0.0000       0.014468         0.3937
  27   0.0000       0.014731         0.4009
  28   0.0000       0.030619         0.8332

MULLIKEN ATOMIC CHARGES
-----------------------
   0 C :   -0.149525
   1 N :   -0.072286
   2 C :   -1.011299
   3 C :    0.419687
   4 N :   -0.320145
   5 C :   -1.059052
   6 H :    0.194632
   7 H :    0.302752
   8 H :    0.213719
   9 H :    0.158259
  10 H :    0.185076
  11 H :    0.224237
  12 H :    0.149473
  13 H :    0.272581
  14 H :    0.232970
  15 H :    0.258921
Sum of atomic charges:   -0.0000000

LOEWDIN ATOMIC CHARGES
----------------------
   0 C :   -0.236512
   1 N :    0.030482
   2 C :   -0.088827
   3 C :   -0.593166
   4 N :    0.126854
   5 C :    0.012002
   6 H :    0.006922
   7 H :    0.002736
   8 H :    0.122944
   9 H :    0.095436
  10 H :    0.103004
  11 H :    0.108863
  12 H :    0.111420
  13 H :    0.068029
  14 H :    0.065681
  15 H :    0.064131

  Mayer bond orders larger than 0.100000
B(  0-C ,  1-N ) :   0.8726 B(  0-C ,  2-C ) :   0.6790 B(  0-C , 11-H ) :   0.9067
B(  0-C , 12-H ) :   0.9942 B(  1-N ,  3-C ) :   1.1150 B(  1-N ,  8-H ) :   0.8852
B(  2-C , 13-H ) :   1.0143 B(  2-C , 14-H ) :   0.9913 B(  2-C , 15-H ) :   0.9809
B(  3-C ,  4-N ) :   1.0752 B(  3-C ,  5-C ) :   1.3807 B(  4-N ,  5-C ) :   0.1227
B(  4-N ,  9-H ) :   0.9783 B(  4-N , 10-H ) :   0.9400 B(  5-C ,  6-H ) :   1.1130
B(  5-C ,  7-H ) :   0.9251

Dispersion correction           -0.012639025
FINAL SINGLE POINT ENERGY      -267.664360198371

DIPOLE MOMENT
-------------
                                X             Y             Z
Electronic contribution:      3.38680       2.10837      -0.97085
Nuclear contribution   :     -3.34013      -3.37002       1.28371
                        -----------------------------------------
Total Dipole Moment    :      0.04667      -1.26165       0.31286
                        -----------------------------------------
Magnitude (a.u.)       :      1.30070
Magnitude (Debye)      :      3.30611

Rotational constants in cm-1:     0.239537     0.072280     0.060961
Rotational constants in MHz :  7181.153552  2166.902802  1827.551447

                             ****ORCA TERMINATED NORMALLY****
TOTAL RUN TIME: 0 days 0 hours 0 minutes 19 seconds 796 msec
