                         Program Version 5.0.0 -  RELEASE  -
|  1> !PBE D3BJ RIJCOSX def2-TZVPD def2/J TightSCF xyzfile
|  2>
|  3> *xyzfile 0 1 D1.xyz
|  4>
|  5> %MaxCore 64000
|  6>
|  7> %pal nprocs 4
|  8> end
|  9>
| 10> %scf
| 11>   MaxIter 150
| 12> end
| 13>
| 14>
| 15>                          ****END OF INPUT****

CARTESIAN COORDINATES (ANGSTROEM)
---------------------------------
  C      3.905947    2.819855   -3.752920
  C      5.295615    3.131515   -4.105334
  C      3.803511    1.374716   -3.260807
  C      3.939934    0.320362   -4.367729
  H      4.105043   -0.655085   -3.907733
  H      3.022801    0.280517   -4.957117
  C      5.105846    0.668022   -5.305463
  C      5.708619    3.468885   -5.324190
  N      6.904696    3.038954   -5.717084
  N      4.981884    4.293570   -6.097457
  H      5.000546    4.101311   -7.087761
  H      4.084693    4.596899   -5.739652
  H      5.963358    2.526112   -3.642391
  H      7.047164    2.066861   -5.473604
  H      7.198145    3.307994   -6.645225
  H      3.282025    2.949187   -4.640259
  H      3.565254    3.514574   -2.982523
  H      4.574833    1.215157   -2.500443
  H      2.843514    1.260845   -2.751465
  F      4.809132    1.150187   -6.414361
  O      6.267366    0.564999   -4.819481

 Total Charge           Charge          ....    0
 Multiplicity           Mult            ....    1
 Number of Electrons    NEL             ....   78
 Basis Dimension        Dim             ....  475

ORBITAL ENERGIES
----------------

  NO   OCC          E(Eh)            E(eV)
   0   2.0000     -24.332271      -662.1148
   1   2.0000     -18.754071      -510.3242
   2   2.0000     -13.990466      -380.6999
   3   2.0000     -13.969853      -380.1390
   4   2.0000     -10.051874      -273.5254
   5   2.0000      -9.918816      -269.9047
   6   2.0000      -9.907274      -269.5906
   7   2.0000      -9.888940      -269.0917
   8   2.0000      -9.872585      -268.6467
   9   2.0000      -9.814052      -267.0539
  10   2.0000      -1.226400       -33.3720
  11   2.0000      -0.949464       -25.8362
  12   2.0000      -0.880906       -23.9707
  13   2.0000      -0.796928       -21.6855
  14   2.0000      -0.743736       -20.2381
  15   2.0000      -0.682039       -18.5592
  16   2.0000      -0.628828       -17.1113
  17   2.0000      -0.596377       -16.2283
  18   2.0000      -0.549373       -14.9492
  19   2.0000      -0.524839       -14.2816
  20   2.0000      -0.497929       -13.5493
  21   2.0000      -0.486535       -13.2393
  22   2.0000      -0.474026       -12.8989
  23   2.0000      -0.467271       -12.7151
  24   2.0000      -0.449624       -12.2349
  25   2.0000      -0.419737       -11.4216
  26   2.0000      -0.411872       -11.2076
  27   2.0000      -0.392671       -10.6851
  28   2.0000      -0.384293       -10.4572
  29   2.0000      -0.347387        -9.4529
  30   2.0000      -0.342820        -9.3286
  31   2.0000      -0.325978        -8.8703
  32   2.0000      -0.319164        -8.6849
  33   2.0000      -0.306023        -8.3273
  34   2.0000      -0.294389        -8.0107
  35   2.0000      -0.282528        -7.6880
  36   2.0000      -0.251159        -6.8344
  37   2.0000      -0.225327        -6.1314
  38   2.0000      -0.145676        -3.9640
  39   0.0000      -0.071121        -1.9353
  40   0.0000      -0.020846        -0.5672
  41   0.0000      -0.000499        -0.0136
  42   0.0000       0.006916         0.1882
  43   0.0000       0.013001         0.3538

MULLIKEN ATOMIC CHARGES
-----------------------
   0 C :    0.145345
   1 C :   -0.514160
   2 C :   -0.449913
   3 C :   -0.270861
   4 H :    0.143571
   5 H :    0.192607
   6 C :    0.735958
   7 C :   -0.338322
   8 N :   -0.243207
   9 N :   -0.314955
  10 H :    0.128495
  11 H :    0.202426
  12 H :    0.425897
  13 H :    0.268267
  14 H :    0.161015
  15 H :    0.242937
  16 H :   -0.054071
  17 H :    0.220198
  18 H :    0.078901
  19 F :   -0.215271
  20 O :   -0.544856
Sum of atomic charges:   -0.0000000

LOEWDIN ATOMIC CHARGES
----------------------
   0 C :   -0.222394
   1 C :   -0.125253
   2 C :   -0.189925
   3 C :   -0.090799
   4 H :    0.122168
   5 H :    0.113211
   6 C :   -0.504216
   7 C :   -0.578727
   8 N :    0.148628
   9 N :    0.149061
  10 H :    0.093971
  11 H :    0.098852
  12 H :    0.074116
  13 H :    0.062094
  14 H :    0.101336
  15 H :    0.106422
  16 H :    0.105855
  17 H :    0.120422
  18 H :    0.109916
  19 F :    0.242988
  20 O :    0.062271

  Mayer bond orders larger than 0.100000
B(  0-C ,  1-C ) :   0.6424 B(  0-C ,  2-C ) :   0.8630 B(  0-C , 15-H ) :   0.8627
B(  0-C , 16-H ) :   1.0719 B(  1-C ,  2-C ) :   0.3167 B(  1-C ,  7-C ) :   1.7171
B(  1-C ,  9-N ) :   0.1349 B(  1-C , 12-H ) :   0.8910 B(  2-C ,  3-C ) :   1.0034
B(  2-C , 17-H ) :   0.8878 B(  2-C , 18-H ) :   1.0154 B(  3-C ,  4-H ) :   0.9126
B(  3-C ,  5-H ) :   0.9464 B(  3-C ,  6-C ) :   0.9766 B(  6-C , 19-F ) :   0.9624
B(  6-C , 20-O ) :   1.5658 B(  7-C ,  8-N ) :   1.0462 B(  7-C ,  9-N ) :   0.9015
B(  7-C , 20-O ) :   0.1011 B(  8-N , 13-H ) :   0.8017 B(  8-N , 14-H ) :   0.9102
B(  9-N , 10-H ) :   0.9856 B(  9-N , 11-H ) :   0.9087 B( 19-F , 20-O ) :   0.1024

Dispersion correction           -0.022828417
FINAL SINGLE POINT ENERGY      -519.401593622011

DIPOLE MOMENT
-------------
                                X             Y             Z
Electronic contribution:      3.49405      -3.52921      -6.43132
Nuclear contribution   :     -4.60158       3.22721       5.56005
                        -----------------------------------------
Total Dipole Moment    :     -1.10753      -0.30200      -0.87127
                        -----------------------------------------
Magnitude (a.u.)       :      1.44116
Magnitude (Debye)      :      3.66313

Rotational constants in cm-1:     0.061224     0.042534     0.033552
Rotational constants in MHz :  1835.464095  1275.135177  1005.856966

                             ****ORCA TERMINATED NORMALLY****
TOTAL RUN TIME: 0 days 0 hours 0 minutes 42 seconds 280 msec
