                         Program Version 5.0.0 -  RELEASE  -
|  1> !PBE D3BJ RIJCOSX def2-TZVPD def2/J TightSCF xyzfile
|  2>
|  3> *xyzfile 0 1 D2.xyz
|  4>
|  5> %MaxCore 64000
|  6>
|  7> %pal nprocs 4
|  8> end
|  9>
| 10> %scf
| 11>   MaxIter 150
| 12> end
| 13>
| 14>
| 15>                          ****END OF INPUT****

CARTESIAN COORDINATES (ANGSTROEM)
---------------------------------
  C      3.905947    2.819855   -3.752920
  N      5.295615    3.131515   -4.105334
  C      3.803511    1.374716   -3.260807
  C      3.939934    0.320362   -4.367729
  H      4.105043   -0.655085   -3.907733
  H      3.022801    0.280517   -4.957117
  C      5.105846    0.668022   -5.305463
  C      5.708619    3.468885   -5.324190
  C      6.904696    3.038954   -5.717084
  N      4.981884    4.293570   -6.097457
  H      5.000546    4.101311   -7.087761
  H      4.084693    4.596899   -5.739652
  H      5.963358    2.526112   -3.642391
  H      7.047164    2.066861   -5.473604
  H      7.198145    3.307994   -6.645225
  H      3.282025    2.949187   -4.640259
  H      3.565254    3.514574   -2.982523
  H      4.574833    1.215157   -2.500443
  H      2.843514    1.260845   -2.751465
  F      4.809132    1.150187   -6.414361
  O      6.267366    0.564999   -4.819481

 Total Charge           Charge          ....    0
 Multiplicity           Mult            ....    1
 Number of Electrons    NEL             ....   78
 Basis Dimension        Dim             ....  475

ORBITAL ENERGIES
----------------

  NO   OCC          E(Eh)            E(eV)
   0   2.0000     -24.334433      -662.1736
   1   2.0000     -18.756065      -510.3785
   2   2.0000     -13.990496      -380.7007
   3   2.0000     -13.985652      -380.5689
   4   2.0000     -10.055533      -273.6250
   5   2.0000      -9.928901      -270.1791
   6   2.0000      -9.919569      -269.9252
   7   2.0000      -9.914128      -269.7771
   8   2.0000      -9.912563      -269.7345
   9   2.0000      -9.780013      -266.1277
  10   2.0000      -1.228096       -33.4182
  11   2.0000      -0.951333       -25.8871
  12   2.0000      -0.889345       -24.2003
  13   2.0000      -0.813894       -22.1472
  14   2.0000      -0.746964       -20.3259
  15   2.0000      -0.676268       -18.4022
  16   2.0000      -0.633917       -17.2497
  17   2.0000      -0.601370       -16.3641
  18   2.0000      -0.562437       -15.3047
  19   2.0000      -0.540654       -14.7119
  20   2.0000      -0.502612       -13.6768
  21   2.0000      -0.490130       -13.3371
  22   2.0000      -0.479142       -13.0381
  23   2.0000      -0.457658       -12.4535
  24   2.0000      -0.448534       -12.2052
  25   2.0000      -0.433390       -11.7932
  26   2.0000      -0.422256       -11.4902
  27   2.0000      -0.394533       -10.7358
  28   2.0000      -0.372915       -10.1475
  29   2.0000      -0.361532        -9.8378
  30   2.0000      -0.347996        -9.4695
  31   2.0000      -0.345754        -9.4084
  32   2.0000      -0.326166        -8.8754
  33   2.0000      -0.324794        -8.8381
  34   2.0000      -0.304472        -8.2851
  35   2.0000      -0.293251        -7.9798
  36   2.0000      -0.237390        -6.4597
  37   2.0000      -0.220391        -5.9971
  38   2.0000      -0.138455        -3.7675
  39   0.0000      -0.077414        -2.1065
  40   0.0000      -0.024402        -0.6640
  41   0.0000      -0.005594        -0.1522
  42   0.0000       0.002572         0.0700
  43   0.0000       0.008815         0.2399

MULLIKEN ATOMIC CHARGES
-----------------------
   0 C :   -0.388226
   1 N :   -0.098061
   2 C :   -0.362029
   3 C :   -0.195840
   4 H :    0.136011
   5 H :    0.195570
   6 C :    0.642479
   7 C :    0.219574
   8 C :   -1.082584
   9 N :   -0.340455
  10 H :    0.173375
  11 H :    0.182649
  12 H :    0.259965
  13 H :    0.542212
  14 H :    0.221876
  15 H :    0.247849
  16 H :    0.052129
  17 H :    0.205525
  18 H :    0.082947
  19 F :   -0.200483
  20 O :   -0.494484
Sum of atomic charges:   -0.0000000

LOEWDIN ATOMIC CHARGES
----------------------
   0 C :   -0.186853
   1 N :    0.049688
   2 C :   -0.176788
   3 C :   -0.091598
   4 H :    0.123307
   5 H :    0.114037
   6 C :   -0.503032
   7 C :   -0.598033
   8 C :    0.006030
   9 N :    0.144571
  10 H :    0.105009
  11 H :    0.088022
  12 H :    0.131023
  13 H :   -0.010687
  14 H :    0.019956
  15 H :    0.114779
  16 H :    0.112970
  17 H :    0.120392
  18 H :    0.113182
  19 F :    0.252698
  20 O :    0.071324

  Mayer bond orders larger than 0.100000
B(  0-C ,  1-N ) :   0.8731 B(  0-C ,  2-C ) :   0.9949 B(  0-C ,  7-C ) :  -0.1015
B(  0-C ,  9-N ) :   0.1199 B(  0-C , 15-H ) :   0.8935 B(  0-C , 16-H ) :   1.0758
B(  1-N ,  7-C ) :   1.0709 B(  1-N , 12-H ) :   0.7953 B(  2-C ,  3-C ) :   0.9689
B(  2-C , 17-H ) :   0.9042 B(  2-C , 18-H ) :   1.0258 B(  3-C ,  4-H ) :   0.9290
B(  3-C ,  5-H ) :   0.9466 B(  3-C ,  6-C ) :   0.9838 B(  6-C , 19-F ) :   0.9883
B(  6-C , 20-O ) :   1.6744 B(  7-C ,  8-C ) :   1.5716 B(  7-C ,  9-N ) :   0.9161
B(  7-C , 14-H ) :  -0.1264 B(  8-C , 13-H ) :   0.6782 B(  8-C , 14-H ) :   1.2567
B(  9-N , 10-H ) :   0.9430 B(  9-N , 11-H ) :   0.9203 B( 19-F , 20-O ) :   0.1072

Dispersion correction           -0.022717319
FINAL SINGLE POINT ENERGY      -519.371644713786

DIPOLE MOMENT
-------------
                                X             Y             Z
Electronic contribution:      2.16798      -3.72376      -5.18970
Nuclear contribution   :     -4.40347       3.21582       5.36161
                        -----------------------------------------
Total Dipole Moment    :     -2.23549      -0.50795       0.17191
                        -----------------------------------------
Magnitude (a.u.)       :      2.29891
Magnitude (Debye)      :      5.84337

Rotational constants in cm-1:     0.061226     0.043199     0.033926
Rotational constants in MHz :  1835.503528  1295.087558  1017.061512

                             ****ORCA TERMINATED NORMALLY****
TOTAL RUN TIME: 0 days 0 hours 0 minutes 40 seconds 711 msec
