                         Program Version 5.0.0 -  RELEASE  -
|  1> !PBE D3BJ RIJCOSX def2-TZVPD def2/J TightSCF xyzfile
|  2>
|  3> *xyzfile 0 1 D3.xyz
|  4>
|  5> %MaxCore 64000
|  6>
|  7> %pal nprocs 4
|  8> end
|  9>
| 10> %scf
| 11>   MaxIter 150
| 12> end
| 13>
| 14>
| 15>                          ****END OF INPUT****

CARTESIAN COORDINATES (ANGSTROEM)
---------------------------------
  C      3.905947    2.819855   -3.752920
  N      5.295615    3.131515   -4.105334
  C      3.803511    1.374716   -3.260807
  C      3.939934    0.320362   -4.367729
  H      4.105043   -0.655085   -3.907733
  H      3.022801    0.280517   -4.957117
  C      5.105846    0.668022   -5.305463
  C      5.708619    3.468885   -5.324190
  N      6.904696    3.038954   -5.717084
  C      4.981884    4.293570   -6.097457
  H      5.000546    4.101311   -7.087761
  H      4.084693    4.596899   -5.739652
  H      5.963358    2.526112   -3.642391
  H      7.047164    2.066861   -5.473604
  H      7.198145    3.307994   -6.645225
  H      3.282025    2.949187   -4.640259
  H      3.565254    3.514574   -2.982523
  H      4.574833    1.215157   -2.500443
  H      2.843514    1.260845   -2.751465
  F      4.809132    1.150187   -6.414361
  O      6.267366    0.564999   -4.819481

 Total Charge           Charge          ....    0
 Multiplicity           Mult            ....    1
 Number of Electrons    NEL             ....   78
 Basis Dimension        Dim             ....  475

ORBITAL ENERGIES
----------------

  NO   OCC          E(Eh)            E(eV)
   0   2.0000     -24.344826      -662.4564
   1   2.0000     -18.773087      -510.8417
   2   2.0000     -13.993044      -380.7701
   3   2.0000     -13.967077      -380.0635
   4   2.0000     -10.070139      -274.0224
   5   2.0000      -9.926122      -270.1035
   6   2.0000      -9.925161      -270.0774
   7   2.0000      -9.916265      -269.8353
   8   2.0000      -9.914042      -269.7748
   9   2.0000      -9.796150      -266.5668
  10   2.0000      -1.238245       -33.6944
  11   2.0000      -0.968811       -26.3627
  12   2.0000      -0.890592       -24.2342
  13   2.0000      -0.811514       -22.0824
  14   2.0000      -0.746556       -20.3148
  15   2.0000      -0.671588       -18.2748
  16   2.0000      -0.637038       -17.3347
  17   2.0000      -0.614986       -16.7346
  18   2.0000      -0.574278       -15.6269
  19   2.0000      -0.515129       -14.0174
  20   2.0000      -0.512651       -13.9499
  21   2.0000      -0.498399       -13.5621
  22   2.0000      -0.482407       -13.1270
  23   2.0000      -0.465253       -12.6602
  24   2.0000      -0.452666       -12.3177
  25   2.0000      -0.434879       -11.8337
  26   2.0000      -0.426017       -11.5925
  27   2.0000      -0.390712       -10.6318
  28   2.0000      -0.379189       -10.3182
  29   2.0000      -0.365307        -9.9405
  30   2.0000      -0.347642        -9.4598
  31   2.0000      -0.345286        -9.3957
  32   2.0000      -0.334423        -9.1001
  33   2.0000      -0.328466        -8.9380
  34   2.0000      -0.317938        -8.6515
  35   2.0000      -0.291625        -7.9355
  36   2.0000      -0.265830        -7.2336
  37   2.0000      -0.214354        -5.8329
  38   2.0000      -0.144455        -3.9308
  39   0.0000      -0.090172        -2.4537
  40   0.0000      -0.020403        -0.5552
  41   0.0000       0.001253         0.0341
  42   0.0000       0.003962         0.1078
  43   0.0000       0.011268         0.3066

MULLIKEN ATOMIC CHARGES
-----------------------
   0 C :   -0.345264
   1 N :   -0.042331
   2 C :   -0.407863
   3 C :   -0.206373
   4 H :    0.140946
   5 H :    0.198627
   6 C :    0.719690
   7 C :    0.103475
   8 N :   -0.260391
   9 C :   -1.205241
  10 H :    0.300770
  11 H :    0.329980
  12 H :    0.300881
  13 H :    0.293017
  14 H :    0.186032
  15 H :    0.259463
  16 H :    0.074388
  17 H :    0.208372
  18 H :    0.072531
  19 F :   -0.167815
  20 O :   -0.552891
Sum of atomic charges:   -0.0000000

LOEWDIN ATOMIC CHARGES
----------------------
   0 C :   -0.177871
   1 N :    0.049879
   2 C :   -0.174870
   3 C :   -0.088737
   4 H :    0.124181
   5 H :    0.116647
   6 C :   -0.496671
   7 C :   -0.607582
   8 N :    0.145056
   9 C :    0.008208
  10 H :    0.009798
  11 H :    0.003061
  12 H :    0.127065
  13 H :    0.053772
  14 H :    0.109821
  15 H :    0.119001
  16 H :    0.117652
  17 H :    0.118569
  18 H :    0.115132
  19 F :    0.261349
  20 O :    0.066540

  Mayer bond orders larger than 0.100000
B(  0-C ,  1-N ) :   0.8659 B(  0-C ,  2-C ) :   0.9923 B(  0-C ,  9-C ) :   0.1145
B(  0-C , 15-H ) :   0.8949 B(  0-C , 16-H ) :   1.0280 B(  1-N ,  7-C ) :   1.1442
B(  1-N , 12-H ) :   0.7346 B(  2-C ,  3-C ) :   0.9588 B(  2-C ,  6-C ) :   0.1064
B(  2-C , 17-H ) :   0.8986 B(  2-C , 18-H ) :   1.0341 B(  3-C ,  4-H ) :   0.9248
B(  3-C ,  5-H ) :   0.9441 B(  3-C ,  6-C ) :   1.0035 B(  6-C , 19-F ) :   1.0212
B(  6-C , 20-O ) :   1.5280 B(  7-C ,  8-N ) :   0.9937 B(  7-C ,  9-C ) :   1.4806
B(  8-N ,  9-C ) :   0.1371 B(  8-N , 13-H ) :   0.7732 B(  8-N , 14-H ) :   0.9029
B(  9-C , 10-H ) :   0.9543 B(  9-C , 11-H ) :   0.9572 B( 19-F , 20-O ) :   0.1039

Dispersion correction           -0.022710818
FINAL SINGLE POINT ENERGY      -519.389906846582

DIPOLE MOMENT
-------------
                                X             Y             Z
Electronic contribution:      3.63530      -4.79071      -4.87927
Nuclear contribution   :     -4.64021       3.37029       5.31478
                        -----------------------------------------
Total Dipole Moment    :     -1.00491      -1.42043       0.43551
                        -----------------------------------------
Magnitude (a.u.)       :      1.79364
Magnitude (Debye)      :      4.55906

Rotational constants in cm-1:     0.061077     0.043622     0.034103
Rotational constants in MHz :  1831.041375  1307.759852  1022.388536

                             ****ORCA TERMINATED NORMALLY****
TOTAL RUN TIME: 0 days 0 hours 0 minutes 45 seconds 831 msec
