                         Program Version 5.0.0 -  RELEASE  -
|  1> !PBE D3BJ RIJCOSX def2-TZVPD def2/J TightSCF xyzfile
|  2>
|  3> *xyzfile 0 1 D4.xyz
|  4>
|  5> %MaxCore 64000
|  6>
|  7> %pal nprocs 4
|  8> end
|  9>
| 10> %scf
| 11>   MaxIter 150
| 12> end
| 13>
| 14>
| 15>                          ****END OF INPUT****

CARTESIAN COORDINATES (ANGSTROEM)
---------------------------------
  C      3.905947    2.819855   -3.752920
  C      5.295615    3.131515   -4.105334
  C      3.803511    1.374716   -3.260807
  C      3.939934    0.320362   -4.367729
  H      4.105043   -0.655085   -3.907733
  H      3.022801    0.280517   -4.957117
  C      5.105846    0.668022   -5.305463
  C      5.708619    3.468885   -5.324190
  N      6.904696    3.038954   -5.717084
  N      4.981884    4.293570   -6.097457
  H      5.000546    4.101311   -7.087761
  H      4.084693    4.596899   -5.739652
  H      5.963358    2.526112   -3.642391
  H      7.047164    2.066861   -5.473604
  H      7.198145    3.307994   -6.645225
  H      3.282025    2.949187   -4.640259
  H      3.565254    3.514574   -2.982523
  H      4.574833    1.215157   -2.500443
  H      2.843514    1.260845   -2.751465
  O      4.809132    1.150187   -6.414361
  F      6.267366    0.564999   -4.819481

 Total Charge           Charge          ....    0
 Multiplicity           Mult            ....    1
 Number of Electrons    NEL             ....   78
 Basis Dimension        Dim             ....  475

ORBITAL ENERGIES
----------------

  NO   OCC          E(Eh)            E(eV)
   0   2.0000     -24.329471      -662.0386
   1   2.0000     -18.750037      -510.2144
   2   2.0000     -13.989091      -380.6625
   3   2.0000     -13.978255      -380.3677
   4   2.0000     -10.044646      -273.3287
   5   2.0000      -9.921511      -269.9780
   6   2.0000      -9.904257      -269.5085
   7   2.0000      -9.889037      -269.0944
   8   2.0000      -9.870210      -268.5821
   9   2.0000      -9.815179      -267.0846
  10   2.0000      -1.219110       -33.1737
  11   2.0000      -0.950360       -25.8606
  12   2.0000      -0.882478       -24.0134
  13   2.0000      -0.799583       -21.7578
  14   2.0000      -0.743108       -20.2210
  15   2.0000      -0.680925       -18.5289
  16   2.0000      -0.628022       -17.0893
  17   2.0000      -0.594457       -16.1760
  18   2.0000      -0.550102       -14.9690
  19   2.0000      -0.531753       -14.4697
  20   2.0000      -0.495521       -13.4838
  21   2.0000      -0.484087       -13.1727
  22   2.0000      -0.476530       -12.9670
  23   2.0000      -0.458669       -12.4810
  24   2.0000      -0.442521       -12.0416
  25   2.0000      -0.421877       -11.4799
  26   2.0000      -0.414216       -11.2714
  27   2.0000      -0.394119       -10.7245
  28   2.0000      -0.380801       -10.3621
  29   2.0000      -0.347105        -9.4452
  30   2.0000      -0.340755        -9.2724
  31   2.0000      -0.329637        -8.9699
  32   2.0000      -0.319931        -8.7058
  33   2.0000      -0.303809        -8.2671
  34   2.0000      -0.294710        -8.0195
  35   2.0000      -0.287245        -7.8163
  36   2.0000      -0.243309        -6.6208
  37   2.0000      -0.224994        -6.1224
  38   2.0000      -0.147646        -4.0176
  39   0.0000      -0.062970        -1.7135
  40   0.0000      -0.015590        -0.4242
  41   0.0000      -0.001498        -0.0408
  42   0.0000       0.007404         0.2015
  43   0.0000       0.012433         0.3383

MULLIKEN ATOMIC CHARGES
-----------------------
   0 C :    0.257554
   1 C :   -0.657897
   2 C :   -0.543815
   3 C :   -0.247703
   4 H :    0.171771
   5 H :    0.164936
   6 C :    0.666773
   7 C :   -0.223454
   8 N :   -0.244227
   9 N :   -0.308548
  10 H :    0.129425
  11 H :    0.205417
  12 H :    0.474916
  13 H :    0.246443
  14 H :    0.158702
  15 H :    0.229319
  16 H :   -0.057300
  17 H :    0.223940
  18 H :    0.076664
  19 O :   -0.483659
  20 F :   -0.239256
Sum of atomic charges:   -0.0000000

LOEWDIN ATOMIC CHARGES
----------------------
   0 C :   -0.221182
   1 C :   -0.133982
   2 C :   -0.194297
   3 C :   -0.091755
   4 H :    0.115487
   5 H :    0.121283
   6 C :   -0.518751
   7 C :   -0.576393
   8 N :    0.150454
   9 N :    0.162536
  10 H :    0.099527
  11 H :    0.101700
  12 H :    0.069819
  13 H :    0.078098
  14 H :    0.105193
  15 H :    0.109771
  16 H :    0.105455
  17 H :    0.116090
  18 H :    0.109856
  19 O :    0.098825
  20 F :    0.192265

  Mayer bond orders larger than 0.100000
B(  0-C ,  1-C ) :   0.6343 B(  0-C ,  2-C ) :   0.8158 B(  0-C , 15-H ) :   0.8495
B(  0-C , 16-H ) :   1.0743 B(  1-C ,  2-C ) :   0.3922 B(  1-C ,  7-C ) :   1.6828
B(  1-C ,  9-N ) :   0.1514 B(  1-C , 12-H ) :   0.8342 B(  2-C ,  3-C ) :   1.0106
B(  2-C , 17-H ) :   0.9061 B(  2-C , 18-H ) :   1.0143 B(  3-C ,  4-H ) :   0.9203
B(  3-C ,  5-H ) :   0.9457 B(  3-C ,  6-C ) :   0.9915 B(  6-C , 19-O ) :   1.6683
B(  6-C , 20-F ) :   0.8676 B(  7-C ,  8-N ) :   1.0666 B(  7-C ,  9-N ) :   0.9276
B(  8-N , 13-H ) :   0.8510 B(  8-N , 14-H ) :   0.8928 B(  9-N , 10-H ) :   0.9735
B(  9-N , 11-H ) :   0.9063

Dispersion correction           -0.022865208
FINAL SINGLE POINT ENERGY      -519.401817271093

DIPOLE MOMENT
-------------
                                X             Y             Z
Electronic contribution:      5.89427      -4.39001      -3.91292
Nuclear contribution   :     -6.25608       3.89116       3.75052
                        -----------------------------------------
Total Dipole Moment    :     -0.36181      -0.49885      -0.16239
                        -----------------------------------------
Magnitude (a.u.)       :      0.63728
Magnitude (Debye)      :      1.61984

Rotational constants in cm-1:     0.061229     0.042568     0.033282
Rotational constants in MHz :  1835.590871  1276.154029   997.769927

                             ****ORCA TERMINATED NORMALLY****
TOTAL RUN TIME: 0 days 0 hours 0 minutes 42 seconds 875 msec
