                         Program Version 5.0.0 -  RELEASE  -
|  1> !PBE D3BJ RIJCOSX def2-TZVPD def2/J TightSCF xyzfile
|  2>
|  3> *xyzfile 0 1 D5.xyz
|  4>
|  5> %MaxCore 64000
|  6>
|  7> %pal nprocs 4
|  8> end
|  9>
| 10> %scf
| 11>   MaxIter 150
| 12> end
| 13>
| 14>
| 15>                          ****END OF INPUT****

CARTESIAN COORDINATES (ANGSTROEM)
---------------------------------
  C      3.905947    2.819855   -3.752920
  N      5.295615    3.131515   -4.105334
  C      3.803511    1.374716   -3.260807
  C      3.939934    0.320362   -4.367729
  H      4.105043   -0.655085   -3.907733
  H      3.022801    0.280517   -4.957117
  C      5.105846    0.668022   -5.305463
  C      5.708619    3.468885   -5.324190
  C      6.904696    3.038954   -5.717084
  N      4.981884    4.293570   -6.097457
  H      5.000546    4.101311   -7.087761
  H      4.084693    4.596899   -5.739652
  H      5.963358    2.526112   -3.642391
  H      7.047164    2.066861   -5.473604
  H      7.198145    3.307994   -6.645225
  H      3.282025    2.949187   -4.640259
  H      3.565254    3.514574   -2.982523
  H      4.574833    1.215157   -2.500443
  H      2.843514    1.260845   -2.751465
  O      4.809132    1.150187   -6.414361
  F      6.267366    0.564999   -4.819481

 Total Charge           Charge          ....    0
 Multiplicity           Mult            ....    1
 Number of Electrons    NEL             ....   78
 Basis Dimension        Dim             ....  475

ORBITAL ENERGIES
----------------

  NO   OCC          E(Eh)            E(eV)
   0   2.0000     -24.327311      -661.9798
   1   2.0000     -18.755919      -510.3745
   2   2.0000     -13.995881      -380.8473
   3   2.0000     -13.983210      -380.5025
   4   2.0000     -10.048807      -273.4419
   5   2.0000      -9.928402      -270.1655
   6   2.0000      -9.917387      -269.8658
   7   2.0000      -9.916601      -269.8444
   8   2.0000      -9.913734      -269.7664
   9   2.0000      -9.786004      -266.2907
  10   2.0000      -1.217475       -33.1292
  11   2.0000      -0.954645       -25.9772
  12   2.0000      -0.891130       -24.2489
  13   2.0000      -0.813692       -22.1417
  14   2.0000      -0.747034       -20.3278
  15   2.0000      -0.676180       -18.3998
  16   2.0000      -0.634845       -17.2750
  17   2.0000      -0.596394       -16.2287
  18   2.0000      -0.563620       -15.3369
  19   2.0000      -0.544287       -14.8108
  20   2.0000      -0.497861       -13.5475
  21   2.0000      -0.493761       -13.4359
  22   2.0000      -0.469885       -12.7862
  23   2.0000      -0.452906       -12.3242
  24   2.0000      -0.448485       -12.2039
  25   2.0000      -0.436698       -11.8832
  26   2.0000      -0.419306       -11.4099
  27   2.0000      -0.394423       -10.7328
  28   2.0000      -0.373498       -10.1634
  29   2.0000      -0.361034        -9.8242
  30   2.0000      -0.347899        -9.4668
  31   2.0000      -0.338499        -9.2110
  32   2.0000      -0.331123        -9.0103
  33   2.0000      -0.323198        -8.7947
  34   2.0000      -0.317661        -8.6440
  35   2.0000      -0.283494        -7.7143
  36   2.0000      -0.244597        -6.6558
  37   2.0000      -0.223319        -6.0768
  38   2.0000      -0.139563        -3.7977
  39   0.0000      -0.068844        -1.8733
  40   0.0000      -0.022428        -0.6103
  41   0.0000      -0.006743        -0.1835
  42   0.0000       0.004336         0.1180
  43   0.0000       0.009195         0.2502

MULLIKEN ATOMIC CHARGES
-----------------------
   0 C :   -0.296024
   1 N :   -0.113238
   2 C :   -0.447200
   3 C :   -0.166606
   4 H :    0.163197
   5 H :    0.169249
   6 C :    0.578023
   7 C :    0.251539
   8 C :   -0.952334
   9 N :   -0.338694
  10 H :    0.168803
  11 H :    0.181604
  12 H :    0.240676
  13 H :    0.418367
  14 H :    0.217685
  15 H :    0.235355
  16 H :    0.047956
  17 H :    0.210929
  18 H :    0.082524
  19 O :   -0.438548
  20 F :   -0.213263
Sum of atomic charges:    0.0000000

LOEWDIN ATOMIC CHARGES
----------------------
   0 C :   -0.184851
   1 N :    0.050329
   2 C :   -0.180418
   3 C :   -0.091678
   4 H :    0.117370
   5 H :    0.122071
   6 C :   -0.517849
   7 C :   -0.594720
   8 C :    0.003089
   9 N :    0.154493
  10 H :    0.109122
  11 H :    0.090573
  12 H :    0.128492
  13 H :   -0.000168
  14 H :    0.022765
  15 H :    0.118335
  16 H :    0.113210
  17 H :    0.116666
  18 H :    0.112963
  19 O :    0.117899
  20 F :    0.192308

  Mayer bond orders larger than 0.100000
B(  0-C ,  1-N ) :   0.8942 B(  0-C ,  2-C ) :   0.9902 B(  0-C ,  9-N ) :   0.1149
B(  0-C , 15-H ) :   0.8740 B(  0-C , 16-H ) :   1.0804 B(  1-N ,  7-C ) :   1.0478
B(  1-N , 12-H ) :   0.8093 B(  2-C ,  3-C ) :   0.9608 B(  2-C ,  6-C ) :   0.1097
B(  2-C , 17-H ) :   0.9193 B(  2-C , 18-H ) :   1.0244 B(  3-C ,  4-H ) :   0.9373
B(  3-C ,  5-H ) :   0.9455 B(  3-C ,  6-C ) :   0.9973 B(  6-C , 19-O ) :   1.7150
B(  6-C , 20-F ) :   0.9197 B(  7-C ,  8-C ) :   1.6225 B(  7-C ,  9-N ) :   0.9410
B(  7-C , 14-H ) :  -0.1219 B(  8-C , 13-H ) :   0.7591 B(  8-C , 14-H ) :   1.2120
B(  9-N , 10-H ) :   0.9345 B(  9-N , 11-H ) :   0.9162 B( 13-H , 14-H ) :   0.1030

Dispersion correction           -0.022754392
FINAL SINGLE POINT ENERGY      -519.376423284625

DIPOLE MOMENT
-------------
                                X             Y             Z
Electronic contribution:      4.49110      -4.57918      -2.64607
Nuclear contribution   :     -6.05797       3.87976       3.55209
                        -----------------------------------------
Total Dipole Moment    :     -1.56686      -0.69941       0.90602
                        -----------------------------------------
Magnitude (a.u.)       :      1.94039
Magnitude (Debye)      :      4.93208

Rotational constants in cm-1:     0.061282     0.043164     0.033679
Rotational constants in MHz :  1837.191639  1294.028651  1009.659886

                             ****ORCA TERMINATED NORMALLY****
TOTAL RUN TIME: 0 days 0 hours 0 minutes 44 seconds 561 msec
