                         Program Version 5.0.0 -  RELEASE  -
|  1> !PBE D3BJ RIJCOSX def2-TZVPD def2/J TightSCF xyzfile
|  2>
|  3> *xyzfile 0 1 D6.xyz
|  4>
|  5> %MaxCore 64000
|  6>
|  7> %pal nprocs 4
|  8> end
|  9>
| 10> %scf
| 11>   MaxIter 150
| 12> end
| 13>
| 14>
| 15>                          ****END OF INPUT****

CARTESIAN COORDINATES (ANGSTROEM)
---------------------------------
  C      3.905947    2.819855   -3.752920
  N      5.295615    3.131515   -4.105334
  C      3.803511    1.374716   -3.260807
  C      3.939934    0.320362   -4.367729
  H      4.105043   -0.655085   -3.907733
  H      3.022801    0.280517   -4.957117
  C      5.105846    0.668022   -5.305463
  C      5.708619    3.468885   -5.324190
  N      6.904696    3.038954   -5.717084
  C      4.981884    4.293570   -6.097457
  H      5.000546    4.101311   -7.087761
  H      4.084693    4.596899   -5.739652
  H      5.963358    2.526112   -3.642391
  H      7.047164    2.066861   -5.473604
  H      7.198145    3.307994   -6.645225
  H      3.282025    2.949187   -4.640259
  H      3.565254    3.514574   -2.982523
  H      4.574833    1.215157   -2.500443
  H      2.843514    1.260845   -2.751465
  O      4.809132    1.150187   -6.414361
  F      6.267366    0.564999   -4.819481

 Total Charge           Charge          ....    0
 Multiplicity           Mult            ....    1
 Number of Electrons    NEL             ....   78
 Basis Dimension        Dim             ....  475

ORBITAL ENERGIES
----------------

  NO   OCC          E(Eh)            E(eV)
   0   2.0000     -24.342759      -662.4001
   1   2.0000     -18.762915      -510.5649
   2   2.0000     -13.999281      -380.9398
   3   2.0000     -13.975464      -380.2917
   4   2.0000     -10.053548      -273.5709
   5   2.0000      -9.925277      -270.0805
   6   2.0000      -9.919666      -269.9278
   7   2.0000      -9.918399      -269.8934
   8   2.0000      -9.913125      -269.7498
   9   2.0000      -9.797679      -266.6084
  10   2.0000      -1.232853       -33.5476
  11   2.0000      -0.960969       -26.1493
  12   2.0000      -0.895499       -24.3678
  13   2.0000      -0.815789       -22.1987
  14   2.0000      -0.744678       -20.2637
  15   2.0000      -0.670477       -18.2446
  16   2.0000      -0.637862       -17.3571
  17   2.0000      -0.615281       -16.7427
  18   2.0000      -0.574528       -15.6337
  19   2.0000      -0.519888       -14.1469
  20   2.0000      -0.513711       -13.9788
  21   2.0000      -0.503636       -13.7046
  22   2.0000      -0.472082       -12.8460
  23   2.0000      -0.457352       -12.4452
  24   2.0000      -0.450103       -12.2479
  25   2.0000      -0.434508       -11.8236
  26   2.0000      -0.430208       -11.7066
  27   2.0000      -0.385730       -10.4962
  28   2.0000      -0.376601       -10.2478
  29   2.0000      -0.361444        -9.8354
  30   2.0000      -0.348647        -9.4872
  31   2.0000      -0.343702        -9.3526
  32   2.0000      -0.337535        -9.1848
  33   2.0000      -0.325132        -8.8473
  34   2.0000      -0.319639        -8.6978
  35   2.0000      -0.290750        -7.9117
  36   2.0000      -0.250647        -6.8204
  37   2.0000      -0.218890        -5.9563
  38   2.0000      -0.146915        -3.9978
  39   0.0000      -0.073839        -2.0092
  40   0.0000      -0.023278        -0.6334
  41   0.0000       0.001353         0.0368
  42   0.0000       0.003382         0.0920
  43   0.0000       0.011880         0.3233

MULLIKEN ATOMIC CHARGES
-----------------------
   0 C :   -0.234121
   1 N :   -0.050054
   2 C :   -0.501533
   3 C :   -0.175844
   4 H :    0.166418
   5 H :    0.166852
   6 C :    0.609368
   7 C :    0.232263
   8 N :   -0.255195
   9 C :   -1.205677
  10 H :    0.288578
  11 H :    0.323493
  12 H :    0.267120
  13 H :    0.256025
  14 H :    0.187406
  15 H :    0.236692
  16 H :    0.067533
  17 H :    0.217929
  18 H :    0.070482
  19 O :   -0.417599
  20 F :   -0.250137
Sum of atomic charges:    0.0000000

LOEWDIN ATOMIC CHARGES
----------------------
   0 C :   -0.175205
   1 N :    0.050298
   2 C :   -0.179770
   3 C :   -0.091365
   4 H :    0.116885
   5 H :    0.123882
   6 C :   -0.520516
   7 C :   -0.604910
   8 N :    0.146196
   9 C :    0.022724
  10 H :    0.017220
  11 H :    0.007676
  12 H :    0.124824
  13 H :    0.068714
  14 H :    0.113004
  15 H :    0.122944
  16 H :    0.117685
  17 H :    0.114200
  18 H :    0.114369
  19 O :    0.123232
  20 F :    0.187915

  Mayer bond orders larger than 0.100000
B(  0-C ,  1-N ) :   0.8956 B(  0-C ,  2-C ) :   0.9839 B(  0-C ,  9-C ) :   0.1033
B(  0-C , 15-H ) :   0.8712 B(  0-C , 16-H ) :   1.0377 B(  1-N ,  7-C ) :   1.1462
B(  1-N , 12-H ) :   0.7360 B(  2-C ,  3-C ) :   0.9484 B(  2-C ,  6-C ) :   0.1197
B(  2-C , 17-H ) :   0.9090 B(  2-C , 18-H ) :   1.0377 B(  3-C ,  4-H ) :   0.9378
B(  3-C ,  5-H ) :   0.9431 B(  3-C ,  6-C ) :   1.0166 B(  6-C , 19-O ) :   1.7164
B(  6-C , 20-F ) :   0.8481 B(  7-C ,  8-N ) :   0.9754 B(  7-C ,  9-C ) :   1.4448
B(  8-N ,  9-C ) :   0.1500 B(  8-N , 13-H ) :   0.8149 B(  8-N , 14-H ) :   0.8859
B(  9-C , 10-H ) :   0.9652 B(  9-C , 11-H ) :   0.9510

Dispersion correction           -0.022754360
FINAL SINGLE POINT ENERGY      -519.386861635249

DIPOLE MOMENT
-------------
                                X             Y             Z
Electronic contribution:      6.00625      -5.53020      -2.37163
Nuclear contribution   :     -6.29470       4.03423       3.50525
                        -----------------------------------------
Total Dipole Moment    :     -0.28845      -1.49597       1.13363
                        -----------------------------------------
Magnitude (a.u.)       :      1.89901
Magnitude (Debye)      :      4.82691

Rotational constants in cm-1:     0.061094     0.043661     0.033867
Rotational constants in MHz :  1831.559881  1308.929520  1015.295167

                             ****ORCA TERMINATED NORMALLY****
TOTAL RUN TIME: 0 days 0 hours 0 minutes 44 seconds 887 msec
