                         Program Version 5.0.0 -  RELEASE  -
|  1> !wB97X-D3 RIJCOSX def2-SVPD def2/J TightSCF
|  2> *xyz -1 1
|  3> C         -0.01741        0.08059       -2.77841
|  4> C         -0.90349       -0.87394       -1.98739
|  5> H         -0.50255       -1.89210       -2.08120
|  6> H         -1.91704       -0.89543       -2.40628
|  7> C         -0.96015       -0.52236       -0.48987
|  8> H         -1.69039       -1.20813       -0.02168
|  9> H         -1.41449        0.48633       -0.40668
| 10> O          0.26170       -0.58031        0.13861
| 11> H         -0.01329       -0.20776       -3.80881
| 12> H          0.98025        0.04284       -2.39348
| 13> H         -0.39697        1.07694       -2.68836
| 14> *
| 15>
| 16> %MaxCore 64000
| 17>
| 18> %pal nprocs 18
| 19> end
| 20>
| 21> %scf
| 22>   MaxIter 150
| 23> end
| 24>
| 25>
| 26>                          ****END OF INPUT****

CARTESIAN COORDINATES (ANGSTROEM)
---------------------------------
  C     -0.017410    0.080590   -2.778410
  C     -0.903490   -0.873940   -1.987390
  H     -0.502550   -1.892100   -2.081200
  H     -1.917040   -0.895430   -2.406280
  C     -0.960150   -0.522360   -0.489870
  H     -1.690390   -1.208130   -0.021680
  H     -1.414490    0.486330   -0.406680
  O      0.261700   -0.580310    0.138610
  H     -0.013290   -0.207760   -3.808810
  H      0.980250    0.042840   -2.393480
  H     -0.396970    1.076940   -2.688360

 Total Charge           Charge          ....   -1
 Multiplicity           Mult            ....    1
 Number of Electrons    NEL             ....   34
 Basis Dimension        Dim             ....  139

ORBITAL ENERGIES
----------------

  NO   OCC          E(Eh)            E(eV)
   0   2.0000     -18.911131      -514.5980
   1   2.0000     -10.107242      -275.0320
   2   2.0000     -10.104787      -274.9652
   3   2.0000     -10.098844      -274.8035
   4   2.0000      -0.786220       -21.3941
   5   2.0000      -0.693899       -18.8820
   6   2.0000      -0.573853       -15.6153
   7   2.0000      -0.469679       -12.7806
   8   2.0000      -0.376226       -10.2376
   9   2.0000      -0.368358       -10.0235
  10   2.0000      -0.317838        -8.6488
  11   2.0000      -0.283689        -7.7196
  12   2.0000      -0.256285        -6.9739
  13   2.0000      -0.247612        -6.7379
  14   2.0000      -0.205563        -5.5936
  15   2.0000      -0.063843        -1.7373
  16   2.0000      -0.060336        -1.6418
  17   0.0000       0.232665         6.3311
  18   0.0000       0.257484         7.0065
  19   0.0000       0.274324         7.4647
  20   0.0000       0.307330         8.3629
  21   0.0000       0.323866         8.8128

MULLIKEN ATOMIC CHARGES
-----------------------
   0 C :    0.565651
   1 C :   -0.499228
   2 H :   -0.055012
   3 H :   -0.086939
   4 C :    0.459050
   5 H :   -0.172308
   6 H :   -0.121447
   7 O :   -0.917515
   8 H :   -0.084940
   9 H :   -0.017891
  10 H :   -0.069422
Sum of atomic charges:   -1.0000000

LOEWDIN ATOMIC CHARGES
----------------------
   0 C :    0.082709
   1 C :   -0.118553
   2 H :    0.005289
   3 H :   -0.009410
   4 C :   -0.216846
   5 H :   -0.031082
   6 H :   -0.025693
   7 O :   -0.578257
   8 H :   -0.046544
   9 H :   -0.029310
  10 H :   -0.032303

  Mayer bond orders larger than 0.100000
B(  0-C ,  1-C ) :   1.2442 B(  0-C ,  8-H ) :   0.8110 B(  0-C ,  9-H ) :   0.8450
B(  0-C , 10-H ) :   0.8393 B(  1-C ,  2-H ) :   0.9791 B(  1-C ,  3-H ) :   0.9977
B(  1-C ,  4-C ) :   1.0360 B(  1-C ,  5-H ) :   0.1309 B(  1-C ,  6-H ) :   0.1091
B(  1-C ,  8-H ) :   0.1825 B(  1-C ,  9-H ) :   0.1960 B(  1-C , 10-H ) :   0.1737
B(  2-H ,  4-C ) :   0.1199 B(  4-C ,  5-H ) :   0.9593 B(  4-C ,  6-H ) :   0.9522
B(  4-C ,  7-O ) :   1.1827

Dispersion correction           -0.001939174
FINAL SINGLE POINT ENERGY      -193.554418167457

DIPOLE MOMENT
-------------
                                X             Y             Z
Electronic contribution:      1.15331      -0.48822       2.61170
Nuclear contribution   :     -2.03764       0.64089      -4.61583
                        -----------------------------------------
Total Dipole Moment    :     -0.88434       0.15267      -2.00413
                        -----------------------------------------
Magnitude (a.u.)       :      2.19588
Magnitude (Debye)      :      5.58149

Rotational constants in cm-1:     0.508897     0.174909     0.148249
Rotational constants in MHz : 15256.351998  5243.652192  4444.387232

                             ****ORCA TERMINATED NORMALLY****
TOTAL RUN TIME: 0 days 0 hours 0 minutes 6 seconds 567 msec
