                         Program Version 5.0.0 -  RELEASE  -
|  1> !wB97X-D3 RIJCOSX def2-SVPD def2/J TightSCF
|  2> *xyz 1 1
|  3> C          4.36645       -0.13321       -1.41606
|  4> C          4.50829       -0.93187       -2.72425
|  5> H          4.75372       -1.97205       -2.48841
|  6> C          3.29416       -0.91821       -3.65657
|  7> H          5.38564       -0.53624       -3.24264
|  8> C          3.05650       -0.32080       -0.70738
|  9> N          2.38983        0.71129       -0.24391
| 10> N          2.51600       -1.50772       -0.55023
| 11> H          2.96768       -2.32291       -0.95631
| 12> H          1.54987       -1.49063       -0.24988
| 13> H          2.74307        1.64947       -0.41280
| 14> H          1.44036        0.50278        0.03703
| 15> H          4.48784        0.93300       -1.61157
| 16> H          5.16967       -0.41443       -0.72982
| 17> H          3.50670       -1.50229       -4.52754
| 18> H          3.07837        0.08892       -3.94644
| 19> H          2.44880       -1.33173       -3.14739
| 20> *
| 21>
| 22> %MaxCore 64000
| 23>
| 24> %pal nprocs 18
| 25> end
| 26>
| 27> %scf
| 28>   MaxIter 150
| 29> end
| 30>
| 31>
| 32>                          ****END OF INPUT****

CARTESIAN COORDINATES (ANGSTROEM)
---------------------------------
  C      4.366450   -0.133210   -1.416060
  C      4.508290   -0.931870   -2.724250
  H      4.753720   -1.972050   -2.488410
  C      3.294160   -0.918210   -3.656570
  H      5.385640   -0.536240   -3.242640
  C      3.056500   -0.320800   -0.707380
  N      2.389830    0.711290   -0.243910
  N      2.516000   -1.507720   -0.550230
  H      2.967680   -2.322910   -0.956310
  H      1.549870   -1.490630   -0.249880
  H      2.743070    1.649470   -0.412800
  H      1.440360    0.502780    0.037030
  H      4.487840    0.933000   -1.611570
  H      5.169670   -0.414430   -0.729820
  H      3.506700   -1.502290   -4.527540
  H      3.078370    0.088920   -3.946440
  H      2.448800   -1.331730   -3.147390

 Total Charge           Charge          ....    1
 Multiplicity           Mult            ....    1
 Number of Electrons    NEL             ....   48
 Basis Dimension        Dim             ....  208

ORBITAL ENERGIES
----------------

  NO   OCC          E(Eh)            E(eV)
   0   2.0000     -14.682849      -399.5406
   1   2.0000     -14.681186      -399.4954
   2   2.0000     -10.613029      -288.7952
   3   2.0000     -10.487370      -285.3759
   4   2.0000     -10.454155      -284.4720
   5   2.0000     -10.419573      -283.5310
   6   2.0000      -1.322069       -35.9753
   7   2.0000      -1.212950       -33.0061
   8   2.0000      -1.086411       -29.5627
   9   2.0000      -0.998474       -27.1699
  10   2.0000      -0.936933       -25.4952
  11   2.0000      -0.898009       -24.4361
  12   2.0000      -0.869755       -23.6672
  13   2.0000      -0.837998       -22.8031
  14   2.0000      -0.802857       -21.8469
  15   2.0000      -0.763206       -20.7679
  16   2.0000      -0.732983       -19.9455
  17   2.0000      -0.693848       -18.8806
  18   2.0000      -0.679032       -18.4774
  19   2.0000      -0.659541       -17.9470
  20   2.0000      -0.603693       -16.4273
  21   2.0000      -0.598799       -16.2941
  22   2.0000      -0.590076       -16.0568
  23   2.0000      -0.580617       -15.7994
  24   0.0000      -0.130912        -3.5623
  25   0.0000      -0.081461        -2.2167
  26   0.0000      -0.040879        -1.1124
  27   0.0000      -0.037139        -1.0106
  28   0.0000      -0.008333        -0.2267

MULLIKEN ATOMIC CHARGES
-----------------------
   0 C :    0.173338
   1 C :   -0.456562
   2 H :   -0.003292
   3 C :    0.662526
   4 H :   -0.120019
   5 C :    0.533875
   6 N :    0.022189
   7 N :    0.010865
   8 H :    0.070303
   9 H :   -0.048995
  10 H :    0.044229
  11 H :   -0.043517
  12 H :    0.184605
  13 H :    0.036232
  14 H :   -0.003225
  15 H :    0.007655
  16 H :   -0.070209
Sum of atomic charges:    1.0000000

LOEWDIN ATOMIC CHARGES
----------------------
   0 C :    0.052339
   1 C :   -0.049013
   2 H :    0.025475
   3 C :    0.139722
   4 H :    0.040123
   5 C :   -0.039372
   6 N :    0.276637
   7 N :    0.281841
   8 H :    0.057186
   9 H :    0.047826
  10 H :    0.060505
  11 H :    0.045895
  12 H :    0.038935
  13 H :    0.057371
  14 H :    0.003246
  15 H :   -0.003542
  16 H :   -0.035175

  Mayer bond orders larger than 0.100000
B(  0-C ,  1-C ) :   1.2190 B(  0-C ,  2-H ) :   0.1041 B(  0-C ,  4-H ) :   0.1167
B(  0-C ,  5-C ) :   1.1792 B(  0-C , 12-H ) :   0.7929 B(  0-C , 13-H ) :   0.7853
B(  1-C ,  2-H ) :   0.9305 B(  1-C ,  3-C ) :   1.3283 B(  1-C ,  4-H ) :   1.0027
B(  1-C , 12-H ) :   0.1330 B(  1-C , 13-H ) :   0.1061 B(  1-C , 14-H ) :   0.2016
B(  1-C , 15-H ) :   0.1949 B(  1-C , 16-H ) :   0.1987 B(  3-C , 14-H ) :   0.7851
B(  3-C , 15-H ) :   0.8041 B(  3-C , 16-H ) :   0.8376 B(  5-C ,  6-N ) :   1.0837
B(  5-C ,  7-N ) :   1.1379 B(  5-C ,  9-H ) :  -0.1242 B(  5-C , 12-H ) :   0.1260
B(  5-C , 13-H ) :   0.1759 B(  6-N ,  7-N ) :   0.1977 B(  6-N , 10-H ) :   1.1120
B(  6-N , 11-H ) :   1.1770 B(  7-N ,  8-H ) :   1.0149 B(  7-N ,  9-H ) :   1.2436
B(  8-H ,  9-H ) :  -0.1647 B( 10-H , 11-H ) :  -0.1398

Dispersion correction           -0.004608190
FINAL SINGLE POINT ENERGY      -268.093680523349

DIPOLE MOMENT
-------------
                                X             Y             Z
Electronic contribution:     -1.79443       0.89611       5.03862
Nuclear contribution   :      0.92830      -0.63755      -3.99475
                        -----------------------------------------
Total Dipole Moment    :     -0.86613       0.25856       1.04387
                        -----------------------------------------
Magnitude (a.u.)       :      1.38083
Magnitude (Debye)      :      3.50980

Rotational constants in cm-1:     0.183706     0.077449     0.071296
Rotational constants in MHz :  5507.368439  2321.870034  2137.394204

                             ****ORCA TERMINATED NORMALLY****
TOTAL RUN TIME: 0 days 0 hours 0 minutes 12 seconds 766 msec
