                         Program Version 5.0.0 -  RELEASE  -
|  1> !wB97X-D3 RIJCOSX def2-SVPD def2/J TightSCF
|  2> *xyz 0 1
|  3> C         -0.01741        0.08059       -2.77841
|  4> C         -0.90349       -0.87394       -1.98739
|  5> H         -0.50255       -1.89210       -2.08120
|  6> H         -1.91704       -0.89543       -2.40628
|  7> C         -0.96015       -0.52236       -0.48987
|  8> H         -1.69039       -1.20813       -0.02168
|  9> H         -1.41449        0.48633       -0.40668
| 10> F          0.26170       -0.58031        0.13861
| 11> H         -0.01329       -0.20776       -3.80881
| 12> H          0.98025        0.04284       -2.39348
| 13> H         -0.39697        1.07694       -2.68836
| 14> *
| 15>
| 16> %MaxCore 64000
| 17>
| 18> %pal nprocs 18
| 19> end
| 20>
| 21> %scf
| 22>   MaxIter 150
| 23> end
| 24>
| 25>
| 26>                          ****END OF INPUT****

CARTESIAN COORDINATES (ANGSTROEM)
---------------------------------
  C     -0.017410    0.080590   -2.778410
  C     -0.903490   -0.873940   -1.987390
  H     -0.502550   -1.892100   -2.081200
  H     -1.917040   -0.895430   -2.406280
  C     -0.960150   -0.522360   -0.489870
  H     -1.690390   -1.208130   -0.021680
  H     -1.414490    0.486330   -0.406680
  F      0.261700   -0.580310    0.138610
  H     -0.013290   -0.207760   -3.808810
  H      0.980250    0.042840   -2.393480
  H     -0.396970    1.076940   -2.688360

 Total Charge           Charge          ....    0
 Multiplicity           Mult            ....    1
 Number of Electrons    NEL             ....   34
 Basis Dimension        Dim             ....  139

ORBITAL ENERGIES
----------------

  NO   OCC          E(Eh)            E(eV)
   0   2.0000     -24.790195      -674.5755
   1   2.0000     -10.369010      -282.1551
   2   2.0000     -10.297415      -280.2069
   3   2.0000     -10.276224      -279.6303
   4   2.0000      -1.297946       -35.3189
   5   2.0000      -0.901791       -24.5390
   6   2.0000      -0.798372       -21.7248
   7   2.0000      -0.703526       -19.1439
   8   2.0000      -0.613709       -16.6999
   9   2.0000      -0.598214       -16.2782
  10   2.0000      -0.573040       -15.5932
  11   2.0000      -0.537654       -14.6303
  12   2.0000      -0.501808       -13.6549
  13   2.0000      -0.475111       -12.9284
  14   2.0000      -0.448788       -12.2122
  15   2.0000      -0.423384       -11.5209
  16   2.0000      -0.421852       -11.4792
  17   0.0000       0.093135         2.5343
  18   0.0000       0.118348         3.2204
  19   0.0000       0.127695         3.4748
  20   0.0000       0.146418         3.9842
  21   0.0000       0.169214         4.6045

MULLIKEN ATOMIC CHARGES
-----------------------
   0 C :    0.538520
   1 C :   -0.547377
   2 H :   -0.031446
   3 H :   -0.040946
   4 C :    0.703311
   5 H :   -0.051395
   6 H :   -0.014357
   7 F :   -0.463664
   8 H :   -0.040529
   9 H :   -0.010384
  10 H :   -0.041733
Sum of atomic charges:    0.0000000

LOEWDIN ATOMIC CHARGES
----------------------
   0 C :    0.114502
   1 C :   -0.071257
   2 H :    0.026183
   3 H :    0.027816
   4 C :    0.102754
   5 H :    0.029936
   6 H :    0.034570
   7 F :   -0.218413
   8 H :   -0.017221
   9 H :   -0.013172
  10 H :   -0.015697

  Mayer bond orders larger than 0.100000
B(  0-C ,  1-C ) :   1.2707 B(  0-C ,  8-H ) :   0.8431 B(  0-C ,  9-H ) :   0.8440
B(  0-C , 10-H ) :   0.8460 B(  1-C ,  2-H ) :   0.9804 B(  1-C ,  3-H ) :   0.9871
B(  1-C ,  4-C ) :   1.1544 B(  1-C ,  5-H ) :   0.1012 B(  1-C ,  8-H ) :   0.1674
B(  1-C ,  9-H ) :   0.1716 B(  1-C , 10-H ) :   0.1567 B(  4-C ,  5-H ) :   0.9330
B(  4-C ,  6-H ) :   0.9262 B(  4-C ,  7-F ) :   0.7085

Dispersion correction           -0.001913354
FINAL SINGLE POINT ENERGY      -218.166870195820

DIPOLE MOMENT
-------------
                                X             Y             Z
Electronic contribution:      2.23614      -0.77474       5.88311
Nuclear contribution   :     -2.83598       0.77614      -6.32113
                        -----------------------------------------
Total Dipole Moment    :     -0.59985       0.00140      -0.43802
                        -----------------------------------------
Magnitude (a.u.)       :      0.74275
Magnitude (Debye)      :      1.88793

Rotational constants in cm-1:     0.494803     0.164634     0.139827
Rotational constants in MHz : 14833.819345  4935.593559  4191.919783

                             ****ORCA TERMINATED NORMALLY****
TOTAL RUN TIME: 0 days 0 hours 0 minutes 6 seconds 287 msec
