                         Program Version 5.0.0 -  RELEASE  -
|  1> !wB97X-D3 RIJCOSX def2-SVPD def2/J TightSCF
|  2> *xyz 0 1
|  3> C          4.36645       -0.13321       -1.41606
|  4> C          4.50829       -0.93187       -2.72425
|  5> H          4.75372       -1.97205       -2.48841
|  6> C          3.29416       -0.91821       -3.65657
|  7> H          5.38564       -0.53624       -3.24264
|  8> C          3.05650       -0.32080       -0.70738
|  9> C          2.38983        0.71129       -0.24391
| 10> N          2.51600       -1.50772       -0.55023
| 11> H          2.96768       -2.32291       -0.95631
| 12> H          1.54987       -1.49063       -0.24988
| 13> H          2.74307        1.64947       -0.41280
| 14> H          1.44036        0.50278        0.03703
| 15> H          4.48784        0.93300       -1.61157
| 16> H          5.16967       -0.41443       -0.72982
| 17> H          3.50670       -1.50229       -4.52754
| 18> H          3.07837        0.08892       -3.94644
| 19> H          2.44880       -1.33173       -3.14739
| 20> *
| 21>
| 22> %MaxCore 64000
| 23>
| 24> %pal nprocs 18
| 25> end
| 26>
| 27> %scf
| 28>   MaxIter 150
| 29> end
| 30>
| 31>
| 32>                          ****END OF INPUT****

CARTESIAN COORDINATES (ANGSTROEM)
---------------------------------
  C      4.366450   -0.133210   -1.416060
  C      4.508290   -0.931870   -2.724250
  H      4.753720   -1.972050   -2.488410
  C      3.294160   -0.918210   -3.656570
  H      5.385640   -0.536240   -3.242640
  C      3.056500   -0.320800   -0.707380
  C      2.389830    0.711290   -0.243910
  N      2.516000   -1.507720   -0.550230
  H      2.967680   -2.322910   -0.956310
  H      1.549870   -1.490630   -0.249880
  H      2.743070    1.649470   -0.412800
  H      1.440360    0.502780    0.037030
  H      4.487840    0.933000   -1.611570
  H      5.169670   -0.414430   -0.729820
  H      3.506700   -1.502290   -4.527540
  H      3.078370    0.088920   -3.946440
  H      2.448800   -1.331730   -3.147390

 Total Charge           Charge          ....    0
 Multiplicity           Mult            ....    1
 Number of Electrons    NEL             ....   48
 Basis Dimension        Dim             ....  208

ORBITAL ENERGIES
----------------

  NO   OCC          E(Eh)            E(eV)
   0   2.0000     -14.436602      -392.8399
   1   2.0000     -10.308405      -280.5060
   2   2.0000     -10.292322      -280.0683
   3   2.0000     -10.289838      -280.0007
   4   2.0000     -10.272145      -279.5193
   5   2.0000     -10.219985      -278.0999
   6   2.0000      -1.043792       -28.4030
   7   2.0000      -0.903697       -24.5909
   8   2.0000      -0.846263       -23.0280
   9   2.0000      -0.794109       -21.6088
  10   2.0000      -0.708976       -19.2922
  11   2.0000      -0.663778       -18.0623
  12   2.0000      -0.636284       -17.3142
  13   2.0000      -0.562888       -15.3170
  14   2.0000      -0.557315       -15.1653
  15   2.0000      -0.554704       -15.0943
  16   2.0000      -0.493842       -13.4381
  17   2.0000      -0.491995       -13.3879
  18   2.0000      -0.478119       -13.0103
  19   2.0000      -0.460823       -12.5396
  20   2.0000      -0.428638       -11.6638
  21   2.0000      -0.427390       -11.6299
  22   2.0000      -0.415228       -11.2989
  23   2.0000      -0.278312        -7.5733
  24   0.0000       0.086189         2.3453
  25   0.0000       0.107348         2.9211
  26   0.0000       0.118861         3.2344
  27   0.0000       0.124332         3.3832
  28   0.0000       0.134604         3.6627

MULLIKEN ATOMIC CHARGES
-----------------------
   0 C :    0.338212
   1 C :   -0.432366
   2 H :   -0.038489
   3 C :    0.691222
   4 H :   -0.148163
   5 C :   -0.333921
   6 C :    0.370787
   7 N :    0.199418
   8 H :   -0.055314
   9 H :   -0.096636
  10 H :   -0.162297
  11 H :   -0.349115
  12 H :    0.217551
  13 H :   -0.067105
  14 H :   -0.015796
  15 H :   -0.028022
  16 H :   -0.089966
Sum of atomic charges:    0.0000000

LOEWDIN ATOMIC CHARGES
----------------------
   0 C :    0.012553
   1 C :   -0.073612
   2 H :    0.010452
   3 C :    0.122544
   4 H :    0.017437
   5 C :   -0.265514
   6 C :    0.167416
   7 N :    0.165162
   8 H :    0.006932
   9 H :    0.009321
  10 H :   -0.076098
  11 H :   -0.082513
  12 H :    0.023857
  13 H :    0.027667
  14 H :   -0.017736
  15 H :   -0.012343
  16 H :   -0.035525

  Mayer bond orders larger than 0.100000
B(  0-C ,  1-C ) :   1.2017 B(  0-C ,  2-H ) :   0.1406 B(  0-C ,  4-H ) :   0.1521
B(  0-C ,  5-C ) :   1.2019 B(  0-C , 12-H ) :   0.7795 B(  0-C , 13-H ) :   0.7319
B(  1-C ,  2-H ) :   0.9013 B(  1-C ,  3-C ) :   1.3035 B(  1-C ,  4-H ) :   0.9659
B(  1-C , 12-H ) :   0.1410 B(  1-C , 14-H ) :   0.2102 B(  1-C , 15-H ) :   0.2055
B(  1-C , 16-H ) :   0.2063 B(  3-C , 14-H ) :   0.7524 B(  3-C , 15-H ) :   0.7963
B(  3-C , 16-H ) :   0.8466 B(  5-C ,  6-C ) :   1.9042 B(  5-C ,  7-N ) :   1.1784
B(  5-C , 11-H ) :   0.3135 B(  5-C , 13-H ) :   0.2489 B(  6-C ,  7-N ) :   0.3033
B(  6-C , 10-H ) :   0.9960 B(  6-C , 11-H ) :   0.6472 B(  7-N ,  8-H ) :   1.0138
B(  7-N ,  9-H ) :   1.1242 B(  8-H ,  9-H ) :  -0.1442

Dispersion correction           -0.004632034
FINAL SINGLE POINT ENERGY      -251.634551989627

DIPOLE MOMENT
-------------
                                X             Y             Z
Electronic contribution:     -0.63795      -0.29160       3.28647
Nuclear contribution   :      0.70803      -0.34641      -3.68680
                        -----------------------------------------
Total Dipole Moment    :      0.07008      -0.63801      -0.40034
                        -----------------------------------------
Magnitude (a.u.)       :      0.75647
Magnitude (Debye)      :      1.92278

Rotational constants in cm-1:     0.186653     0.080341     0.073591
Rotational constants in MHz :  5595.710092  2408.571280  2206.200061

                             ****ORCA TERMINATED NORMALLY****
TOTAL RUN TIME: 0 days 0 hours 0 minutes 14 seconds 623 msec
