                         Program Version 5.0.0 -  RELEASE  -
|  1> !wB97X-D3 RIJCOSX def2-SVPD def2/J TightSCF
|  2> *xyz 0 1
|  3> C          4.36645       -0.13321       -1.41606
|  4> C          4.50829       -0.93187       -2.72425
|  5> H          4.75372       -1.97205       -2.48841
|  6> C          3.29416       -0.91821       -3.65657
|  7> H          5.38564       -0.53624       -3.24264
|  8> C          3.05650       -0.32080       -0.70738
|  9> N          2.38983        0.71129       -0.24391
| 10> C          2.51600       -1.50772       -0.55023
| 11> H          2.96768       -2.32291       -0.95631
| 12> H          1.54987       -1.49063       -0.24988
| 13> H          2.74307        1.64947       -0.41280
| 14> H          1.44036        0.50278        0.03703
| 15> H          4.48784        0.93300       -1.61157
| 16> H          5.16967       -0.41443       -0.72982
| 17> H          3.50670       -1.50229       -4.52754
| 18> H          3.07837        0.08892       -3.94644
| 19> H          2.44880       -1.33173       -3.14739
| 20> *
| 21>
| 22> %MaxCore 64000
| 23>
| 24> %pal nprocs 18
| 25> end
| 26>
| 27> %scf
| 28>   MaxIter 150
| 29> end
| 30>
| 31>
| 32>                          ****END OF INPUT****

CARTESIAN COORDINATES (ANGSTROEM)
---------------------------------
  C      4.366450   -0.133210   -1.416060
  C      4.508290   -0.931870   -2.724250
  H      4.753720   -1.972050   -2.488410
  C      3.294160   -0.918210   -3.656570
  H      5.385640   -0.536240   -3.242640
  C      3.056500   -0.320800   -0.707380
  N      2.389830    0.711290   -0.243910
  C      2.516000   -1.507720   -0.550230
  H      2.967680   -2.322910   -0.956310
  H      1.549870   -1.490630   -0.249880
  H      2.743070    1.649470   -0.412800
  H      1.440360    0.502780    0.037030
  H      4.487840    0.933000   -1.611570
  H      5.169670   -0.414430   -0.729820
  H      3.506700   -1.502290   -4.527540
  H      3.078370    0.088920   -3.946440
  H      2.448800   -1.331730   -3.147390

 Total Charge           Charge          ....    0
 Multiplicity           Mult            ....    1
 Number of Electrons    NEL             ....   48
 Basis Dimension        Dim             ....  208

ORBITAL ENERGIES
----------------

  NO   OCC          E(Eh)            E(eV)
   0   2.0000     -14.437138      -392.8545
   1   2.0000     -10.308465      -280.5076
   2   2.0000     -10.291540      -280.0470
   3   2.0000     -10.287094      -279.9261
   4   2.0000     -10.264859      -279.3210
   5   2.0000     -10.217787      -278.0401
   6   2.0000      -1.043694       -28.4004
   7   2.0000      -0.904504       -24.6128
   8   2.0000      -0.833867       -22.6907
   9   2.0000      -0.798588       -21.7307
  10   2.0000      -0.712937       -19.4000
  11   2.0000      -0.653376       -17.7793
  12   2.0000      -0.630602       -17.1595
  13   2.0000      -0.584687       -15.9101
  14   2.0000      -0.555944       -15.1280
  15   2.0000      -0.530592       -14.4381
  16   2.0000      -0.501874       -13.6567
  17   2.0000      -0.488937       -13.3047
  18   2.0000      -0.466847       -12.7035
  19   2.0000      -0.458337       -12.4720
  20   2.0000      -0.431088       -11.7305
  21   2.0000      -0.418944       -11.4001
  22   2.0000      -0.417480       -11.3602
  23   2.0000      -0.275912        -7.5079
  24   0.0000       0.091360         2.4860
  25   0.0000       0.106026         2.8851
  26   0.0000       0.115630         3.1465
  27   0.0000       0.123883         3.3710
  28   0.0000       0.139014         3.7828

MULLIKEN ATOMIC CHARGES
-----------------------
   0 C :    0.492888
   1 C :   -0.464186
   2 H :    0.011531
   3 C :    0.683911
   4 H :   -0.166233
   5 C :   -0.250512
   6 N :    0.152880
   7 C :    0.494303
   8 H :   -0.127954
   9 H :   -0.509527
  10 H :   -0.114376
  11 H :   -0.059335
  12 H :    0.045641
  13 H :   -0.075539
  14 H :   -0.042307
  15 H :   -0.027556
  16 H :   -0.043629
Sum of atomic charges:   -0.0000000

LOEWDIN ATOMIC CHARGES
----------------------
   0 C :    0.012756
   1 C :   -0.068070
   2 H :    0.016883
   3 C :    0.123593
   4 H :    0.016190
   5 C :   -0.255479
   6 N :    0.160140
   7 C :    0.161225
   8 H :   -0.072215
   9 H :   -0.081296
  10 H :    0.005250
  11 H :    0.007060
  12 H :    0.012750
  13 H :    0.030080
  14 H :   -0.017967
  15 H :   -0.015937
  16 H :   -0.034964

  Mayer bond orders larger than 0.100000
B(  0-C ,  1-C ) :   1.2051 B(  0-C ,  2-H ) :   0.1041 B(  0-C ,  4-H ) :   0.1574
B(  0-C ,  5-C ) :   1.0645 B(  0-C , 12-H ) :   0.6703 B(  0-C , 13-H ) :   0.8003
B(  1-C ,  2-H ) :   0.9017 B(  1-C ,  3-C ) :   1.3188 B(  1-C ,  4-H ) :   0.9646
B(  1-C , 12-H ) :   0.1311 B(  1-C , 13-H ) :   0.1268 B(  1-C , 14-H ) :   0.2184
B(  1-C , 15-H ) :   0.2079 B(  1-C , 16-H ) :   0.2234 B(  3-C , 14-H ) :   0.7547
B(  3-C , 15-H ) :   0.8000 B(  3-C , 16-H ) :   0.8370 B(  5-C ,  6-N ) :   1.1380
B(  5-C ,  7-C ) :   1.9816 B(  5-C ,  8-H ) :   0.1687 B(  5-C ,  9-H ) :   0.2598
B(  5-C , 12-H ) :   0.2062 B(  5-C , 13-H ) :   0.1665 B(  6-N ,  7-C ) :   0.2480
B(  6-N , 10-H ) :   1.1397 B(  6-N , 11-H ) :   1.0918 B(  7-C ,  8-H ) :   0.7457
B(  7-C ,  9-H ) :   0.7512 B(  8-H ,  9-H ) :  -0.1328 B( 10-H , 11-H ) :  -0.1165

Dispersion correction           -0.004569653
FINAL SINGLE POINT ENERGY      -251.632629840182

DIPOLE MOMENT
-------------
                                X             Y             Z
Electronic contribution:     -0.74903       1.57542       3.56961
Nuclear contribution   :      0.73787      -0.87128      -3.75926
                        -----------------------------------------
Total Dipole Moment    :     -0.01116       0.70414      -0.18965
                        -----------------------------------------
Magnitude (a.u.)       :      0.72931
Magnitude (Debye)      :      1.85377

Rotational constants in cm-1:     0.191039     0.078358     0.072723
Rotational constants in MHz :  5727.202281  2349.118247  2180.181745

                             ****ORCA TERMINATED NORMALLY****
TOTAL RUN TIME: 0 days 0 hours 0 minutes 14 seconds 549 msec
