                         Program Version 5.0.0 -  RELEASE  -
|  1> !wB97X-D3 RIJCOSX def2-SVPD def2/J TightSCF xyzfile
|  2>
|  3> *xyzfile 0 1 D2.xyz
|  4>
|  5> %MaxCore 64000
|  6>
|  7> %pal nprocs 18
|  8> end
|  9>
| 10> %scf
| 11>   MaxIter 150
| 12> end
| 13>
| 14>
| 15>                          ****END OF INPUT****

CARTESIAN COORDINATES (ANGSTROEM)
---------------------------------
  C      4.366454   -0.133215   -1.416062
  C      4.508292   -0.931872   -2.724249
  H      4.753716   -1.972051   -2.488408
  C      3.294164   -0.918214   -3.656570
  H      5.385637   -0.536236   -3.242640
  H      2.483463   -1.477378   -3.185764
  H      3.553092   -1.478495   -4.560331
  C      2.772335    0.460100   -4.051448
  H      2.608762    1.065107   -3.155194
  C      1.465354    0.410537   -4.853644
  H      3.532940    0.988848   -4.635671
  C      0.326171   -0.375613   -4.192580
  H      1.666704   -0.022269   -5.839323
  H      1.138198    1.439246   -5.035449
  C     -0.017405    0.080588   -2.778406
  H      0.585573   -1.439385   -4.168057
  H     -0.560005   -0.311425   -4.831461
  H      0.902090    0.201296   -2.206729
  C     -0.903495   -0.873945   -1.987388
  H     -0.479549    1.074657   -2.811915
  H     -0.502554   -1.892096   -2.081204
  H     -1.917039   -0.895427   -2.406277
  C     -0.960148   -0.522365   -0.489867
  H     -1.690392   -1.208130   -0.021677
  H     -1.414490    0.486329   -0.406677
  F      0.261703   -0.580307    0.138611
  C      3.056503   -0.320797   -0.707384
  N      2.389825    0.711285   -0.243909
  C      2.515999   -1.507721   -0.550229
  H      2.967683   -2.322915   -0.956305
  H      1.549872   -1.490634   -0.249876
  H      2.743071    1.649471   -0.412802
  H      1.440364    0.502778    0.037031
  H      4.487835    0.932997   -1.611569
  H      5.169672   -0.414432   -0.729817

 Total Charge           Charge          ....    0
 Multiplicity           Mult            ....    1
 Number of Electrons    NEL             ....  104
 Basis Dimension        Dim             ....  439

ORBITAL ENERGIES
----------------

  NO   OCC          E(Eh)            E(eV)
   0   2.0000     -24.821207      -675.4194
   1   2.0000     -14.411503      -392.1569
   2   2.0000     -10.384582      -282.5788
   3   2.0000     -10.301544      -280.3193
   4   2.0000     -10.291004      -280.0325
   5   2.0000     -10.283357      -279.8244
   6   2.0000     -10.282817      -279.8097
   7   2.0000     -10.281161      -279.7646
   8   2.0000     -10.279262      -279.7129
   9   2.0000     -10.278665      -279.6967
  10   2.0000     -10.276235      -279.6306
  11   2.0000     -10.270213      -279.4667
  12   2.0000     -10.192269      -277.3457
  13   2.0000      -1.338349       -36.4183
  14   2.0000      -1.025304       -27.8999
  15   2.0000      -0.931310       -25.3422
  16   2.0000      -0.907997       -24.7079
  17   2.0000      -0.882345       -24.0098
  18   2.0000      -0.838894       -22.8275
  19   2.0000      -0.807205       -21.9652
  20   2.0000      -0.795651       -21.6508
  21   2.0000      -0.749198       -20.3867
  22   2.0000      -0.724482       -19.7142
  23   2.0000      -0.693909       -18.8822
  24   2.0000      -0.659511       -17.9462
  25   2.0000      -0.650267       -17.6947
  26   2.0000      -0.634943       -17.2777
  27   2.0000      -0.628335       -17.0979
  28   2.0000      -0.615527       -16.7493
  29   2.0000      -0.587557       -15.9882
  30   2.0000      -0.579798       -15.7771
  31   2.0000      -0.564500       -15.3608
  32   2.0000      -0.551579       -15.0092
  33   2.0000      -0.537290       -14.6204
  34   2.0000      -0.529658       -14.4127
  35   2.0000      -0.514492       -14.0000
  36   2.0000      -0.497200       -13.5295
  37   2.0000      -0.487510       -13.2658
  38   2.0000      -0.478152       -13.0112
  39   2.0000      -0.464795       -12.6477
  40   2.0000      -0.460725       -12.5370
  41   2.0000      -0.455351       -12.3907
  42   2.0000      -0.447009       -12.1637
  43   2.0000      -0.443901       -12.0792
  44   2.0000      -0.427491       -11.6326
  45   2.0000      -0.421157       -11.4603
  46   2.0000      -0.409099       -11.1322
  47   2.0000      -0.401725       -10.9315
  48   2.0000      -0.400002       -10.8846
  49   2.0000      -0.393775       -10.7152
  50   2.0000      -0.390826       -10.6349
  51   2.0000      -0.258107        -7.0234
  52   0.0000       0.088300         2.4028
  53   0.0000       0.097088         2.6419
  54   0.0000       0.101586         2.7643
  55   0.0000       0.106064         2.8862
  56   0.0000       0.118056         3.2125

MULLIKEN ATOMIC CHARGES
-----------------------
   0 C :    0.532514
   1 C :    0.372356
   2 H :    0.101760
   3 C :   -0.063681
   4 H :   -0.173229
   5 H :   -0.045942
   6 H :   -0.183526
   7 C :   -0.065291
   8 H :    0.066925
   9 C :    0.697822
  10 H :   -0.344773
  11 C :    0.020952
  12 H :   -0.009710
  13 H :    0.010465
  14 C :    0.602775
  15 H :    0.146596
  16 H :   -0.386160
  17 H :   -0.845161
  18 C :   -0.048607
  19 H :    0.016648
  20 H :    0.043829
  21 H :   -0.139749
  22 C :    1.037671
  23 H :   -0.057698
  24 H :   -0.007365
  25 F :   -0.793144
  26 C :   -0.566747
  27 N :    0.408678
  28 C :    0.783945
  29 H :   -0.232090
  30 H :   -0.563090
  31 H :   -0.079154
  32 H :   -0.174365
  33 H :    0.193613
  34 H :   -0.257064
Sum of atomic charges:   -0.0000000

LOEWDIN ATOMIC CHARGES
----------------------
   0 C :    0.017916
   1 C :   -0.019640
   2 H :    0.019891
   3 C :   -0.029720
   4 H :    0.018564
   5 H :   -0.011019
   6 H :    0.027120
   7 C :   -0.031030
   8 H :    0.000121
   9 C :   -0.027452
  10 H :    0.024487
  11 C :   -0.033891
  12 H :    0.022395
  13 H :    0.021263
  14 C :   -0.030818
  15 H :    0.014196
  16 H :    0.021661
  17 H :   -0.025606
  18 C :   -0.012866
  19 H :    0.035434
  20 H :    0.032612
  21 H :    0.034472
  22 C :    0.169769
  23 H :    0.038230
  24 H :    0.042499
  25 F :   -0.228046
  26 C :   -0.236808
  27 N :    0.183679
  28 C :    0.189202
  29 H :   -0.071289
  30 H :   -0.132748
  31 H :    0.007310
  32 H :   -0.066646
  33 H :    0.009117
  34 H :    0.027640

  Mayer bond orders larger than 0.100000
B(  0-C ,  1-C ) :   1.1575 B(  0-C ,  4-H ) :   0.1699 B(  0-C , 26-C ) :   1.1978
B(  0-C , 29-H ) :  -0.1176 B(  0-C , 33-H ) :   0.5937 B(  0-C , 34-H ) :   0.7730
B(  1-C ,  2-H ) :   0.6652 B(  1-C ,  3-C ) :   1.2768 B(  1-C ,  4-H ) :   0.8250
B(  1-C ,  5-H ) :   0.1268 B(  1-C , 33-H ) :   0.1179 B(  1-C , 34-H ) :   0.1128
B(  2-H ,  3-C ) :   0.2411 B(  2-H ,  4-H ) :  -0.1622 B(  3-C ,  4-H ) :   0.2164
B(  3-C ,  5-H ) :   0.8453 B(  3-C ,  6-H ) :   0.8637 B(  3-C ,  7-C ) :   1.2385
B(  3-C ,  8-H ) :   0.1066 B(  3-C , 10-H ) :   0.1758 B(  4-H , 29-H ) :  -0.1222
B(  5-H ,  7-C ) :   0.1174 B(  5-H , 15-H ) :   0.1486 B(  5-H , 29-H ) :   0.1354
B(  5-H , 30-H ) :  -0.1023 B(  6-H ,  7-C ) :   0.1657 B(  7-C ,  8-H ) :   0.8507
B(  7-C ,  9-C ) :   1.1309 B(  7-C , 10-H ) :   0.9918 B(  7-C , 11-C ) :   0.1112
B(  7-C , 12-H ) :   0.1218 B(  7-C , 13-H ) :   0.2466 B(  8-H , 17-H ) :   0.2096
B(  9-C , 11-C ) :   1.1274 B(  9-C , 12-H ) :   0.7268 B(  9-C , 13-H ) :   0.6881
B( 11-C , 12-H ) :   0.1820 B( 11-C , 13-H ) :   0.1354 B( 11-C , 14-C ) :   1.1616
B( 11-C , 15-H ) :   0.8224 B( 11-C , 16-H ) :   1.0089 B( 11-C , 17-H ) :   0.1755
B( 11-C , 19-H ) :   0.1100 B( 12-H , 13-H ) :  -0.1076 B( 14-C , 15-H ) :   0.1404
B( 14-C , 16-H ) :   0.2102 B( 14-C , 17-H ) :   0.2138 B( 14-C , 18-C ) :   1.1375
B( 14-C , 19-H ) :   0.6292 B( 14-C , 20-H ) :   0.1285 B( 14-C , 21-H ) :   0.2035
B( 17-H , 18-C ) :   0.1416 B( 17-H , 19-H ) :   0.3204 B( 17-H , 29-H ) :   0.1020
B( 18-C , 19-H ) :   0.1032 B( 18-C , 20-H ) :   0.9088 B( 18-C , 21-H ) :   0.8866
B( 18-C , 22-C ) :   1.1306 B( 18-C , 23-H ) :   0.1916 B( 18-C , 24-H ) :   0.1141
B( 18-C , 25-F ) :   0.1283 B( 22-C , 23-H ) :   0.7574 B( 22-C , 24-H ) :   0.8130
B( 22-C , 25-F ) :   0.6527 B( 24-H , 25-F ) :   0.1482 B( 25-F , 26-C ) :   0.1080
B( 25-F , 30-H ) :   0.2157 B( 26-C , 27-N ) :   1.0049 B( 26-C , 28-C ) :   2.0931
B( 26-C , 29-H ) :   0.1098 B( 26-C , 30-H ) :   0.5545 B( 26-C , 33-H ) :   0.2336
B( 26-C , 34-H ) :   0.2921 B( 27-N , 28-C ) :   0.3413 B( 27-N , 29-H ) :   0.1400
B( 27-N , 31-H ) :   1.0835 B( 27-N , 32-H ) :   1.0346 B( 28-C , 29-H ) :   0.7924
B( 28-C , 30-H ) :   0.1578 B( 29-H , 30-H ) :  -0.2841 B( 31-H , 32-H ) :  -0.1616

Dispersion correction           -0.017787564
FINAL SINGLE POINT ENERGY      -586.425199015998

DIPOLE MOMENT
-------------
                                X             Y             Z
Electronic contribution:     -2.81842       0.01030      10.66428
Nuclear contribution   :      1.85154       0.58682     -11.15333
                        -----------------------------------------
Total Dipole Moment    :     -0.96688       0.59712      -0.48904
                        -----------------------------------------
Magnitude (a.u.)       :      1.23717
Magnitude (Debye)      :      3.14463

Rotational constants in cm-1:     0.028379     0.022321     0.014415
Rotational constants in MHz :   850.785777   669.176075   432.155504

                             ****ORCA TERMINATED NORMALLY****
TOTAL RUN TIME: 0 days 0 hours 1 minutes 13 seconds 440 msec
