                         Program Version 5.0.0 -  RELEASE  -
|  1> !PBE0 D3BJ RIJCOSX def2-SVPD def2/J TightSCF
|  2> *xyz -1 1
|  3> C         -1.78916       -0.63923        4.55750
|  4> C         -2.79070       -0.78527        5.70281
|  5> H         -2.86731       -1.83565        6.00167
|  6> H         -3.77455       -0.48658        5.33481
|  7> C         -2.45380        0.05510        6.94145
|  8> C         -2.07842        1.48042        6.56410
|  9> H         -1.62558       -0.38216        7.49891
| 10> H         -3.32527        0.08775        7.59917
| 11> O         -0.90125        1.85816        6.82810
| 12> O         -2.93658        2.17731        5.96415
| 13> H         -2.09421       -1.25377        3.73641
| 14> H         -0.81933       -0.94475        4.89064
| 15> H         -1.75281        0.38306        4.24366
| 16> *
| 17> %MaxCore 64000
| 18>
| 19> %pal nprocs 4
| 20> end
| 21>
| 22> %scf
| 23>   MaxIter 150
| 24> end
| 25>
| 26>
| 27>                          ****END OF INPUT****

CARTESIAN COORDINATES (ANGSTROEM)
---------------------------------
  C     -1.789160   -0.639230    4.557500
  C     -2.790700   -0.785270    5.702810
  H     -2.867310   -1.835650    6.001670
  H     -3.774550   -0.486580    5.334810
  C     -2.453800    0.055100    6.941450
  C     -2.078420    1.480420    6.564100
  H     -1.625580   -0.382160    7.498910
  H     -3.325270    0.087750    7.599170
  O     -0.901250    1.858160    6.828100
  O     -2.936580    2.177310    5.964150
  H     -2.094210   -1.253770    3.736410
  H     -0.819330   -0.944750    4.890640
  H     -1.752810    0.383060    4.243660

 Total Charge           Charge          ....   -1
 Multiplicity           Mult            ....    1
 Number of Electrons    NEL             ....   48
 Basis Dimension        Dim             ....  182

ORBITAL ENERGIES
----------------

  NO   OCC          E(Eh)            E(eV)
   0   2.0000     -18.957314      -515.8547
   1   2.0000     -18.955977      -515.8184
   2   2.0000     -10.118724      -275.3445
   3   2.0000     -10.086670      -274.4722
   4   2.0000     -10.074590      -274.1435
   5   2.0000     -10.060118      -273.7497
   6   2.0000      -0.840518       -22.8717
   7   2.0000      -0.744935       -20.2707
   8   2.0000      -0.654684       -17.8148
   9   2.0000      -0.557311       -15.1652
  10   2.0000      -0.459617       -12.5068
  11   2.0000      -0.342093        -9.3088
  12   2.0000      -0.319043        -8.6816
  13   2.0000      -0.303938        -8.2706
  14   2.0000      -0.267779        -7.2866
  15   2.0000      -0.249340        -6.7849
  16   2.0000      -0.225450        -6.1348
  17   2.0000      -0.220883        -6.0105
  18   2.0000      -0.209448        -5.6994
  19   2.0000      -0.186503        -5.0750
  20   2.0000      -0.177316        -4.8250
  21   2.0000      -0.065028        -1.7695
  22   2.0000      -0.058234        -1.5846
  23   2.0000      -0.043500        -1.1837
  24   0.0000       0.153775         4.1844
  25   0.0000       0.177961         4.8426
  26   0.0000       0.194562         5.2943
  27   0.0000       0.206415         5.6168
  28   0.0000       0.226809         6.1718

MULLIKEN ATOMIC CHARGES
-----------------------
   0 C :    0.479921
   1 C :   -0.529926
   2 H :   -0.117353
   3 H :    0.055228
   4 C :    0.049844
   5 C :    0.549880
   6 H :    0.034423
   7 H :    0.030932
   8 O :   -0.758994
   9 O :   -0.798249
  10 H :   -0.045253
  11 H :    0.010451
  12 H :    0.039096
Sum of atomic charges:   -1.0000000

LOEWDIN ATOMIC CHARGES
----------------------
   0 C :    0.110196
   1 C :   -0.091212
   2 H :   -0.000565
   3 H :    0.013228
   4 C :   -0.007259
   5 C :   -0.303103
   6 H :    0.004412
   7 H :    0.010623
   8 O :   -0.336853
   9 O :   -0.328191
  10 H :   -0.035722
  11 H :   -0.018807
  12 H :   -0.016747

  Mayer bond orders larger than 0.100000
B(  0-C ,  1-C ) :   1.3417 B(  0-C , 10-H ) :   0.7967 B(  0-C , 11-H ) :   0.8218
B(  0-C , 12-H ) :   0.8537 B(  1-C ,  2-H ) :   1.0135 B(  1-C ,  3-H ) :   0.9188
B(  1-C ,  4-C ) :   1.1954 B(  1-C ,  6-H ) :   0.1291 B(  1-C ,  7-H ) :   0.1137
B(  1-C , 10-H ) :   0.1954 B(  1-C , 11-H ) :   0.1801 B(  1-C , 12-H ) :   0.1889
B(  3-H ,  4-C ) :   0.1015 B(  4-C ,  5-C ) :   1.0318 B(  4-C ,  6-H ) :   0.8925
B(  4-C ,  7-H ) :   0.8490 B(  5-C ,  6-H ) :   0.1928 B(  5-C ,  7-H ) :   0.1141
B(  5-C ,  8-O ) :   1.3528 B(  5-C ,  9-O ) :   1.3862

Dispersion correction           -0.008434762
FINAL SINGLE POINT ENERGY      -306.604502443966

DIPOLE MOMENT
-------------
                                X             Y             Z
Electronic contribution:      0.62614       6.39059       2.68164
Nuclear contribution   :     -1.12936      -8.75108      -3.05770
                        -----------------------------------------
Total Dipole Moment    :     -0.50322      -2.36049      -0.37607
                        -----------------------------------------
Magnitude (a.u.)       :      2.44266
Magnitude (Debye)      :      6.20874

Rotational constants in cm-1:     0.189092     0.083831     0.082013
Rotational constants in MHz :  5668.846461  2513.177001  2458.689996

                             ****ORCA TERMINATED NORMALLY****
TOTAL RUN TIME: 0 days 0 hours 0 minutes 17 seconds 488 msec
