                         Program Version 5.0.0 -  RELEASE  -
|  1> !PBE0 D3BJ RIJCOSX def2-SVPD def2/J TightSCF
|  2> *xyz 1 1
|  3> C         -0.69912        3.48945        3.75516
|  4> H         -0.96672        4.34901        3.14049
|  5> N         -1.08067        3.79296        5.15686
|  6> C          0.77696        3.13839        3.61741
|  7> H         -1.33146        2.65651        3.44632
|  8> H          1.37140        3.88834        4.14974
|  9> H          1.04693        3.23206        2.56133
| 10> C          1.11892        1.73117        4.11516
| 11> H         -0.87449        4.76274        5.42734
| 12> H         -0.68079        3.13476        5.83900
| 13> H         -2.05755        3.53169        5.34620
| 14> H          0.52974        1.01235        3.58499
| 15> H          0.90870        1.66226        5.16204
| 16> H          2.15725        1.53562        3.94624
| 17> *
| 18> %MaxCore 64000
| 19>
| 20> %pal nprocs 4
| 21> end
| 22>
| 23> %scf
| 24>   MaxIter 150
| 25> end
| 26>
| 27>
| 28>                          ****END OF INPUT****

CARTESIAN COORDINATES (ANGSTROEM)
---------------------------------
  C     -0.699120    3.489450    3.755160
  H     -0.966720    4.349010    3.140490
  N     -1.080670    3.792960    5.156860
  C      0.776960    3.138390    3.617410
  H     -1.331460    2.656510    3.446320
  H      1.371400    3.888340    4.149740
  H      1.046930    3.232060    2.561330
  C      1.118920    1.731170    4.115160
  H     -0.874490    4.762740    5.427340
  H     -0.680790    3.134760    5.839000
  H     -2.057550    3.531690    5.346200
  H      0.529740    1.012350    3.584990
  H      0.908700    1.662260    5.162040
  H      2.157250    1.535620    3.946240

 Total Charge           Charge          ....    1
 Multiplicity           Mult            ....    1
 Number of Electrons    NEL             ....   34
 Basis Dimension        Dim             ....  160

ORBITAL ENERGIES
----------------

  NO   OCC          E(Eh)            E(eV)
   0   2.0000     -14.727896      -400.7664
   1   2.0000     -10.480463      -285.1879
   2   2.0000     -10.411672      -283.3160
   3   2.0000     -10.376739      -282.3654
   4   2.0000      -1.231511       -33.5111
   5   2.0000      -0.991473       -26.9794
   6   2.0000      -0.900285       -24.4980
   7   2.0000      -0.829013       -22.5586
   8   2.0000      -0.802051       -21.8249
   9   2.0000      -0.775884       -21.1129
  10   2.0000      -0.708367       -19.2756
  11   2.0000      -0.644050       -17.5255
  12   2.0000      -0.620487       -16.8843
  13   2.0000      -0.597625       -16.2622
  14   2.0000      -0.537492       -14.6259
  15   2.0000      -0.531612       -14.4659
  16   2.0000      -0.525043       -14.2871
  17   0.0000      -0.183031        -4.9805
  18   0.0000      -0.126986        -3.4555
  19   0.0000      -0.124415        -3.3855
  20   0.0000      -0.106846        -2.9074
  21   0.0000      -0.084212        -2.2915

MULLIKEN ATOMIC CHARGES
-----------------------
   0 C :    0.571398
   1 H :   -0.034554
   2 N :   -0.945694
   3 C :   -0.430674
   4 H :    0.044793
   5 H :    0.014801
   6 H :    0.050343
   7 C :    0.580613
   8 H :    0.436298
   9 H :    0.369038
  10 H :    0.389431
  11 H :    0.058944
  12 H :   -0.125510
  13 H :    0.020773
Sum of atomic charges:    1.0000000

LOEWDIN ATOMIC CHARGES
----------------------
   0 C :    0.087330
   1 H :    0.054841
   2 N :    0.325695
   3 C :   -0.049482
   4 H :    0.053977
   5 H :    0.036065
   6 H :    0.047141
   7 C :    0.145858
   8 H :    0.115185
   9 H :    0.092089
  10 H :    0.107752
  11 H :   -0.000337
  12 H :   -0.023163
  13 H :    0.007051

  Mayer bond orders larger than 0.100000
B(  0-C ,  1-H ) :   0.9119 B(  0-C ,  2-N ) :   0.6534 B(  0-C ,  3-C ) :   1.1864
B(  0-C ,  4-H ) :   0.8956 B(  1-H ,  2-N ) :   0.1120 B(  2-N ,  8-H ) :   0.6788
B(  2-N ,  9-H ) :   0.7418 B(  2-N , 10-H ) :   0.7144 B(  3-C ,  5-H ) :   0.9576
B(  3-C ,  6-H ) :   0.9333 B(  3-C ,  7-C ) :   1.2892 B(  3-C , 11-H ) :   0.1500
B(  3-C , 12-H ) :   0.1631 B(  3-C , 13-H ) :   0.1777 B(  7-C , 11-H ) :   0.8190
B(  7-C , 12-H ) :   0.8629 B(  7-C , 13-H ) :   0.8288

Dispersion correction           -0.007715034
FINAL SINGLE POINT ENERGY      -174.522602930190

DIPOLE MOMENT
-------------
                                X             Y             Z
Electronic contribution:     -1.67074       1.67562       0.73087
Nuclear contribution   :      0.19356      -0.71099       0.46987
                        -----------------------------------------
Total Dipole Moment    :     -1.47718       0.96462       1.20074
                        -----------------------------------------
Magnitude (a.u.)       :      2.13408
Magnitude (Debye)      :      5.42441

Rotational constants in cm-1:     0.465349     0.150671     0.132807
Rotational constants in MHz : 13950.800968  4516.999758  3981.442177

                             ****ORCA TERMINATED NORMALLY****
TOTAL RUN TIME: 0 days 0 hours 0 minutes 12 seconds 198 msec
