                         Program Version 5.0.0 -  RELEASE  -
|  1> !PBE0 D3BJ RIJCOSX def2-SVPD def2/J TightSCF
|  2> *xyz 0 1
|  3> C         -1.78916       -0.63923        4.55750
|  4> C         -2.79070       -0.78527        5.70281
|  5> H         -2.86731       -1.83565        6.00167
|  6> H         -3.77455       -0.48658        5.33481
|  7> C         -2.45380        0.05510        6.94145
|  8> C         -2.07842        1.48042        6.56410
|  9> H         -1.62558       -0.38216        7.49891
| 10> H         -3.32527        0.08775        7.59917
| 11> F         -0.90125        1.85816        6.82810
| 12> O         -2.93658        2.17731        5.96415
| 13> H         -2.09421       -1.25377        3.73641
| 14> H         -0.81933       -0.94475        4.89064
| 15> H         -1.75281        0.38306        4.24366
| 16> *
| 17> %MaxCore 64000
| 18>
| 19> %pal nprocs 4
| 20> end
| 21>
| 22> %scf
| 23>   MaxIter 150
| 24> end
| 25>
| 26>
| 27>                          ****END OF INPUT****

CARTESIAN COORDINATES (ANGSTROEM)
---------------------------------
  C     -1.789160   -0.639230    4.557500
  C     -2.790700   -0.785270    5.702810
  H     -2.867310   -1.835650    6.001670
  H     -3.774550   -0.486580    5.334810
  C     -2.453800    0.055100    6.941450
  C     -2.078420    1.480420    6.564100
  H     -1.625580   -0.382160    7.498910
  H     -3.325270    0.087750    7.599170
  F     -0.901250    1.858160    6.828100
  O     -2.936580    2.177310    5.964150
  H     -2.094210   -1.253770    3.736410
  H     -0.819330   -0.944750    4.890640
  H     -1.752810    0.383060    4.243660

 Total Charge           Charge          ....    0
 Multiplicity           Mult            ....    1
 Number of Electrons    NEL             ....   48
 Basis Dimension        Dim             ....  182

ORBITAL ENERGIES
----------------

  NO   OCC          E(Eh)            E(eV)
   0   2.0000     -24.853897      -676.3089
   1   2.0000     -19.227381      -523.2036
   2   2.0000     -10.415543      -283.4213
   3   2.0000     -10.265068      -279.3267
   4   2.0000     -10.251228      -278.9501
   5   2.0000     -10.227015      -278.2912
   6   2.0000      -1.333934       -36.2982
   7   2.0000      -1.054086       -28.6831
   8   2.0000      -0.834905       -22.7189
   9   2.0000      -0.748021       -20.3547
  10   2.0000      -0.681650       -18.5486
  11   2.0000      -0.628585       -17.1047
  12   2.0000      -0.566587       -15.4176
  13   2.0000      -0.548686       -14.9305
  14   2.0000      -0.528164       -14.3721
  15   2.0000      -0.482923       -13.1410
  16   2.0000      -0.472554       -12.8589
  17   2.0000      -0.434175       -11.8145
  18   2.0000      -0.421722       -11.4757
  19   2.0000      -0.388684       -10.5766
  20   2.0000      -0.373506       -10.1636
  21   2.0000      -0.362318        -9.8592
  22   2.0000      -0.359605        -9.7854
  23   2.0000      -0.310601        -8.4519
  24   0.0000      -0.031969        -0.8699
  25   0.0000       0.022242         0.6052
  26   0.0000       0.050316         1.3692
  27   0.0000       0.053848         1.4653
  28   0.0000       0.066229         1.8022

MULLIKEN ATOMIC CHARGES
-----------------------
   0 C :    0.488696
   1 C :   -0.464907
   2 H :   -0.079529
   3 H :    0.063792
   4 C :   -0.032978
   5 C :    0.881189
   6 H :    0.070143
   7 H :    0.079783
   8 F :   -0.415587
   9 O :   -0.598829
  10 H :   -0.015903
  11 H :    0.011908
  12 H :    0.012221
Sum of atomic charges:    0.0000000

LOEWDIN ATOMIC CHARGES
----------------------
   0 C :    0.127046
   1 C :   -0.062073
   2 H :    0.026313
   3 H :    0.030338
   4 C :    0.036817
   5 C :   -0.005015
   6 H :    0.026603
   7 H :    0.042285
   8 F :   -0.043313
   9 O :   -0.139229
  10 H :   -0.011915
  11 H :   -0.010664
  12 H :   -0.017193

  Mayer bond orders larger than 0.100000
B(  0-C ,  1-C ) :   1.3585 B(  0-C , 10-H ) :   0.8029 B(  0-C , 11-H ) :   0.8283
B(  0-C , 12-H ) :   0.8629 B(  1-C ,  2-H ) :   0.9982 B(  1-C ,  3-H ) :   0.9178
B(  1-C ,  4-C ) :   1.2183 B(  1-C ,  6-H ) :   0.1229 B(  1-C ,  7-H ) :   0.1118
B(  1-C , 10-H ) :   0.1802 B(  1-C , 11-H ) :   0.1677 B(  1-C , 12-H ) :   0.1732
B(  4-C ,  5-C ) :   1.0957 B(  4-C ,  6-H ) :   0.8959 B(  4-C ,  7-H ) :   0.8453
B(  5-C ,  8-F ) :   0.6353 B(  5-C ,  9-O ) :   1.7093

Dispersion correction           -0.008086447
FINAL SINGLE POINT ENERGY      -331.125510363397

DIPOLE MOMENT
-------------
                                X             Y             Z
Electronic contribution:      2.80135       8.95109       4.27902
Nuclear contribution   :     -2.53960     -10.05333      -3.90042
                        -----------------------------------------
Total Dipole Moment    :      0.26175      -1.10224       0.37861
                        -----------------------------------------
Magnitude (a.u.)       :      1.19448
Magnitude (Debye)      :      3.03613

Rotational constants in cm-1:     0.183043     0.080991     0.078218
Rotational constants in MHz :  5487.486217  2428.040459  2344.904824

                             ****ORCA TERMINATED NORMALLY****
TOTAL RUN TIME: 0 days 0 hours 0 minutes 15 seconds 799 msec
