                         Program Version 5.0.0 -  RELEASE  -
|  1> !PBE0 D3BJ RIJCOSX def2-SVPD def2/J TightSCF
|  2> *xyz 0 1
|  3> C         -0.69912        3.48945        3.75516
|  4> H         -0.96672        4.34901        3.14049
|  5> C         -1.08067        3.79296        5.15686
|  6> C          0.77696        3.13839        3.61741
|  7> H         -1.33146        2.65651        3.44632
|  8> H          1.37140        3.88834        4.14974
|  9> H          1.04693        3.23206        2.56133
| 10> C          1.11892        1.73117        4.11516
| 11> H         -0.87449        4.76274        5.42734
| 12> H         -0.68079        3.13476        5.83900
| 13> H         -2.05755        3.53169        5.34620
| 14> H          0.52974        1.01235        3.58499
| 15> H          0.90870        1.66226        5.16204
| 16> H          2.15725        1.53562        3.94624
| 17> *
| 18> %MaxCore 64000
| 19>
| 20> %pal nprocs 4
| 21> end
| 22>
| 23> %scf
| 24>   MaxIter 150
| 25> end
| 26>
| 27>
| 28>                          ****END OF INPUT****

CARTESIAN COORDINATES (ANGSTROEM)
---------------------------------
  C     -0.699120    3.489450    3.755160
  H     -0.966720    4.349010    3.140490
  C     -1.080670    3.792960    5.156860
  C      0.776960    3.138390    3.617410
  H     -1.331460    2.656510    3.446320
  H      1.371400    3.888340    4.149740
  H      1.046930    3.232060    2.561330
  C      1.118920    1.731170    4.115160
  H     -0.874490    4.762740    5.427340
  H     -0.680790    3.134760    5.839000
  H     -2.057550    3.531690    5.346200
  H      0.529740    1.012350    3.584990
  H      0.908700    1.662260    5.162040
  H      2.157250    1.535620    3.946240

 Total Charge           Charge          ....    0
 Multiplicity           Mult            ....    1
 Number of Electrons    NEL             ....   34
 Basis Dimension        Dim             ....  160

ORBITAL ENERGIES
----------------

  NO   OCC          E(Eh)            E(eV)
   0   2.0000     -10.222601      -278.1711
   1   2.0000     -10.218403      -278.0569
   2   2.0000     -10.212220      -277.8886
   3   2.0000     -10.193115      -277.3688
   4   2.0000      -0.819100       -22.2888
   5   2.0000      -0.745664       -20.2905
   6   2.0000      -0.658523       -17.9193
   7   2.0000      -0.582749       -15.8574
   8   2.0000      -0.482127       -13.1194
   9   2.0000      -0.472578       -12.8595
  10   2.0000      -0.441487       -12.0135
  11   2.0000      -0.400466       -10.8972
  12   2.0000      -0.391485       -10.6529
  13   2.0000      -0.376453       -10.2438
  14   2.0000      -0.335331        -9.1248
  15   2.0000      -0.332763        -9.0549
  16   2.0000      -0.328123        -8.9287
  17   0.0000       0.033558         0.9132
  18   0.0000       0.059420         1.6169
  19   0.0000       0.060409         1.6438
  20   0.0000       0.067354         1.8328
  21   0.0000       0.104846         2.8530

MULLIKEN ATOMIC CHARGES
-----------------------
   0 C :   -0.318236
   1 H :   -0.090477
   2 C :    0.918050
   3 C :   -0.381160
   4 H :    0.056400
   5 H :   -0.032376
   6 H :   -0.028764
   7 C :    0.565351
   8 H :   -0.090719
   9 H :   -0.401053
  10 H :   -0.119896
  11 H :    0.060277
  12 H :   -0.134291
  13 H :   -0.003106
Sum of atomic charges:   -0.0000000

LOEWDIN ATOMIC CHARGES
----------------------
   0 C :   -0.080600
   1 H :    0.023127
   2 C :    0.115394
   3 C :   -0.084517
   4 H :    0.024062
   5 H :    0.024645
   6 H :    0.016206
   7 C :    0.120168
   8 H :   -0.022774
   9 H :   -0.042399
  10 H :   -0.032290
  11 H :   -0.015733
  12 H :   -0.026710
  13 H :   -0.018579

  Mayer bond orders larger than 0.100000
B(  0-C ,  1-H ) :   0.9759 B(  0-C ,  2-C ) :   1.2497 B(  0-C ,  3-C ) :   1.1677
B(  0-C ,  4-H ) :   0.8853 B(  0-C ,  5-H ) :   0.1231 B(  0-C ,  8-H ) :   0.1752
B(  0-C ,  9-H ) :   0.2365 B(  0-C , 10-H ) :   0.1848 B(  2-C ,  4-H ) :   0.1053
B(  2-C ,  8-H ) :   0.7846 B(  2-C ,  9-H ) :   0.6393 B(  2-C , 10-H ) :   0.6298
B(  3-C ,  5-H ) :   0.9520 B(  3-C ,  6-H ) :   0.9640 B(  3-C ,  7-C ) :   1.2755
B(  3-C , 11-H ) :   0.1800 B(  3-C , 12-H ) :   0.1816 B(  3-C , 13-H ) :   0.1802
B(  7-C , 11-H ) :   0.7997 B(  7-C , 12-H ) :   0.8825 B(  7-C , 13-H ) :   0.8100
B(  9-H , 10-H ) :   0.3200

Dispersion correction           -0.007748190
FINAL SINGLE POINT ENERGY      -158.132454818200

DIPOLE MOMENT
-------------
                                X             Y             Z
Electronic contribution:      0.12301       0.47094      -0.75821
Nuclear contribution   :     -0.14518      -0.47660       0.76944
                        -----------------------------------------
Total Dipole Moment    :     -0.02217      -0.00566       0.01123
                        -----------------------------------------
Magnitude (a.u.)       :      0.02549
Magnitude (Debye)      :      0.06479

Rotational constants in cm-1:     0.472466     0.157481     0.138592
Rotational constants in MHz : 14164.171374  4721.163669  4154.874787

                             ****ORCA TERMINATED NORMALLY****
TOTAL RUN TIME: 0 days 0 hours 0 minutes 11 seconds 841 msec
