                         Program Version 5.0.0 -  RELEASE  -
|  1> !PBE0 D3BJ RIJCOSX def2-SVPD def2/J TightSCF
|  2> *xyz 0 1
|  3> C         -1.78916       -0.63923        4.55750
|  4> C         -2.79070       -0.78527        5.70281
|  5> H         -2.86731       -1.83565        6.00167
|  6> H         -3.77455       -0.48658        5.33481
|  7> C         -2.45380        0.05510        6.94145
|  8> C         -2.07842        1.48042        6.56410
|  9> H         -1.62558       -0.38216        7.49891
| 10> H         -3.32527        0.08775        7.59917
| 11> O         -0.90125        1.85816        6.82810
| 12> F         -2.93658        2.17731        5.96415
| 13> H         -2.09421       -1.25377        3.73641
| 14> H         -0.81933       -0.94475        4.89064
| 15> H         -1.75281        0.38306        4.24366
| 16> *
| 17> %MaxCore 64000
| 18>
| 19> %pal nprocs 4
| 20> end
| 21>
| 22> %scf
| 23>   MaxIter 150
| 24> end
| 25>
| 26>
| 27>                          ****END OF INPUT****

CARTESIAN COORDINATES (ANGSTROEM)
---------------------------------
  C     -1.789160   -0.639230    4.557500
  C     -2.790700   -0.785270    5.702810
  H     -2.867310   -1.835650    6.001670
  H     -3.774550   -0.486580    5.334810
  C     -2.453800    0.055100    6.941450
  C     -2.078420    1.480420    6.564100
  H     -1.625580   -0.382160    7.498910
  H     -3.325270    0.087750    7.599170
  O     -0.901250    1.858160    6.828100
  F     -2.936580    2.177310    5.964150
  H     -2.094210   -1.253770    3.736410
  H     -0.819330   -0.944750    4.890640
  H     -1.752810    0.383060    4.243660

 Total Charge           Charge          ....    0
 Multiplicity           Mult            ....    1
 Number of Electrons    NEL             ....   48
 Basis Dimension        Dim             ....  182

ORBITAL ENERGIES
----------------

  NO   OCC          E(Eh)            E(eV)
   0   2.0000     -24.857148      -676.3974
   1   2.0000     -19.225462      -523.1514
   2   2.0000     -10.415000      -283.4066
   3   2.0000     -10.264457      -279.3101
   4   2.0000     -10.254597      -279.0418
   5   2.0000     -10.229278      -278.3528
   6   2.0000      -1.339344       -36.4454
   7   2.0000      -1.048863       -28.5410
   8   2.0000      -0.838066       -22.8049
   9   2.0000      -0.747843       -20.3498
  10   2.0000      -0.682770       -18.5791
  11   2.0000      -0.632780       -17.2188
  12   2.0000      -0.571433       -15.5495
  13   2.0000      -0.558940       -15.2095
  14   2.0000      -0.513264       -13.9666
  15   2.0000      -0.490279       -13.3412
  16   2.0000      -0.473709       -12.8903
  17   2.0000      -0.434496       -11.8232
  18   2.0000      -0.418219       -11.3803
  19   2.0000      -0.389500       -10.5988
  20   2.0000      -0.380799       -10.3621
  21   2.0000      -0.363716        -9.8972
  22   2.0000      -0.362327        -9.8594
  23   2.0000      -0.303976        -8.2716
  24   0.0000      -0.028858        -0.7853
  25   0.0000       0.019143         0.5209
  26   0.0000       0.050915         1.3855
  27   0.0000       0.055495         1.5101
  28   0.0000       0.062753         1.7076

MULLIKEN ATOMIC CHARGES
-----------------------
   0 C :    0.505695
   1 C :   -0.490277
   2 H :   -0.085062
   3 H :    0.042204
   4 C :   -0.006137
   5 C :    0.906970
   6 H :    0.049383
   7 H :    0.074697
   8 O :   -0.571622
   9 F :   -0.448542
  10 H :   -0.023432
  11 H :    0.029297
  12 H :    0.016826
Sum of atomic charges:   -0.0000000

LOEWDIN ATOMIC CHARGES
----------------------
   0 C :    0.128258
   1 C :   -0.069174
   2 H :    0.026649
   3 H :    0.024517
   4 C :    0.039961
   5 C :   -0.009741
   6 H :    0.038163
   7 H :    0.036566
   8 O :   -0.144557
   9 F :   -0.036091
  10 H :   -0.012558
  11 H :   -0.004922
  12 H :   -0.017070

  Mayer bond orders larger than 0.100000
B(  0-C ,  1-C ) :   1.3597 B(  0-C , 10-H ) :   0.7972 B(  0-C , 11-H ) :   0.8251
B(  0-C , 12-H ) :   0.8584 B(  1-C ,  2-H ) :   1.0001 B(  1-C ,  3-H ) :   0.9231
B(  1-C ,  4-C ) :   1.1912 B(  1-C ,  6-H ) :   0.1187 B(  1-C ,  7-H ) :   0.1097
B(  1-C , 10-H ) :   0.1876 B(  1-C , 11-H ) :   0.1741 B(  1-C , 12-H ) :   0.1712
B(  4-C ,  5-C ) :   1.0563 B(  4-C ,  6-H ) :   0.9235 B(  4-C ,  7-H ) :   0.8483
B(  4-C ,  9-F ) :   0.1027 B(  5-C ,  6-H ) :   0.1255 B(  5-C ,  8-O ) :   1.6985
B(  5-C ,  9-F ) :   0.6138 B(  8-O ,  9-F ) :   0.1072

Dispersion correction           -0.008059807
FINAL SINGLE POINT ENERGY      -331.123115248128

DIPOLE MOMENT
-------------
                                X             Y             Z
Electronic contribution:     -0.63580       9.46433       2.81287
Nuclear contribution   :     -0.24054     -10.41383      -2.92452
                        -----------------------------------------
Total Dipole Moment    :     -0.87634      -0.94950      -0.11166
                        -----------------------------------------
Magnitude (a.u.)       :      1.29692
Magnitude (Debye)      :      3.29651

Rotational constants in cm-1:     0.180403     0.081943     0.079197
Rotational constants in MHz :  5408.335479  2456.587956  2374.272438

                             ****ORCA TERMINATED NORMALLY****
TOTAL RUN TIME: 0 days 0 hours 0 minutes 16 seconds 518 msec
