                         Program Version 5.0.0 -  RELEASE  -
|  1> !PBE0 D3BJ RIJCOSX def2-SVPD def2/J TightSCF xyzfile
|  2>
|  3> *xyzfile 0 1 D1.xyz
|  4>
|  5> %MaxCore 64000
|  6>
|  7> %pal nprocs 4
|  8> end
|  9>
| 10> %scf
| 11>   MaxIter 150
| 12> end
| 13>
| 14>
| 15>                          ****END OF INPUT****

CARTESIAN COORDINATES (ANGSTROEM)
---------------------------------
  C     -0.699123    3.489451    3.755163
  H     -0.966716    4.349013    3.140491
  C     -1.080669    3.792957    5.156857
  C      0.776956    3.138391    3.617408
  H     -1.331455    2.656510    3.446323
  H      1.371398    3.888342    4.149744
  H      1.046926    3.232057    2.561331
  C      1.118917    1.731170    4.115155
  H      2.200573    1.654226    4.254882
  C      0.659466    0.635182    3.153306
  H      0.677024    1.576674    5.103150
  H      1.312288    0.638870    2.274207
  H     -0.339563    0.868049    2.772876
  C      0.639957   -0.771175    3.755619
  C     -0.341821   -0.965537    4.915046
  H      1.648266   -1.028665    4.097015
  H      0.398568   -1.482386    2.958453
  H     -0.279892   -2.005646    5.252547
  C     -1.789164   -0.639231    4.557496
  H     -0.032380   -0.352918    5.765118
  H     -2.107151   -1.270102    3.719619
  H     -1.856352    0.391636    4.197604
  C     -2.790700   -0.785275    5.702812
  H     -2.867308   -1.835651    6.001675
  H     -3.774554   -0.486577    5.334807
  C     -2.453797    0.055101    6.941445
  C     -2.078419    1.480421    6.564098
  H     -1.625584   -0.382163    7.498914
  H     -3.325274    0.087746    7.599175
  H     -0.874488    4.762737    5.427344
  H     -0.680793    3.134762    5.839000
  H     -2.057550    3.531691    5.346197
  F     -0.901252    1.858156    6.828104
  O     -2.936582    2.177309    5.964151

 Total Charge           Charge          ....    0
 Multiplicity           Mult            ....    1
 Number of Electrons    NEL             ....  104
 Basis Dimension        Dim             ....  434

ORBITAL ENERGIES
----------------

  NO   OCC          E(Eh)            E(eV)
   0   2.0000     -24.865390      -676.6216
   1   2.0000     -19.234588      -523.3997
   2   2.0000     -10.426186      -283.7109
   3   2.0000     -10.269069      -279.4356
   4   2.0000     -10.251999      -278.9711
   5   2.0000     -10.237063      -278.5646
   6   2.0000     -10.234033      -278.4822
   7   2.0000     -10.228389      -278.3286
   8   2.0000     -10.221386      -278.1381
   9   2.0000     -10.218577      -278.0616
  10   2.0000     -10.211002      -277.8555
  11   2.0000     -10.201456      -277.5957
  12   2.0000     -10.147832      -276.1366
  13   2.0000      -1.350842       -36.7583
  14   2.0000      -1.067897       -29.0590
  15   2.0000      -0.850726       -23.1494
  16   2.0000      -0.826007       -22.4768
  17   2.0000      -0.795402       -21.6440
  18   2.0000      -0.766989       -20.8708
  19   2.0000      -0.724937       -19.7265
  20   2.0000      -0.702808       -19.1244
  21   2.0000      -0.676115       -18.3980
  22   2.0000      -0.640269       -17.4226
  23   2.0000      -0.624229       -16.9861
  24   2.0000      -0.582435       -15.8489
  25   2.0000      -0.580659       -15.8005
  26   2.0000      -0.571699       -15.5567
  27   2.0000      -0.553006       -15.0481
  28   2.0000      -0.535255       -14.5650
  29   2.0000      -0.495512       -13.4836
  30   2.0000      -0.491995       -13.3879
  31   2.0000      -0.474720       -12.9178
  32   2.0000      -0.472200       -12.8492
  33   2.0000      -0.451772       -12.2933
  34   2.0000      -0.443702       -12.0737
  35   2.0000      -0.429463       -11.6863
  36   2.0000      -0.422224       -11.4893
  37   2.0000      -0.413701       -11.2574
  38   2.0000      -0.403687       -10.9849
  39   2.0000      -0.393886       -10.7182
  40   2.0000      -0.381131       -10.3711
  41   2.0000      -0.375234       -10.2106
  42   2.0000      -0.365469        -9.9449
  43   2.0000      -0.357496        -9.7280
  44   2.0000      -0.351208        -9.5569
  45   2.0000      -0.341535        -9.2936
  46   2.0000      -0.335676        -9.1342
  47   2.0000      -0.324608        -8.8330
  48   2.0000      -0.320900        -8.7321
  49   2.0000      -0.310211        -8.4413
  50   2.0000      -0.307249        -8.3607
  51   2.0000      -0.279696        -7.6109
  52   0.0000      -0.042739        -1.1630
  53   0.0000       0.020982         0.5709
  54   0.0000       0.036196         0.9849
  55   0.0000       0.039442         1.0733
  56   0.0000       0.046020         1.2523

MULLIKEN ATOMIC CHARGES
-----------------------
   0 C :   -0.125310
   1 H :   -0.239312
   2 C :    1.586066
   3 C :    0.415129
   4 H :   -0.148068
   5 H :   -0.018819
   6 H :   -0.050524
   7 C :    0.411295
   8 H :    0.046664
   9 C :   -0.113441
  10 H :   -0.585485
  11 H :   -0.176959
  12 H :   -0.027140
  13 C :    0.566786
  14 C :   -0.138521
  15 H :   -0.066594
  16 H :    0.092507
  17 H :   -0.222608
  18 C :    0.107522
  19 H :    0.063981
  20 H :   -0.025197
  21 H :   -0.386084
  22 C :    0.340792
  23 H :   -0.111287
  24 H :    0.139694
  25 C :    0.131787
  26 C :    0.709073
  27 H :    0.208299
  28 H :   -0.099334
  29 H :   -0.248085
  30 H :   -0.621702
  31 H :   -0.188092
  32 F :   -0.574371
  33 O :   -0.652658
Sum of atomic charges:    0.0000000

LOEWDIN ATOMIC CHARGES
----------------------
   0 C :   -0.042090
   1 H :    0.023754
   2 C :    0.130276
   3 C :   -0.030526
   4 H :    0.005543
   5 H :    0.026101
   6 H :    0.018778
   7 C :   -0.018636
   8 H :    0.026608
   9 C :   -0.034672
  10 H :   -0.012593
  11 H :    0.026794
  12 H :    0.002560
  13 C :   -0.031132
  14 C :   -0.031282
  15 H :    0.025185
  16 H :    0.024232
  17 H :    0.028351
  18 C :   -0.026563
  19 H :   -0.002340
  20 H :    0.035995
  21 H :    0.002805
  22 C :   -0.010618
  23 H :    0.029746
  24 H :    0.033010
  25 C :    0.054598
  26 C :    0.053682
  27 H :    0.026120
  28 H :    0.044243
  29 H :   -0.016703
  30 H :   -0.093782
  31 H :   -0.095486
  32 F :   -0.054994
  33 O :   -0.116966

  Mayer bond orders larger than 0.100000
B(  0-C ,  1-H ) :   0.9498 B(  0-C ,  2-C ) :   0.9661 B(  0-C ,  3-C ) :   1.1787
B(  0-C ,  4-H ) :   0.7818 B(  0-C ,  5-H ) :   0.1545 B(  0-C ,  6-H ) :   0.1444
B(  0-C ,  7-C ) :   0.1272 B(  0-C , 10-H ) :  -0.1187 B(  0-C , 29-H ) :   0.1336
B(  0-C , 30-H ) :   0.4676 B(  0-C , 31-H ) :   0.2900 B(  1-H , 30-H ) :   0.1105
B(  2-C ,  4-H ) :   0.1816 B(  2-C , 29-H ) :   0.5943 B(  2-C , 31-H ) :   0.4302
B(  3-C ,  4-H ) :   0.1104 B(  3-C ,  5-H ) :   0.7396 B(  3-C ,  6-H ) :   0.7780
B(  3-C ,  7-C ) :   1.1945 B(  3-C , 10-H ) :   0.1853 B(  3-C , 30-H ) :  -0.1258
B(  4-H , 21-H ) :   0.1391 B(  5-H ,  6-H ) :  -0.1064 B(  5-H ,  7-C ) :   0.1362
B(  6-H ,  7-C ) :   0.1361 B(  7-C ,  8-H ) :   0.7180 B(  7-C ,  9-C ) :   1.1547
B(  7-C , 10-H ) :   0.6440 B(  7-C , 11-H ) :   0.1824 B(  8-H ,  9-C ) :   0.1898
B(  9-C , 10-H ) :   0.2005 B(  9-C , 11-H ) :   0.9265 B(  9-C , 12-H ) :   0.9225
B(  9-C , 13-C ) :   1.1992 B(  9-C , 15-H ) :   0.1426 B(  9-C , 16-H ) :   0.1994
B( 10-H , 19-H ) :   0.1058 B( 10-H , 30-H ) :   0.1030 B( 13-C , 14-C ) :   1.1544
B( 13-C , 15-H ) :   0.7290 B( 13-C , 16-H ) :   0.7134 B( 14-C , 15-H ) :   0.2490
B( 14-C , 17-H ) :   0.9782 B( 14-C , 18-C ) :   1.1762 B( 14-C , 19-H ) :   0.8658
B( 14-C , 20-H ) :   0.1620 B( 14-C , 21-H ) :   0.1936 B( 15-H , 16-H ) :  -0.1005
B( 17-H , 18-C ) :   0.1499 B( 18-C , 20-H ) :   0.7319 B( 18-C , 21-H ) :   0.8532
B( 18-C , 22-C ) :   1.2786 B( 18-C , 23-H ) :   0.1534 B( 18-C , 24-H ) :   0.2132
B( 20-H , 21-H ) :   0.1201 B( 21-H , 22-C ) :   0.1111 B( 22-C , 23-H ) :   0.8475
B( 22-C , 24-H ) :   0.7018 B( 22-C , 25-C ) :   1.1802 B( 22-C , 28-H ) :   0.1585
B( 23-H , 24-H ) :  -0.1088 B( 23-H , 25-C ) :   0.1139 B( 25-C , 26-C ) :   1.2385
B( 25-C , 27-H ) :   0.8054 B( 25-C , 28-H ) :   0.7071 B( 26-C , 27-H ) :   0.1205
B( 26-C , 28-H ) :   0.2696 B( 26-C , 30-H ) :   0.1102 B( 26-C , 32-F ) :   0.5190
B( 26-C , 33-O ) :   1.5404 B( 29-H , 30-H ) :   0.1868 B( 30-H , 31-H ) :   0.3458
B( 30-H , 32-F ) :   0.2273 B( 31-H , 33-O ) :   0.2003

Dispersion correction           -0.032801419
FINAL SINGLE POINT ENERGY      -605.762167760450

DIPOLE MOMENT
-------------
                                X             Y             Z
Electronic contribution:     -5.47090       2.47273      10.84004
Nuclear contribution   :      5.54676      -3.70047     -10.28793
                        -----------------------------------------
Total Dipole Moment    :      0.07585      -1.22773       0.55211
                        -----------------------------------------
Magnitude (a.u.)       :      1.34830
Magnitude (Debye)      :      3.42711

Rotational constants in cm-1:     0.028503     0.023389     0.015214
Rotational constants in MHz :   854.502405   701.197575   456.108322

                             ****ORCA TERMINATED NORMALLY****
TOTAL RUN TIME: 0 days 0 hours 2 minutes 47 seconds 882 msec
