                         Program Version 5.0.0 -  RELEASE  -
|  1> !LC-PBE RIJCOSX def2-TZVP def2/J TightSCF
|  2> *xyz -1 1
|  3> C         -0.05517        1.61942       -3.78858
|  4> C          1.22302        2.46987       -3.75691
|  5> H          1.11470        3.25807       -4.53300
|  6> H          1.23773        3.01124       -2.79216
|  7> O          2.35381        1.71203       -3.93448
|  8> H         -0.10198        1.08015       -4.71156
|  9> H         -0.91014        2.25726       -3.70441
| 10> H         -0.04403        0.92826       -2.97183
| 11> *
| 12>
| 13> %MaxCore 64000
| 14>
| 15> %pal nprocs 4
| 16> end
| 17>
| 18> %scf
| 19>   MaxIter 150
| 20> end
| 21>
| 22>
| 23>                          ****END OF INPUT****

CARTESIAN COORDINATES (ANGSTROEM)
---------------------------------
  C     -0.055170    1.619420   -3.788580
  C      1.223020    2.469870   -3.756910
  H      1.114700    3.258070   -4.533000
  H      1.237730    3.011240   -2.792160
  O      2.353810    1.712030   -3.934480
  H     -0.101980    1.080150   -4.711560
  H     -0.910140    2.257260   -3.704410
  H     -0.044030    0.928260   -2.971830

 Total Charge           Charge          ....   -1
 Multiplicity           Mult            ....    1
 Number of Electrons    NEL             ....   26
 Basis Dimension        Dim             ....  123

ORBITAL ENERGIES
----------------

  NO   OCC          E(Eh)            E(eV)
   0   2.0000     -18.609951      -506.4025
   1   2.0000      -9.917146      -269.8593
   2   2.0000      -9.896614      -269.3005
   3   2.0000      -0.827944       -22.5295
   4   2.0000      -0.687583       -18.7101
   5   2.0000      -0.521100       -14.1799
   6   2.0000      -0.388948       -10.5838
   7   2.0000      -0.361136        -9.8270
   8   2.0000      -0.301433        -8.2024
   9   2.0000      -0.281073        -7.6484
  10   2.0000      -0.228183        -6.2092
  11   2.0000      -0.078832        -2.1451
  12   2.0000      -0.076558        -2.0833
  13   0.0000       0.298224         8.1151
  14   0.0000       0.336784         9.1643
  15   0.0000       0.361088         9.8257
  16   0.0000       0.365335         9.9413
  17   0.0000       0.398621        10.8470

MULLIKEN ATOMIC CHARGES
-----------------------
   0 C :   -0.303985
   1 C :   -0.016425
   2 H :   -0.035213
   3 H :   -0.033031
   4 O :   -0.786175
   5 H :    0.074930
   6 H :    0.026322
   7 H :    0.073577
Sum of atomic charges:   -1.0000000

LOEWDIN ATOMIC CHARGES
----------------------
   0 C :   -0.384438
   1 C :   -0.574903
   2 H :    0.064591
   3 H :    0.065777
   4 O :   -0.454140
   5 H :    0.099102
   6 H :    0.085693
   7 H :    0.098317

  Mayer bond orders larger than 0.100000
B(  0-C ,  1-C ) :   0.9067 B(  0-C ,  4-O ) :  -0.1456 B(  0-C ,  5-H ) :   0.9758
B(  0-C ,  6-H ) :   0.9536 B(  0-C ,  7-H ) :   0.9783 B(  1-C ,  2-H ) :   0.9472
B(  1-C ,  3-H ) :   0.9470 B(  1-C ,  4-O ) :   1.5725

FINAL SINGLE POINT ENERGY      -154.002468005436

DIPOLE MOMENT
-------------
                                X             Y             Z
Electronic contribution:      2.73640      -0.55837      -0.25176
Nuclear contribution   :     -4.28298       0.81046       0.39340
                        -----------------------------------------
Total Dipole Moment    :     -1.54658       0.25210       0.14164
                        -----------------------------------------
Magnitude (a.u.)       :      1.57338
Magnitude (Debye)      :      3.99921

Rotational constants in cm-1:     1.266793     0.328147     0.288309
Rotational constants in MHz : 37977.512300  9837.594308  8643.275638

                             ****ORCA TERMINATED NORMALLY****
TOTAL RUN TIME: 0 days 0 hours 0 minutes 13 seconds 489 msec
