                         Program Version 5.0.0 -  RELEASE  -
|  1> !LC-PBE RIJCOSX def2-TZVP def2/J TightSCF
|  2> *xyz 1 1
|  3> C          1.63556       -1.67040       -5.29211
|  4> C          0.33848       -1.50091       -4.50540
|  5> N          2.48451       -0.50741       -5.14039
|  6> H          1.39834       -1.82924       -6.35259
|  7> H          2.15586       -2.56540       -4.93209
|  8> C          3.45115       -0.14953       -5.95259
|  9> N          3.92267        1.08956       -5.85071
| 10> N          3.96616       -1.00618       -6.86788
| 11> H          3.52139       -1.90647       -6.99527
| 12> H          4.44482       -0.62347       -7.67035
| 13> H          2.25200        0.24080       -4.49879
| 14> H          3.46428        1.64078       -5.13639
| 15> H          4.83447        1.31375       -6.22465
| 16> H         -0.17658       -0.62881       -4.85045
| 17> H          0.56384       -1.39374       -3.46490
| 18> H         -0.28102       -2.36136       -4.64938
| 19> *
| 20>
| 21> %MaxCore 64000
| 22>
| 23> %pal nprocs 4
| 24> end
| 25>
| 26> %scf
| 27>   MaxIter 150
| 28> end
| 29>
| 30>
| 31>                          ****END OF INPUT****

CARTESIAN COORDINATES (ANGSTROEM)
---------------------------------
  C      1.635560   -1.670400   -5.292110
  C      0.338480   -1.500910   -4.505400
  N      2.484510   -0.507410   -5.140390
  H      1.398340   -1.829240   -6.352590
  H      2.155860   -2.565400   -4.932090
  C      3.451150   -0.149530   -5.952590
  N      3.922670    1.089560   -5.850710
  N      3.966160   -1.006180   -6.867880
  H      3.521390   -1.906470   -6.995270
  H      4.444820   -0.623470   -7.670350
  H      2.252000    0.240800   -4.498790
  H      3.464280    1.640780   -5.136390
  H      4.834470    1.313750   -6.224650
  H     -0.176580   -0.628810   -4.850450
  H      0.563840   -1.393740   -3.464900
  H     -0.281020   -2.361360   -4.649380

 Total Charge           Charge          ....    1
 Multiplicity           Mult            ....    1
 Number of Electrons    NEL             ....   48
 Basis Dimension        Dim             ....  246

ORBITAL ENERGIES
----------------

  NO   OCC          E(Eh)            E(eV)
   0   2.0000     -14.444808      -393.0632
   1   2.0000     -14.437963      -392.8770
   2   2.0000     -14.435674      -392.8147
   3   2.0000     -10.457933      -284.5748
   4   2.0000     -10.325568      -280.9730
   5   2.0000     -10.251796      -278.9656
   6   2.0000      -1.401121       -38.1264
   7   2.0000      -1.279632       -34.8206
   8   2.0000      -1.263766       -34.3888
   9   2.0000      -1.110488       -30.2179
  10   2.0000      -0.990582       -26.9551
  11   2.0000      -0.975042       -26.5322
  12   2.0000      -0.929035       -25.2803
  13   2.0000      -0.895812       -24.3763
  14   2.0000      -0.830187       -22.5905
  15   2.0000      -0.828535       -22.5456
  16   2.0000      -0.813623       -22.1398
  17   2.0000      -0.783086       -21.3088
  18   2.0000      -0.749893       -20.4056
  19   2.0000      -0.682903       -18.5827
  20   2.0000      -0.664028       -18.0691
  21   2.0000      -0.654188       -17.8014
  22   2.0000      -0.612482       -16.6665
  23   2.0000      -0.580832       -15.8052
  24   0.0000      -0.073983        -2.0132
  25   0.0000      -0.065136        -1.7724
  26   0.0000      -0.034029        -0.9260
  27   0.0000      -0.018430        -0.5015
  28   0.0000       0.004277         0.1164

MULLIKEN ATOMIC CHARGES
-----------------------
   0 C :   -0.234241
   1 C :   -0.507676
   2 N :   -0.196755
   3 H :    0.178871
   4 H :    0.204615
   5 C :    0.365196
   6 N :   -0.406483
   7 N :   -0.442132
   8 H :    0.311854
   9 H :    0.306332
  10 H :    0.264286
  11 H :    0.286251
  12 H :    0.314109
  13 H :    0.178155
  14 H :    0.184405
  15 H :    0.193214
Sum of atomic charges:    1.0000000

LOEWDIN ATOMIC CHARGES
----------------------
   0 C :   -0.309319
   1 C :   -0.300652
   2 N :    0.172062
   3 H :    0.150062
   4 H :    0.153431
   5 C :   -0.406801
   6 N :    0.055548
   7 N :    0.044106
   8 H :    0.199532
   9 H :    0.201270
  10 H :    0.217621
  11 H :    0.202517
  12 H :    0.205761
  13 H :    0.133756
  14 H :    0.135445
  15 H :    0.145661

  Mayer bond orders larger than 0.100000
B(  0-C ,  1-C ) :   0.9820 B(  0-C ,  2-N ) :   0.8511 B(  0-C ,  3-H ) :   0.9632
B(  0-C ,  4-H ) :   0.9433 B(  1-C , 13-H ) :   0.9663 B(  1-C , 14-H ) :   0.9655
B(  1-C , 15-H ) :   0.9577 B(  2-N ,  5-C ) :   1.4197 B(  2-N , 10-H ) :   0.9005
B(  5-C ,  6-N ) :   1.3330 B(  5-C ,  7-N ) :   1.3150 B(  6-N , 11-H ) :   0.8967
B(  6-N , 12-H ) :   0.8845 B(  7-N ,  8-H ) :   0.8902 B(  7-N ,  9-H ) :   0.8887

FINAL SINGLE POINT ENERGY      -283.598593967598

DIPOLE MOMENT
-------------
                                X             Y             Z
Electronic contribution:      4.71603       2.49951      -1.71205
Nuclear contribution   :     -3.96322      -1.85512       1.24891
                        -----------------------------------------
Total Dipole Moment    :      0.75281       0.64440      -0.46315
                        -----------------------------------------
Magnitude (a.u.)       :      1.09383
Magnitude (Debye)      :      2.78030

Rotational constants in cm-1:     0.261404     0.067000     0.054949
Rotational constants in MHz :  7836.702504  2008.609425  1647.329138

                             ****ORCA TERMINATED NORMALLY****
TOTAL RUN TIME: 0 days 0 hours 0 minutes 41 seconds 715 msec
