                         Program Version 5.0.0 -  RELEASE  -
|  1> !LC-PBE RIJCOSX def2-TZVP def2/J TightSCF xyzfile
|  2>
|  3> *xyzfile 0 1 B.xyz
|  4>
|  5> %MaxCore 64000
|  6>
|  7> %pal nprocs 18
|  8> end
|  9>
| 10> %scf
| 11>   MaxIter 150
| 12> end
| 13>
| 14>
| 15>                          ****END OF INPUT****

CARTESIAN COORDINATES (ANGSTROEM)
---------------------------------
  C      1.635557   -1.670396   -5.292109
  C      0.338484   -1.500907   -4.505398
  N      2.484511   -0.507410   -5.140392
  C     -0.684873   -0.528026   -5.099889
  C     -0.290406    0.951335   -5.153423
  H      0.607991    1.070692   -5.764412
  C     -0.055168    1.619420   -3.788577
  H     -1.080912    1.483775   -5.689436
  H      0.045006    0.862302   -3.003015
  H     -0.922936    2.230329   -3.517028
  C      1.223022    2.469865   -3.756911
  H      1.114701    3.258074   -4.532999
  H      1.237732    3.011242   -2.792157
  O      2.353815    1.712032   -3.934477
  H      1.398337   -1.829239   -6.352591
  H      2.155864   -2.565398   -4.932091
  C      3.451149   -0.149530   -5.952589
  N      3.922667    1.089559   -5.850711
  N      3.966162   -1.006183   -6.867880
  H      3.521391   -1.906467   -6.995270
  H      4.444824   -0.623472   -7.670348
  H      2.251995    0.240804   -4.498792
  H      3.464277    1.640782   -5.136392
  H      4.834470    1.313745   -6.224653
  H     -0.937999   -0.869056   -6.110838
  H     -1.604638   -0.622496   -4.513132
  H      0.594887   -1.211578   -3.482312
  H     -0.126530   -2.487656   -4.434176

 Total Charge           Charge          ....    0
 Multiplicity           Mult            ....    1
 Number of Electrons    NEL             ....   88
 Basis Dimension        Dim             ....  443

ORBITAL ENERGIES
----------------

  NO   OCC          E(Eh)            E(eV)
   0   2.0000     -18.835217      -512.5323
   1   2.0000     -14.272478      -388.3739
   2   2.0000     -14.231110      -387.2482
   3   2.0000     -14.226444      -387.1212
   4   2.0000     -10.268593      -279.4226
   5   2.0000     -10.167366      -276.6681
   6   2.0000     -10.118390      -275.3354
   7   2.0000     -10.104947      -274.9696
   8   2.0000     -10.089187      -274.5407
   9   2.0000     -10.085820      -274.4491
  10   2.0000     -10.067132      -273.9406
  11   2.0000      -1.211793       -32.9746
  12   2.0000      -1.098976       -29.9047
  13   2.0000      -1.077948       -29.3324
  14   2.0000      -1.045252       -28.4428
  15   2.0000      -0.978811       -26.6348
  16   2.0000      -0.919806       -25.0292
  17   2.0000      -0.859197       -23.3799
  18   2.0000      -0.812587       -22.1116
  19   2.0000      -0.786624       -21.4051
  20   2.0000      -0.751619       -20.4526
  21   2.0000      -0.733458       -19.9584
  22   2.0000      -0.713170       -19.4064
  23   2.0000      -0.681780       -18.5522
  24   2.0000      -0.649887       -17.6843
  25   2.0000      -0.646615       -17.5953
  26   2.0000      -0.633128       -17.2283
  27   2.0000      -0.621190       -16.9034
  28   2.0000      -0.586439       -15.9578
  29   2.0000      -0.567966       -15.4551
  30   2.0000      -0.558427       -15.1956
  31   2.0000      -0.550113       -14.9693
  32   2.0000      -0.521486       -14.1904
  33   2.0000      -0.499776       -13.5996
  34   2.0000      -0.491012       -13.3611
  35   2.0000      -0.468697       -12.7539
  36   2.0000      -0.448223       -12.1968
  37   2.0000      -0.442823       -12.0498
  38   2.0000      -0.432099       -11.7580
  39   2.0000      -0.422591       -11.4993
  40   2.0000      -0.415422       -11.3042
  41   2.0000      -0.386336       -10.5127
  42   2.0000      -0.302000        -8.2178
  43   2.0000      -0.295076        -8.0294
  44   0.0000       0.082368         2.2413
  45   0.0000       0.104885         2.8541
  46   0.0000       0.113820         3.0972
  47   0.0000       0.132301         3.6001
  48   0.0000       0.150423         4.0932

MULLIKEN ATOMIC CHARGES
-----------------------
   0 C :   -0.217603
   1 C :   -0.371748
   2 N :   -0.197458
   3 C :   -0.276590
   4 C :   -0.353546
   5 H :    0.163666
   6 C :   -0.233624
   7 H :    0.138436
   8 H :    0.115077
   9 H :    0.119611
  10 C :   -0.040062
  11 H :    0.063060
  12 H :    0.074324
  13 O :   -0.753860
  14 H :    0.143582
  15 H :    0.164195
  16 C :    0.347075
  17 N :   -0.432396
  18 N :   -0.494181
  19 H :    0.282534
  20 H :    0.274253
  21 H :    0.286400
  22 H :    0.309796
  23 H :    0.252221
  24 H :    0.137618
  25 H :    0.151709
  26 H :    0.190994
  27 H :    0.156514
Sum of atomic charges:   -0.0000000

LOEWDIN ATOMIC CHARGES
----------------------
   0 C :   -0.303380
   1 C :   -0.284113
   2 N :    0.173416
   3 C :   -0.290784
   4 C :   -0.291841
   5 H :    0.145965
   6 C :   -0.302232
   7 H :    0.140263
   8 H :    0.137059
   9 H :    0.134851
  10 C :   -0.491070
  11 H :    0.103460
  12 H :    0.109049
  13 O :   -0.313708
  14 H :    0.138006
  15 H :    0.139676
  16 C :   -0.427701
  17 N :    0.032589
  18 N :   -0.005678
  19 H :    0.183306
  20 H :    0.182798
  21 H :    0.164365
  22 H :    0.158596
  23 H :    0.175751
  24 H :    0.140766
  25 H :    0.148045
  26 H :    0.153071
  27 H :    0.149475

  Mayer bond orders larger than 0.100000
B(  0-C ,  1-C ) :   0.9727 B(  0-C ,  2-N ) :   0.8931 B(  0-C , 14-H ) :   0.9643
B(  0-C , 15-H ) :   0.9567 B(  1-C ,  3-C ) :   0.9449 B(  1-C , 26-H ) :   0.9766
B(  1-C , 27-H ) :   0.9775 B(  2-N , 16-C ) :   1.4778 B(  2-N , 21-H ) :   0.7282
B(  3-C ,  4-C ) :   0.9355 B(  3-C , 24-H ) :   0.9835 B(  3-C , 25-H ) :   0.9796
B(  4-C ,  5-H ) :   0.9773 B(  4-C ,  6-C ) :   0.9021 B(  4-C ,  7-H ) :   0.9788
B(  6-C ,  8-H ) :   0.9800 B(  6-C ,  9-H ) :   0.9646 B(  6-C , 10-C ) :   0.9477
B( 10-C , 11-H ) :   0.9817 B( 10-C , 12-H ) :   0.9712 B( 10-C , 13-O ) :   1.1526
B( 13-O , 21-H ) :   0.2686 B( 13-O , 22-H ) :   0.2191 B( 16-C , 17-N ) :   1.3991
B( 16-C , 18-N ) :   1.2134 B( 17-N , 22-H ) :   0.7486 B( 17-N , 23-H ) :   0.9150
B( 18-N , 19-H ) :   0.9082 B( 18-N , 20-H ) :   0.9070

FINAL SINGLE POINT ENERGY      -515.005803164008

DIPOLE MOMENT
-------------
                                X             Y             Z
Electronic contribution:      8.35138      -0.95206      -2.31068
Nuclear contribution   :     -7.46499      -1.05836       0.01518
                        -----------------------------------------
Total Dipole Moment    :      0.88639      -2.01042      -2.29551
                        -----------------------------------------
Magnitude (a.u.)       :      3.17755
Magnitude (Debye)      :      8.07670

Rotational constants in cm-1:     0.044680     0.028958     0.019773
Rotational constants in MHz :  1339.486245   868.136755   592.791310

                             ****ORCA TERMINATED NORMALLY****
TOTAL RUN TIME: 0 days 0 hours 0 minutes 52 seconds 865 msec
