                         Program Version 5.0.0 -  RELEASE  -
|  1> !LC-PBE RIJCOSX def2-TZVP def2/J TightSCF
|  2> *xyz 0 1
|  3> C         -0.05517        1.61942       -3.78858
|  4> C          1.22302        2.46987       -3.75691
|  5> H          1.11470        3.25807       -4.53300
|  6> H          1.23773        3.01124       -2.79216
|  7> F          2.35381        1.71203       -3.93448
|  8> H         -0.10198        1.08015       -4.71156
|  9> H         -0.91014        2.25726       -3.70441
| 10> H         -0.04403        0.92826       -2.97183
| 11> *
| 12>
| 13> %MaxCore 64000
| 14>
| 15> %pal nprocs 4
| 16> end
| 17>
| 18> %scf
| 19>   MaxIter 150
| 20> end
| 21>
| 22>
| 23>                          ****END OF INPUT****

CARTESIAN COORDINATES (ANGSTROEM)
---------------------------------
  C     -0.055170    1.619420   -3.788580
  C      1.223020    2.469870   -3.756910
  H      1.114700    3.258070   -4.533000
  H      1.237730    3.011240   -2.792160
  F      2.353810    1.712030   -3.934480
  H     -0.101980    1.080150   -4.711560
  H     -0.910140    2.257260   -3.704410
  H     -0.044030    0.928260   -2.971830

 Total Charge           Charge          ....    0
 Multiplicity           Mult            ....    1
 Number of Electrons    NEL             ....   26
 Basis Dimension        Dim             ....  123

ORBITAL ENERGIES
----------------

  NO   OCC          E(Eh)            E(eV)
   0   2.0000     -24.471792      -665.9113
   1   2.0000     -10.194257      -277.3998
   2   2.0000     -10.107941      -275.0511
   3   2.0000      -1.351014       -36.7630
   4   2.0000      -0.940949       -25.6045
   5   2.0000      -0.793795       -21.6003
   6   2.0000      -0.655127       -17.8269
   7   2.0000      -0.647775       -17.6269
   8   2.0000      -0.604327       -16.4446
   9   2.0000      -0.544902       -14.8275
  10   2.0000      -0.536207       -14.5909
  11   2.0000      -0.469560       -12.7774
  12   2.0000      -0.461861       -12.5679
  13   0.0000       0.126131         3.4322
  14   0.0000       0.165454         4.5022
  15   0.0000       0.184731         5.0268
  16   0.0000       0.191703         5.2165
  17   0.0000       0.201127         5.4729

MULLIKEN ATOMIC CHARGES
-----------------------
   0 C :   -0.425862
   1 C :   -0.036144
   2 H :    0.117730
   3 H :    0.117585
   4 F :   -0.213847
   5 H :    0.150055
   6 H :    0.141741
   7 H :    0.148742
Sum of atomic charges:   -0.0000000

LOEWDIN ATOMIC CHARGES
----------------------
   0 C :   -0.331903
   1 C :   -0.391203
   2 H :    0.125232
   3 H :    0.124326
   4 F :    0.096455
   5 H :    0.124901
   6 H :    0.128194
   7 H :    0.123997

  Mayer bond orders larger than 0.100000
B(  0-C ,  1-C ) :   0.9845 B(  0-C ,  5-H ) :   0.9670 B(  0-C ,  6-H ) :   0.9578
B(  0-C ,  7-H ) :   0.9683 B(  1-C ,  2-H ) :   0.9729 B(  1-C ,  3-H ) :   0.9730
B(  1-C ,  4-F ) :   1.0162

FINAL SINGLE POINT ENERGY      -178.632059321718

DIPOLE MOMENT
-------------
                                X             Y             Z
Electronic contribution:      4.99943      -0.71766      -0.42818
Nuclear contribution   :     -5.66833       1.07099       0.52006
                        -----------------------------------------
Total Dipole Moment    :     -0.66890       0.35333       0.09188
                        -----------------------------------------
Magnitude (a.u.)       :      0.76204
Magnitude (Debye)      :      1.93696

Rotational constants in cm-1:     1.245689     0.305293     0.269541
Rotational constants in MHz : 37344.801915  9152.442838  8080.640229

                             ****ORCA TERMINATED NORMALLY****
TOTAL RUN TIME: 0 days 0 hours 0 minutes 13 seconds 90 msec
