                         Program Version 5.0.0 -  RELEASE  -
|  1> !LC-PBE RIJCOSX def2-TZVP def2/J TightSCF
|  2> *xyz 0 1
|  3> C          1.63556       -1.67040       -5.29211
|  4> C          0.33848       -1.50091       -4.50540
|  5> C          2.48451       -0.50741       -5.14039
|  6> H          1.39834       -1.82924       -6.35259
|  7> H          2.15586       -2.56540       -4.93209
|  8> C          3.45115       -0.14953       -5.95259
|  9> N          3.92267        1.08956       -5.85071
| 10> N          3.96616       -1.00618       -6.86788
| 11> H          3.52139       -1.90647       -6.99527
| 12> H          4.44482       -0.62347       -7.67035
| 13> H          2.25200        0.24080       -4.49879
| 14> H          3.46428        1.64078       -5.13639
| 15> H          4.83447        1.31375       -6.22465
| 16> H         -0.17658       -0.62881       -4.85045
| 17> H          0.56384       -1.39374       -3.46490
| 18> H         -0.28102       -2.36136       -4.64938
| 19> *
| 20>
| 21> %MaxCore 64000
| 22>
| 23> %pal nprocs 4
| 24> end
| 25>
| 26> %scf
| 27>   MaxIter 150
| 28> end
| 29>
| 30>
| 31>                          ****END OF INPUT****

CARTESIAN COORDINATES (ANGSTROEM)
---------------------------------
  C      1.635560   -1.670400   -5.292110
  C      0.338480   -1.500910   -4.505400
  C      2.484510   -0.507410   -5.140390
  H      1.398340   -1.829240   -6.352590
  H      2.155860   -2.565400   -4.932090
  C      3.451150   -0.149530   -5.952590
  N      3.922670    1.089560   -5.850710
  N      3.966160   -1.006180   -6.867880
  H      3.521390   -1.906470   -6.995270
  H      4.444820   -0.623470   -7.670350
  H      2.252000    0.240800   -4.498790
  H      3.464280    1.640780   -5.136390
  H      4.834470    1.313750   -6.224650
  H     -0.176580   -0.628810   -4.850450
  H      0.563840   -1.393740   -3.464900
  H     -0.281020   -2.361360   -4.649380

 Total Charge           Charge          ....    0
 Multiplicity           Mult            ....    1
 Number of Electrons    NEL             ....   48
 Basis Dimension        Dim             ....  246

ORBITAL ENERGIES
----------------

  NO   OCC          E(Eh)            E(eV)
   0   2.0000     -14.211697      -386.7199
   1   2.0000     -14.206641      -386.5824
   2   2.0000     -10.157108      -276.3890
   3   2.0000     -10.090886      -274.5870
   4   2.0000     -10.079963      -274.2897
   5   2.0000     -10.034264      -273.0462
   6   2.0000      -1.134019       -30.8582
   7   2.0000      -1.037290       -28.2261
   8   2.0000      -0.954249       -25.9664
   9   2.0000      -0.865825       -23.5603
  10   2.0000      -0.770668       -20.9709
  11   2.0000      -0.732826       -19.9412
  12   2.0000      -0.680357       -18.5135
  13   2.0000      -0.659596       -17.9485
  14   2.0000      -0.602473       -16.3941
  15   2.0000      -0.587931       -15.9984
  16   2.0000      -0.567678       -15.4473
  17   2.0000      -0.539063       -14.6686
  18   2.0000      -0.516873       -14.0648
  19   2.0000      -0.471971       -12.8430
  20   2.0000      -0.459962       -12.5162
  21   2.0000      -0.458308       -12.4712
  22   2.0000      -0.397772       -10.8239
  23   2.0000      -0.278153        -7.5689
  24   0.0000       0.110566         3.0086
  25   0.0000       0.136980         3.7274
  26   0.0000       0.147527         4.0144
  27   0.0000       0.162838         4.4310
  28   0.0000       0.167695         4.5632

MULLIKEN ATOMIC CHARGES
-----------------------
   0 C :   -0.288205
   1 C :   -0.467344
   2 C :   -0.340585
   3 H :    0.112437
   4 H :    0.135676
   5 C :    0.310360
   6 N :   -0.495440
   7 N :   -0.514931
   8 H :    0.266797
   9 H :    0.242337
  10 H :    0.107921
  11 H :    0.256075
  12 H :    0.244826
  13 H :    0.144076
  14 H :    0.145591
  15 H :    0.140409
Sum of atomic charges:   -0.0000000

LOEWDIN ATOMIC CHARGES
----------------------
   0 C :   -0.324045
   1 C :   -0.320655
   2 C :   -0.297690
   3 H :    0.138043
   4 H :    0.139747
   5 C :   -0.464423
   6 N :   -0.029467
   7 N :   -0.035782
   8 H :    0.178534
   9 H :    0.165674
  10 H :    0.131115
  11 H :    0.185736
  12 H :    0.167555
  13 H :    0.122929
  14 H :    0.123712
  15 H :    0.119018

  Mayer bond orders larger than 0.100000
B(  0-C ,  1-C ) :   0.9701 B(  0-C ,  2-C ) :   0.9248 B(  0-C ,  3-H ) :   0.9801
B(  0-C ,  4-H ) :   0.9790 B(  1-C , 13-H ) :   0.9773 B(  1-C , 14-H ) :   0.9810
B(  1-C , 15-H ) :   0.9857 B(  2-C ,  5-C ) :   1.6493 B(  2-C , 10-H ) :   1.0056
B(  5-C ,  6-N ) :   1.1605 B(  5-C ,  7-N ) :   1.1434 B(  6-N , 11-H ) :   0.9198
B(  6-N , 12-H ) :   0.9206 B(  7-N ,  8-H ) :   0.9199 B(  7-N ,  9-H ) :   0.9221

FINAL SINGLE POINT ENERGY      -267.134758408766

DIPOLE MOMENT
-------------
                                X             Y             Z
Electronic contribution:      4.54490       2.16997      -1.94438
Nuclear contribution   :     -3.99655      -1.83277       1.34879
                        -----------------------------------------
Total Dipole Moment    :      0.54835       0.33720      -0.59560
                        -----------------------------------------
Magnitude (a.u.)       :      0.87700
Magnitude (Debye)      :      2.22915

Rotational constants in cm-1:     0.262971     0.067064     0.055026
Rotational constants in MHz :  7883.664566  2010.513309  1649.636654

                             ****ORCA TERMINATED NORMALLY****
TOTAL RUN TIME: 0 days 0 hours 0 minutes 42 seconds 575 msec
