                         Program Version 5.0.0 -  RELEASE  -
|  1> !LC-PBE RIJCOSX def2-TZVP def2/J TightSCF
|  2> *xyz 0 1
|  3> C          1.63556       -1.67040       -5.29211
|  4> C          0.33848       -1.50091       -4.50540
|  5> N          2.48451       -0.50741       -5.14039
|  6> H          1.39834       -1.82924       -6.35259
|  7> H          2.15586       -2.56540       -4.93209
|  8> C          3.45115       -0.14953       -5.95259
|  9> C          3.92267        1.08956       -5.85071
| 10> N          3.96616       -1.00618       -6.86788
| 11> H          3.52139       -1.90647       -6.99527
| 12> H          4.44482       -0.62347       -7.67035
| 13> H          2.25200        0.24080       -4.49879
| 14> H          3.46428        1.64078       -5.13639
| 15> H          4.83447        1.31375       -6.22465
| 16> H         -0.17658       -0.62881       -4.85045
| 17> H          0.56384       -1.39374       -3.46490
| 18> H         -0.28102       -2.36136       -4.64938
| 19> *
| 20>
| 21> %MaxCore 64000
| 22>
| 23> %pal nprocs 4
| 24> end
| 25>
| 26> %scf
| 27>   MaxIter 150
| 28> end
| 29>
| 30>
| 31>                          ****END OF INPUT****

CARTESIAN COORDINATES (ANGSTROEM)
---------------------------------
  C      1.635560   -1.670400   -5.292110
  C      0.338480   -1.500910   -4.505400
  N      2.484510   -0.507410   -5.140390
  H      1.398340   -1.829240   -6.352590
  H      2.155860   -2.565400   -4.932090
  C      3.451150   -0.149530   -5.952590
  C      3.922670    1.089560   -5.850710
  N      3.966160   -1.006180   -6.867880
  H      3.521390   -1.906470   -6.995270
  H      4.444820   -0.623470   -7.670350
  H      2.252000    0.240800   -4.498790
  H      3.464280    1.640780   -5.136390
  H      4.834470    1.313750   -6.224650
  H     -0.176580   -0.628810   -4.850450
  H      0.563840   -1.393740   -3.464900
  H     -0.281020   -2.361360   -4.649380

 Total Charge           Charge          ....    0
 Multiplicity           Mult            ....    1
 Number of Electrons    NEL             ....   48
 Basis Dimension        Dim             ....  246

ORBITAL ENERGIES
----------------

  NO   OCC          E(Eh)            E(eV)
   0   2.0000     -14.215056      -386.8113
   1   2.0000     -14.211204      -386.7065
   2   2.0000     -10.163542      -276.5640
   3   2.0000     -10.158353      -276.4228
   4   2.0000     -10.113338      -275.1979
   5   2.0000     -10.019426      -272.6424
   6   2.0000      -1.148645       -31.2562
   7   2.0000      -1.054013       -28.6811
   8   2.0000      -0.954427       -25.9713
   9   2.0000      -0.872252       -23.7352
  10   2.0000      -0.790154       -21.5012
  11   2.0000      -0.751035       -20.4367
  12   2.0000      -0.683632       -18.6026
  13   2.0000      -0.642165       -17.4742
  14   2.0000      -0.631140       -17.1742
  15   2.0000      -0.601949       -16.3799
  16   2.0000      -0.559718       -15.2307
  17   2.0000      -0.538718       -14.6593
  18   2.0000      -0.514293       -13.9946
  19   2.0000      -0.509049       -13.8519
  20   2.0000      -0.507084       -13.7985
  21   2.0000      -0.484455       -13.1827
  22   2.0000      -0.389234       -10.5916
  23   2.0000      -0.278687        -7.5835
  24   0.0000       0.109449         2.9783
  25   0.0000       0.131044         3.5659
  26   0.0000       0.142923         3.8891
  27   0.0000       0.160437         4.3657
  28   0.0000       0.172533         4.6949

MULLIKEN ATOMIC CHARGES
-----------------------
   0 C :   -0.179449
   1 C :   -0.492240
   2 N :   -0.266827
   3 H :    0.134163
   4 H :    0.146735
   5 C :    0.349208
   6 C :   -0.639066
   7 N :   -0.517721
   8 H :    0.250217
   9 H :    0.269881
  10 H :    0.242434
  11 H :    0.090191
  12 H :    0.140924
  13 H :    0.159473
  14 H :    0.158708
  15 H :    0.153368
Sum of atomic charges:    0.0000000

LOEWDIN ATOMIC CHARGES
----------------------
   0 C :   -0.333781
   1 C :   -0.322779
   2 N :    0.114716
   3 H :    0.134276
   4 H :    0.132918
   5 C :   -0.466210
   6 C :   -0.364740
   7 N :   -0.031541
   8 H :    0.165787
   9 H :    0.180363
  10 H :    0.205724
  11 H :    0.101897
  12 H :    0.102724
  13 H :    0.126442
  14 H :    0.125807
  15 H :    0.128395

  Mayer bond orders larger than 0.100000
B(  0-C ,  1-C ) :   0.9771 B(  0-C ,  2-N ) :   0.9201 B(  0-C ,  3-H ) :   0.9679
B(  0-C ,  4-H ) :   0.9559 B(  1-C , 13-H ) :   0.9724 B(  1-C , 14-H ) :   0.9759
B(  1-C , 15-H ) :   0.9743 B(  2-N ,  5-C ) :   1.2166 B(  2-N , 10-H ) :   0.9217
B(  5-C ,  6-C ) :   1.5927 B(  5-C ,  7-N ) :   1.1111 B(  6-C , 11-H ) :   1.0200
B(  6-C , 12-H ) :   0.9969 B(  7-N ,  8-H ) :   0.9278 B(  7-N ,  9-H ) :   0.9173

FINAL SINGLE POINT ENERGY      -267.122049617912

DIPOLE MOMENT
-------------
                                X             Y             Z
Electronic contribution:      2.93726       0.51777      -1.30009
Nuclear contribution   :     -3.69145      -1.49398       1.19810
                        -----------------------------------------
Total Dipole Moment    :     -0.75419      -0.97621      -0.10199
                        -----------------------------------------
Magnitude (a.u.)       :      1.23781
Magnitude (Debye)      :      3.14627

Rotational constants in cm-1:     0.270790     0.068966     0.056679
Rotational constants in MHz :  8118.084803  2067.559423  1699.196934

                             ****ORCA TERMINATED NORMALLY****
TOTAL RUN TIME: 0 days 0 hours 0 minutes 42 seconds 817 msec
