                         Program Version 5.0.0 -  RELEASE  -
|  1> !LC-PBE RIJCOSX def2-TZVP def2/J TightSCF
|  2> *xyz 0 1
|  3> C          1.63556       -1.67040       -5.29211
|  4> C          0.33848       -1.50091       -4.50540
|  5> N          2.48451       -0.50741       -5.14039
|  6> H          1.39834       -1.82924       -6.35259
|  7> H          2.15586       -2.56540       -4.93209
|  8> C          3.45115       -0.14953       -5.95259
|  9> N          3.92267        1.08956       -5.85071
| 10> C          3.96616       -1.00618       -6.86788
| 11> H          3.52139       -1.90647       -6.99527
| 12> H          4.44482       -0.62347       -7.67035
| 13> H          2.25200        0.24080       -4.49879
| 14> H          3.46428        1.64078       -5.13639
| 15> H          4.83447        1.31375       -6.22465
| 16> H         -0.17658       -0.62881       -4.85045
| 17> H          0.56384       -1.39374       -3.46490
| 18> H         -0.28102       -2.36136       -4.64938
| 19> *
| 20>
| 21> %MaxCore 64000
| 22>
| 23> %pal nprocs 4
| 24> end
| 25>
| 26> %scf
| 27>   MaxIter 150
| 28> end
| 29>
| 30>
| 31>                          ****END OF INPUT****

CARTESIAN COORDINATES (ANGSTROEM)
---------------------------------
  C      1.635560   -1.670400   -5.292110
  C      0.338480   -1.500910   -4.505400
  N      2.484510   -0.507410   -5.140390
  H      1.398340   -1.829240   -6.352590
  H      2.155860   -2.565400   -4.932090
  C      3.451150   -0.149530   -5.952590
  N      3.922670    1.089560   -5.850710
  C      3.966160   -1.006180   -6.867880
  H      3.521390   -1.906470   -6.995270
  H      4.444820   -0.623470   -7.670350
  H      2.252000    0.240800   -4.498790
  H      3.464280    1.640780   -5.136390
  H      4.834470    1.313750   -6.224650
  H     -0.176580   -0.628810   -4.850450
  H      0.563840   -1.393740   -3.464900
  H     -0.281020   -2.361360   -4.649380

 Total Charge           Charge          ....    0
 Multiplicity           Mult            ....    1
 Number of Electrons    NEL             ....   48
 Basis Dimension        Dim             ....  246

ORBITAL ENERGIES
----------------

  NO   OCC          E(Eh)            E(eV)
   0   2.0000     -14.221285      -386.9808
   1   2.0000     -14.213750      -386.7758
   2   2.0000     -10.165120      -276.6070
   3   2.0000     -10.150883      -276.2196
   4   2.0000     -10.109393      -275.0906
   5   2.0000     -10.020284      -272.6658
   6   2.0000      -1.156938       -31.4819
   7   2.0000      -1.059964       -28.8431
   8   2.0000      -0.938782       -25.5456
   9   2.0000      -0.872748       -23.7487
  10   2.0000      -0.808036       -21.9878
  11   2.0000      -0.721198       -19.6248
  12   2.0000      -0.684593       -18.6287
  13   2.0000      -0.670896       -18.2560
  14   2.0000      -0.625420       -17.0185
  15   2.0000      -0.607885       -16.5414
  16   2.0000      -0.545728       -14.8500
  17   2.0000      -0.530667       -14.4402
  18   2.0000      -0.528920       -14.3926
  19   2.0000      -0.503763       -13.7081
  20   2.0000      -0.494230       -13.4487
  21   2.0000      -0.483662       -13.1611
  22   2.0000      -0.381723       -10.3872
  23   2.0000      -0.282318        -7.6823
  24   0.0000       0.104952         2.8559
  25   0.0000       0.126845         3.4516
  26   0.0000       0.148072         4.0293
  27   0.0000       0.164844         4.4856
  28   0.0000       0.176300         4.7974

MULLIKEN ATOMIC CHARGES
-----------------------
   0 C :   -0.161560
   1 C :   -0.483842
   2 N :   -0.271989
   3 H :    0.154875
   4 H :    0.151649
   5 C :    0.320012
   6 N :   -0.483836
   7 C :   -0.643296
   8 H :    0.120572
   9 H :    0.130483
  10 H :    0.204431
  11 H :    0.223710
  12 H :    0.276619
  13 H :    0.153420
  14 H :    0.153393
  15 H :    0.155359
Sum of atomic charges:   -0.0000000

LOEWDIN ATOMIC CHARGES
----------------------
   0 C :   -0.315643
   1 C :   -0.325889
   2 N :    0.115553
   3 H :    0.143691
   4 H :    0.138118
   5 C :   -0.478271
   6 N :   -0.020752
   7 C :   -0.374758
   8 H :    0.101277
   9 H :    0.100419
  10 H :    0.186805
  11 H :    0.167604
  12 H :    0.185253
  13 H :    0.123870
  14 H :    0.123496
  15 H :    0.129226

  Mayer bond orders larger than 0.100000
B(  0-C ,  1-C ) :   0.9593 B(  0-C ,  2-N ) :   0.9109 B(  0-C ,  3-H ) :   0.9720
B(  0-C ,  4-H ) :   0.9637 B(  1-C , 13-H ) :   0.9737 B(  1-C , 14-H ) :   0.9759
B(  1-C , 15-H ) :   0.9760 B(  2-N ,  5-C ) :   1.1919 B(  2-N , 10-H ) :   0.9336
B(  5-C ,  6-N ) :   1.1342 B(  5-C ,  7-C ) :   1.5997 B(  6-N , 11-H ) :   0.9303
B(  6-N , 12-H ) :   0.9134 B(  7-C ,  8-H ) :   1.0135 B(  7-C ,  9-H ) :   0.9980

FINAL SINGLE POINT ENERGY      -267.122020799379

DIPOLE MOMENT
-------------
                                X             Y             Z
Electronic contribution:      2.99511       2.67456      -0.16045
Nuclear contribution   :     -3.68222      -1.93858       0.98231
                        -----------------------------------------
Total Dipole Moment    :     -0.68711       0.73598       0.82186
                        -----------------------------------------
Magnitude (a.u.)       :      1.29971
Magnitude (Debye)      :      3.30359

Rotational constants in cm-1:     0.275407     0.068040     0.056255
Rotational constants in MHz :  8256.498401  2039.796466  1686.484500

                             ****ORCA TERMINATED NORMALLY****
TOTAL RUN TIME: 0 days 0 hours 0 minutes 41 seconds 931 msec
