                         Program Version 5.0.0 -  RELEASE  -
|  1> !LC-PBE RIJCOSX def2-TZVP def2/J TightSCF xyzfile
|  2>
|  3> *xyzfile 0 1 D2.xyz
|  4>
|  5> %MaxCore 64000
|  6>
|  7> %pal nprocs 18
|  8> end
|  9>
| 10> %scf
| 11>   MaxIter 150
| 12> end
| 13>
| 14>
| 15>                          ****END OF INPUT****

CARTESIAN COORDINATES (ANGSTROEM)
---------------------------------
  C      1.635557   -1.670396   -5.292109
  C      0.338484   -1.500907   -4.505398
  N      2.484511   -0.507410   -5.140392
  C     -0.684873   -0.528026   -5.099889
  C     -0.290406    0.951335   -5.153423
  H      0.607991    1.070692   -5.764412
  C     -0.055168    1.619420   -3.788577
  H     -1.080912    1.483775   -5.689436
  H      0.045006    0.862302   -3.003015
  H     -0.922936    2.230329   -3.517028
  C      1.223022    2.469865   -3.756911
  H      1.114701    3.258074   -4.532999
  H      1.237732    3.011242   -2.792157
  F      2.353815    1.712032   -3.934477
  H      1.398337   -1.829239   -6.352591
  H      2.155864   -2.565398   -4.932091
  C      3.451149   -0.149530   -5.952589
  C      3.922667    1.089559   -5.850711
  N      3.966162   -1.006183   -6.867880
  H      3.521391   -1.906467   -6.995270
  H      4.444824   -0.623472   -7.670348
  H      2.251995    0.240804   -4.498792
  H      3.464277    1.640782   -5.136392
  H      4.834470    1.313745   -6.224653
  H     -0.937999   -0.869056   -6.110838
  H     -1.604638   -0.622496   -4.513132
  H      0.594887   -1.211578   -3.482312
  H     -0.126530   -2.487656   -4.434176

 Total Charge           Charge          ....    0
 Multiplicity           Mult            ....    1
 Number of Electrons    NEL             ....   88
 Basis Dimension        Dim             ....  443

ORBITAL ENERGIES
----------------

  NO   OCC          E(Eh)            E(eV)
   0   2.0000     -24.503624      -666.7775
   1   2.0000     -14.195836      -386.2883
   2   2.0000     -14.186780      -386.0419
   3   2.0000     -10.205942      -277.7178
   4   2.0000     -10.144277      -276.0398
   5   2.0000     -10.144157      -276.0366
   6   2.0000     -10.130604      -275.6677
   7   2.0000     -10.119336      -275.3611
   8   2.0000     -10.118801      -275.3466
   9   2.0000     -10.116661      -275.2884
  10   2.0000      -9.992907      -271.9208
  11   2.0000      -1.390897       -37.8482
  12   2.0000      -1.130231       -30.7552
  13   2.0000      -1.040188       -28.3049
  14   2.0000      -1.000105       -27.2143
  15   2.0000      -0.953382       -25.9428
  16   2.0000      -0.910845       -24.7853
  17   2.0000      -0.853269       -23.2186
  18   2.0000      -0.815856       -22.2006
  19   2.0000      -0.784268       -21.3410
  20   2.0000      -0.740942       -20.1621
  21   2.0000      -0.724023       -19.7017
  22   2.0000      -0.696190       -18.9443
  23   2.0000      -0.668703       -18.1963
  24   2.0000      -0.658078       -17.9072
  25   2.0000      -0.652342       -17.7511
  26   2.0000      -0.630555       -17.1583
  27   2.0000      -0.621952       -16.9242
  28   2.0000      -0.593231       -16.1426
  29   2.0000      -0.581856       -15.8331
  30   2.0000      -0.564273       -15.3547
  31   2.0000      -0.551162       -14.9979
  32   2.0000      -0.536120       -14.5886
  33   2.0000      -0.518687       -14.1142
  34   2.0000      -0.502841       -13.6830
  35   2.0000      -0.497021       -13.5246
  36   2.0000      -0.487014       -13.2523
  37   2.0000      -0.478294       -13.0150
  38   2.0000      -0.461202       -12.5499
  39   2.0000      -0.451266       -12.2796
  40   2.0000      -0.448524       -12.2050
  41   2.0000      -0.445784       -12.1304
  42   2.0000      -0.369414       -10.0523
  43   2.0000      -0.259276        -7.0552
  44   0.0000       0.110607         3.0098
  45   0.0000       0.122549         3.3347
  46   0.0000       0.133765         3.6399
  47   0.0000       0.137954         3.7539
  48   0.0000       0.154699         4.2096

MULLIKEN ATOMIC CHARGES
-----------------------
   0 C :   -0.184178
   1 C :   -0.381370
   2 N :   -0.274904
   3 C :   -0.270532
   4 C :   -0.401525
   5 H :    0.221653
   6 C :   -0.298438
   7 H :    0.152068
   8 H :    0.158854
   9 H :    0.163600
  10 C :   -0.065453
  11 H :    0.152301
  12 H :    0.143734
  13 F :   -0.205809
  14 H :    0.134386
  15 H :    0.148992
  16 C :    0.348946
  17 C :   -0.698940
  18 N :   -0.528690
  19 H :    0.244894
  20 H :    0.265426
  21 H :    0.262241
  22 H :    0.148233
  23 H :    0.132217
  24 H :    0.152829
  25 H :    0.151827
  26 H :    0.169185
  27 H :    0.158453
Sum of atomic charges:   -0.0000000

LOEWDIN ATOMIC CHARGES
----------------------
   0 C :   -0.313177
   1 C :   -0.288929
   2 N :    0.115081
   3 C :   -0.286867
   4 C :   -0.289426
   5 H :    0.157088
   6 C :   -0.290402
   7 H :    0.144616
   8 H :    0.148312
   9 H :    0.151893
  10 C :   -0.360171
  11 H :    0.139275
  12 H :    0.134109
  13 F :    0.157060
  14 H :    0.135906
  15 H :    0.134257
  16 C :   -0.472903
  17 C :   -0.380391
  18 N :   -0.036892
  19 H :    0.162923
  20 H :    0.177488
  21 H :    0.176608
  22 H :    0.097746
  23 H :    0.098258
  24 H :    0.147565
  25 H :    0.146751
  26 H :    0.144285
  27 H :    0.149938

  Mayer bond orders larger than 0.100000
B(  0-C ,  1-C ) :   0.9665 B(  0-C ,  2-N ) :   0.9217 B(  0-C , 14-H ) :   0.9643
B(  0-C , 15-H ) :   0.9641 B(  1-C ,  3-C ) :   0.9405 B(  1-C , 26-H ) :   0.9847
B(  1-C , 27-H ) :   0.9823 B(  2-N , 16-C ) :   1.2258 B(  2-N , 21-H ) :   0.8874
B(  3-C ,  4-C ) :   0.9311 B(  3-C , 24-H ) :   0.9781 B(  3-C , 25-H ) :   0.9820
B(  4-C ,  5-H ) :   0.9674 B(  4-C ,  6-C ) :   0.8745 B(  4-C ,  7-H ) :   0.9752
B(  6-C ,  8-H ) :   0.9747 B(  6-C ,  9-H ) :   0.9575 B(  6-C , 10-C ) :   0.9736
B( 10-C , 11-H ) :   0.9779 B( 10-C , 12-H ) :   0.9733 B( 10-C , 13-F ) :   0.9248
B( 16-C , 17-C ) :   1.5922 B( 16-C , 18-N ) :   1.0925 B( 17-C , 22-H ) :   1.0090
B( 17-C , 23-H ) :   0.9979 B( 18-N , 19-H ) :   0.9307 B( 18-N , 20-H ) :   0.9187

FINAL SINGLE POINT ENERGY      -522.914916244370

DIPOLE MOMENT
-------------
                                X             Y             Z
Electronic contribution:      6.28546       2.42255       1.68821
Nuclear contribution   :     -7.85451      -2.70006      -1.48294
                        -----------------------------------------
Total Dipole Moment    :     -1.56904      -0.27751       0.20526
                        -----------------------------------------
Magnitude (a.u.)       :      1.60656
Magnitude (Debye)      :      4.08356

Rotational constants in cm-1:     0.044065     0.029250     0.019826
Rotational constants in MHz :  1321.026981   876.903192   594.367265

                             ****ORCA TERMINATED NORMALLY****
TOTAL RUN TIME: 0 days 0 hours 0 minutes 55 seconds 583 msec
