                         Program Version 5.0.0 -  RELEASE  -
|  1> !LC-PBE RIJCOSX def2-TZVP def2/J TightSCF xyzfile
|  2>
|  3> *xyzfile 0 1 D3.xyz
|  4>
|  5> %MaxCore 64000
|  6>
|  7> %pal nprocs 18
|  8> end
|  9>
| 10> %scf
| 11>   MaxIter 150
| 12> end
| 13>
| 14>
| 15>                          ****END OF INPUT****

CARTESIAN COORDINATES (ANGSTROEM)
---------------------------------
  C      1.635557   -1.670396   -5.292109
  C      0.338484   -1.500907   -4.505398
  N      2.484511   -0.507410   -5.140392
  C     -0.684873   -0.528026   -5.099889
  C     -0.290406    0.951335   -5.153423
  H      0.607991    1.070692   -5.764412
  C     -0.055168    1.619420   -3.788577
  H     -1.080912    1.483775   -5.689436
  H      0.045006    0.862302   -3.003015
  H     -0.922936    2.230329   -3.517028
  C      1.223022    2.469865   -3.756911
  H      1.114701    3.258074   -4.532999
  H      1.237732    3.011242   -2.792157
  F      2.353815    1.712032   -3.934477
  H      1.398337   -1.829239   -6.352591
  H      2.155864   -2.565398   -4.932091
  C      3.451149   -0.149530   -5.952589
  N      3.922667    1.089559   -5.850711
  C      3.966162   -1.006183   -6.867880
  H      3.521391   -1.906467   -6.995270
  H      4.444824   -0.623472   -7.670348
  H      2.251995    0.240804   -4.498792
  H      3.464277    1.640782   -5.136392
  H      4.834470    1.313745   -6.224653
  H     -0.937999   -0.869056   -6.110838
  H     -1.604638   -0.622496   -4.513132
  H      0.594887   -1.211578   -3.482312
  H     -0.126530   -2.487656   -4.434176

 Total Charge           Charge          ....    0
 Multiplicity           Mult            ....    1
 Number of Electrons    NEL             ....   88
 Basis Dimension        Dim             ....  443

ORBITAL ENERGIES
----------------

  NO   OCC          E(Eh)            E(eV)
   0   2.0000     -24.533216      -667.5828
   1   2.0000     -14.191100      -386.1595
   2   2.0000     -14.184872      -385.9900
   3   2.0000     -10.223798      -278.2037
   4   2.0000     -10.145872      -276.0832
   5   2.0000     -10.140773      -275.9444
   6   2.0000     -10.136690      -275.8334
   7   2.0000     -10.122996      -275.4607
   8   2.0000     -10.119837      -275.3748
   9   2.0000     -10.116848      -275.2934
  10   2.0000     -10.003250      -272.2023
  11   2.0000      -1.419223       -38.6190
  12   2.0000      -1.135383       -30.8953
  13   2.0000      -1.042427       -28.3659
  14   2.0000      -1.004542       -27.3350
  15   2.0000      -0.957211       -26.0470
  16   2.0000      -0.901417       -24.5288
  17   2.0000      -0.863244       -23.4901
  18   2.0000      -0.825889       -22.4736
  19   2.0000      -0.797850       -21.7106
  20   2.0000      -0.737570       -20.0703
  21   2.0000      -0.724236       -19.7075
  22   2.0000      -0.712771       -19.3955
  23   2.0000      -0.685670       -18.6580
  24   2.0000      -0.680079       -18.5059
  25   2.0000      -0.644928       -17.5494
  26   2.0000      -0.635821       -17.3016
  27   2.0000      -0.622287       -16.9333
  28   2.0000      -0.608450       -16.5568
  29   2.0000      -0.575720       -15.6661
  30   2.0000      -0.570145       -15.5144
  31   2.0000      -0.559903       -15.2357
  32   2.0000      -0.540763       -14.7149
  33   2.0000      -0.513544       -13.9743
  34   2.0000      -0.510884       -13.9019
  35   2.0000      -0.496930       -13.5222
  36   2.0000      -0.493950       -13.4411
  37   2.0000      -0.486189       -13.2299
  38   2.0000      -0.473168       -12.8756
  39   2.0000      -0.460057       -12.5188
  40   2.0000      -0.449836       -12.2407
  41   2.0000      -0.449105       -12.2208
  42   2.0000      -0.357985        -9.7413
  43   2.0000      -0.264327        -7.1927
  44   0.0000       0.106135         2.8881
  45   0.0000       0.123059         3.3486
  46   0.0000       0.130568         3.5529
  47   0.0000       0.140091         3.8121
  48   0.0000       0.150165         4.0862

MULLIKEN ATOMIC CHARGES
-----------------------
   0 C :   -0.161397
   1 C :   -0.377549
   2 N :   -0.287148
   3 C :   -0.272496
   4 C :   -0.393473
   5 H :    0.203006
   6 C :   -0.295655
   7 H :    0.154439
   8 H :    0.166460
   9 H :    0.169021
  10 C :   -0.074134
  11 H :    0.157809
  12 H :    0.151449
  13 F :   -0.228118
  14 H :    0.153685
  15 H :    0.153712
  16 C :    0.309467
  17 N :   -0.513066
  18 C :   -0.647578
  19 H :    0.114386
  20 H :    0.123804
  21 H :    0.241757
  22 H :    0.254569
  23 H :    0.262759
  24 H :    0.158172
  25 H :    0.151533
  26 H :    0.163519
  27 H :    0.161068
Sum of atomic charges:   -0.0000000

LOEWDIN ATOMIC CHARGES
----------------------
   0 C :   -0.294608
   1 C :   -0.290490
   2 N :    0.116741
   3 C :   -0.285948
   4 C :   -0.290253
   5 H :    0.153101
   6 C :   -0.288963
   7 H :    0.145299
   8 H :    0.150422
   9 H :    0.153936
  10 C :   -0.358878
  11 H :    0.139943
  12 H :    0.136920
  13 F :    0.146741
  14 H :    0.145185
  15 H :    0.139640
  16 C :   -0.481827
  17 N :   -0.030477
  18 C :   -0.387619
  19 H :    0.098708
  20 H :    0.097731
  21 H :    0.165340
  22 H :    0.151677
  23 H :    0.178649
  24 H :    0.149624
  25 H :    0.146484
  26 H :    0.141879
  27 H :    0.151045

  Mayer bond orders larger than 0.100000
B(  0-C ,  1-C ) :   0.9516 B(  0-C ,  2-N ) :   0.9032 B(  0-C , 14-H ) :   0.9696
B(  0-C , 15-H ) :   0.9740 B(  1-C ,  3-C ) :   0.9367 B(  1-C , 26-H ) :   0.9858
B(  1-C , 27-H ) :   0.9833 B(  2-N , 16-C ) :   1.2009 B(  2-N , 21-H ) :   0.8963
B(  3-C ,  4-C ) :   0.9339 B(  3-C , 24-H ) :   0.9760 B(  3-C , 25-H ) :   0.9823
B(  4-C ,  5-H ) :   0.9702 B(  4-C ,  6-C ) :   0.8690 B(  4-C ,  7-H ) :   0.9734
B(  6-C ,  8-H ) :   0.9739 B(  6-C ,  9-H ) :   0.9556 B(  6-C , 10-C ) :   0.9721
B( 10-C , 11-H ) :   0.9765 B( 10-C , 12-H ) :   0.9746 B( 10-C , 13-F ) :   0.8966
B( 16-C , 17-N ) :   1.1439 B( 16-C , 18-C ) :   1.6068 B( 17-N , 22-H ) :   0.8952
B( 17-N , 23-H ) :   0.9206 B( 18-C , 19-H ) :   1.0164 B( 18-C , 20-H ) :   1.0021

FINAL SINGLE POINT ENERGY      -522.926528011166

DIPOLE MOMENT
-------------
                                X             Y             Z
Electronic contribution:      6.20296       4.49031       2.83032
Nuclear contribution   :     -7.84660      -3.08098      -1.66782
                        -----------------------------------------
Total Dipole Moment    :     -1.64364       1.40933       1.16250
                        -----------------------------------------
Magnitude (a.u.)       :      2.45747
Magnitude (Debye)      :      6.24639

Rotational constants in cm-1:     0.043547     0.029898     0.020008
Rotational constants in MHz :  1305.520367   896.323854   599.829375

                             ****ORCA TERMINATED NORMALLY****
TOTAL RUN TIME: 0 days 0 hours 0 minutes 46 seconds 873 msec
