                         Program Version 5.0.0 -  RELEASE  -
|  1> !LC-PBE RIJCOSX def2-SVP def2/J TightSCF
|  2> *xyz -1 1
|  3> C          2.49556        1.81615       -2.13636
|  4> C          1.87218        0.42790       -2.07750
|  5> H          2.61427       -0.36583       -2.19889
|  6> H          1.38995        0.27309       -1.11236
|  7> S          0.57902        0.14047       -3.29794
|  8> O          0.22886       -1.24687       -3.12787
|  9> O         -0.43927        1.11897       -3.01455
| 10> O          1.24788        0.40347       -4.59565
| 11> H          2.96535        1.95613       -3.08747
| 12> H          3.22581        1.91242       -1.36024
| 13> H          1.73350        2.55528       -2.00274
| 14> *
| 15>
| 16> %MaxCore 64000
| 17>
| 18> %pal nprocs 4
| 19> end
| 20>
| 21> %scf
| 22>   MaxIter 150
| 23> end
| 24>
| 25>
| 26>                          ****END OF INPUT****

CARTESIAN COORDINATES (ANGSTROEM)
---------------------------------
  C      2.495560    1.816150   -2.136360
  C      1.872180    0.427900   -2.077500
  H      2.614270   -0.365830   -2.198890
  H      1.389950    0.273090   -1.112360
  S      0.579020    0.140470   -3.297940
  O      0.228860   -1.246870   -3.127870
  O     -0.439270    1.118970   -3.014550
  O      1.247880    0.403470   -4.595650
  H      2.965350    1.956130   -3.087470
  H      3.225810    1.912420   -1.360240
  H      1.733500    2.555280   -2.002740

 Total Charge           Charge          ....   -1
 Multiplicity           Mult            ....    1
 Number of Electrons    NEL             ....   58
 Basis Dimension        Dim             ....  113

ORBITAL ENERGIES
----------------

  NO   OCC          E(Eh)            E(eV)
   0   2.0000     -88.275191     -2402.0901
   1   2.0000     -18.740764      -509.9621
   2   2.0000     -18.740721      -509.9610
   3   2.0000     -18.723441      -509.4907
   4   2.0000      -9.975219      -271.4395
   5   2.0000      -9.973738      -271.3992
   6   2.0000      -7.905056      -215.1075
   7   2.0000      -5.926927      -161.2799
   8   2.0000      -5.926713      -161.2741
   9   2.0000      -5.926556      -161.2698
  10   2.0000      -1.085159       -29.5287
  11   2.0000      -0.931140       -25.3376
  12   2.0000      -0.902556       -24.5598
  13   2.0000      -0.796319       -21.6690
  14   2.0000      -0.657021       -17.8785
  15   2.0000      -0.514970       -14.0130
  16   2.0000      -0.455182       -12.3861
  17   2.0000      -0.448926       -12.2159
  18   2.0000      -0.407518       -11.0891
  19   2.0000      -0.389789       -10.6067
  20   2.0000      -0.381240       -10.3741
  21   2.0000      -0.356655        -9.7051
  22   2.0000      -0.333580        -9.0772
  23   2.0000      -0.268061        -7.2943
  24   2.0000      -0.264688        -7.2025
  25   2.0000      -0.229159        -6.2357
  26   2.0000      -0.215508        -5.8643
  27   2.0000      -0.205545        -5.5932
  28   2.0000      -0.170706        -4.6451
  29   0.0000       0.295393         8.0381
  30   0.0000       0.348483         9.4827
  31   0.0000       0.354236         9.6393
  32   0.0000       0.361839         9.8462
  33   0.0000       0.392249        10.6736

MULLIKEN ATOMIC CHARGES
-----------------------
   0 C :   -0.106408
   1 C :   -0.217245
   2 H :    0.055039
   3 H :    0.048446
   4 S :    0.816265
   5 O :   -0.557868
   6 O :   -0.559911
   7 O :   -0.607747
   8 H :    0.058248
   9 H :    0.015488
  10 H :    0.055692
Sum of atomic charges:   -1.0000000

LOEWDIN ATOMIC CHARGES
----------------------
   0 C :   -0.108572
   1 C :   -0.216393
   2 H :    0.022697
   3 H :    0.018781
   4 S :    1.080518
   5 O :   -0.607551
   6 O :   -0.608294
   7 O :   -0.657135
   8 H :    0.030821
   9 H :    0.014497
  10 H :    0.030632

  Mayer bond orders larger than 0.100000
B(  0-C ,  1-C ) :   1.0324 B(  0-C ,  8-H ) :   0.9701 B(  0-C ,  9-H ) :   0.9741
B(  0-C , 10-H ) :   0.9705 B(  1-C ,  2-H ) :   0.9528 B(  1-C ,  3-H ) :   0.9512
B(  1-C ,  4-S ) :   0.9119 B(  4-S ,  5-O ) :   1.6646 B(  4-S ,  6-O ) :   1.6522
B(  4-S ,  7-O ) :   1.6055

FINAL SINGLE POINT ENERGY      -701.520083188349

DIPOLE MOMENT
-------------
                                X             Y             Z
Electronic contribution:     -5.71456      -3.61940      -4.09203
Nuclear contribution   :      6.89220       4.11756       5.35566
                        -----------------------------------------
Total Dipole Moment    :      1.17763       0.49816       1.26363
                        -----------------------------------------
Magnitude (a.u.)       :      1.79771
Magnitude (Debye)      :      4.56942

Rotational constants in cm-1:     0.162183     0.084017     0.082390
Rotational constants in MHz :  4862.117324  2518.774315  2469.980309

                             ****ORCA TERMINATED NORMALLY****
TOTAL RUN TIME: 0 days 0 hours 0 minutes 9 seconds 59 msec
