                         Program Version 5.0.0 -  RELEASE  -
|  1> !LC-PBE RIJCOSX def2-SVP def2/J TightSCF
|  2> *xyz 1 1
|  3> C          3.38093        2.08304       -3.35013
|  4> N          4.53592        1.18245       -3.42852
|  5> C          2.49556        1.81615       -2.13636
|  6> C          4.67196        0.12227       -4.22060
|  7> N          5.86602       -0.50785       -4.22428
|  8> N          3.69888       -0.31284       -4.98699
|  9> H          2.73141       -0.05009       -4.84900
| 10> H          3.89005       -1.05517       -5.64373
| 11> H          5.25193        1.30346       -2.72101
| 12> H          6.69516       -0.06232       -3.85160
| 13> H          5.97538       -1.39688       -4.69141
| 14> H          2.80646        1.98651       -4.26848
| 15> H          3.77871        3.09828       -3.30738
| 16> H          2.11090        0.81901       -2.18783
| 17> H          1.68276        2.51198       -2.12786
| 18> H          3.07216        1.93031       -1.24227
| 19> *
| 20>
| 21> %MaxCore 64000
| 22>
| 23> %pal nprocs 4
| 24> end
| 25>
| 26> %scf
| 27>   MaxIter 150
| 28> end
| 29>
| 30>
| 31>                          ****END OF INPUT****

CARTESIAN COORDINATES (ANGSTROEM)
---------------------------------
  C      3.380930    2.083040   -3.350130
  N      4.535920    1.182450   -3.428520
  C      2.495560    1.816150   -2.136360
  C      4.671960    0.122270   -4.220600
  N      5.866020   -0.507850   -4.224280
  N      3.698880   -0.312840   -4.986990
  H      2.731410   -0.050090   -4.849000
  H      3.890050   -1.055170   -5.643730
  H      5.251930    1.303460   -2.721010
  H      6.695160   -0.062320   -3.851600
  H      5.975380   -1.396880   -4.691410
  H      2.806460    1.986510   -4.268480
  H      3.778710    3.098280   -3.307380
  H      2.110900    0.819010   -2.187830
  H      1.682760    2.511980   -2.127860
  H      3.072160    1.930310   -1.242270

 Total Charge           Charge          ....    1
 Multiplicity           Mult            ....    1
 Number of Electrons    NEL             ....   48
 Basis Dimension        Dim             ....  134

ORBITAL ENERGIES
----------------

  NO   OCC          E(Eh)            E(eV)
   0   2.0000     -14.454872      -393.3371
   1   2.0000     -14.450606      -393.2210
   2   2.0000     -14.446307      -393.1040
   3   2.0000     -10.470983      -284.9299
   4   2.0000     -10.330997      -281.1207
   5   2.0000     -10.258591      -279.1505
   6   2.0000      -1.386321       -37.7237
   7   2.0000      -1.267275       -34.4843
   8   2.0000      -1.250204       -34.0198
   9   2.0000      -1.096696       -29.8426
  10   2.0000      -0.994672       -27.0664
  11   2.0000      -0.957957       -26.0673
  12   2.0000      -0.938830       -25.5469
  13   2.0000      -0.890233       -24.2245
  14   2.0000      -0.839307       -22.8387
  15   2.0000      -0.833460       -22.6796
  16   2.0000      -0.787698       -21.4344
  17   2.0000      -0.778558       -21.1856
  18   2.0000      -0.743924       -20.2432
  19   2.0000      -0.695956       -18.9379
  20   2.0000      -0.661233       -17.9931
  21   2.0000      -0.642183       -17.4747
  22   2.0000      -0.609967       -16.5980
  23   2.0000      -0.572695       -15.5838
  24   0.0000      -0.062104        -1.6899
  25   0.0000      -0.037592        -1.0229
  26   0.0000      -0.004821        -0.1312
  27   0.0000       0.003669         0.0998
  28   0.0000       0.023419         0.6373

MULLIKEN ATOMIC CHARGES
-----------------------
   0 C :   -0.087340
   1 N :   -0.190478
   2 C :   -0.120417
   3 C :    0.121105
   4 N :   -0.141447
   5 N :   -0.097722
   6 H :    0.209412
   7 H :    0.201812
   8 H :    0.199185
   9 H :    0.204852
  10 H :    0.199734
  11 H :    0.096621
  12 H :    0.127409
  13 H :    0.071572
  14 H :    0.114759
  15 H :    0.090945
Sum of atomic charges:    1.0000000

LOEWDIN ATOMIC CHARGES
----------------------
   0 C :    0.016007
   1 N :    0.013227
   2 C :   -0.082849
   3 C :    0.158044
   4 N :    0.011335
   5 N :    0.041278
   6 H :    0.121257
   7 H :    0.120952
   8 H :    0.115577
   9 H :    0.118948
  10 H :    0.115456
  11 H :    0.043780
  12 H :    0.060869
  13 H :    0.038613
  14 H :    0.060422
  15 H :    0.047083

  Mayer bond orders larger than 0.100000
B(  0-C ,  1-N ) :   0.9131 B(  0-C ,  2-C ) :   1.0664 B(  0-C , 11-H ) :   0.9627
B(  0-C , 12-H ) :   0.9524 B(  1-N ,  3-C ) :   1.3845 B(  1-N ,  8-H ) :   0.9075
B(  2-C , 13-H ) :   0.9713 B(  2-C , 14-H ) :   0.9660 B(  2-C , 15-H ) :   0.9700
B(  3-C ,  4-N ) :   1.3671 B(  3-C ,  5-N ) :   1.4167 B(  4-N ,  9-H ) :   0.9232
B(  4-N , 10-H ) :   0.9270 B(  5-N ,  6-H ) :   0.9184 B(  5-N ,  7-H ) :   0.9210

FINAL SINGLE POINT ENERGY      -283.296714370853

DIPOLE MOMENT
-------------
                                X             Y             Z
Electronic contribution:      3.61841      -2.72669      -2.86606
Nuclear contribution   :     -2.93277       1.85779       2.25966
                        -----------------------------------------
Total Dipole Moment    :      0.68564      -0.86889      -0.60640
                        -----------------------------------------
Magnitude (a.u.)       :      1.26206
Magnitude (Debye)      :      3.20791

Rotational constants in cm-1:     0.245511     0.068839     0.059711
Rotational constants in MHz :  7360.233487  2063.743353  1790.088408

                             ****ORCA TERMINATED NORMALLY****
TOTAL RUN TIME: 0 days 0 hours 0 minutes 13 seconds 989 msec
