                         Program Version 5.0.0 -  RELEASE  -
|  1> !LC-PBE RIJCOSX def2-TZVP def2/J TightSCF xyzfile
|  2>
|  3> *xyzfile 0 1 B.xyz
|  4>
|  5> %MaxCore 64000
|  6>
|  7> %pal nprocs 18
|  8> end
|  9>
| 10> %scf
| 11>   MaxIter 150
| 12> end
| 13>
| 14>
| 15>                          ****END OF INPUT****

CARTESIAN COORDINATES (ANGSTROEM)
---------------------------------
  C      3.380928    2.083045   -3.350127
  N      4.535924    1.182447   -3.428518
  C      2.495557    1.816150   -2.136364
  C      1.872181    0.427903   -2.077497
  H      2.614270   -0.365825   -2.198894
  H      1.389953    0.273087   -1.112360
  S      0.579024    0.140472   -3.297943
  C      4.671956    0.122273   -4.220598
  N      5.866023   -0.507849   -4.224284
  N      3.698881   -0.312844   -4.986988
  H      2.731405   -0.050091   -4.849000
  H      3.890046   -1.055172   -5.643730
  H      5.251933    1.303459   -2.721014
  H      6.695165   -0.062322   -3.851596
  H      5.975383   -1.396884   -4.691414
  O      0.228860   -1.246868   -3.127871
  O     -0.439269    1.118966   -3.014550
  O      1.247881    0.403474   -4.595647
  H      1.697003    2.561969   -2.141109
  H      3.080787    1.987436   -1.225838
  H      2.806463    1.986511   -4.268484
  H      3.778714    3.098282   -3.307383

 Total Charge           Charge          ....    0
 Multiplicity           Mult            ....    1
 Number of Electrons    NEL             ....   96
 Basis Dimension        Dim             ....  413

ORBITAL ENERGIES
----------------

  NO   OCC          E(Eh)            E(eV)
   0   2.0000     -88.414429     -2405.8789
   1   2.0000     -18.909982      -514.5668
   2   2.0000     -18.892661      -514.0954
   3   2.0000     -18.892513      -514.0914
   4   2.0000     -14.310242      -389.4015
   5   2.0000     -14.306309      -389.2945
   6   2.0000     -14.273655      -388.4059
   7   2.0000     -10.321620      -280.8656
   8   2.0000     -10.180136      -277.0156
   9   2.0000     -10.130974      -275.6778
  10   2.0000     -10.117465      -275.3102
  11   2.0000      -8.025221      -218.3774
  12   2.0000      -6.042424      -164.4227
  13   2.0000      -6.041056      -164.3855
  14   2.0000      -6.039540      -164.3442
  15   2.0000      -1.258156       -34.2362
  16   2.0000      -1.246615       -33.9221
  17   2.0000      -1.141123       -31.0515
  18   2.0000      -1.122821       -30.5535
  19   2.0000      -1.094808       -29.7912
  20   2.0000      -1.094072       -29.7712
  21   2.0000      -0.987449       -26.8698
  22   2.0000      -0.908144       -24.7119
  23   2.0000      -0.844908       -22.9911
  24   2.0000      -0.806826       -21.9548
  25   2.0000      -0.798201       -21.7201
  26   2.0000      -0.757289       -20.6069
  27   2.0000      -0.712031       -19.3754
  28   2.0000      -0.694363       -18.8946
  29   2.0000      -0.679413       -18.4878
  30   2.0000      -0.661299       -17.9948
  31   2.0000      -0.630872       -17.1669
  32   2.0000      -0.619896       -16.8682
  33   2.0000      -0.596837       -16.2408
  34   2.0000      -0.580679       -15.8011
  35   2.0000      -0.563836       -15.3428
  36   2.0000      -0.542974       -14.7751
  37   2.0000      -0.515086       -14.0162
  38   2.0000      -0.508854       -13.8466
  39   2.0000      -0.494688       -13.4611
  40   2.0000      -0.474583       -12.9141
  41   2.0000      -0.442690       -12.0462
  42   2.0000      -0.439699       -11.9648
  43   2.0000      -0.434490       -11.8231
  44   2.0000      -0.398114       -10.8332
  45   2.0000      -0.389212       -10.5910
  46   2.0000      -0.374536       -10.1916
  47   2.0000      -0.346862        -9.4386
  48   0.0000       0.048226         1.3123
  49   0.0000       0.064667         1.7597
  50   0.0000       0.082840         2.2542
  51   0.0000       0.104388         2.8405
  52   0.0000       0.139321         3.7911

MULLIKEN ATOMIC CHARGES
-----------------------
   0 C :   -0.384584
   1 N :   -0.265724
   2 C :   -0.235668
   3 C :   -0.425392
   4 H :    0.164596
   5 H :    0.185281
   6 S :    0.764896
   7 C :    0.407715
   8 N :   -0.498703
   9 N :   -0.389279
  10 H :    0.313052
  11 H :    0.263942
  12 H :    0.255922
  13 H :    0.285819
  14 H :    0.288532
  15 O :   -0.477349
  16 O :   -0.472582
  17 O :   -0.571895
  18 H :    0.196747
  19 H :    0.144563
  20 H :    0.273381
  21 H :    0.176730
Sum of atomic charges:   -0.0000000

LOEWDIN ATOMIC CHARGES
----------------------
   0 C :   -0.284022
   1 N :    0.153410
   2 C :   -0.308268
   3 C :   -0.409502
   4 H :    0.132818
   5 H :    0.148211
   6 S :    0.409041
   7 C :   -0.430040
   8 N :    0.007481
   9 N :    0.087970
  10 H :    0.142497
  11 H :    0.190922
  12 H :    0.204002
  13 H :    0.187541
  14 H :    0.189115
  15 O :   -0.333139
  16 O :   -0.326759
  17 O :   -0.376007
  18 H :    0.165976
  19 H :    0.142912
  20 H :    0.160527
  21 H :    0.145311

  Mayer bond orders larger than 0.100000
B(  0-C ,  1-N ) :   0.8294 B(  0-C ,  2-C ) :   0.9317 B(  0-C , 20-H ) :   0.9515
B(  0-C , 21-H ) :   0.9729 B(  1-N ,  7-C ) :   1.3589 B(  1-N , 12-H ) :   0.9141
B(  2-C ,  3-C ) :   0.9138 B(  2-C , 18-H ) :   0.9519 B(  2-C , 19-H ) :   0.9730
B(  3-C ,  4-H ) :   0.9565 B(  3-C ,  5-H ) :   0.9593 B(  3-C ,  6-S ) :   0.9272
B(  6-S , 15-O ) :   1.8949 B(  6-S , 16-O ) :   1.8714 B(  6-S , 17-O ) :   1.4894
B(  7-C ,  8-N ) :   1.2246 B(  7-C ,  9-N ) :   1.4554 B(  8-N , 13-H ) :   0.9048
B(  8-N , 14-H ) :   0.9040 B(  9-N , 10-H ) :   0.7405 B(  9-N , 11-H ) :   0.9134
B( 10-H , 17-O ) :   0.2186

FINAL SINGLE POINT ENERGY      -945.474881304837

DIPOLE MOMENT
-------------
                                X             Y             Z
Electronic contribution:     -6.94163      -3.21520      -2.40940
Nuclear contribution   :     13.40759       3.44219       2.21042
                        -----------------------------------------
Total Dipole Moment    :      6.46597       0.22700      -0.19898
                        -----------------------------------------
Magnitude (a.u.)       :      6.47301
Magnitude (Debye)      :     16.45308

Rotational constants in cm-1:     0.059860     0.020817     0.017914
Rotational constants in MHz :  1794.564877   624.092098   537.039275

                             ****ORCA TERMINATED NORMALLY****
TOTAL RUN TIME: 0 days 0 hours 0 minutes 39 seconds 24 msec
