                         Program Version 5.0.0 -  RELEASE  -
|  1> !LC-PBE RIJCOSX def2-SVP def2/J TightSCF
|  2> *xyz 0 1
|  3> C          2.49556        1.81615       -2.13636
|  4> C          1.87218        0.42790       -2.07750
|  5> H          2.61427       -0.36583       -2.19889
|  6> H          1.38995        0.27309       -1.11236
|  7> S          0.57902        0.14047       -3.29794
|  8> F          0.22886       -1.24687       -3.12787
|  9> O         -0.43927        1.11897       -3.01455
| 10> O          1.24788        0.40347       -4.59565
| 11> H          2.96535        1.95613       -3.08747
| 12> H          3.22581        1.91242       -1.36024
| 13> H          1.73350        2.55528       -2.00274
| 14> *
| 15>
| 16> %MaxCore 64000
| 17>
| 18> %pal nprocs 4
| 19> end
| 20>
| 21> %scf
| 22>   MaxIter 150
| 23> end
| 24>
| 25>
| 26>                          ****END OF INPUT****

CARTESIAN COORDINATES (ANGSTROEM)
---------------------------------
  C      2.495560    1.816150   -2.136360
  C      1.872180    0.427900   -2.077500
  H      2.614270   -0.365830   -2.198890
  H      1.389950    0.273090   -1.112360
  S      0.579020    0.140470   -3.297940
  F      0.228860   -1.246870   -3.127870
  O     -0.439270    1.118970   -3.014550
  O      1.247880    0.403470   -4.595650
  H      2.965350    1.956130   -3.087470
  H      3.225810    1.912420   -1.360240
  H      1.733500    2.555280   -2.002740

 Total Charge           Charge          ....    0
 Multiplicity           Mult            ....    1
 Number of Electrons    NEL             ....   58
 Basis Dimension        Dim             ....  113

ORBITAL ENERGIES
----------------

  NO   OCC          E(Eh)            E(eV)
   0   2.0000     -88.550662     -2409.5860
   1   2.0000     -24.618445      -669.9019
   2   2.0000     -18.992530      -516.8130
   3   2.0000     -18.975588      -516.3520
   4   2.0000     -10.186424      -277.1867
   5   2.0000     -10.143071      -276.0070
   6   2.0000      -8.182977      -222.6701
   7   2.0000      -6.209434      -168.9673
   8   2.0000      -6.202031      -168.7659
   9   2.0000      -6.200987      -168.7374
  10   2.0000      -1.537272       -41.8313
  11   2.0000      -1.273830       -34.6627
  12   2.0000      -1.157120       -31.4868
  13   2.0000      -0.995320       -27.0840
  14   2.0000      -0.894577       -24.3427
  15   2.0000      -0.833921       -22.6921
  16   2.0000      -0.742193       -20.1961
  17   2.0000      -0.741002       -20.1637
  18   2.0000      -0.699738       -19.0408
  19   2.0000      -0.640621       -17.4322
  20   2.0000      -0.625748       -17.0275
  21   2.0000      -0.576283       -15.6815
  22   2.0000      -0.567517       -15.4429
  23   2.0000      -0.545221       -14.8362
  24   2.0000      -0.521063       -14.1788
  25   2.0000      -0.517421       -14.0797
  26   2.0000      -0.460908       -12.5419
  27   2.0000      -0.444355       -12.0915
  28   2.0000      -0.430189       -11.7060
  29   0.0000       0.137191         3.7332
  30   0.0000       0.144110         3.9214
  31   0.0000       0.177197         4.8218
  32   0.0000       0.181843         4.9482
  33   0.0000       0.192896         5.2490

MULLIKEN ATOMIC CHARGES
-----------------------
   0 C :   -0.120140
   1 C :   -0.248126
   2 H :    0.116662
   3 H :    0.112689
   4 S :    0.900762
   5 F :   -0.149472
   6 O :   -0.423274
   7 O :   -0.470820
   8 H :    0.099491
   9 H :    0.086311
  10 H :    0.095917
Sum of atomic charges:   -0.0000000

LOEWDIN ATOMIC CHARGES
----------------------
   0 C :   -0.083152
   1 C :   -0.180727
   2 H :    0.048003
   3 H :    0.045406
   4 S :    1.139187
   5 F :   -0.103487
   6 O :   -0.480635
   7 O :   -0.529633
   8 H :    0.048632
   9 H :    0.048320
  10 H :    0.048084

  Mayer bond orders larger than 0.100000
B(  0-C ,  1-C ) :   1.0435 B(  0-C ,  8-H ) :   0.9697 B(  0-C ,  9-H ) :   0.9688
B(  0-C , 10-H ) :   0.9697 B(  1-C ,  2-H ) :   0.9343 B(  1-C ,  3-H ) :   0.9343
B(  1-C ,  4-S ) :   0.9349 B(  4-S ,  5-F ) :   1.0588 B(  4-S ,  6-O ) :   1.8016
B(  4-S ,  7-O ) :   1.7551

FINAL SINGLE POINT ENERGY      -725.987696801861

DIPOLE MOMENT
-------------
                                X             Y             Z
Electronic contribution:     -6.83153      -6.47854      -4.05842
Nuclear contribution   :      7.60530       5.82028       5.38743
                        -----------------------------------------
Total Dipole Moment    :      0.77377      -0.65827       1.32901
                        -----------------------------------------
Magnitude (a.u.)       :      1.67281
Magnitude (Debye)      :      4.25195

Rotational constants in cm-1:     0.157861     0.081452     0.078859
Rotational constants in MHz :  4732.562506  2441.865430  2364.129821

                             ****ORCA TERMINATED NORMALLY****
TOTAL RUN TIME: 0 days 0 hours 0 minutes 9 seconds 880 msec
