                         Program Version 5.0.0 -  RELEASE  -
|  1> !LC-PBE RIJCOSX def2-SVP def2/J TightSCF
|  2> *xyz 0 1
|  3> C          3.38093        2.08304       -3.35013
|  4> C          4.53592        1.18245       -3.42852
|  5> C          2.49556        1.81615       -2.13636
|  6> C          4.67196        0.12227       -4.22060
|  7> N          5.86602       -0.50785       -4.22428
|  8> N          3.69888       -0.31284       -4.98699
|  9> H          2.73141       -0.05009       -4.84900
| 10> H          3.89005       -1.05517       -5.64373
| 11> H          5.25193        1.30346       -2.72101
| 12> H          6.69516       -0.06232       -3.85160
| 13> H          5.97538       -1.39688       -4.69141
| 14> H          2.80646        1.98651       -4.26848
| 15> H          3.77871        3.09828       -3.30738
| 16> H          2.11090        0.81901       -2.18783
| 17> H          1.68276        2.51198       -2.12786
| 18> H          3.07216        1.93031       -1.24227
| 19> *
| 20>
| 21> %MaxCore 64000
| 22>
| 23> %pal nprocs 4
| 24> end
| 25>
| 26> %scf
| 27>   MaxIter 150
| 28> end
| 29>
| 30>
| 31>                          ****END OF INPUT****

CARTESIAN COORDINATES (ANGSTROEM)
---------------------------------
  C      3.380930    2.083040   -3.350130
  C      4.535920    1.182450   -3.428520
  C      2.495560    1.816150   -2.136360
  C      4.671960    0.122270   -4.220600
  N      5.866020   -0.507850   -4.224280
  N      3.698880   -0.312840   -4.986990
  H      2.731410   -0.050090   -4.849000
  H      3.890050   -1.055170   -5.643730
  H      5.251930    1.303460   -2.721010
  H      6.695160   -0.062320   -3.851600
  H      5.975380   -1.396880   -4.691410
  H      2.806460    1.986510   -4.268480
  H      3.778710    3.098280   -3.307380
  H      2.110900    0.819010   -2.187830
  H      1.682760    2.511980   -2.127860
  H      3.072160    1.930310   -1.242270

 Total Charge           Charge          ....    0
 Multiplicity           Mult            ....    1
 Number of Electrons    NEL             ....   48
 Basis Dimension        Dim             ....  134

ORBITAL ENERGIES
----------------

  NO   OCC          E(Eh)            E(eV)
   0   2.0000     -14.223563      -387.0428
   1   2.0000     -14.215192      -386.8150
   2   2.0000     -10.168175      -276.6901
   3   2.0000     -10.093484      -274.6577
   4   2.0000     -10.086140      -274.4578
   5   2.0000     -10.037976      -273.1472
   6   2.0000      -1.122502       -30.5448
   7   2.0000      -1.020576       -27.7713
   8   2.0000      -0.936128       -25.4733
   9   2.0000      -0.849601       -23.1188
  10   2.0000      -0.765161       -20.8211
  11   2.0000      -0.723414       -19.6851
  12   2.0000      -0.686307       -18.6754
  13   2.0000      -0.645742       -17.5715
  14   2.0000      -0.613473       -16.6934
  15   2.0000      -0.578511       -15.7421
  16   2.0000      -0.551802       -15.0153
  17   2.0000      -0.532732       -14.4964
  18   2.0000      -0.507694       -13.8151
  19   2.0000      -0.480983       -13.0882
  20   2.0000      -0.449828       -12.2404
  21   2.0000      -0.441092       -12.0027
  22   2.0000      -0.391257       -10.6467
  23   2.0000      -0.264282        -7.1915
  24   0.0000       0.140552         3.8246
  25   0.0000       0.166522         4.5313
  26   0.0000       0.191141         5.2012
  27   0.0000       0.196235         5.3398
  28   0.0000       0.210918         5.7394

MULLIKEN ATOMIC CHARGES
-----------------------
   0 C :   -0.083920
   1 C :   -0.268833
   2 C :   -0.085086
   3 C :    0.025533
   4 N :   -0.180276
   5 N :   -0.139907
   6 H :    0.157136
   7 H :    0.132365
   8 H :   -0.035094
   9 H :    0.153375
  10 H :    0.126284
  11 H :    0.021946
  12 H :    0.048540
  13 H :    0.036051
  14 H :    0.044419
  15 H :    0.047466
Sum of atomic charges:    0.0000000

LOEWDIN ATOMIC CHARGES
----------------------
   0 C :   -0.067253
   1 C :   -0.241255
   2 C :   -0.089510
   3 C :    0.027078
   4 N :   -0.054915
   5 N :   -0.030106
   6 H :    0.089864
   7 H :    0.074835
   8 H :   -0.000284
   9 H :    0.089749
  10 H :    0.068619
  11 H :    0.020027
  12 H :    0.033941
  13 H :    0.024648
  14 H :    0.024317
  15 H :    0.030245

  Mayer bond orders larger than 0.100000
B(  0-C ,  1-C ) :   1.0443 B(  0-C ,  2-C ) :   1.0619 B(  0-C , 11-H ) :   0.9634
B(  0-C , 12-H ) :   0.9461 B(  1-C ,  3-C ) :   1.7272 B(  1-C ,  8-H ) :   0.9627
B(  2-C , 13-H ) :   0.9763 B(  2-C , 14-H ) :   0.9754 B(  2-C , 15-H ) :   0.9761
B(  3-C ,  4-N ) :   1.2021 B(  3-C ,  5-N ) :   1.2454 B(  4-N ,  9-H ) :   0.9460
B(  4-N , 10-H ) :   0.9548 B(  5-N ,  6-H ) :   0.9398 B(  5-N ,  7-H ) :   0.9500

FINAL SINGLE POINT ENERGY      -266.841771785828

DIPOLE MOMENT
-------------
                                X             Y             Z
Electronic contribution:      3.02342      -2.93598      -2.98849
Nuclear contribution   :     -2.84307       1.95814       2.32378
                        -----------------------------------------
Total Dipole Moment    :      0.18034      -0.97784      -0.66471
                        -----------------------------------------
Magnitude (a.u.)       :      1.19605
Magnitude (Debye)      :      3.04011

Rotational constants in cm-1:     0.248902     0.068887     0.059904
Rotational constants in MHz :  7461.898926  2065.183281  1795.882140

                             ****ORCA TERMINATED NORMALLY****
TOTAL RUN TIME: 0 days 0 hours 0 minutes 14 seconds 566 msec
