                         Program Version 5.0.0 -  RELEASE  -
|  1> !LC-PBE RIJCOSX def2-SVP def2/J TightSCF
|  2> *xyz 0 1
|  3> C          2.49556        1.81615       -2.13636
|  4> C          1.87218        0.42790       -2.07750
|  5> H          2.61427       -0.36583       -2.19889
|  6> H          1.38995        0.27309       -1.11236
|  7> S          0.57902        0.14047       -3.29794
|  8> O          0.22886       -1.24687       -3.12787
|  9> F         -0.43927        1.11897       -3.01455
| 10> O          1.24788        0.40347       -4.59565
| 11> H          2.96535        1.95613       -3.08747
| 12> H          3.22581        1.91242       -1.36024
| 13> H          1.73350        2.55528       -2.00274
| 14> *
| 15>
| 16> %MaxCore 64000
| 17>
| 18> %pal nprocs 4
| 19> end
| 20>
| 21> %scf
| 22>   MaxIter 150
| 23> end
| 24>
| 25>
| 26>                          ****END OF INPUT****

CARTESIAN COORDINATES (ANGSTROEM)
---------------------------------
  C      2.495560    1.816150   -2.136360
  C      1.872180    0.427900   -2.077500
  H      2.614270   -0.365830   -2.198890
  H      1.389950    0.273090   -1.112360
  S      0.579020    0.140470   -3.297940
  O      0.228860   -1.246870   -3.127870
  F     -0.439270    1.118970   -3.014550
  O      1.247880    0.403470   -4.595650
  H      2.965350    1.956130   -3.087470
  H      3.225810    1.912420   -1.360240
  H      1.733500    2.555280   -2.002740

 Total Charge           Charge          ....    0
 Multiplicity           Mult            ....    1
 Number of Electrons    NEL             ....   58
 Basis Dimension        Dim             ....  113

ORBITAL ENERGIES
----------------

  NO   OCC          E(Eh)            E(eV)
   0   2.0000     -88.550777     -2409.5891
   1   2.0000     -24.618134      -669.8935
   2   2.0000     -18.992977      -516.8252
   3   2.0000     -18.976652      -516.3810
   4   2.0000     -10.186177      -277.1800
   5   2.0000     -10.146950      -276.1126
   6   2.0000      -8.183063      -222.6725
   7   2.0000      -6.209619      -168.9723
   8   2.0000      -6.202053      -168.7664
   9   2.0000      -6.201069      -168.7397
  10   2.0000      -1.537187       -41.8290
  11   2.0000      -1.273523       -34.6543
  12   2.0000      -1.158559       -31.5260
  13   2.0000      -0.998760       -27.1776
  14   2.0000      -0.889328       -24.1998
  15   2.0000      -0.839359       -22.8401
  16   2.0000      -0.753139       -20.4940
  17   2.0000      -0.739498       -20.1228
  18   2.0000      -0.691526       -18.8174
  19   2.0000      -0.639518       -17.4022
  20   2.0000      -0.623065       -16.9545
  21   2.0000      -0.592070       -16.1110
  22   2.0000      -0.568277       -15.4636
  23   2.0000      -0.544419       -14.8144
  24   2.0000      -0.531838       -14.4720
  25   2.0000      -0.511097       -13.9077
  26   2.0000      -0.461024       -12.5451
  27   2.0000      -0.444422       -12.0933
  28   2.0000      -0.432733       -11.7753
  29   0.0000       0.125205         3.4070
  30   0.0000       0.155104         4.2206
  31   0.0000       0.172688         4.6991
  32   0.0000       0.188287         5.1235
  33   0.0000       0.189485         5.1561

MULLIKEN ATOMIC CHARGES
-----------------------
   0 C :   -0.133084
   1 C :   -0.252614
   2 H :    0.147274
   3 H :    0.113248
   4 S :    0.900928
   5 O :   -0.418222
   6 F :   -0.150933
   7 O :   -0.470220
   8 H :    0.102320
   9 H :    0.087890
  10 H :    0.073413
Sum of atomic charges:    0.0000000

LOEWDIN ATOMIC CHARGES
----------------------
   0 C :   -0.097202
   1 C :   -0.177076
   2 H :    0.067208
   3 H :    0.045043
   4 S :    1.139528
   5 O :   -0.478445
   6 F :   -0.104250
   7 O :   -0.528781
   8 H :    0.047802
   9 H :    0.048500
  10 H :    0.037673

  Mayer bond orders larger than 0.100000
B(  0-C ,  1-C ) :   1.0223 B(  0-C ,  8-H ) :   0.9687 B(  0-C ,  9-H ) :   0.9671
B(  0-C , 10-H ) :   0.9750 B(  1-C ,  2-H ) :   0.9360 B(  1-C ,  3-H ) :   0.9375
B(  1-C ,  4-S ) :   0.9346 B(  4-S ,  5-O ) :   1.8114 B(  4-S ,  6-F ) :   1.0524
B(  4-S ,  7-O ) :   1.7554

FINAL SINGLE POINT ENERGY      -725.988167423223

DIPOLE MOMENT
-------------
                                X             Y             Z
Electronic contribution:     -7.97686      -2.39702      -3.85865
Nuclear contribution   :      8.30151       3.35500       5.26935
                        -----------------------------------------
Total Dipole Moment    :      0.32465       0.95798       1.41070
                        -----------------------------------------
Magnitude (a.u.)       :      1.73586
Magnitude (Debye)      :      4.41221

Rotational constants in cm-1:     0.152913     0.083043     0.080351
Rotational constants in MHz :  4584.227971  2489.580280  2408.872860

                             ****ORCA TERMINATED NORMALLY****
TOTAL RUN TIME: 0 days 0 hours 0 minutes 9 seconds 884 msec
