                         Program Version 5.0.0 -  RELEASE  -
|  1> !LC-PBE RIJCOSX def2-SVP def2/J TightSCF
|  2> *xyz 0 1
|  3> C          3.38093        2.08304       -3.35013
|  4> N          4.53592        1.18245       -3.42852
|  5> C          2.49556        1.81615       -2.13636
|  6> C          4.67196        0.12227       -4.22060
|  7> C          5.86602       -0.50785       -4.22428
|  8> N          3.69888       -0.31284       -4.98699
|  9> H          2.73141       -0.05009       -4.84900
| 10> H          3.89005       -1.05517       -5.64373
| 11> H          5.25193        1.30346       -2.72101
| 12> H          6.69516       -0.06232       -3.85160
| 13> H          5.97538       -1.39688       -4.69141
| 14> H          2.80646        1.98651       -4.26848
| 15> H          3.77871        3.09828       -3.30738
| 16> H          2.11090        0.81901       -2.18783
| 17> H          1.68276        2.51198       -2.12786
| 18> H          3.07216        1.93031       -1.24227
| 19> *
| 20>
| 21> %MaxCore 64000
| 22>
| 23> %pal nprocs 4
| 24> end
| 25>
| 26> %scf
| 27>   MaxIter 150
| 28> end
| 29>
| 30>
| 31>                          ****END OF INPUT****

CARTESIAN COORDINATES (ANGSTROEM)
---------------------------------
  C      3.380930    2.083040   -3.350130
  N      4.535920    1.182450   -3.428520
  C      2.495560    1.816150   -2.136360
  C      4.671960    0.122270   -4.220600
  C      5.866020   -0.507850   -4.224280
  N      3.698880   -0.312840   -4.986990
  H      2.731410   -0.050090   -4.849000
  H      3.890050   -1.055170   -5.643730
  H      5.251930    1.303460   -2.721010
  H      6.695160   -0.062320   -3.851600
  H      5.975380   -1.396880   -4.691410
  H      2.806460    1.986510   -4.268480
  H      3.778710    3.098280   -3.307380
  H      2.110900    0.819010   -2.187830
  H      1.682760    2.511980   -2.127860
  H      3.072160    1.930310   -1.242270

 Total Charge           Charge          ....    0
 Multiplicity           Mult            ....    1
 Number of Electrons    NEL             ....   48
 Basis Dimension        Dim             ....  134

ORBITAL ENERGIES
----------------

  NO   OCC          E(Eh)            E(eV)
   0   2.0000     -14.224601      -387.0711
   1   2.0000     -14.222134      -387.0039
   2   2.0000     -10.173646      -276.8390
   3   2.0000     -10.164696      -276.5954
   4   2.0000     -10.117874      -275.3214
   5   2.0000     -10.026459      -272.8338
   6   2.0000      -1.132830       -30.8259
   7   2.0000      -1.044619       -28.4255
   8   2.0000      -0.937367       -25.5070
   9   2.0000      -0.854262       -23.2457
  10   2.0000      -0.780419       -21.2363
  11   2.0000      -0.750312       -20.4170
  12   2.0000      -0.687920       -18.7193
  13   2.0000      -0.639597       -17.4043
  14   2.0000      -0.619986       -16.8707
  15   2.0000      -0.585992       -15.9457
  16   2.0000      -0.568350       -15.4656
  17   2.0000      -0.537419       -14.6239
  18   2.0000      -0.520993       -14.1769
  19   2.0000      -0.496981       -13.5235
  20   2.0000      -0.491967       -13.3871
  21   2.0000      -0.482865       -13.1394
  22   2.0000      -0.378665       -10.3040
  23   2.0000      -0.266860        -7.2616
  24   0.0000       0.134501         3.6600
  25   0.0000       0.169505         4.6125
  26   0.0000       0.180552         4.9131
  27   0.0000       0.198646         5.4054
  28   0.0000       0.203868         5.5475

MULLIKEN ATOMIC CHARGES
-----------------------
   0 C :   -0.049311
   1 N :   -0.214622
   2 C :   -0.109848
   3 C :    0.015973
   4 C :   -0.233173
   5 N :   -0.145849
   6 H :    0.137750
   7 H :    0.156623
   8 H :    0.156630
   9 H :   -0.007330
  10 H :   -0.016007
  11 H :    0.059775
  12 H :    0.070203
  13 H :    0.057087
  14 H :    0.061409
  15 H :    0.060691
Sum of atomic charges:    0.0000000

LOEWDIN ATOMIC CHARGES
----------------------
   0 C :    0.005251
   1 N :   -0.042409
   2 C :   -0.098995
   3 C :    0.042409
   4 C :   -0.304736
   5 N :   -0.026265
   6 H :    0.074276
   7 H :    0.094294
   8 H :    0.092663
   9 H :   -0.000709
  10 H :   -0.003384
  11 H :    0.030268
  12 H :    0.034362
  13 H :    0.032739
  14 H :    0.035842
  15 H :    0.034396

  Mayer bond orders larger than 0.100000
B(  0-C ,  1-N ) :   0.9939 B(  0-C ,  2-C ) :   1.0614 B(  0-C , 11-H ) :   0.9650
B(  0-C , 12-H ) :   0.9643 B(  1-N ,  3-C ) :   1.1926 B(  1-N ,  8-H ) :   0.9309
B(  2-C , 13-H ) :   0.9725 B(  2-C , 14-H ) :   0.9709 B(  2-C , 15-H ) :   0.9731
B(  3-C ,  4-C ) :   1.7256 B(  3-C ,  5-N ) :   1.2408 B(  4-C ,  9-H ) :   0.9591
B(  4-C , 10-H ) :   0.9594 B(  5-N ,  6-H ) :   0.9496 B(  5-N ,  7-H ) :   0.9419

FINAL SINGLE POINT ENERGY      -266.830521757922

DIPOLE MOMENT
-------------
                                X             Y             Z
Electronic contribution:      1.42167      -1.10706      -2.06027
Nuclear contribution   :     -2.56090       1.59955       2.15496
                        -----------------------------------------
Total Dipole Moment    :     -1.13924       0.49249       0.09469
                        -----------------------------------------
Magnitude (a.u.)       :      1.24474
Magnitude (Debye)      :      3.16387

Rotational constants in cm-1:     0.249834     0.071381     0.061833
Rotational constants in MHz :  7489.842787  2139.945635  1853.706310

                             ****ORCA TERMINATED NORMALLY****
TOTAL RUN TIME: 0 days 0 hours 0 minutes 14 seconds 243 msec
