                         Program Version 5.0.0 -  RELEASE  -
|  1> !LC-PBE RIJCOSX def2-SVP def2/J TightSCF
|  2> *xyz 0 1
|  3> C          2.49556        1.81615       -2.13636
|  4> C          1.87218        0.42790       -2.07750
|  5> H          2.61427       -0.36583       -2.19889
|  6> H          1.38995        0.27309       -1.11236
|  7> S          0.57902        0.14047       -3.29794
|  8> O          0.22886       -1.24687       -3.12787
|  9> O         -0.43927        1.11897       -3.01455
| 10> F          1.24788        0.40347       -4.59565
| 11> H          2.96535        1.95613       -3.08747
| 12> H          3.22581        1.91242       -1.36024
| 13> H          1.73350        2.55528       -2.00274
| 14> *
| 15>
| 16> %MaxCore 64000
| 17>
| 18> %pal nprocs 4
| 19> end
| 20>
| 21> %scf
| 22>   MaxIter 150
| 23> end
| 24>
| 25>
| 26>                          ****END OF INPUT****

CARTESIAN COORDINATES (ANGSTROEM)
---------------------------------
  C      2.495560    1.816150   -2.136360
  C      1.872180    0.427900   -2.077500
  H      2.614270   -0.365830   -2.198890
  H      1.389950    0.273090   -1.112360
  S      0.579020    0.140470   -3.297940
  O      0.228860   -1.246870   -3.127870
  O     -0.439270    1.118970   -3.014550
  F      1.247880    0.403470   -4.595650
  H      2.965350    1.956130   -3.087470
  H      3.225810    1.912420   -1.360240
  H      1.733500    2.555280   -2.002740

 Total Charge           Charge          ....    0
 Multiplicity           Mult            ....    1
 Number of Electrons    NEL             ....   58
 Basis Dimension        Dim             ....  113

ORBITAL ENERGIES
----------------

  NO   OCC          E(Eh)            E(eV)
   0   2.0000     -88.549388     -2409.5513
   1   2.0000     -24.594961      -669.2629
   2   2.0000     -18.993346      -516.8352
   3   2.0000     -18.992859      -516.8220
   4   2.0000     -10.185069      -277.1498
   5   2.0000     -10.147636      -276.1312
   6   2.0000      -8.181438      -222.6282
   7   2.0000      -6.207778      -168.9222
   8   2.0000      -6.200729      -168.7304
   9   2.0000      -6.199665      -168.7015
  10   2.0000      -1.500339       -40.8263
  11   2.0000      -1.283559       -34.9274
  12   2.0000      -1.180924       -32.1346
  13   2.0000      -0.998457       -27.1694
  14   2.0000      -0.877156       -23.8686
  15   2.0000      -0.830042       -22.5866
  16   2.0000      -0.736162       -20.0320
  17   2.0000      -0.713580       -19.4175
  18   2.0000      -0.689323       -18.7574
  19   2.0000      -0.641046       -17.4437
  20   2.0000      -0.620326       -16.8799
  21   2.0000      -0.594598       -16.1798
  22   2.0000      -0.574646       -15.6369
  23   2.0000      -0.545828       -14.8527
  24   2.0000      -0.538281       -14.6474
  25   2.0000      -0.513341       -13.9687
  26   2.0000      -0.471578       -12.8323
  27   2.0000      -0.454605       -12.3704
  28   2.0000      -0.449054       -12.2194
  29   0.0000       0.125643         3.4189
  30   0.0000       0.161216         4.3869
  31   0.0000       0.177356         4.8261
  32   0.0000       0.189046         5.1442
  33   0.0000       0.192346         5.2340

MULLIKEN ATOMIC CHARGES
-----------------------
   0 C :   -0.135858
   1 C :   -0.257115
   2 H :    0.121850
   3 H :    0.141762
   4 S :    0.910946
   5 O :   -0.423184
   6 O :   -0.428156
   7 F :   -0.194644
   8 H :    0.078269
   9 H :    0.089032
  10 H :    0.097098
Sum of atomic charges:   -0.0000000

LOEWDIN ATOMIC CHARGES
----------------------
   0 C :   -0.097981
   1 C :   -0.179373
   2 H :    0.050302
   3 H :    0.063769
   4 S :    1.145344
   5 O :   -0.482579
   6 O :   -0.484501
   7 F :   -0.148868
   8 H :    0.038590
   9 H :    0.049009
  10 H :    0.046290

  Mayer bond orders larger than 0.100000
B(  0-C ,  1-C ) :   1.0222 B(  0-C ,  8-H ) :   0.9758 B(  0-C ,  9-H ) :   0.9674
B(  0-C , 10-H ) :   0.9689 B(  1-C ,  2-H ) :   0.9380 B(  1-C ,  3-H ) :   0.9361
B(  1-C ,  4-S ) :   0.9368 B(  4-S ,  5-O ) :   1.8147 B(  4-S ,  6-O ) :   1.8055
B(  4-S ,  7-F ) :   1.0050

FINAL SINGLE POINT ENERGY      -726.008587895532

DIPOLE MOMENT
-------------
                                X             Y             Z
Electronic contribution:     -5.05725      -3.62120      -6.59521
Nuclear contribution   :      6.54345       4.10057       6.91691
                        -----------------------------------------
Total Dipole Moment    :      1.48619       0.47938       0.32170
                        -----------------------------------------
Magnitude (a.u.)       :      1.59438
Magnitude (Debye)      :      4.05260

Rotational constants in cm-1:     0.152835     0.082826     0.080611
Rotational constants in MHz :  4581.878371  2483.049050  2416.647141

                             ****ORCA TERMINATED NORMALLY****
TOTAL RUN TIME: 0 days 0 hours 0 minutes 9 seconds 103 msec
