                         Program Version 5.0.0 -  RELEASE  -
|  1> !LC-PBE RIJCOSX def2-SVP def2/J TightSCF
|  2> *xyz 0 1
|  3> C          3.38093        2.08304       -3.35013
|  4> N          4.53592        1.18245       -3.42852
|  5> C          2.49556        1.81615       -2.13636
|  6> C          4.67196        0.12227       -4.22060
|  7> N          5.86602       -0.50785       -4.22428
|  8> C          3.69888       -0.31284       -4.98699
|  9> H          2.73141       -0.05009       -4.84900
| 10> H          3.89005       -1.05517       -5.64373
| 11> H          5.25193        1.30346       -2.72101
| 12> H          6.69516       -0.06232       -3.85160
| 13> H          5.97538       -1.39688       -4.69141
| 14> H          2.80646        1.98651       -4.26848
| 15> H          3.77871        3.09828       -3.30738
| 16> H          2.11090        0.81901       -2.18783
| 17> H          1.68276        2.51198       -2.12786
| 18> H          3.07216        1.93031       -1.24227
| 19> *
| 20>
| 21> %MaxCore 64000
| 22>
| 23> %pal nprocs 4
| 24> end
| 25>
| 26> %scf
| 27>   MaxIter 150
| 28> end
| 29>
| 30>
| 31>                          ****END OF INPUT****

CARTESIAN COORDINATES (ANGSTROEM)
---------------------------------
  C      3.380930    2.083040   -3.350130
  N      4.535920    1.182450   -3.428520
  C      2.495560    1.816150   -2.136360
  C      4.671960    0.122270   -4.220600
  N      5.866020   -0.507850   -4.224280
  C      3.698880   -0.312840   -4.986990
  H      2.731410   -0.050090   -4.849000
  H      3.890050   -1.055170   -5.643730
  H      5.251930    1.303460   -2.721010
  H      6.695160   -0.062320   -3.851600
  H      5.975380   -1.396880   -4.691410
  H      2.806460    1.986510   -4.268480
  H      3.778710    3.098280   -3.307380
  H      2.110900    0.819010   -2.187830
  H      1.682760    2.511980   -2.127860
  H      3.072160    1.930310   -1.242270

 Total Charge           Charge          ....    0
 Multiplicity           Mult            ....    1
 Number of Electrons    NEL             ....   48
 Basis Dimension        Dim             ....  134

ORBITAL ENERGIES
----------------

  NO   OCC          E(Eh)            E(eV)
   0   2.0000     -14.222113      -387.0034
   1   2.0000     -14.216880      -386.8610
   2   2.0000     -10.170657      -276.7576
   3   2.0000     -10.154751      -276.3248
   4   2.0000     -10.108927      -275.0779
   5   2.0000     -10.030560      -272.9454
   6   2.0000      -1.125876       -30.6366
   7   2.0000      -1.035750       -28.1842
   8   2.0000      -0.919436       -25.0191
   9   2.0000      -0.867983       -23.6190
  10   2.0000      -0.792825       -21.5739
  11   2.0000      -0.709343       -19.3022
  12   2.0000      -0.688051       -18.7228
  13   2.0000      -0.654156       -17.8005
  14   2.0000      -0.595396       -16.2015
  15   2.0000      -0.589087       -16.0299
  16   2.0000      -0.562301       -15.3010
  17   2.0000      -0.533178       -14.5085
  18   2.0000      -0.509787       -13.8720
  19   2.0000      -0.505025       -13.7424
  20   2.0000      -0.484184       -13.1753
  21   2.0000      -0.476034       -12.9535
  22   2.0000      -0.370969       -10.0946
  23   2.0000      -0.279313        -7.6005
  24   0.0000       0.144796         3.9401
  25   0.0000       0.167471         4.5571
  26   0.0000       0.187770         5.1095
  27   0.0000       0.198076         5.3899
  28   0.0000       0.213313         5.8045

MULLIKEN ATOMIC CHARGES
-----------------------
   0 C :   -0.019951
   1 N :   -0.237151
   2 C :   -0.117848
   3 C :    0.080874
   4 N :   -0.195453
   5 C :   -0.240454
   6 H :    0.002837
   7 H :   -0.015338
   8 H :    0.132074
   9 H :    0.132114
  10 H :    0.152539
  11 H :    0.083705
  12 H :    0.061195
  13 H :    0.070741
  14 H :    0.060386
  15 H :    0.049729
Sum of atomic charges:   -0.0000000

LOEWDIN ATOMIC CHARGES
----------------------
   0 C :    0.018257
   1 N :   -0.048427
   2 C :   -0.096964
   3 C :    0.046908
   4 N :   -0.054137
   5 C :   -0.281643
   6 H :    0.003188
   7 H :    0.002386
   8 H :    0.073110
   9 H :    0.071629
  10 H :    0.088168
  11 H :    0.042902
  12 H :    0.030542
  13 H :    0.038676
  14 H :    0.035983
  15 H :    0.029421

  Mayer bond orders larger than 0.100000
B(  0-C ,  1-N ) :   0.9745 B(  0-C ,  2-C ) :   1.0749 B(  0-C , 11-H ) :   0.9539
B(  0-C , 12-H ) :   0.9685 B(  1-N ,  3-C ) :   1.1629 B(  1-N ,  8-H ) :   0.9376
B(  2-C , 13-H ) :   0.9722 B(  2-C , 14-H ) :   0.9721 B(  2-C , 15-H ) :   0.9739
B(  3-C ,  4-N ) :   1.2005 B(  3-C ,  5-C ) :   1.7816 B(  4-N ,  9-H ) :   0.9544
B(  4-N , 10-H ) :   0.9480 B(  5-C ,  6-H ) :   0.9528 B(  5-C ,  7-H ) :   0.9492

FINAL SINGLE POINT ENERGY      -266.834628541261

DIPOLE MOMENT
-------------
                                X             Y             Z
Electronic contribution:      3.78668      -1.32716      -1.30530
Nuclear contribution   :     -3.02065       1.64092       1.99316
                        -----------------------------------------
Total Dipole Moment    :      0.76603       0.31376       0.68786
                        -----------------------------------------
Magnitude (a.u.)       :      1.07629
Magnitude (Debye)      :      2.73571

Rotational constants in cm-1:     0.259304     0.069422     0.060943
Rotational constants in MHz :  7773.747720  2081.225169  1827.013389

                             ****ORCA TERMINATED NORMALLY****
TOTAL RUN TIME: 0 days 0 hours 0 minutes 13 seconds 328 msec
