                         Program Version 5.0.0 -  RELEASE  -
|  1> !LC-PBE RIJCOSX def2-TZVP def2/J TightSCF xyzfile
|  2>
|  3> *xyzfile 0 1 D1.xyz
|  4>
|  5> %MaxCore 64000
|  6>
|  7> %pal nprocs 18
|  8> end
|  9>
| 10> %scf
| 11>   MaxIter 150
| 12> end
| 13>
| 14>
| 15>                          ****END OF INPUT****

CARTESIAN COORDINATES (ANGSTROEM)
---------------------------------
  C      3.380928    2.083045   -3.350127
  C      4.535924    1.182447   -3.428518
  C      2.495557    1.816150   -2.136364
  C      1.872181    0.427903   -2.077497
  H      2.614270   -0.365825   -2.198894
  H      1.389953    0.273087   -1.112360
  S      0.579024    0.140472   -3.297943
  C      4.671956    0.122273   -4.220598
  N      5.866023   -0.507849   -4.224284
  N      3.698881   -0.312844   -4.986988
  H      2.731405   -0.050091   -4.849000
  H      3.890046   -1.055172   -5.643730
  H      5.251933    1.303459   -2.721014
  H      6.695165   -0.062322   -3.851596
  H      5.975383   -1.396884   -4.691414
  F      0.228860   -1.246868   -3.127871
  O     -0.439269    1.118966   -3.014550
  O      1.247881    0.403474   -4.595647
  H      1.697003    2.561969   -2.141109
  H      3.080787    1.987436   -1.225838
  H      2.806463    1.986511   -4.268484
  H      3.778714    3.098282   -3.307383

 Total Charge           Charge          ....    0
 Multiplicity           Mult            ....    1
 Number of Electrons    NEL             ....   96
 Basis Dimension        Dim             ....  413

ORBITAL ENERGIES
----------------

  NO   OCC          E(Eh)            E(eV)
   0   2.0000     -88.543984     -2409.4043
   1   2.0000     -24.625624      -670.0973
   2   2.0000     -19.001512      -517.0574
   3   2.0000     -18.996851      -516.9306
   4   2.0000     -14.204465      -386.5232
   5   2.0000     -14.187147      -386.0519
   6   2.0000     -10.170409      -276.7509
   7   2.0000     -10.159322      -276.4492
   8   2.0000     -10.124660      -275.5060
   9   2.0000     -10.089216      -274.5415
  10   2.0000     -10.031714      -272.9768
  11   2.0000      -8.155521      -221.9230
  12   2.0000      -6.175762      -168.0510
  13   2.0000      -6.168989      -167.8667
  14   2.0000      -6.168283      -167.8475
  15   2.0000      -1.557410       -42.3793
  16   2.0000      -1.291795       -35.1515
  17   2.0000      -1.189729       -32.3742
  18   2.0000      -1.127970       -30.6936
  19   2.0000      -1.026847       -27.9419
  20   2.0000      -1.005217       -27.3533
  21   2.0000      -0.936705       -25.4891
  22   2.0000      -0.891479       -24.2584
  23   2.0000      -0.846299       -23.0290
  24   2.0000      -0.789312       -21.4783
  25   2.0000      -0.758061       -20.6279
  26   2.0000      -0.745976       -20.2991
  27   2.0000      -0.735243       -20.0070
  28   2.0000      -0.703697       -19.1486
  29   2.0000      -0.685316       -18.6484
  30   2.0000      -0.663267       -18.0484
  31   2.0000      -0.635220       -17.2852
  32   2.0000      -0.632245       -17.2043
  33   2.0000      -0.611713       -16.6456
  34   2.0000      -0.595774       -16.2118
  35   2.0000      -0.576892       -15.6980
  36   2.0000      -0.547626       -14.9017
  37   2.0000      -0.544707       -14.8222
  38   2.0000      -0.533706       -14.5229
  39   2.0000      -0.520688       -14.1686
  40   2.0000      -0.493439       -13.4272
  41   2.0000      -0.488269       -13.2865
  42   2.0000      -0.469426       -12.7737
  43   2.0000      -0.465538       -12.6679
  44   2.0000      -0.451662       -12.2904
  45   2.0000      -0.437437       -11.9033
  46   2.0000      -0.387363       -10.5407
  47   2.0000      -0.272277        -7.4090
  48   0.0000       0.108836         2.9616
  49   0.0000       0.119540         3.2529
  50   0.0000       0.125174         3.4062
  51   0.0000       0.151563         4.1242
  52   0.0000       0.152665         4.1542

MULLIKEN ATOMIC CHARGES
-----------------------
   0 C :   -0.423916
   1 C :   -0.464798
   2 C :   -0.230553
   3 C :   -0.422192
   4 H :    0.235547
   5 H :    0.200146
   6 S :    0.797846
   7 C :    0.359945
   8 N :   -0.531372
   9 N :   -0.496400
  10 H :    0.277246
  11 H :    0.228048
  12 H :    0.134597
  13 H :    0.266597
  14 H :    0.235685
  15 F :   -0.061928
  16 O :   -0.366443
  17 O :   -0.444071
  18 H :    0.180065
  19 H :    0.159098
  20 H :    0.217388
  21 H :    0.149464
Sum of atomic charges:   -0.0000000

LOEWDIN ATOMIC CHARGES
----------------------
   0 C :   -0.299534
   1 C :   -0.305208
   2 C :   -0.292010
   3 C :   -0.382578
   4 H :    0.156254
   5 H :    0.149001
   6 S :    0.529296
   7 C :   -0.476276
   8 N :   -0.038766
   9 N :   -0.006442
  10 H :    0.134121
  11 H :    0.165599
  12 H :    0.124229
  13 H :    0.178105
  14 H :    0.161655
  15 F :    0.118382
  16 O :   -0.246043
  17 O :   -0.281980
  18 H :    0.152988
  19 H :    0.155147
  20 H :    0.154141
  21 H :    0.149921

  Mayer bond orders larger than 0.100000
B(  0-C ,  1-C ) :   0.9526 B(  0-C ,  2-C ) :   0.9155 B(  0-C , 20-H ) :   0.9904
B(  0-C , 21-H ) :   0.9929 B(  1-C ,  7-C ) :   1.6118 B(  1-C , 12-H ) :   0.9962
B(  2-C ,  3-C ) :   0.9260 B(  2-C , 18-H ) :   0.9672 B(  2-C , 19-H ) :   0.9631
B(  3-C ,  4-H ) :   0.9221 B(  3-C ,  5-H ) :   0.9416 B(  3-C ,  6-S ) :   0.9585
B(  6-S , 15-F ) :   1.1968 B(  6-S , 16-O ) :   1.9791 B(  6-S , 17-O ) :   1.7379
B(  7-C ,  8-N ) :   1.1128 B(  7-C ,  9-N ) :   1.1805 B(  8-N , 13-H ) :   0.9188
B(  8-N , 14-H ) :   0.9278 B(  9-N , 10-H ) :   0.8394 B(  9-N , 11-H ) :   0.9318
B( 10-H , 17-O ) :   0.1282

FINAL SINGLE POINT ENERGY      -953.357023782142

DIPOLE MOMENT
-------------
                                X             Y             Z
Electronic contribution:    -15.27767      -6.80535      -1.13056
Nuclear contribution   :     15.92508       5.34175       1.81950
                        -----------------------------------------
Total Dipole Moment    :      0.64740      -1.46359       0.68894
                        -----------------------------------------
Magnitude (a.u.)       :      1.74238
Magnitude (Debye)      :      4.42877

Rotational constants in cm-1:     0.058561     0.020662     0.017762
Rotational constants in MHz :  1755.621534   619.433801   532.501507

                             ****ORCA TERMINATED NORMALLY****
TOTAL RUN TIME: 0 days 0 hours 0 minutes 41 seconds 567 msec
