                         Program Version 5.0.0 -  RELEASE  -
|  1> !LC-PBE RIJCOSX def2-TZVP def2/J TightSCF xyzfile
|  2>
|  3> *xyzfile 0 1 D2.xyz
|  4>
|  5> %MaxCore 64000
|  6>
|  7> %pal nprocs 18
|  8> end
|  9>
| 10> %scf
| 11>   MaxIter 150
| 12> end
| 13>
| 14>
| 15>                          ****END OF INPUT****

CARTESIAN COORDINATES (ANGSTROEM)
---------------------------------
  C      3.380928    2.083045   -3.350127
  N      4.535924    1.182447   -3.428518
  C      2.495557    1.816150   -2.136364
  C      1.872181    0.427903   -2.077497
  H      2.614270   -0.365825   -2.198894
  H      1.389953    0.273087   -1.112360
  S      0.579024    0.140472   -3.297943
  C      4.671956    0.122273   -4.220598
  C      5.866023   -0.507849   -4.224284
  N      3.698881   -0.312844   -4.986988
  H      2.731405   -0.050091   -4.849000
  H      3.890046   -1.055172   -5.643730
  H      5.251933    1.303459   -2.721014
  H      6.695165   -0.062322   -3.851596
  H      5.975383   -1.396884   -4.691414
  F      0.228860   -1.246868   -3.127871
  O     -0.439269    1.118966   -3.014550
  O      1.247881    0.403474   -4.595647
  H      1.697003    2.561969   -2.141109
  H      3.080787    1.987436   -1.225838
  H      2.806463    1.986511   -4.268484
  H      3.778714    3.098282   -3.307383

 Total Charge           Charge          ....    0
 Multiplicity           Mult            ....    1
 Number of Electrons    NEL             ....   96
 Basis Dimension        Dim             ....  413

ORBITAL ENERGIES
----------------

  NO   OCC          E(Eh)            E(eV)
   0   2.0000     -88.558534     -2409.8002
   1   2.0000     -24.637569      -670.4223
   2   2.0000     -19.015177      -517.4293
   3   2.0000     -19.009626      -517.2782
   4   2.0000     -14.215896      -386.8342
   5   2.0000     -14.185454      -386.0058
   6   2.0000     -10.190177      -277.2888
   7   2.0000     -10.160402      -276.4786
   8   2.0000     -10.158755      -276.4338
   9   2.0000     -10.153616      -276.2939
  10   2.0000     -10.011799      -272.4349
  11   2.0000      -8.169889      -222.3140
  12   2.0000      -6.190059      -168.4401
  13   2.0000      -6.183412      -168.2592
  14   2.0000      -6.182740      -168.2409
  15   2.0000      -1.569200       -42.7001
  16   2.0000      -1.305385       -35.5213
  17   2.0000      -1.203004       -32.7354
  18   2.0000      -1.140204       -31.0265
  19   2.0000      -1.053396       -28.6644
  20   2.0000      -1.014007       -27.5925
  21   2.0000      -0.941679       -25.6244
  22   2.0000      -0.892111       -24.2756
  23   2.0000      -0.855302       -23.2740
  24   2.0000      -0.800402       -21.7801
  25   2.0000      -0.768782       -20.9196
  26   2.0000      -0.754517       -20.5315
  27   2.0000      -0.752314       -20.4715
  28   2.0000      -0.735928       -20.0256
  29   2.0000      -0.697617       -18.9831
  30   2.0000      -0.659748       -17.9527
  31   2.0000      -0.638668       -17.3790
  32   2.0000      -0.633011       -17.2251
  33   2.0000      -0.625680       -17.0256
  34   2.0000      -0.608071       -16.5465
  35   2.0000      -0.587205       -15.9787
  36   2.0000      -0.559805       -15.2331
  37   2.0000      -0.551858       -15.0168
  38   2.0000      -0.543491       -14.7892
  39   2.0000      -0.525613       -14.3027
  40   2.0000      -0.518966       -14.1218
  41   2.0000      -0.503900       -13.7118
  42   2.0000      -0.492189       -13.3931
  43   2.0000      -0.483227       -13.1493
  44   2.0000      -0.469957       -12.7882
  45   2.0000      -0.460399       -12.5281
  46   2.0000      -0.377532       -10.2732
  47   2.0000      -0.268432        -7.3044
  48   0.0000       0.097589         2.6555
  49   0.0000       0.103330         2.8118
  50   0.0000       0.135129         3.6771
  51   0.0000       0.138634         3.7724
  52   0.0000       0.140957         3.8356

MULLIKEN ATOMIC CHARGES
-----------------------
   0 C :   -0.383886
   1 N :   -0.313246
   2 C :   -0.250424
   3 C :   -0.413389
   4 H :    0.237380
   5 H :    0.206737
   6 S :    0.801980
   7 C :    0.383966
   8 C :   -0.710994
   9 N :   -0.506183
  10 H :    0.264709
  11 H :    0.255151
  12 H :    0.247978
  13 H :    0.138476
  14 H :    0.125721
  15 F :   -0.056129
  16 O :   -0.365014
  17 O :   -0.439433
  18 H :    0.187034
  19 H :    0.168882
  20 H :    0.249465
  21 H :    0.171219
Sum of atomic charges:    0.0000000

LOEWDIN ATOMIC CHARGES
----------------------
   0 C :   -0.303151
   1 N :    0.113682
   2 C :   -0.299311
   3 C :   -0.382402
   4 H :    0.158872
   5 H :    0.152147
   6 S :    0.530201
   7 C :   -0.487313
   8 C :   -0.388045
   9 N :   -0.004965
  10 H :    0.125827
  11 H :    0.181460
  12 H :    0.198799
  13 H :    0.097071
  14 H :    0.096590
  15 F :    0.124034
  16 O :   -0.244215
  17 O :   -0.280676
  18 H :    0.159712
  19 H :    0.155921
  20 H :    0.152531
  21 H :    0.143231

  Mayer bond orders larger than 0.100000
B(  0-C ,  1-N ) :   0.8929 B(  0-C ,  2-C ) :   0.9221 B(  0-C , 20-H ) :   0.9712
B(  0-C , 21-H ) :   0.9819 B(  1-N ,  7-C ) :   1.1538 B(  1-N , 12-H ) :   0.9245
B(  2-C ,  3-C ) :   0.9260 B(  2-C , 18-H ) :   0.9604 B(  2-C , 19-H ) :   0.9604
B(  3-C ,  4-H ) :   0.9194 B(  3-C ,  5-H ) :   0.9385 B(  3-C ,  6-S ) :   0.9544
B(  6-S , 15-F ) :   1.2066 B(  6-S , 16-O ) :   1.9757 B(  6-S , 17-O ) :   1.7409
B(  7-C ,  8-C ) :   1.5326 B(  7-C ,  9-N ) :   1.1817 B(  8-C , 13-H ) :   1.0083
B(  8-C , 14-H ) :   1.0140 B(  9-N , 10-H ) :   0.8507 B(  9-N , 11-H ) :   0.9267
B( 10-H , 17-O ) :   0.1151

FINAL SINGLE POINT ENERGY      -953.340211484027

DIPOLE MOMENT
-------------
                                X             Y             Z
Electronic contribution:    -16.79166      -5.26835      -0.31311
Nuclear contribution   :     16.05479       5.17692       1.74190
                        -----------------------------------------
Total Dipole Moment    :     -0.73687      -0.09143       1.42878
                        -----------------------------------------
Magnitude (a.u.)       :      1.61020
Magnitude (Debye)      :      4.09281

Rotational constants in cm-1:     0.058652     0.021107     0.018077
Rotational constants in MHz :  1758.344290   632.763813   541.920558

                             ****ORCA TERMINATED NORMALLY****
TOTAL RUN TIME: 0 days 0 hours 0 minutes 43 seconds 31 msec
