                         Program Version 5.0.0 -  RELEASE  -
|  1> !LC-PBE RIJCOSX def2-TZVP def2/J TightSCF xyzfile
|  2>
|  3> *xyzfile 0 1 D3.xyz
|  4>
|  5> %MaxCore 64000
|  6>
|  7> %pal nprocs 18
|  8> end
|  9>
| 10> %scf
| 11>   MaxIter 150
| 12> end
| 13>
| 14>
| 15>                          ****END OF INPUT****

CARTESIAN COORDINATES (ANGSTROEM)
---------------------------------
  C      3.380928    2.083045   -3.350127
  N      4.535924    1.182447   -3.428518
  C      2.495557    1.816150   -2.136364
  C      1.872181    0.427903   -2.077497
  H      2.614270   -0.365825   -2.198894
  H      1.389953    0.273087   -1.112360
  S      0.579024    0.140472   -3.297943
  C      4.671956    0.122273   -4.220598
  N      5.866023   -0.507849   -4.224284
  C      3.698881   -0.312844   -4.986988
  H      2.731405   -0.050091   -4.849000
  H      3.890046   -1.055172   -5.643730
  H      5.251933    1.303459   -2.721014
  H      6.695165   -0.062322   -3.851596
  H      5.975383   -1.396884   -4.691414
  F      0.228860   -1.246868   -3.127871
  O     -0.439269    1.118966   -3.014550
  O      1.247881    0.403474   -4.595647
  H      1.697003    2.561969   -2.141109
  H      3.080787    1.987436   -1.225838
  H      2.806463    1.986511   -4.268484
  H      3.778714    3.098282   -3.307383

 Total Charge           Charge          ....    0
 Multiplicity           Mult            ....    1
 Number of Electrons    NEL             ....   96
 Basis Dimension        Dim             ....  413

ORBITAL ENERGIES
----------------

  NO   OCC          E(Eh)            E(eV)
   0   2.0000     -88.535599     -2409.1761
   1   2.0000     -24.617946      -669.8884
   2   2.0000     -18.994515      -516.8670
   3   2.0000     -18.978711      -516.4370
   4   2.0000     -14.215258      -386.8168
   5   2.0000     -14.202994      -386.4831
   6   2.0000     -10.175005      -276.8760
   7   2.0000     -10.155357      -276.3413
   8   2.0000     -10.151151      -276.2269
   9   2.0000     -10.144356      -276.0420
  10   2.0000      -9.999185      -272.0917
  11   2.0000      -8.146939      -221.6895
  12   2.0000      -6.167195      -167.8179
  13   2.0000      -6.160215      -167.6280
  14   2.0000      -6.159941      -167.6205
  15   2.0000      -1.549393       -42.1611
  16   2.0000      -1.282090       -34.8874
  17   2.0000      -1.176557       -32.0157
  18   2.0000      -1.138107       -30.9695
  19   2.0000      -1.051967       -28.6255
  20   2.0000      -1.000132       -27.2150
  21   2.0000      -0.921671       -25.0799
  22   2.0000      -0.882237       -24.0069
  23   2.0000      -0.859878       -23.3985
  24   2.0000      -0.805298       -21.9133
  25   2.0000      -0.748198       -20.3595
  26   2.0000      -0.743324       -20.2269
  27   2.0000      -0.726271       -19.7628
  28   2.0000      -0.705878       -19.2079
  29   2.0000      -0.686204       -18.6726
  30   2.0000      -0.664018       -18.0688
  31   2.0000      -0.642272       -17.4771
  32   2.0000      -0.636371       -17.3165
  33   2.0000      -0.598184       -16.2774
  34   2.0000      -0.593058       -16.1379
  35   2.0000      -0.587907       -15.9978
  36   2.0000      -0.547129       -14.8881
  37   2.0000      -0.538112       -14.6428
  38   2.0000      -0.530922       -14.4471
  39   2.0000      -0.516569       -14.0566
  40   2.0000      -0.511824       -13.9274
  41   2.0000      -0.502175       -13.6649
  42   2.0000      -0.484836       -13.1931
  43   2.0000      -0.471043       -12.8177
  44   2.0000      -0.449596       -12.2341
  45   2.0000      -0.412111       -11.2141
  46   2.0000      -0.377630       -10.2758
  47   2.0000      -0.278428        -7.5764
  48   0.0000       0.100787         2.7426
  49   0.0000       0.120548         3.2803
  50   0.0000       0.124456         3.3866
  51   0.0000       0.145066         3.9474
  52   0.0000       0.154390         4.2012

MULLIKEN ATOMIC CHARGES
-----------------------
   0 C :   -0.337724
   1 N :   -0.343063
   2 C :   -0.269170
   3 C :   -0.399324
   4 H :    0.233068
   5 H :    0.199248
   6 S :    0.786698
   7 C :    0.428515
   8 N :   -0.553717
   9 C :   -0.656749
  10 H :    0.145784
  11 H :    0.116047
  12 H :    0.216749
  13 H :    0.238252
  14 H :    0.265371
  15 F :   -0.062253
  16 O :   -0.377532
  17 O :   -0.400920
  18 H :    0.185838
  19 H :    0.160287
  20 H :    0.260841
  21 H :    0.163754
Sum of atomic charges:   -0.0000000

LOEWDIN ATOMIC CHARGES
----------------------
   0 C :   -0.287945
   1 N :    0.103480
   2 C :   -0.299652
   3 C :   -0.382435
   4 H :    0.157736
   5 H :    0.148486
   6 S :    0.522726
   7 C :   -0.489518
   8 N :   -0.042685
   9 C :   -0.344698
  10 H :    0.081296
  11 H :    0.101882
  12 H :    0.181302
  13 H :    0.160921
  14 H :    0.177349
  15 F :    0.119476
  16 O :   -0.256529
  17 O :   -0.264905
  18 H :    0.159665
  19 H :    0.152298
  20 H :    0.160352
  21 H :    0.141401

  Mayer bond orders larger than 0.100000
B(  0-C ,  1-N ) :   0.8691 B(  0-C ,  2-C ) :   0.9371 B(  0-C , 20-H ) :   0.9642
B(  0-C , 21-H ) :   0.9816 B(  1-N ,  7-C ) :   1.1268 B(  1-N , 12-H ) :   0.9334
B(  2-C ,  3-C ) :   0.9351 B(  2-C , 18-H ) :   0.9619 B(  2-C , 19-H ) :   0.9641
B(  3-C ,  4-H ) :   0.9264 B(  3-C ,  5-H ) :   0.9401 B(  3-C ,  6-S ) :   0.9512
B(  6-S , 15-F ) :   1.1969 B(  6-S , 16-O ) :   1.9602 B(  6-S , 17-O ) :   1.8026
B(  7-C ,  8-N ) :   1.0654 B(  7-C ,  9-C ) :   1.5959 B(  8-N , 13-H ) :   0.9287
B(  8-N , 14-H ) :   0.9216 B(  9-C , 10-H ) :   1.0089 B(  9-C , 11-H ) :   1.0205

FINAL SINGLE POINT ENERGY      -953.323590723969

DIPOLE MOMENT
-------------
                                X             Y             Z
Electronic contribution:    -14.64755      -5.51975       0.13794
Nuclear contribution   :     15.84345       5.19593       1.66752
                        -----------------------------------------
Total Dipole Moment    :      1.19590      -0.32381       1.80546
                        -----------------------------------------
Magnitude (a.u.)       :      2.18968
Magnitude (Debye)      :      5.56574

Rotational constants in cm-1:     0.059060     0.020573     0.017713
Rotational constants in MHz :  1770.576058   616.749938   531.036486

                             ****ORCA TERMINATED NORMALLY****
TOTAL RUN TIME: 0 days 0 hours 0 minutes 46 seconds 845 msec
