                         Program Version 5.0.0 -  RELEASE  -
|  1> !LC-PBE RIJCOSX def2-TZVP def2/J TightSCF xyzfile
|  2>
|  3> *xyzfile 0 1 D5.xyz
|  4>
|  5> %MaxCore 64000
|  6>
|  7> %pal nprocs 18
|  8> end
|  9>
| 10> %scf
| 11>   MaxIter 150
| 12> end
| 13>
| 14>
| 15>                          ****END OF INPUT****

CARTESIAN COORDINATES (ANGSTROEM)
---------------------------------
  C      3.380928    2.083045   -3.350127
  N      4.535924    1.182447   -3.428518
  C      2.495557    1.816150   -2.136364
  C      1.872181    0.427903   -2.077497
  H      2.614270   -0.365825   -2.198894
  H      1.389953    0.273087   -1.112360
  S      0.579024    0.140472   -3.297943
  C      4.671956    0.122273   -4.220598
  C      5.866023   -0.507849   -4.224284
  N      3.698881   -0.312844   -4.986988
  H      2.731405   -0.050091   -4.849000
  H      3.890046   -1.055172   -5.643730
  H      5.251933    1.303459   -2.721014
  H      6.695165   -0.062322   -3.851596
  H      5.975383   -1.396884   -4.691414
  O      0.228860   -1.246868   -3.127871
  F     -0.439269    1.118966   -3.014550
  O      1.247881    0.403474   -4.595647
  H      1.697003    2.561969   -2.141109
  H      3.080787    1.987436   -1.225838
  H      2.806463    1.986511   -4.268484
  H      3.778714    3.098282   -3.307383

 Total Charge           Charge          ....    0
 Multiplicity           Mult            ....    1
 Number of Electrons    NEL             ....   96
 Basis Dimension        Dim             ....  413

ORBITAL ENERGIES
----------------

  NO   OCC          E(Eh)            E(eV)
   0   2.0000     -88.558128     -2409.7892
   1   2.0000     -24.638275      -670.4416
   2   2.0000     -19.014343      -517.4066
   3   2.0000     -19.009260      -517.2683
   4   2.0000     -14.216658      -386.8549
   5   2.0000     -14.183777      -385.9602
   6   2.0000     -10.189883      -277.2808
   7   2.0000     -10.161329      -276.5038
   8   2.0000     -10.159197      -276.4458
   9   2.0000     -10.156621      -276.3757
  10   2.0000     -10.010428      -272.3976
  11   2.0000      -8.169410      -222.3010
  12   2.0000      -6.189705      -168.4304
  13   2.0000      -6.182931      -168.2461
  14   2.0000      -6.182160      -168.2251
  15   2.0000      -1.570129       -42.7254
  16   2.0000      -1.304139       -35.4874
  17   2.0000      -1.202548       -32.7230
  18   2.0000      -1.139908       -31.0185
  19   2.0000      -1.053609       -28.6702
  20   2.0000      -1.015911       -27.6444
  21   2.0000      -0.939241       -25.5580
  22   2.0000      -0.893029       -24.3006
  23   2.0000      -0.856988       -23.3198
  24   2.0000      -0.799348       -21.7514
  25   2.0000      -0.771668       -20.9981
  26   2.0000      -0.768465       -20.9110
  27   2.0000      -0.749943       -20.4070
  28   2.0000      -0.726557       -19.7706
  29   2.0000      -0.691817       -18.8253
  30   2.0000      -0.659065       -17.9341
  31   2.0000      -0.645152       -17.5555
  32   2.0000      -0.634133       -17.2556
  33   2.0000      -0.623564       -16.9680
  34   2.0000      -0.604481       -16.4488
  35   2.0000      -0.591763       -16.1027
  36   2.0000      -0.563846       -15.3430
  37   2.0000      -0.553939       -15.0735
  38   2.0000      -0.544849       -14.8261
  39   2.0000      -0.526767       -14.3340
  40   2.0000      -0.520132       -14.1535
  41   2.0000      -0.499770       -13.5994
  42   2.0000      -0.488801       -13.3010
  43   2.0000      -0.477108       -12.9828
  44   2.0000      -0.472832       -12.8664
  45   2.0000      -0.465079       -12.6554
  46   2.0000      -0.376916       -10.2564
  47   2.0000      -0.267153        -7.2696
  48   0.0000       0.089367         2.4318
  49   0.0000       0.108883         2.9628
  50   0.0000       0.129601         3.5266
  51   0.0000       0.134881         3.6703
  52   0.0000       0.138574         3.7708

MULLIKEN ATOMIC CHARGES
-----------------------
   0 C :   -0.369376
   1 N :   -0.314432
   2 C :   -0.261164
   3 C :   -0.412135
   4 H :    0.254672
   5 H :    0.207727
   6 S :    0.794881
   7 C :    0.379384
   8 C :   -0.709389
   9 N :   -0.499289
  10 H :    0.274070
  11 H :    0.256891
  12 H :    0.248372
  13 H :    0.137445
  14 H :    0.127767
  15 O :   -0.357377
  16 F :   -0.059472
  17 O :   -0.446816
  18 H :    0.165069
  19 H :    0.169835
  20 H :    0.242838
  21 H :    0.170498
Sum of atomic charges:    0.0000000

LOEWDIN ATOMIC CHARGES
----------------------
   0 C :   -0.306742
   1 N :    0.113459
   2 C :   -0.311385
   3 C :   -0.376437
   4 H :    0.171129
   5 H :    0.152147
   6 S :    0.528519
   7 C :   -0.486525
   8 C :   -0.386108
   9 N :    0.001143
  10 H :    0.130628
  11 H :    0.183068
  12 H :    0.198948
  13 H :    0.096835
  14 H :    0.097338
  15 O :   -0.241558
  16 F :    0.123830
  17 O :   -0.286000
  18 H :    0.149712
  19 H :    0.154939
  20 H :    0.150605
  21 H :    0.142456

  Mayer bond orders larger than 0.100000
B(  0-C ,  1-N ) :   0.8973 B(  0-C ,  2-C ) :   0.9083 B(  0-C , 20-H ) :   0.9725
B(  0-C , 21-H ) :   0.9818 B(  1-N ,  7-C ) :   1.1495 B(  1-N , 12-H ) :   0.9243
B(  2-C ,  3-C ) :   0.9125 B(  2-C , 18-H ) :   0.9740 B(  2-C , 19-H ) :   0.9608
B(  3-C ,  4-H ) :   0.9164 B(  3-C ,  5-H ) :   0.9462 B(  3-C ,  6-S ) :   0.9481
B(  6-S , 15-O ) :   1.9948 B(  6-S , 16-F ) :   1.1988 B(  6-S , 17-O ) :   1.7432
B(  7-C ,  8-C ) :   1.5328 B(  7-C ,  9-N ) :   1.1890 B(  8-C , 13-H ) :   1.0077
B(  8-C , 14-H ) :   1.0134 B(  9-N , 10-H ) :   0.8587 B(  9-N , 11-H ) :   0.9262

FINAL SINGLE POINT ENERGY      -953.339215552037

DIPOLE MOMENT
-------------
                                X             Y             Z
Electronic contribution:    -17.92891      -1.14948      -0.11921
Nuclear contribution   :     16.78714       2.58368       1.61768
                        -----------------------------------------
Total Dipole Moment    :     -1.14177       1.43421       1.49847
                        -----------------------------------------
Magnitude (a.u.)       :      2.36770
Magnitude (Debye)      :      6.01821

Rotational constants in cm-1:     0.059928     0.020911     0.017993
Rotational constants in MHz :  1796.610847   626.896941   539.414615

                             ****ORCA TERMINATED NORMALLY****
TOTAL RUN TIME: 0 days 0 hours 0 minutes 44 seconds 541 msec
