                         Program Version 5.0.0 -  RELEASE  -
|  1> !LC-PBE RIJCOSX def2-TZVP def2/J TightSCF xyzfile
|  2>
|  3> *xyzfile 0 1 D7.xyz
|  4>
|  5> %MaxCore 64000
|  6>
|  7> %pal nprocs 18
|  8> end
|  9>
| 10> %scf
| 11>   MaxIter 150
| 12> end
| 13>
| 14>
| 15>                          ****END OF INPUT****

CARTESIAN COORDINATES (ANGSTROEM)
---------------------------------
  C      3.380928    2.083045   -3.350127
  C      4.535924    1.182447   -3.428518
  C      2.495557    1.816150   -2.136364
  C      1.872181    0.427903   -2.077497
  H      2.614270   -0.365825   -2.198894
  H      1.389953    0.273087   -1.112360
  S      0.579024    0.140472   -3.297943
  C      4.671956    0.122273   -4.220598
  N      5.866023   -0.507849   -4.224284
  N      3.698881   -0.312844   -4.986988
  H      2.731405   -0.050091   -4.849000
  H      3.890046   -1.055172   -5.643730
  H      5.251933    1.303459   -2.721014
  H      6.695165   -0.062322   -3.851596
  H      5.975383   -1.396884   -4.691414
  O      0.228860   -1.246868   -3.127871
  O     -0.439269    1.118966   -3.014550
  F      1.247881    0.403474   -4.595647
  H      1.697003    2.561969   -2.141109
  H      3.080787    1.987436   -1.225838
  H      2.806463    1.986511   -4.268484
  H      3.778714    3.098282   -3.307383

 Total Charge           Charge          ....    0
 Multiplicity           Mult            ....    1
 Number of Electrons    NEL             ....   96
 Basis Dimension        Dim             ....  413

ORBITAL ENERGIES
----------------

  NO   OCC          E(Eh)            E(eV)
   0   2.0000     -88.533466     -2409.1181
   1   2.0000     -24.612485      -669.7398
   2   2.0000     -18.996499      -516.9210
   3   2.0000     -18.995714      -516.8997
   4   2.0000     -14.217830      -386.8868
   5   2.0000     -14.217732      -386.8842
   6   2.0000     -10.176439      -276.9150
   7   2.0000     -10.166315      -276.6395
   8   2.0000     -10.127071      -275.5716
   9   2.0000     -10.107170      -275.0301
  10   2.0000     -10.048110      -273.4230
  11   2.0000      -8.145294      -221.6447
  12   2.0000      -6.166288      -167.7932
  13   2.0000      -6.158272      -167.5751
  14   2.0000      -6.157783      -167.5618
  15   2.0000      -1.535072       -41.7714
  16   2.0000      -1.292950       -35.1829
  17   2.0000      -1.193522       -32.4774
  18   2.0000      -1.148405       -31.2497
  19   2.0000      -1.047581       -28.5061
  20   2.0000      -1.009778       -27.4774
  21   2.0000      -0.939742       -25.5717
  22   2.0000      -0.894808       -24.3490
  23   2.0000      -0.853790       -23.2328
  24   2.0000      -0.806541       -21.9471
  25   2.0000      -0.755982       -20.5713
  26   2.0000      -0.745018       -20.2730
  27   2.0000      -0.727872       -19.8064
  28   2.0000      -0.703501       -19.1432
  29   2.0000      -0.696938       -18.9647
  30   2.0000      -0.661898       -18.0112
  31   2.0000      -0.641344       -17.4519
  32   2.0000      -0.622667       -16.9436
  33   2.0000      -0.616805       -16.7841
  34   2.0000      -0.604066       -16.4375
  35   2.0000      -0.596593       -16.2341
  36   2.0000      -0.554872       -15.0988
  37   2.0000      -0.551364       -15.0034
  38   2.0000      -0.547059       -14.8862
  39   2.0000      -0.529865       -14.4183
  40   2.0000      -0.497459       -13.5365
  41   2.0000      -0.487047       -13.2532
  42   2.0000      -0.477299       -12.9880
  43   2.0000      -0.468560       -12.7502
  44   2.0000      -0.463395       -12.6096
  45   2.0000      -0.450880       -12.2691
  46   2.0000      -0.407307       -11.0834
  47   2.0000      -0.288450        -7.8491
  48   0.0000       0.100401         2.7321
  49   0.0000       0.114069         3.1040
  50   0.0000       0.131989         3.5916
  51   0.0000       0.145733         3.9656
  52   0.0000       0.150829         4.1043

MULLIKEN ATOMIC CHARGES
-----------------------
   0 C :   -0.432889
   1 C :   -0.443692
   2 C :   -0.235969
   3 C :   -0.425665
   4 H :    0.241720
   5 H :    0.214123
   6 S :    0.772901
   7 C :    0.368722
   8 N :   -0.528384
   9 N :   -0.496703
  10 H :    0.258363
  11 H :    0.243252
  12 H :    0.143087
  13 H :    0.270791
  14 H :    0.240127
  15 O :   -0.380757
  16 O :   -0.378645
  17 F :   -0.114923
  18 H :    0.186018
  19 H :    0.157623
  20 H :    0.182904
  21 H :    0.157997
Sum of atomic charges:   -0.0000000

LOEWDIN ATOMIC CHARGES
----------------------
   0 C :   -0.301881
   1 C :   -0.295149
   2 C :   -0.302647
   3 C :   -0.376936
   4 H :    0.157496
   5 H :    0.160314
   6 S :    0.518181
   7 C :   -0.473310
   8 N :   -0.033509
   9 N :   -0.007000
  10 H :    0.142669
  11 H :    0.172260
  12 H :    0.127636
  13 H :    0.180733
  14 H :    0.164018
  15 O :   -0.257830
  16 O :   -0.253423
  17 F :    0.076945
  18 H :    0.151767
  19 H :    0.153937
  20 H :    0.142626
  21 H :    0.153102

  Mayer bond orders larger than 0.100000
B(  0-C ,  1-C ) :   0.9510 B(  0-C ,  2-C ) :   0.9118 B(  0-C , 20-H ) :   1.0007
B(  0-C , 21-H ) :   0.9922 B(  1-C ,  7-C ) :   1.6298 B(  1-C , 12-H ) :   0.9936
B(  2-C ,  3-C ) :   0.9089 B(  2-C , 18-H ) :   0.9700 B(  2-C , 19-H ) :   0.9626
B(  3-C ,  4-H ) :   0.9285 B(  3-C ,  5-H ) :   0.9401 B(  3-C ,  6-S ) :   0.9443
B(  6-S , 15-O ) :   1.9746 B(  6-S , 16-O ) :   1.9696 B(  6-S , 17-F ) :   1.0499
B(  7-C ,  8-N ) :   1.1175 B(  7-C ,  9-N ) :   1.1470 B(  8-N , 13-H ) :   0.9165
B(  8-N , 14-H ) :   0.9262 B(  9-N , 10-H ) :   0.8953 B(  9-N , 11-H ) :   0.9247

FINAL SINGLE POINT ENERGY      -953.363050369140

DIPOLE MOMENT
-------------
                                X             Y             Z
Electronic contribution:    -13.15747      -3.89108      -3.68644
Nuclear contribution   :     14.80811       3.53278       3.42836
                        -----------------------------------------
Total Dipole Moment    :      1.65065      -0.35830      -0.25809
                        -----------------------------------------
Magnitude (a.u.)       :      1.70869
Magnitude (Debye)      :      4.34314

Rotational constants in cm-1:     0.059173     0.020923     0.018056
Rotational constants in MHz :  1773.956621   627.264018   541.303397

                             ****ORCA TERMINATED NORMALLY****
TOTAL RUN TIME: 0 days 0 hours 0 minutes 34 seconds 910 msec
