                         Program Version 5.0.0 -  RELEASE  -
|  1> !DLPNO-CCSD(T) aug-cc-pVTZ aug-cc-pVTZ/C TightSCF TightPNO RIJCOSX def2/J
|  2> *xyz -1 1
|  3> C         -0.77894        0.17197        1.80496
|  4> C         -0.60249       -0.63071        0.49224
|  5> H          0.31389       -1.24035        0.60350
|  6> H         -0.36383        0.11332       -0.30117
|  7> O         -1.71206       -1.37684        0.20253
|  8> H         -1.65864        0.77733        1.73736
|  9> H          0.07466        0.79896        1.95712
| 10> H         -0.87474       -0.50584        2.62734
| 11> *
| 12> %MaxCore 64000
| 13>
| 14> %pal nprocs 18
| 15> end
| 16>
| 17> %scf
| 18>   MaxIter 150
| 19> end
| 20>
| 21>
| 22>                          ****END OF INPUT****

CARTESIAN COORDINATES (ANGSTROEM)
---------------------------------
  C     -0.778940    0.171970    1.804960
  C     -0.602490   -0.630710    0.492240
  H      0.313890   -1.240350    0.603500
  H     -0.363830    0.113320   -0.301170
  O     -1.712060   -1.376840    0.202530
  H     -1.658640    0.777330    1.737360
  H      0.074660    0.798960    1.957120
  H     -0.874740   -0.505840    2.627340

 Total Charge           Charge          ....   -1
 Multiplicity           Mult            ....    1
 Number of Electrons    NEL             ....   26
 Basis Dimension        Dim             ....  253

ORBITAL ENERGIES
----------------

  NO   OCC          E(Eh)            E(eV)
   0   2.0000     -20.203976      -549.7781
   1   2.0000     -11.037779      -300.3532
   2   2.0000     -11.011404      -299.6355
   3   2.0000      -0.993715       -27.0404
   4   2.0000      -0.781300       -21.2603
   5   2.0000      -0.588606       -16.0168
   6   2.0000      -0.412326       -11.2200
   7   2.0000      -0.385173       -10.4811
   8   2.0000      -0.317694        -8.6449
   9   2.0000      -0.306182        -8.3316
  10   2.0000      -0.259667        -7.0659
  11   2.0000      -0.111112        -3.0235
  12   2.0000      -0.110045        -2.9945
  13   0.0000       0.133244         3.6258
  14   0.0000       0.142017         3.8645
  15   0.0000       0.143497         3.9048
  16   0.0000       0.154383         4.2010
  17   0.0000       0.167077         4.5464

MULLIKEN ATOMIC CHARGES
-----------------------
   0 C :   -0.946851
   1 C :   -0.148429
   2 H :    0.195900
   3 H :    0.179786
   4 O :   -1.107101
   5 H :    0.262411
   6 H :    0.283431
   7 H :    0.280851
Sum of atomic charges:   -1.0000000

LOEWDIN ATOMIC CHARGES
----------------------
   0 C :    0.493623
   1 C :   -0.416969
   2 H :   -0.240543
   3 H :   -0.235489
   4 O :    0.093581
   5 H :   -0.226604
   6 H :   -0.241126
   7 H :   -0.226474

  Mayer bond orders larger than 0.100000
B(  0-C ,  1-C ) :   0.8686 B(  0-C ,  5-H ) :   0.9362 B(  0-C ,  6-H ) :   0.9082
B(  0-C ,  7-H ) :   0.9090 B(  1-C ,  2-H ) :   0.9798 B(  1-C ,  3-H ) :   0.9894
B(  1-C ,  4-O ) :   1.1165

E(0)                                       ...   -153.509743126
E(0)                                       ...   -153.509743126
E(CORR)(strong-pairs)                      ...     -0.651420755
E(CORR)(weak-pairs)                        ...     -0.000422692
E(CORR)(corrected)                         ...     -0.651843447
E(TOT)                                     ...   -154.161586573
E(CCSD(T))                                 ...   -154.188015530
FINAL SINGLE POINT ENERGY      -154.188015529593

DIPOLE MOMENT
-------------
                                X             Y             Z
Electronic contribution:     -1.51164      -1.74124      -1.42356
Nuclear contribution   :      2.47835       2.80827       2.30058
                        -----------------------------------------
Total Dipole Moment    :      0.96671       1.06703       0.87702
                        -----------------------------------------
Magnitude (a.u.)       :      1.68590
Magnitude (Debye)      :      4.28521

Rotational constants in cm-1:     1.255775     0.327783     0.287473
Rotational constants in MHz : 37647.186859  9826.677683  8618.224821

                             ****ORCA TERMINATED NORMALLY****
TOTAL RUN TIME: 0 days 0 hours 2 minutes 7 seconds 640 msec
