                         Program Version 5.0.0 -  RELEASE  -
|  1> !DLPNO-CCSD(T) aug-cc-pVTZ aug-cc-pVTZ/C TightSCF TightPNO RIJCOSX def2/J
|  2> *xyz 1 1
|  3> C         -2.12050        0.88520        1.78951
|  4> C         -0.77894        0.17197        1.80496
|  5> H         -2.32419        1.47265        2.68608
|  6> H         -2.18770        1.54127        0.91948
|  7> N         -3.17690       -0.15948        1.61070
|  8> H         -4.06474        0.23127        1.28675
|  9> H         -3.34407       -0.67151        2.48493
| 10> H         -2.71686       -0.78189        0.93588
| 11> H         -0.65708       -0.37837        0.89547
| 12> H         -0.74207       -0.50050        2.63642
| 13> H          0.00707        0.89251        1.89389
| 14> *
| 15> %MaxCore 64000
| 16>
| 17> %pal nprocs 18
| 18> end
| 19>
| 20> %scf
| 21>   MaxIter 150
| 22> end
| 23>
| 24>
| 25>                          ****END OF INPUT****

CARTESIAN COORDINATES (ANGSTROEM)
---------------------------------
  C     -2.120500    0.885200    1.789510
  C     -0.778940    0.171970    1.804960
  H     -2.324190    1.472650    2.686080
  H     -2.187700    1.541270    0.919480
  N     -3.176900   -0.159480    1.610700
  H     -4.064740    0.231270    1.286750
  H     -3.344070   -0.671510    2.484930
  H     -2.716860   -0.781890    0.935880
  H     -0.657080   -0.378370    0.895470
  H     -0.742070   -0.500500    2.636420
  H      0.007070    0.892510    1.893890

 Total Charge           Charge          ....    1
 Multiplicity           Mult            ....    1
 Number of Electrons    NEL             ....   26
 Basis Dimension        Dim             ....  322

ORBITAL ENERGIES
----------------

  NO   OCC          E(Eh)            E(eV)
   0   2.0000     -15.898797      -432.6283
   1   2.0000     -11.482896      -312.4655
   2   2.0000     -11.401909      -310.2617
   3   2.0000      -1.521214       -41.3943
   4   2.0000      -1.228034       -33.4165
   5   2.0000      -1.067491       -29.0479
   6   2.0000      -0.986117       -26.8336
   7   2.0000      -0.974293       -26.5119
   8   2.0000      -0.851870       -23.1806
   9   2.0000      -0.807183       -21.9646
  10   2.0000      -0.735556       -20.0155
  11   2.0000      -0.724489       -19.7144
  12   2.0000      -0.705053       -19.1855
  13   0.0000      -0.117428        -3.1954
  14   0.0000      -0.083061        -2.2602
  15   0.0000      -0.081782        -2.2254
  16   0.0000      -0.074976        -2.0402
  17   0.0000      -0.047886        -1.3031

MULLIKEN ATOMIC CHARGES
-----------------------
   0 C :   -0.371534
   1 C :   -0.929879
   2 H :    0.368826
   3 H :    0.338252
   4 N :    0.113875
   5 H :    0.129808
   6 H :    0.155822
   7 H :    0.190948
   8 H :    0.313098
   9 H :    0.306047
  10 H :    0.384737
Sum of atomic charges:    1.0000000

LOEWDIN ATOMIC CHARGES
----------------------
   0 C :    0.331527
   1 C :    0.663409
   2 H :   -0.103840
   3 H :   -0.110223
   4 N :    1.107463
   5 H :   -0.121103
   6 H :   -0.122319
   7 H :   -0.170119
   8 H :   -0.164642
   9 H :   -0.161748
  10 H :   -0.148406

  Mayer bond orders larger than 0.100000
B(  0-C ,  1-C ) :   0.8910 B(  0-C ,  2-H ) :   0.8664 B(  0-C ,  3-H ) :   0.8828
B(  0-C ,  4-N ) :   0.8146 B(  1-C ,  8-H ) :   0.9265 B(  1-C ,  9-H ) :   0.9312
B(  1-C , 10-H ) :   0.8673 B(  4-N ,  5-H ) :   1.0384 B(  4-N ,  6-H ) :   0.9915
B(  4-N ,  7-H ) :   0.9490

E(0)                                       ...   -134.668142197
E(0)                                       ...   -134.668142197
E(CORR)(strong-pairs)                      ...     -0.616222869
E(CORR)(weak-pairs)                        ...     -0.000467163
E(CORR)(corrected)                         ...     -0.616690033
E(TOT)                                     ...   -135.284832230
E(CCSD(T))                                 ...   -135.305845231
FINAL SINGLE POINT ENERGY      -135.305845231093

DIPOLE MOMENT
-------------
                                X             Y             Z
Electronic contribution:     -1.83367      -0.15121      -0.05831
Nuclear contribution   :      0.50278      -0.30871      -0.06979
                        -----------------------------------------
Total Dipole Moment    :     -1.33089      -0.45993      -0.12810
                        -----------------------------------------
Magnitude (a.u.)       :      1.41393
Magnitude (Debye)      :      3.59392

Rotational constants in cm-1:     0.963746     0.295157     0.256910
Rotational constants in MHz : 28892.375247  8848.576767  7701.963879

                             ****ORCA TERMINATED NORMALLY****
TOTAL RUN TIME: 0 days 0 hours 1 minutes 49 seconds 896 msec
