                         Program Version 5.0.0 -  RELEASE  -
|  1> !DLPNO-CCSD(T) aug-cc-pVTZ aug-cc-pVTZ/C TightSCF TightPNO RIJCOSX def2/J
|  2>
|  3> *xyzfile 0 1 B.xyz
|  4>
|  5> %MaxCore 64000
|  6>
|  7> %pal nprocs 18
|  8> end
|  9>
| 10> %scf
| 11>   MaxIter 150
| 12> end
| 13>
| 14>
| 15>                          ****END OF INPUT****

CARTESIAN COORDINATES (ANGSTROEM)
---------------------------------
  C     -2.120502    0.885196    1.789506
  C     -0.778939    0.171966    1.804965
  H     -2.324193    1.472649    2.686078
  H     -2.187698    1.541272    0.919482
  N     -3.176900   -0.159484    1.610700
  H      0.015695    0.910767    1.939153
  H     -0.743553   -0.506827    2.665420
  C     -0.602493   -0.630712    0.492240
  H      0.313894   -1.240346    0.603498
  H     -0.363829    0.113322   -0.301169
  O     -1.712061   -1.376836    0.202535
  H     -4.064736    0.231272    1.286754
  H     -3.344073   -0.671511    2.484928
  H     -2.716861   -0.781886    0.935880

 Total Charge           Charge          ....    0
 Multiplicity           Mult            ....    1
 Number of Electrons    NEL             ....   42
 Basis Dimension        Dim             ....  437

ORBITAL ENERGIES
----------------

  NO   OCC          E(Eh)            E(eV)
   0   2.0000     -20.413532      -555.4804
   1   2.0000     -15.645954      -425.7481
   2   2.0000     -11.292384      -307.2814
   3   2.0000     -11.222340      -305.3754
   4   2.0000     -11.216792      -305.2244
   5   2.0000      -1.302619       -35.4461
   6   2.0000      -1.213698       -33.0264
   7   2.0000      -1.036565       -28.2064
   8   2.0000      -0.888815       -24.1859
   9   2.0000      -0.798208       -21.7204
  10   2.0000      -0.757809       -20.6210
  11   2.0000      -0.736143       -20.0315
  12   2.0000      -0.649467       -17.6729
  13   2.0000      -0.599607       -16.3161
  14   2.0000      -0.562282       -15.3005
  15   2.0000      -0.556758       -15.1501
  16   2.0000      -0.510282       -13.8855
  17   2.0000      -0.489111       -13.3094
  18   2.0000      -0.468321       -12.7437
  19   2.0000      -0.330080        -8.9819
  20   2.0000      -0.326472        -8.8837
  21   0.0000       0.012495         0.3400
  22   0.0000       0.031519         0.8577
  23   0.0000       0.033201         0.9035
  24   0.0000       0.044933         1.2227
  25   0.0000       0.055288         1.5045

MULLIKEN ATOMIC CHARGES
-----------------------
   0 C :   -0.375079
   1 C :   -0.600876
   2 H :    0.347222
   3 H :    0.311437
   4 N :    0.080517
   5 H :    0.332310
   6 H :    0.240050
   7 C :   -0.179731
   8 H :    0.305477
   9 H :    0.179235
  10 O :   -0.939947
  11 H :    0.054821
  12 H :    0.071949
  13 H :    0.172614
Sum of atomic charges:    0.0000000

LOEWDIN ATOMIC CHARGES
----------------------
   0 C :    0.299133
   1 C :    0.278680
   2 H :   -0.128465
   3 H :   -0.122916
   4 N :    1.046416
   5 H :   -0.149201
   6 H :   -0.149667
   7 C :   -0.160384
   8 H :   -0.181524
   9 H :   -0.178933
  10 O :    0.481404
  11 H :   -0.139322
  12 H :   -0.136240
  13 H :   -0.758981

  Mayer bond orders larger than 0.100000
B(  0-C ,  1-C ) :   0.8660 B(  0-C ,  2-H ) :   0.8973 B(  0-C ,  3-H ) :   0.9088
B(  0-C ,  4-N ) :   0.7768 B(  1-C ,  5-H ) :   0.9025 B(  1-C ,  6-H ) :   0.9679
B(  1-C ,  7-C ) :   0.9055 B(  4-N , 11-H ) :   1.0950 B(  4-N , 12-H ) :   1.0324
B(  4-N , 13-H ) :   0.8044 B(  7-C ,  8-H ) :   0.9578 B(  7-C ,  9-H ) :   1.0299
B(  7-C , 10-O ) :   0.9212 B( 10-O , 13-H ) :   0.3917

E(0)                                       ...   -248.175659440
E(0)                                       ...   -248.175659440
E(CORR)(strong-pairs)                      ...     -1.053771607
E(CORR)(weak-pairs)                        ...     -0.001068571
E(CORR)(corrected)                         ...     -1.054840178
E(TOT)                                     ...   -249.230499618
E(CCSD(T))                                 ...   -249.272266813
FINAL SINGLE POINT ENERGY      -249.272266813140

DIPOLE MOMENT
-------------
                                X             Y             Z
Electronic contribution:     -1.53462      -1.35573      -0.71573
Nuclear contribution   :      0.08650       3.01678       2.47433
                        -----------------------------------------
Total Dipole Moment    :     -1.44812       1.66105       1.75860
                        -----------------------------------------
Magnitude (a.u.)       :      2.81936
Magnitude (Debye)      :      7.16625

Rotational constants in cm-1:     0.238796     0.156489     0.106146
Rotational constants in MHz :  7158.916762  4691.413084  3182.185740

                             ****ORCA TERMINATED NORMALLY****
TOTAL RUN TIME: 0 days 0 hours 7 minutes 41 seconds 449 msec
