                         Program Version 5.0.0 -  RELEASE  -
|  1> !DLPNO-CCSD(T) aug-cc-pVTZ aug-cc-pVTZ/C TightSCF TightPNO RIJCOSX def2/J
|  2> *xyz 0 1
|  3> C         -0.77894        0.17197        1.80496
|  4> C         -0.60249       -0.63071        0.49224
|  5> H          0.31389       -1.24035        0.60350
|  6> H         -0.36383        0.11332       -0.30117
|  7> F         -1.71206       -1.37684        0.20253
|  8> H         -1.65864        0.77733        1.73736
|  9> H          0.07466        0.79896        1.95712
| 10> H         -0.87474       -0.50584        2.62734
| 11> *
| 12> %MaxCore 64000
| 13>
| 14> %pal nprocs 18
| 15> end
| 16>
| 17> %scf
| 18>   MaxIter 150
| 19> end
| 20>
| 21>
| 22>                          ****END OF INPUT****

CARTESIAN COORDINATES (ANGSTROEM)
---------------------------------
  C     -0.778940    0.171970    1.804960
  C     -0.602490   -0.630710    0.492240
  H      0.313890   -1.240350    0.603500
  H     -0.363830    0.113320   -0.301170
  F     -1.712060   -1.376840    0.202530
  H     -1.658640    0.777330    1.737360
  H      0.074660    0.798960    1.957120
  H     -0.874740   -0.505840    2.627340

 Total Charge           Charge          ....    0
 Multiplicity           Mult            ....    1
 Number of Electrons    NEL             ....   26
 Basis Dimension        Dim             ....  253

ORBITAL ENERGIES
----------------

  NO   OCC          E(Eh)            E(eV)
   0   2.0000     -26.284406      -715.2350
   1   2.0000     -11.312272      -307.8226
   2   2.0000     -11.219368      -305.2945
   3   2.0000      -1.596725       -43.4491
   4   2.0000      -1.029655       -28.0183
   5   2.0000      -0.864351       -23.5202
   6   2.0000      -0.703921       -19.1547
   7   2.0000      -0.702768       -19.1233
   8   2.0000      -0.663747       -18.0615
   9   2.0000      -0.584468       -15.9042
  10   2.0000      -0.559687       -15.2299
  11   2.0000      -0.493361       -13.4250
  12   2.0000      -0.490698       -13.3526
  13   0.0000       0.030302         0.8246
  14   0.0000       0.041415         1.1270
  15   0.0000       0.041925         1.1408
  16   0.0000       0.049199         1.3388
  17   0.0000       0.067038         1.8242

MULLIKEN ATOMIC CHARGES
-----------------------
   0 C :   -0.990643
   1 C :   -0.057864
   2 H :    0.291198
   3 H :    0.276315
   4 F :   -0.476611
   5 H :    0.293670
   6 H :    0.347995
   7 H :    0.315939
Sum of atomic charges:   -0.0000000

LOEWDIN ATOMIC CHARGES
----------------------
   0 C :    0.589817
   1 C :   -0.112388
   2 H :   -0.173231
   3 H :   -0.167513
   4 F :    0.452998
   5 H :   -0.197143
   6 H :   -0.194928
   7 H :   -0.197612

  Mayer bond orders larger than 0.100000
B(  0-C ,  1-C ) :   0.9211 B(  0-C ,  5-H ) :   0.9233 B(  0-C ,  6-H ) :   0.8771
B(  0-C ,  7-H ) :   0.8934 B(  1-C ,  2-H ) :   0.9215 B(  1-C ,  3-H ) :   0.9339
B(  1-C ,  4-F ) :   0.6308

E(0)                                       ...   -178.147367493
E(0)                                       ...   -178.147367493
E(CORR)(strong-pairs)                      ...     -0.645153064
E(CORR)(weak-pairs)                        ...     -0.000407925
E(CORR)(corrected)                         ...     -0.645560989
E(TOT)                                     ...   -178.792928483
E(CCSD(T))                                 ...   -178.814175824
FINAL SINGLE POINT ENERGY      -178.814175824212

DIPOLE MOMENT
-------------
                                X             Y             Z
Electronic contribution:     -2.67551      -3.25281      -2.81050
Nuclear contribution   :      3.27800       3.70743       3.04146
                        -----------------------------------------
Total Dipole Moment    :      0.60250       0.45463       0.23096
                        -----------------------------------------
Magnitude (a.u.)       :      0.78932
Magnitude (Debye)      :      2.00630

Rotational constants in cm-1:     1.234437     0.305084     0.268865
Rotational constants in MHz : 37007.496448  9146.194083  8060.380630

                             ****ORCA TERMINATED NORMALLY****
TOTAL RUN TIME: 0 days 0 hours 1 minutes 6 seconds 801 msec
