                         Program Version 5.0.0 -  RELEASE  -
|  1> !DLPNO-CCSD(T) aug-cc-pVTZ aug-cc-pVTZ/C TightSCF TightPNO RIJCOSX def2/J
|  2> *xyz 0 1
|  3> C         -2.12050        0.88520        1.78951
|  4> C         -0.77894        0.17197        1.80496
|  5> H         -2.32419        1.47265        2.68608
|  6> H         -2.18770        1.54127        0.91948
|  7> C         -3.17690       -0.15948        1.61070
|  8> H         -4.06474        0.23127        1.28675
|  9> H         -3.34407       -0.67151        2.48493
| 10> H         -2.71686       -0.78189        0.93588
| 11> H         -0.65708       -0.37837        0.89547
| 12> H         -0.74207       -0.50050        2.63642
| 13> H          0.00707        0.89251        1.89389
| 14> *
| 15> %MaxCore 64000
| 16>
| 17> %pal nprocs 18
| 18> end
| 19>
| 20> %scf
| 21>   MaxIter 150
| 22> end
| 23>
| 24>
| 25>                          ****END OF INPUT****

CARTESIAN COORDINATES (ANGSTROEM)
---------------------------------
  C     -2.120500    0.885200    1.789510
  C     -0.778940    0.171970    1.804960
  H     -2.324190    1.472650    2.686080
  H     -2.187700    1.541270    0.919480
  C     -3.176900   -0.159480    1.610700
  H     -4.064740    0.231270    1.286750
  H     -3.344070   -0.671510    2.484930
  H     -2.716860   -0.781890    0.935880
  H     -0.657080   -0.378370    0.895470
  H     -0.742070   -0.500500    2.636420
  H      0.007070    0.892510    1.893890

 Total Charge           Charge          ....    0
 Multiplicity           Mult            ....    1
 Number of Electrons    NEL             ....   26
 Basis Dimension        Dim             ....  322

ORBITAL ENERGIES
----------------

  NO   OCC          E(Eh)            E(eV)
   0   2.0000     -11.207526      -304.9723
   1   2.0000     -11.199800      -304.7621
   2   2.0000     -11.177348      -304.1511
   3   2.0000      -1.071638       -29.1607
   4   2.0000      -0.934618       -25.4322
   5   2.0000      -0.803614       -21.8674
   6   2.0000      -0.642108       -17.4726
   7   2.0000      -0.619746       -16.8642
   8   2.0000      -0.554937       -15.1006
   9   2.0000      -0.538495       -14.6532
  10   2.0000      -0.481717       -13.1082
  11   2.0000      -0.471670       -12.8348
  12   2.0000      -0.467882       -12.7317
  13   0.0000       0.033292         0.9059
  14   0.0000       0.040722         1.1081
  15   0.0000       0.042036         1.1439
  16   0.0000       0.042949         1.1687
  17   0.0000       0.063515         1.7283

MULLIKEN ATOMIC CHARGES
-----------------------
   0 C :   -0.397017
   1 C :   -0.952893
   2 H :    0.285157
   3 H :    0.220665
   4 C :   -1.032513
   5 H :    0.327122
   6 H :    0.277617
   7 H :    0.376321
   8 H :    0.281226
   9 H :    0.283338
  10 H :    0.330977
Sum of atomic charges:    0.0000000

LOEWDIN ATOMIC CHARGES
----------------------
   0 C :    0.255519
   1 C :    0.595838
   2 H :   -0.139687
   3 H :   -0.144832
   4 C :    0.614583
   5 H :   -0.201649
   6 H :   -0.200715
   7 H :   -0.238015
   8 H :   -0.182520
   9 H :   -0.175416
  10 H :   -0.183105

  Mayer bond orders larger than 0.100000
B(  0-C ,  1-C ) :   0.8423 B(  0-C ,  2-H ) :   0.9183 B(  0-C ,  3-H ) :   0.9834
B(  0-C ,  4-C ) :   0.7979 B(  1-C ,  8-H ) :   0.9588 B(  1-C ,  9-H ) :   0.9456
B(  1-C , 10-H ) :   0.9194 B(  4-C ,  5-H ) :   0.9224 B(  4-C ,  6-H ) :   0.9689
B(  4-C ,  7-H ) :   0.8795

E(0)                                       ...   -118.291397048
E(0)                                       ...   -118.291397048
E(CORR)(strong-pairs)                      ...     -0.591187053
E(CORR)(weak-pairs)                        ...     -0.000454742
E(CORR)(corrected)                         ...     -0.591641795
E(TOT)                                     ...   -118.883038843
E(CCSD(T))                                 ...   -118.903661884
FINAL SINGLE POINT ENERGY      -118.903661884047

DIPOLE MOMENT
-------------
                                X             Y             Z
Electronic contribution:     -0.14721       0.46479       0.11142
Nuclear contribution   :      0.13334      -0.45108      -0.10852
                        -----------------------------------------
Total Dipole Moment    :     -0.01387       0.01370       0.00290
                        -----------------------------------------
Magnitude (a.u.)       :      0.01971
Magnitude (Debye)      :      0.05010

Rotational constants in cm-1:     0.972269     0.310387     0.269029
Rotational constants in MHz : 29147.878530  9305.178981  8065.286472

                             ****ORCA TERMINATED NORMALLY****
TOTAL RUN TIME: 0 days 0 hours 2 minutes 1 seconds 907 msec
