                         Program Version 5.0.0 -  RELEASE  -
|  1> !wB97X-D3 RIJCOSX def2-TZVP def2/J TightSCF
|  2> *xyz -1 1
|  3> C          0.61188        1.65763       -4.50029
|  4> C          1.69499        1.54179       -5.57045
|  5> H          2.69733        1.73466       -5.18400
|  6> H          1.50666        2.27224       -6.35808
|  7> S          1.78029       -0.03313       -6.42874
|  8> O          2.56929        0.21366       -7.60736
|  9> O          0.41688       -0.46297       -6.61859
| 10> O          2.50513       -0.93326       -5.48257
| 11> H         -0.34424        1.45871       -4.93752
| 12> H          0.61845        2.64655       -4.09174
| 13> H          0.80247        0.94882       -3.72173
| 14> *
| 15> %MaxCore 64000
| 16>
| 17> %pal nprocs 4
| 18> end
| 19>
| 20> %scf
| 21>   MaxIter 150
| 22> end
| 23>
| 24>
| 25>                          ****END OF INPUT****

CARTESIAN COORDINATES (ANGSTROEM)
---------------------------------
  C      0.611880    1.657630   -4.500290
  C      1.694990    1.541790   -5.570450
  H      2.697330    1.734660   -5.184000
  H      1.506660    2.272240   -6.358080
  S      1.780290   -0.033130   -6.428740
  O      2.569290    0.213660   -7.607360
  O      0.416880   -0.462970   -6.618590
  O      2.505130   -0.933260   -5.482570
  H     -0.344240    1.458710   -4.937520
  H      0.618450    2.646550   -4.091740
  H      0.802470    0.948820   -3.721730

 Total Charge           Charge          ....   -1
 Multiplicity           Mult            ....    1
 Number of Electrons    NEL             ....   58
 Basis Dimension        Dim             ....  222

ORBITAL ENERGIES
----------------

  NO   OCC          E(Eh)            E(eV)
   0   2.0000     -88.927610     -2419.8433
   1   2.0000     -19.004763      -517.1459
   2   2.0000     -19.003869      -517.1216
   3   2.0000     -18.983888      -516.5779
   4   2.0000     -10.133104      -275.7358
   5   2.0000     -10.127747      -275.5900
   6   2.0000      -7.990419      -217.4304
   7   2.0000      -5.944703      -161.7636
   8   2.0000      -5.943453      -161.7296
   9   2.0000      -5.943060      -161.7189
  10   2.0000      -1.034388       -28.1471
  11   2.0000      -0.906245       -24.6602
  12   2.0000      -0.871978       -23.7277
  13   2.0000      -0.746635       -20.3170
  14   2.0000      -0.616956       -16.7882
  15   2.0000      -0.483029       -13.1439
  16   2.0000      -0.417574       -11.3628
  17   2.0000      -0.413208       -11.2440
  18   2.0000      -0.372029       -10.1234
  19   2.0000      -0.356224        -9.6934
  20   2.0000      -0.349890        -9.5210
  21   2.0000      -0.322229        -8.7683
  22   2.0000      -0.306728        -8.3465
  23   2.0000      -0.243550        -6.6273
  24   2.0000      -0.242405        -6.5962
  25   2.0000      -0.208176        -5.6648
  26   2.0000      -0.197721        -5.3803
  27   2.0000      -0.182819        -4.9748
  28   2.0000      -0.150135        -4.0854
  29   0.0000       0.252989         6.8842
  30   0.0000       0.297625         8.0988
  31   0.0000       0.313238         8.5236
  32   0.0000       0.317893         8.6503
  33   0.0000       0.343716         9.3530

MULLIKEN ATOMIC CHARGES
-----------------------
   0 C :   -0.322266
   1 C :   -0.243642
   2 H :    0.088611
   3 H :    0.076967
   4 S :    0.856976
   5 O :   -0.558842
   6 O :   -0.565116
   7 O :   -0.620945
   8 H :    0.115626
   9 H :    0.065329
  10 H :    0.107302
Sum of atomic charges:   -1.0000000

LOEWDIN ATOMIC CHARGES
----------------------
   0 C :   -0.339668
   1 C :   -0.428770
   2 H :    0.118952
   3 H :    0.116540
   4 S :    0.413842
   5 O :   -0.377815
   6 O :   -0.377394
   7 O :   -0.452353
   8 H :    0.114318
   9 H :    0.098668
  10 H :    0.113681

  Mayer bond orders larger than 0.100000
B(  0-C ,  1-C ) :   0.9660 B(  0-C ,  8-H ) :   0.9761 B(  0-C ,  9-H ) :   0.9717
B(  0-C , 10-H ) :   0.9779 B(  1-C ,  2-H ) :   0.9675 B(  1-C ,  3-H ) :   0.9605
B(  1-C ,  4-S ) :   0.8825 B(  4-S ,  5-O ) :   1.8173 B(  4-S ,  6-O ) :   1.7675
B(  4-S ,  7-O ) :   1.7340

Dispersion correction           -0.002885916
FINAL SINGLE POINT ENERGY      -703.216592929147

DIPOLE MOMENT
-------------
                                X             Y             Z
Electronic contribution:      2.23877      -5.63452      -5.01035
Nuclear contribution   :     -2.69163       7.29476       5.86550
                        -----------------------------------------
Total Dipole Moment    :     -0.45286       1.66024       0.85515
                        -----------------------------------------
Magnitude (a.u.)       :      1.92165
Magnitude (Debye)      :      4.88445

Rotational constants in cm-1:     0.163060     0.082831     0.081111
Rotational constants in MHz :  4888.419330  2483.225008  2431.646841

                             ****ORCA TERMINATED NORMALLY****
TOTAL RUN TIME: 0 days 0 hours 0 minutes 37 seconds 171 msec
