                         Program Version 5.0.0 -  RELEASE  -
|  1> !wB97X-D3 RIJCOSX def2-TZVP def2/J TightSCF
|  2> *xyz 1 1
|  3> C          1.96337       -1.74915       -1.89689
|  4> N          2.73849       -2.01517       -3.09711
|  5> C          4.04974       -2.15472       -3.15204
|  6> N          4.65821       -1.98629       -4.31866
|  7> N          4.76423       -2.45444       -2.05049
|  8> H          4.28736       -2.77626       -1.21750
|  9> H          5.75082       -2.65835       -2.12599
| 10> H          2.34518       -1.69027       -3.97145
| 11> H          4.10900       -1.59268       -5.07176
| 12> H          5.64910       -2.15646       -4.42724
| 13> C          2.08852       -0.30091       -1.41520
| 14> H          2.23127       -2.45162       -1.10264
| 15> H          0.93025       -1.97780       -2.15544
| 16> H          1.82118        0.36368       -2.21003
| 17> H          3.09792       -0.11068       -1.11551
| 18> H          1.43391       -0.14382       -0.58352
| 19> *
| 20> %MaxCore 64000
| 21>
| 22> %pal nprocs 4
| 23> end
| 24>
| 25> %scf
| 26>   MaxIter 150
| 27> end
| 28>
| 29>
| 30>                          ****END OF INPUT****

CARTESIAN COORDINATES (ANGSTROEM)
---------------------------------
  C      1.963370   -1.749150   -1.896890
  N      2.738490   -2.015170   -3.097110
  C      4.049740   -2.154720   -3.152040
  N      4.658210   -1.986290   -4.318660
  N      4.764230   -2.454440   -2.050490
  H      4.287360   -2.776260   -1.217500
  H      5.750820   -2.658350   -2.125990
  H      2.345180   -1.690270   -3.971450
  H      4.109000   -1.592680   -5.071760
  H      5.649100   -2.156460   -4.427240
  C      2.088520   -0.300910   -1.415200
  H      2.231270   -2.451620   -1.102640
  H      0.930250   -1.977800   -2.155440
  H      1.821180    0.363680   -2.210030
  H      3.097920   -0.110680   -1.115510
  H      1.433910   -0.143820   -0.583520

 Total Charge           Charge          ....    1
 Multiplicity           Mult            ....    1
 Number of Electrons    NEL             ....   48
 Basis Dimension        Dim             ....  246

ORBITAL ENERGIES
----------------

  NO   OCC          E(Eh)            E(eV)
   0   2.0000     -14.645779      -398.5319
   1   2.0000     -14.645114      -398.5138
   2   2.0000     -14.643511      -398.4702
   3   2.0000     -10.612954      -288.7932
   4   2.0000     -10.481996      -285.2296
   5   2.0000     -10.408081      -283.2183
   6   2.0000      -1.336272       -36.3618
   7   2.0000      -1.222108       -33.2553
   8   2.0000      -1.208936       -32.8968
   9   2.0000      -1.045207       -28.4415
  10   2.0000      -0.951648       -25.8957
  11   2.0000      -0.912994       -24.8438
  12   2.0000      -0.887713       -24.1559
  13   2.0000      -0.849245       -23.1091
  14   2.0000      -0.793564       -21.5940
  15   2.0000      -0.785438       -21.3729
  16   2.0000      -0.758339       -20.6355
  17   2.0000      -0.727527       -19.7970
  18   2.0000      -0.699866       -19.0443
  19   2.0000      -0.661372       -17.9969
  20   2.0000      -0.627504       -17.0753
  21   2.0000      -0.606747       -16.5104
  22   2.0000      -0.572105       -15.5678
  23   2.0000      -0.541651       -14.7391
  24   0.0000      -0.082352        -2.2409
  25   0.0000      -0.070605        -1.9213
  26   0.0000      -0.037253        -1.0137
  27   0.0000      -0.026540        -0.7222
  28   0.0000      -0.001027        -0.0279

MULLIKEN ATOMIC CHARGES
-----------------------
   0 C :   -0.175445
   1 N :   -0.280751
   2 C :    0.482082
   3 N :   -0.439208
   4 N :   -0.445359
   5 H :    0.296374
   6 H :    0.293661
   7 H :    0.256476
   8 H :    0.291785
   9 H :    0.303200
  10 C :   -0.317179
  11 H :    0.133126
  12 H :    0.172793
  13 H :    0.132250
  14 H :    0.130900
  15 H :    0.165293
Sum of atomic charges:    1.0000000

LOEWDIN ATOMIC CHARGES
----------------------
   0 C :   -0.282384
   1 N :    0.164963
   2 C :   -0.398733
   3 N :    0.065708
   4 N :    0.055946
   5 H :    0.196752
   6 H :    0.196763
   7 H :    0.211574
   8 H :    0.199791
   9 H :    0.200365
  10 C :   -0.281616
  11 H :    0.137946
  12 H :    0.151354
  13 H :    0.124288
  14 H :    0.121516
  15 H :    0.135768

  Mayer bond orders larger than 0.100000
B(  0-C ,  1-N ) :   0.8806 B(  0-C , 10-C ) :   0.9744 B(  0-C , 11-H ) :   0.9744
B(  0-C , 12-H ) :   0.9565 B(  1-N ,  2-C ) :   1.3863 B(  1-N ,  7-H ) :   0.9025
B(  2-C ,  3-N ) :   1.3431 B(  2-C ,  4-N ) :   1.3301 B(  3-N ,  8-H ) :   0.8941
B(  3-N ,  9-H ) :   0.8886 B(  4-N ,  5-H ) :   0.8862 B(  4-N ,  6-H ) :   0.8943
B( 10-C , 13-H ) :   0.9685 B( 10-C , 14-H ) :   0.9637 B( 10-C , 15-H ) :   0.9683

Dispersion correction           -0.003864095
FINAL SINGLE POINT ENERGY      -284.429456431407

DIPOLE MOMENT
-------------
                                X             Y             Z
Electronic contribution:      3.03706      -2.71962      -3.11558
Nuclear contribution   :     -2.17768       2.37118       2.44574
                        -----------------------------------------
Total Dipole Moment    :      0.85937      -0.34844      -0.66984
                        -----------------------------------------
Magnitude (a.u.)       :      1.14395
Magnitude (Debye)      :      2.90769

Rotational constants in cm-1:     0.215650     0.075183     0.066454
Rotational constants in MHz :  6465.033740  2253.919004  1992.232519

                             ****ORCA TERMINATED NORMALLY****
TOTAL RUN TIME: 0 days 0 hours 0 minutes 55 seconds 748 msec
