                         Program Version 5.0.0 -  RELEASE  -
|  1> !wB97X-D3 RIJCOSX def2-TZVP def2/J TightSCF
|  2> *xyz 0 1
|  3> C          0.61188        1.65763       -4.50029
|  4> C          1.69499        1.54179       -5.57045
|  5> H          2.69733        1.73466       -5.18400
|  6> H          1.50666        2.27224       -6.35808
|  7> S          1.78029       -0.03313       -6.42874
|  8> F          2.56929        0.21366       -7.60736
|  9> O          0.41688       -0.46297       -6.61859
| 10> O          2.50513       -0.93326       -5.48257
| 11> H         -0.34424        1.45871       -4.93752
| 12> H          0.61845        2.64655       -4.09174
| 13> H          0.80247        0.94882       -3.72173
| 14> *
| 15> %MaxCore 64000
| 16>
| 17> %pal nprocs 4
| 18> end
| 19>
| 20> %scf
| 21>   MaxIter 150
| 22> end
| 23>
| 24>
| 25>                          ****END OF INPUT****

CARTESIAN COORDINATES (ANGSTROEM)
---------------------------------
  C      0.611880    1.657630   -4.500290
  C      1.694990    1.541790   -5.570450
  H      2.697330    1.734660   -5.184000
  H      1.506660    2.272240   -6.358080
  S      1.780290   -0.033130   -6.428740
  F      2.569290    0.213660   -7.607360
  O      0.416880   -0.462970   -6.618590
  O      2.505130   -0.933260   -5.482570
  H     -0.344240    1.458710   -4.937520
  H      0.618450    2.646550   -4.091740
  H      0.802470    0.948820   -3.721730

 Total Charge           Charge          ....    0
 Multiplicity           Mult            ....    1
 Number of Electrons    NEL             ....   58
 Basis Dimension        Dim             ....  222

ORBITAL ENERGIES
----------------

  NO   OCC          E(Eh)            E(eV)
   0   2.0000     -89.195041     -2427.1205
   1   2.0000     -24.909276      -677.8158
   2   2.0000     -19.244439      -523.6678
   3   2.0000     -19.224303      -523.1199
   4   2.0000     -10.338001      -281.3113
   5   2.0000     -10.292458      -280.0720
   6   2.0000      -8.258485      -224.7248
   7   2.0000      -6.215751      -169.1392
   8   2.0000      -6.209522      -168.9697
   9   2.0000      -6.209086      -168.9578
  10   2.0000      -1.503743       -40.9189
  11   2.0000      -1.218619       -33.1603
  12   2.0000      -1.112757       -30.2797
  13   2.0000      -0.939429       -25.5632
  14   2.0000      -0.849598       -23.1187
  15   2.0000      -0.786572       -21.4037
  16   2.0000      -0.694672       -18.9030
  17   2.0000      -0.694273       -18.8921
  18   2.0000      -0.660418       -17.9709
  19   2.0000      -0.596971       -16.2444
  20   2.0000      -0.583328       -15.8732
  21   2.0000      -0.539436       -14.6788
  22   2.0000      -0.528816       -14.3898
  23   2.0000      -0.505905       -13.7664
  24   2.0000      -0.485318       -13.2062
  25   2.0000      -0.480622       -13.0784
  26   2.0000      -0.429955       -11.6997
  27   2.0000      -0.410889       -11.1809
  28   2.0000      -0.396745       -10.7960
  29   0.0000       0.104095         2.8326
  30   0.0000       0.114627         3.1192
  31   0.0000       0.146376         3.9831
  32   0.0000       0.150706         4.1009
  33   0.0000       0.160446         4.3660

MULLIKEN ATOMIC CHARGES
-----------------------
   0 C :   -0.349705
   1 C :   -0.250539
   2 H :    0.154007
   3 H :    0.131094
   4 S :    0.879109
   5 F :   -0.095283
   6 O :   -0.418610
   7 O :   -0.471920
   8 H :    0.145611
   9 H :    0.130376
  10 H :    0.145861
Sum of atomic charges:    0.0000000

LOEWDIN ATOMIC CHARGES
----------------------
   0 C :   -0.299818
   1 C :   -0.396422
   2 H :    0.140132
   3 H :    0.133967
   4 S :    0.536276
   5 F :    0.102643
   6 O :   -0.262675
   7 O :   -0.332633
   8 H :    0.126453
   9 H :    0.124524
  10 H :    0.127553

  Mayer bond orders larger than 0.100000
B(  0-C ,  1-C ) :   0.9845 B(  0-C ,  8-H ) :   0.9678 B(  0-C ,  9-H ) :   0.9630
B(  0-C , 10-H ) :   0.9696 B(  1-C ,  2-H ) :   0.9414 B(  1-C ,  3-H ) :   0.9402
B(  1-C ,  4-S ) :   0.9185 B(  4-S ,  5-F ) :   1.1524 B(  4-S ,  6-O ) :   1.9150
B(  4-S ,  7-O ) :   1.8689

Dispersion correction           -0.002888223
FINAL SINGLE POINT ENERGY      -727.735300823722

DIPOLE MOMENT
-------------
                                X             Y             Z
Electronic contribution:      3.88275      -5.63228      -7.57025
Nuclear contribution   :     -3.66946       7.33549       7.42434
                        -----------------------------------------
Total Dipole Moment    :      0.21329       1.70321      -0.14591
                        -----------------------------------------
Magnitude (a.u.)       :      1.72270
Magnitude (Debye)      :      4.37876

Rotational constants in cm-1:     0.158379     0.080294     0.077843
Rotational constants in MHz :  4748.076444  2407.152850  2333.668303

                             ****ORCA TERMINATED NORMALLY****
TOTAL RUN TIME: 0 days 0 hours 0 minutes 37 seconds 101 msec
