                         Program Version 5.0.0 -  RELEASE  -
|  1> !wB97X-D3 RIJCOSX def2-TZVP def2/J TightSCF
|  2> *xyz 0 1
|  3> C          1.96337       -1.74915       -1.89689
|  4> C          2.73849       -2.01517       -3.09711
|  5> C          4.04974       -2.15472       -3.15204
|  6> N          4.65821       -1.98629       -4.31866
|  7> N          4.76423       -2.45444       -2.05049
|  8> H          4.28736       -2.77626       -1.21750
|  9> H          5.75082       -2.65835       -2.12599
| 10> H          2.34518       -1.69027       -3.97145
| 11> H          4.10900       -1.59268       -5.07176
| 12> H          5.64910       -2.15646       -4.42724
| 13> C          2.08852       -0.30091       -1.41520
| 14> H          2.23127       -2.45162       -1.10264
| 15> H          0.93025       -1.97780       -2.15544
| 16> H          1.82118        0.36368       -2.21003
| 17> H          3.09792       -0.11068       -1.11551
| 18> H          1.43391       -0.14382       -0.58352
| 19> *
| 20> %MaxCore 64000
| 21>
| 22> %pal nprocs 4
| 23> end
| 24>
| 25> %scf
| 26>   MaxIter 150
| 27> end
| 28>
| 29>
| 30>                          ****END OF INPUT****

CARTESIAN COORDINATES (ANGSTROEM)
---------------------------------
  C      1.963370   -1.749150   -1.896890
  C      2.738490   -2.015170   -3.097110
  C      4.049740   -2.154720   -3.152040
  N      4.658210   -1.986290   -4.318660
  N      4.764230   -2.454440   -2.050490
  H      4.287360   -2.776260   -1.217500
  H      5.750820   -2.658350   -2.125990
  H      2.345180   -1.690270   -3.971450
  H      4.109000   -1.592680   -5.071760
  H      5.649100   -2.156460   -4.427240
  C      2.088520   -0.300910   -1.415200
  H      2.231270   -2.451620   -1.102640
  H      0.930250   -1.977800   -2.155440
  H      1.821180    0.363680   -2.210030
  H      3.097920   -0.110680   -1.115510
  H      1.433910   -0.143820   -0.583520

 Total Charge           Charge          ....    0
 Multiplicity           Mult            ....    1
 Number of Electrons    NEL             ....   48
 Basis Dimension        Dim             ....  246

ORBITAL ENERGIES
----------------

  NO   OCC          E(Eh)            E(eV)
   0   2.0000     -14.420220      -392.3941
   1   2.0000     -14.417320      -392.3152
   2   2.0000     -10.317280      -280.7475
   3   2.0000     -10.246277      -278.8154
   4   2.0000     -10.234352      -278.4909
   5   2.0000     -10.188046      -277.2308
   6   2.0000      -1.076080       -29.2816
   7   2.0000      -0.984731       -26.7959
   8   2.0000      -0.887477       -24.1495
   9   2.0000      -0.805202       -21.9107
  10   2.0000      -0.725014       -19.7286
  11   2.0000      -0.683258       -18.5924
  12   2.0000      -0.643210       -17.5026
  13   2.0000      -0.611376       -16.6364
  14   2.0000      -0.569590       -15.4993
  15   2.0000      -0.536547       -14.6002
  16   2.0000      -0.518529       -14.1099
  17   2.0000      -0.483444       -13.1552
  18   2.0000      -0.475436       -12.9373
  19   2.0000      -0.448821       -12.2131
  20   2.0000      -0.419389       -11.4122
  21   2.0000      -0.409017       -11.1299
  22   2.0000      -0.358919        -9.7667
  23   2.0000      -0.242872        -6.6089
  24   0.0000       0.101740         2.7685
  25   0.0000       0.132921         3.6170
  26   0.0000       0.141151         3.8409
  27   0.0000       0.160153         4.3580
  28   0.0000       0.168927         4.5967

MULLIKEN ATOMIC CHARGES
-----------------------
   0 C :   -0.172805
   1 C :   -0.341003
   2 C :    0.366603
   3 N :   -0.508287
   4 N :   -0.520560
   5 H :    0.251101
   6 H :    0.227194
   7 H :    0.059363
   8 H :    0.252353
   9 H :    0.230067
  10 C :   -0.296934
  11 H :    0.056009
  12 H :    0.094723
  13 H :    0.098239
  14 H :    0.104818
  15 H :    0.099117
Sum of atomic charges:   -0.0000000

LOEWDIN ATOMIC CHARGES
----------------------
   0 C :   -0.308558
   1 C :   -0.293451
   2 C :   -0.453271
   3 N :   -0.016164
   4 N :   -0.023665
   5 H :    0.175385
   6 H :    0.161459
   7 H :    0.119483
   8 H :    0.180928
   9 H :    0.162718
  10 C :   -0.299587
  11 H :    0.123822
  12 H :    0.137855
  13 H :    0.112843
  14 H :    0.112815
  15 H :    0.107387

  Mayer bond orders larger than 0.100000
B(  0-C ,  1-C ) :   1.0314 B(  0-C , 10-C ) :   0.9454 B(  0-C , 11-H ) :   0.9820
B(  0-C , 12-H ) :   0.9916 B(  1-C ,  2-C ) :   1.6787 B(  1-C ,  7-H ) :   1.0219
B(  2-C ,  3-N ) :   1.1584 B(  2-C ,  4-N ) :   1.1386 B(  3-N ,  8-H ) :   0.9163
B(  3-N ,  9-H ) :   0.9244 B(  4-N ,  5-H ) :   0.9168 B(  4-N ,  6-H ) :   0.9252
B( 10-C , 13-H ) :   0.9816 B( 10-C , 14-H ) :   0.9804 B( 10-C , 15-H ) :   0.9814

Dispersion correction           -0.003858102
FINAL SINGLE POINT ENERGY      -267.941018945471

DIPOLE MOMENT
-------------
                                X             Y             Z
Electronic contribution:      3.38452      -2.44424      -2.53632
Nuclear contribution   :     -2.31778       2.31977       2.35294
                        -----------------------------------------
Total Dipole Moment    :      1.06675      -0.12447      -0.18338
                        -----------------------------------------
Magnitude (a.u.)       :      1.08953
Magnitude (Debye)      :      2.76936

Rotational constants in cm-1:     0.219415     0.075373     0.066689
Rotational constants in MHz :  6577.897266  2259.621393  1999.290981

                             ****ORCA TERMINATED NORMALLY****
TOTAL RUN TIME: 0 days 0 hours 0 minutes 53 seconds 931 msec
