                         Program Version 5.0.0 -  RELEASE  -
|  1> !wB97X-D3 RIJCOSX def2-TZVP def2/J TightSCF
|  2> *xyz 0 1
|  3> C          0.61188        1.65763       -4.50029
|  4> C          1.69499        1.54179       -5.57045
|  5> H          2.69733        1.73466       -5.18400
|  6> H          1.50666        2.27224       -6.35808
|  7> S          1.78029       -0.03313       -6.42874
|  8> O          2.56929        0.21366       -7.60736
|  9> F          0.41688       -0.46297       -6.61859
| 10> O          2.50513       -0.93326       -5.48257
| 11> H         -0.34424        1.45871       -4.93752
| 12> H          0.61845        2.64655       -4.09174
| 13> H          0.80247        0.94882       -3.72173
| 14> *
| 15> %MaxCore 64000
| 16>
| 17> %pal nprocs 4
| 18> end
| 19>
| 20> %scf
| 21>   MaxIter 150
| 22> end
| 23>
| 24>
| 25>                          ****END OF INPUT****

CARTESIAN COORDINATES (ANGSTROEM)
---------------------------------
  C      0.611880    1.657630   -4.500290
  C      1.694990    1.541790   -5.570450
  H      2.697330    1.734660   -5.184000
  H      1.506660    2.272240   -6.358080
  S      1.780290   -0.033130   -6.428740
  O      2.569290    0.213660   -7.607360
  F      0.416880   -0.462970   -6.618590
  O      2.505130   -0.933260   -5.482570
  H     -0.344240    1.458710   -4.937520
  H      0.618450    2.646550   -4.091740
  H      0.802470    0.948820   -3.721730

 Total Charge           Charge          ....    0
 Multiplicity           Mult            ....    1
 Number of Electrons    NEL             ....   58
 Basis Dimension        Dim             ....  222

ORBITAL ENERGIES
----------------

  NO   OCC          E(Eh)            E(eV)
   0   2.0000     -89.194743     -2427.1124
   1   2.0000     -24.908707      -677.8004
   2   2.0000     -19.244027      -523.6566
   3   2.0000     -19.224492      -523.1250
   4   2.0000     -10.337849      -281.3072
   5   2.0000     -10.298232      -280.2291
   6   2.0000      -8.258208      -224.7173
   7   2.0000      -6.215667      -169.1369
   8   2.0000      -6.209096      -168.9581
   9   2.0000      -6.208771      -168.9492
  10   2.0000      -1.502174       -40.8762
  11   2.0000      -1.219588       -33.1867
  12   2.0000      -1.112548       -30.2740
  13   2.0000      -0.943483       -25.6735
  14   2.0000      -0.845403       -23.0046
  15   2.0000      -0.792183       -21.5564
  16   2.0000      -0.705408       -19.1951
  17   2.0000      -0.692960       -18.8564
  18   2.0000      -0.650492       -17.7008
  19   2.0000      -0.598029       -16.2732
  20   2.0000      -0.577636       -15.7183
  21   2.0000      -0.550455       -14.9786
  22   2.0000      -0.535345       -14.5675
  23   2.0000      -0.510023       -13.8784
  24   2.0000      -0.492760       -13.4087
  25   2.0000      -0.478134       -13.0107
  26   2.0000      -0.428588       -11.6625
  27   2.0000      -0.411031       -11.1847
  28   2.0000      -0.396914       -10.8006
  29   0.0000       0.091270         2.4836
  30   0.0000       0.125873         3.4252
  31   0.0000       0.145353         3.9553
  32   0.0000       0.153029         4.1641
  33   0.0000       0.156579         4.2607

MULLIKEN ATOMIC CHARGES
-----------------------
   0 C :   -0.356230
   1 C :   -0.255975
   2 H :    0.170397
   3 H :    0.145567
   4 S :    0.875889
   5 O :   -0.410661
   6 F :   -0.100890
   7 O :   -0.472283
   8 H :    0.123118
   9 H :    0.133723
  10 H :    0.147345
Sum of atomic charges:    0.0000000

LOEWDIN ATOMIC CHARGES
----------------------
   0 C :   -0.314122
   1 C :   -0.389638
   2 H :    0.150744
   3 H :    0.139057
   4 S :    0.536856
   5 O :   -0.261203
   6 F :    0.101449
   7 O :   -0.332199
   8 H :    0.118098
   9 H :    0.125330
  10 H :    0.125629

  Mayer bond orders larger than 0.100000
B(  0-C ,  1-C ) :   0.9732 B(  0-C ,  8-H ) :   0.9719 B(  0-C ,  9-H ) :   0.9660
B(  0-C , 10-H ) :   0.9681 B(  1-C ,  2-H ) :   0.9425 B(  1-C ,  3-H ) :   0.9447
B(  1-C ,  4-S ) :   0.9136 B(  4-S ,  5-O ) :   1.9460 B(  4-S ,  6-F ) :   1.1379
B(  4-S ,  7-O ) :   1.8662

Dispersion correction           -0.002869916
FINAL SINGLE POINT ENERGY      -727.735165564428

DIPOLE MOMENT
-------------
                                X             Y             Z
Electronic contribution:      0.22266      -6.76803      -5.86248
Nuclear contribution   :     -1.42658       8.04056       6.39401
                        -----------------------------------------
Total Dipole Moment    :     -1.20392       1.27253       0.53153
                        -----------------------------------------
Magnitude (a.u.)       :      1.83065
Magnitude (Debye)      :      4.65314

Rotational constants in cm-1:     0.153659     0.082363     0.078978
Rotational constants in MHz :  4606.587369  2469.179541  2367.702074

                             ****ORCA TERMINATED NORMALLY****
TOTAL RUN TIME: 0 days 0 hours 0 minutes 38 seconds 369 msec
