                         Program Version 5.0.0 -  RELEASE  -
|  1> !wB97X-D3 RIJCOSX def2-TZVP def2/J TightSCF
|  2> *xyz 0 1
|  3> C          1.96337       -1.74915       -1.89689
|  4> N          2.73849       -2.01517       -3.09711
|  5> C          4.04974       -2.15472       -3.15204
|  6> C          4.65821       -1.98629       -4.31866
|  7> N          4.76423       -2.45444       -2.05049
|  8> H          4.28736       -2.77626       -1.21750
|  9> H          5.75082       -2.65835       -2.12599
| 10> H          2.34518       -1.69027       -3.97145
| 11> H          4.10900       -1.59268       -5.07176
| 12> H          5.64910       -2.15646       -4.42724
| 13> C          2.08852       -0.30091       -1.41520
| 14> H          2.23127       -2.45162       -1.10264
| 15> H          0.93025       -1.97780       -2.15544
| 16> H          1.82118        0.36368       -2.21003
| 17> H          3.09792       -0.11068       -1.11551
| 18> H          1.43391       -0.14382       -0.58352
| 19> *
| 20> %MaxCore 64000
| 21>
| 22> %pal nprocs 4
| 23> end
| 24>
| 25> %scf
| 26>   MaxIter 150
| 27> end
| 28>
| 29>
| 30>                          ****END OF INPUT****

CARTESIAN COORDINATES (ANGSTROEM)
---------------------------------
  C      1.963370   -1.749150   -1.896890
  N      2.738490   -2.015170   -3.097110
  C      4.049740   -2.154720   -3.152040
  C      4.658210   -1.986290   -4.318660
  N      4.764230   -2.454440   -2.050490
  H      4.287360   -2.776260   -1.217500
  H      5.750820   -2.658350   -2.125990
  H      2.345180   -1.690270   -3.971450
  H      4.109000   -1.592680   -5.071760
  H      5.649100   -2.156460   -4.427240
  C      2.088520   -0.300910   -1.415200
  H      2.231270   -2.451620   -1.102640
  H      0.930250   -1.977800   -2.155440
  H      1.821180    0.363680   -2.210030
  H      3.097920   -0.110680   -1.115510
  H      1.433910   -0.143820   -0.583520

 Total Charge           Charge          ....    0
 Multiplicity           Mult            ....    1
 Number of Electrons    NEL             ....   48
 Basis Dimension        Dim             ....  246

ORBITAL ENERGIES
----------------

  NO   OCC          E(Eh)            E(eV)
   0   2.0000     -14.419247      -392.3677
   1   2.0000     -14.419116      -392.3641
   2   2.0000     -10.319526      -280.8086
   3   2.0000     -10.314608      -280.6748
   4   2.0000     -10.261012      -279.2163
   5   2.0000     -10.181413      -277.0503
   6   2.0000      -1.085505       -29.5381
   7   2.0000      -0.998183       -27.1619
   8   2.0000      -0.885957       -24.1081
   9   2.0000      -0.814414       -22.1613
  10   2.0000      -0.739878       -20.1331
  11   2.0000      -0.703873       -19.1534
  12   2.0000      -0.637895       -17.3580
  13   2.0000      -0.597087       -16.2476
  14   2.0000      -0.577657       -15.7189
  15   2.0000      -0.536558       -14.6005
  16   2.0000      -0.532765       -14.4973
  17   2.0000      -0.498667       -13.5694
  18   2.0000      -0.479166       -13.0388
  19   2.0000      -0.469025       -12.7628
  20   2.0000      -0.455597       -12.3974
  21   2.0000      -0.450968       -12.2715
  22   2.0000      -0.346524        -9.4294
  23   2.0000      -0.248676        -6.7668
  24   0.0000       0.102615         2.7923
  25   0.0000       0.130845         3.5605
  26   0.0000       0.142385         3.8745
  27   0.0000       0.153402         4.1743
  28   0.0000       0.168454         4.5839

MULLIKEN ATOMIC CHARGES
-----------------------
   0 C :   -0.147185
   1 N :   -0.329388
   2 C :    0.396342
   3 C :   -0.543427
   4 N :   -0.518452
   5 H :    0.228572
   6 H :    0.252420
   7 H :    0.224801
   8 H :    0.083975
   9 H :    0.094649
  10 C :   -0.290939
  11 H :    0.093914
  12 H :    0.118811
  13 H :    0.104780
  14 H :    0.122537
  15 H :    0.108589
Sum of atomic charges:    0.0000000

LOEWDIN ATOMIC CHARGES
----------------------
   0 C :   -0.313812
   1 N :    0.113333
   2 C :   -0.460955
   3 C :   -0.342652
   4 N :   -0.021523
   5 H :    0.161202
   6 H :    0.176690
   7 H :    0.197329
   8 H :    0.095982
   9 H :    0.094394
  10 C :   -0.303148
  11 H :    0.123696
  12 H :    0.131215
  13 H :    0.115269
  14 H :    0.118228
  15 H :    0.114753

  Mayer bond orders larger than 0.100000
B(  0-C ,  1-N ) :   0.9574 B(  0-C , 10-C ) :   0.9559 B(  0-C , 11-H ) :   0.9853
B(  0-C , 12-H ) :   0.9792 B(  1-N ,  2-C ) :   1.2117 B(  1-N ,  7-H ) :   0.9236
B(  2-C ,  3-C ) :   1.6162 B(  2-C ,  4-N ) :   1.1246 B(  3-C ,  8-H ) :   1.0137
B(  3-C ,  9-H ) :   1.0123 B(  4-N ,  5-H ) :   0.9194 B(  4-N ,  6-H ) :   0.9205
B( 10-C , 13-H ) :   0.9758 B( 10-C , 14-H ) :   0.9731 B( 10-C , 15-H ) :   0.9742

Dispersion correction           -0.003890877
FINAL SINGLE POINT ENERGY      -267.937266912597

DIPOLE MOMENT
-------------
                                X             Y             Z
Electronic contribution:      1.40025      -2.34952      -1.17694
Nuclear contribution   :     -1.91052       2.32590       2.09379
                        -----------------------------------------
Total Dipole Moment    :     -0.51027      -0.02362       0.91686
                        -----------------------------------------
Magnitude (a.u.)       :      1.04955
Magnitude (Debye)      :      2.66775

Rotational constants in cm-1:     0.219448     0.077923     0.068804
Rotational constants in MHz :  6578.886179  2336.083179  2062.700476

                             ****ORCA TERMINATED NORMALLY****
TOTAL RUN TIME: 0 days 0 hours 0 minutes 52 seconds 619 msec
