                         Program Version 5.0.0 -  RELEASE  -
|  1> !wB97X-D3 RIJCOSX def2-TZVP def2/J TightSCF
|  2> *xyz 0 1
|  3> C          0.61188        1.65763       -4.50029
|  4> C          1.69499        1.54179       -5.57045
|  5> H          2.69733        1.73466       -5.18400
|  6> H          1.50666        2.27224       -6.35808
|  7> S          1.78029       -0.03313       -6.42874
|  8> O          2.56929        0.21366       -7.60736
|  9> O          0.41688       -0.46297       -6.61859
| 10> F          2.50513       -0.93326       -5.48257
| 11> H         -0.34424        1.45871       -4.93752
| 12> H          0.61845        2.64655       -4.09174
| 13> H          0.80247        0.94882       -3.72173
| 14> *
| 15> %MaxCore 64000
| 16>
| 17> %pal nprocs 4
| 18> end
| 19>
| 20> %scf
| 21>   MaxIter 150
| 22> end
| 23>
| 24>
| 25>                          ****END OF INPUT****

CARTESIAN COORDINATES (ANGSTROEM)
---------------------------------
  C      0.611880    1.657630   -4.500290
  C      1.694990    1.541790   -5.570450
  H      2.697330    1.734660   -5.184000
  H      1.506660    2.272240   -6.358080
  S      1.780290   -0.033130   -6.428740
  O      2.569290    0.213660   -7.607360
  O      0.416880   -0.462970   -6.618590
  F      2.505130   -0.933260   -5.482570
  H     -0.344240    1.458710   -4.937520
  H      0.618450    2.646550   -4.091740
  H      0.802470    0.948820   -3.721730

 Total Charge           Charge          ....    0
 Multiplicity           Mult            ....    1
 Number of Electrons    NEL             ....   58
 Basis Dimension        Dim             ....  222

ORBITAL ENERGIES
----------------

  NO   OCC          E(Eh)            E(eV)
   0   2.0000     -89.192432     -2427.0495
   1   2.0000     -24.880470      -677.0320
   2   2.0000     -19.244401      -523.6668
   3   2.0000     -19.243571      -523.6442
   4   2.0000     -10.336850      -281.2800
   5   2.0000     -10.293141      -280.0906
   6   2.0000      -8.255853      -224.6532
   7   2.0000      -6.213358      -169.0741
   8   2.0000      -6.207053      -168.9025
   9   2.0000      -6.206258      -168.8809
  10   2.0000      -1.458373       -39.6844
  11   2.0000      -1.231685       -33.5159
  12   2.0000      -1.140835       -31.0437
  13   2.0000      -0.940006       -25.5789
  14   2.0000      -0.831349       -22.6222
  15   2.0000      -0.778507       -21.1843
  16   2.0000      -0.679306       -18.4849
  17   2.0000      -0.661983       -18.0135
  18   2.0000      -0.651768       -17.7355
  19   2.0000      -0.595934       -16.2162
  20   2.0000      -0.579461       -15.7679
  21   2.0000      -0.557169       -15.1613
  22   2.0000      -0.531715       -14.4687
  23   2.0000      -0.502970       -13.6865
  24   2.0000      -0.500549       -13.6206
  25   2.0000      -0.478648       -13.0247
  26   2.0000      -0.437731       -11.9113
  27   2.0000      -0.427714       -11.6387
  28   2.0000      -0.418254       -11.3813
  29   0.0000       0.097803         2.6614
  30   0.0000       0.126887         3.4528
  31   0.0000       0.142753         3.8845
  32   0.0000       0.155502         4.2314
  33   0.0000       0.164564         4.4780

MULLIKEN ATOMIC CHARGES
-----------------------
   0 C :   -0.344411
   1 C :   -0.267436
   2 H :    0.146412
   3 H :    0.162028
   4 S :    0.885988
   5 O :   -0.423221
   6 O :   -0.429097
   7 F :   -0.137294
   8 H :    0.152032
   9 H :    0.130247
  10 H :    0.124750
Sum of atomic charges:    0.0000000

LOEWDIN ATOMIC CHARGES
----------------------
   0 C :   -0.311068
   1 C :   -0.392828
   2 H :    0.137061
   3 H :    0.149644
   4 S :    0.544420
   5 O :   -0.266919
   6 O :   -0.266447
   7 F :    0.035354
   8 H :    0.126638
   9 H :    0.123703
  10 H :    0.120443

  Mayer bond orders larger than 0.100000
B(  0-C ,  1-C ) :   0.9732 B(  0-C ,  8-H ) :   0.9671 B(  0-C ,  9-H ) :   0.9647
B(  0-C , 10-H ) :   0.9727 B(  1-C ,  2-H ) :   0.9480 B(  1-C ,  3-H ) :   0.9424
B(  1-C ,  4-S ) :   0.9137 B(  4-S ,  5-O ) :   1.9417 B(  4-S ,  6-O ) :   1.9109
B(  4-S ,  7-F ) :   1.0959

Dispersion correction           -0.002849988
FINAL SINGLE POINT ENERGY      -727.759136485086

DIPOLE MOMENT
-------------
                                X             Y             Z
Electronic contribution:      3.79352      -7.60730      -3.91595
Nuclear contribution   :     -3.60260       8.53062       5.21025
                        -----------------------------------------
Total Dipole Moment    :      0.19091       0.92332       1.29430
                        -----------------------------------------
Magnitude (a.u.)       :      1.60130
Magnitude (Debye)      :      4.07019

Rotational constants in cm-1:     0.154011     0.080858     0.079602
Rotational constants in MHz :  4617.134198  2424.070332  2386.404775

                             ****ORCA TERMINATED NORMALLY****
TOTAL RUN TIME: 0 days 0 hours 0 minutes 39 seconds 458 msec
