                         Program Version 5.0.0 -  RELEASE  -
|  1> !wB97X-D3 RIJCOSX def2-TZVP def2/J TightSCF
|  2> *xyz 0 1
|  3> C          1.96337       -1.74915       -1.89689
|  4> N          2.73849       -2.01517       -3.09711
|  5> C          4.04974       -2.15472       -3.15204
|  6> N          4.65821       -1.98629       -4.31866
|  7> C          4.76423       -2.45444       -2.05049
|  8> H          4.28736       -2.77626       -1.21750
|  9> H          5.75082       -2.65835       -2.12599
| 10> H          2.34518       -1.69027       -3.97145
| 11> H          4.10900       -1.59268       -5.07176
| 12> H          5.64910       -2.15646       -4.42724
| 13> C          2.08852       -0.30091       -1.41520
| 14> H          2.23127       -2.45162       -1.10264
| 15> H          0.93025       -1.97780       -2.15544
| 16> H          1.82118        0.36368       -2.21003
| 17> H          3.09792       -0.11068       -1.11551
| 18> H          1.43391       -0.14382       -0.58352
| 19> *
| 20> %MaxCore 64000
| 21>
| 22> %pal nprocs 4
| 23> end
| 24>
| 25> %scf
| 26>   MaxIter 150
| 27> end
| 28>
| 29>
| 30>                          ****END OF INPUT****

CARTESIAN COORDINATES (ANGSTROEM)
---------------------------------
  C      1.963370   -1.749150   -1.896890
  N      2.738490   -2.015170   -3.097110
  C      4.049740   -2.154720   -3.152040
  N      4.658210   -1.986290   -4.318660
  C      4.764230   -2.454440   -2.050490
  H      4.287360   -2.776260   -1.217500
  H      5.750820   -2.658350   -2.125990
  H      2.345180   -1.690270   -3.971450
  H      4.109000   -1.592680   -5.071760
  H      5.649100   -2.156460   -4.427240
  C      2.088520   -0.300910   -1.415200
  H      2.231270   -2.451620   -1.102640
  H      0.930250   -1.977800   -2.155440
  H      1.821180    0.363680   -2.210030
  H      3.097920   -0.110680   -1.115510
  H      1.433910   -0.143820   -0.583520

 Total Charge           Charge          ....    0
 Multiplicity           Mult            ....    1
 Number of Electrons    NEL             ....   48
 Basis Dimension        Dim             ....  246

ORBITAL ENERGIES
----------------

  NO   OCC          E(Eh)            E(eV)
   0   2.0000     -14.423217      -392.4757
   1   2.0000     -14.421067      -392.4172
   2   2.0000     -10.321219      -280.8546
   3   2.0000     -10.307789      -280.4892
   4   2.0000     -10.254053      -279.0270
   5   2.0000     -10.180728      -277.0317
   6   2.0000      -1.091325       -29.6965
   7   2.0000      -1.002384       -27.2762
   8   2.0000      -0.868556       -23.6346
   9   2.0000      -0.819145       -22.2901
  10   2.0000      -0.752831       -20.4856
  11   2.0000      -0.667325       -18.1588
  12   2.0000      -0.648555       -17.6481
  13   2.0000      -0.626323       -17.0431
  14   2.0000      -0.566803       -15.4235
  15   2.0000      -0.538973       -14.6662
  16   2.0000      -0.515958       -14.0399
  17   2.0000      -0.494447       -13.4546
  18   2.0000      -0.476155       -12.9568
  19   2.0000      -0.463015       -12.5993
  20   2.0000      -0.458680       -12.4813
  21   2.0000      -0.440182       -11.9780
  22   2.0000      -0.343630        -9.3506
  23   2.0000      -0.249568        -6.7911
  24   0.0000       0.100749         2.7415
  25   0.0000       0.131888         3.5889
  26   0.0000       0.146987         3.9997
  27   0.0000       0.154234         4.1969
  28   0.0000       0.173350         4.7171

MULLIKEN ATOMIC CHARGES
-----------------------
   0 C :   -0.107968
   1 N :   -0.338892
   2 C :    0.376405
   3 N :   -0.507016
   4 C :   -0.535319
   5 H :    0.093298
   6 H :    0.086419
   7 H :    0.191288
   8 H :    0.220280
   9 H :    0.260866
  10 C :   -0.311551
  11 H :    0.116935
  12 H :    0.111434
  13 H :    0.089773
  14 H :    0.144088
  15 H :    0.109958
Sum of atomic charges:   -0.0000000

LOEWDIN ATOMIC CHARGES
----------------------
   0 C :   -0.296316
   1 N :    0.111575
   2 C :   -0.467413
   3 N :   -0.011933
   4 C :   -0.354261
   5 H :    0.095471
   6 H :    0.092120
   7 H :    0.178639
   8 H :    0.162673
   9 H :    0.180071
  10 C :   -0.302614
  11 H :    0.134767
  12 H :    0.128643
  13 H :    0.110512
  14 H :    0.122701
  15 H :    0.115364

  Mayer bond orders larger than 0.100000
B(  0-C ,  1-N ) :   0.9395 B(  0-C , 10-C ) :   0.9696 B(  0-C , 11-H ) :   0.9724
B(  0-C , 12-H ) :   0.9773 B(  1-N ,  2-C ) :   1.1914 B(  1-N ,  7-H ) :   0.9306
B(  2-C ,  3-N ) :   1.1410 B(  2-C ,  4-C ) :   1.6333 B(  3-N ,  8-H ) :   0.9256
B(  3-N ,  9-H ) :   0.9157 B(  4-C ,  5-H ) :   1.0114 B(  4-C ,  6-H ) :   1.0030
B( 10-C , 13-H ) :   0.9772 B( 10-C , 14-H ) :   0.9721 B( 10-C , 15-H ) :   0.9758

Dispersion correction           -0.003853453
FINAL SINGLE POINT ENERGY      -267.936170699655

DIPOLE MOMENT
-------------
                                X             Y             Z
Electronic contribution:      1.31591      -1.80700      -3.49994
Nuclear contribution   :     -1.88803       2.22658       2.57497
                        -----------------------------------------
Total Dipole Moment    :     -0.57212       0.41958      -0.92497
                        -----------------------------------------
Magnitude (a.u.)       :      1.16573
Magnitude (Debye)      :      2.96306

Rotational constants in cm-1:     0.226509     0.075782     0.067928
Rotational constants in MHz :  6790.555051  2271.890226  2036.439218

                             ****ORCA TERMINATED NORMALLY****
TOTAL RUN TIME: 0 days 0 hours 0 minutes 52 seconds 111 msec
