                         Program Version 5.0.0 -  RELEASE  -
|  1> !wB97X-D3 RIJCOSX def2-TZVP def2/J TightSCF xyzfile
|  2>
|  3> *xyzfile 0 1 D1.xyz
|  4>
|  5> %MaxCore 64000
|  6>
|  7> %pal nprocs 18
|  8> end
|  9>
| 10> %scf
| 11>   MaxIter 150
| 12> end
| 13>
| 14>
| 15>                          ****END OF INPUT****

CARTESIAN COORDINATES (ANGSTROEM)
---------------------------------
  C      1.963365   -1.749150   -1.896887
  C      2.738490   -2.015170   -3.097113
  C      0.611877    1.657634   -4.500288
  C      1.694991    1.541794   -5.570447
  H      2.697326    1.734659   -5.183996
  H      1.506656    2.272239   -6.358076
  S      1.780287   -0.033128   -6.428739
  C      4.049736   -2.154717   -3.152044
  N      4.658206   -1.986293   -4.318655
  N      4.764231   -2.454435   -2.050491
  H      4.287363   -2.776259   -1.217496
  H      5.750825   -2.658351   -2.125988
  H      2.345176   -1.690274   -3.971447
  H      4.109004   -1.592677   -5.071760
  H      5.649095   -2.156462   -4.427237
  F      2.569287    0.213657   -7.607360
  O      0.416880   -0.462969   -6.618595
  C      2.088520   -0.300912   -1.415204
  H      2.231272   -2.451616   -1.102643
  H      0.930249   -1.977801   -2.155438
  C      0.680356    0.655418   -3.348038
  H     -0.356865    1.549231   -4.991128
  H      0.650228    2.675438   -4.096000
  C      1.968993    0.733582   -2.535654
  H      3.051356   -0.168602   -0.911868
  H      1.316501   -0.136231   -0.657252
  O      2.505129   -0.933263   -5.482570
  H      2.824195    0.624726   -3.208464
  H      2.058919    1.730331   -2.093112
  H      0.542252   -0.344731   -3.766662
  H     -0.174219    0.829692   -2.685182

 Total Charge           Charge          ....    0
 Multiplicity           Mult            ....    1
 Number of Electrons    NEL             ....  120
 Basis Dimension        Dim             ....  542

ORBITAL ENERGIES
----------------

  NO   OCC          E(Eh)            E(eV)
   0   2.0000     -89.205236     -2427.3979
   1   2.0000     -24.917675      -678.0444
   2   2.0000     -19.253823      -523.9232
   3   2.0000     -19.240181      -523.5519
   4   2.0000     -14.401614      -391.8878
   5   2.0000     -14.386106      -391.4658
   6   2.0000     -10.338660      -281.3292
   7   2.0000     -10.298765      -280.2436
   8   2.0000     -10.293763      -280.1075
   9   2.0000     -10.266826      -279.3745
  10   2.0000     -10.255249      -279.0595
  11   2.0000     -10.244701      -278.7725
  12   2.0000     -10.232368      -278.4369
  13   2.0000     -10.155883      -276.3556
  14   2.0000      -8.269078      -225.0131
  15   2.0000      -6.226356      -169.4278
  16   2.0000      -6.219928      -169.2528
  17   2.0000      -6.219782      -169.2489
  18   2.0000      -1.512506       -41.1574
  19   2.0000      -1.231152       -33.5013
  20   2.0000      -1.131862       -30.7995
  21   2.0000      -1.053043       -28.6547
  22   2.0000      -0.962395       -26.1881
  23   2.0000      -0.952846       -25.9283
  24   2.0000      -0.906678       -24.6720
  25   2.0000      -0.868282       -23.6271
  26   2.0000      -0.836994       -22.7758
  27   2.0000      -0.802334       -21.8326
  28   2.0000      -0.763131       -20.7659
  29   2.0000      -0.728156       -19.8141
  30   2.0000      -0.708756       -19.2862
  31   2.0000      -0.694717       -18.9042
  32   2.0000      -0.691540       -18.8178
  33   2.0000      -0.656790       -17.8722
  34   2.0000      -0.652106       -17.7447
  35   2.0000      -0.625508       -17.0209
  36   2.0000      -0.599526       -16.3139
  37   2.0000      -0.594305       -16.1719
  38   2.0000      -0.586592       -15.9620
  39   2.0000      -0.564629       -15.3643
  40   2.0000      -0.562648       -15.3104
  41   2.0000      -0.541467       -14.7341
  42   2.0000      -0.531844       -14.4722
  43   2.0000      -0.522771       -14.2253
  44   2.0000      -0.510370       -13.8879
  45   2.0000      -0.497054       -13.5255
  46   2.0000      -0.478576       -13.0227
  47   2.0000      -0.472652       -12.8615
  48   2.0000      -0.465023       -12.6539
  49   2.0000      -0.456130       -12.4119
  50   2.0000      -0.444187       -12.0869
  51   2.0000      -0.427671       -11.6375
  52   2.0000      -0.421814       -11.4781
  53   2.0000      -0.415847       -11.3158
  54   2.0000      -0.414042       -11.2667
  55   2.0000      -0.402552       -10.9540
  56   2.0000      -0.388534       -10.5726
  57   2.0000      -0.373918       -10.1748
  58   2.0000      -0.336346        -9.1525
  59   2.0000      -0.220003        -5.9866
  60   0.0000       0.099146         2.6979
  61   0.0000       0.104974         2.8565
  62   0.0000       0.117834         3.2064
  63   0.0000       0.134190         3.6515
  64   0.0000       0.137185         3.7330

MULLIKEN ATOMIC CHARGES
-----------------------
   0 C :   -0.285226
   1 C :   -0.285792
   2 C :   -0.178211
   3 C :   -0.310470
   4 H :    0.170273
   5 H :    0.157889
   6 S :    0.892488
   7 C :    0.275733
   8 N :   -0.495722
   9 N :   -0.517259
  10 H :    0.244966
  11 H :    0.220301
  12 H :    0.137459
  13 H :    0.246461
  14 H :    0.212363
  15 F :   -0.096782
  16 O :   -0.403656
  17 C :   -0.138077
  18 H :    0.080034
  19 H :    0.111302
  20 C :   -0.297460
  21 H :    0.140758
  22 H :    0.123017
  23 C :   -0.166912
  24 H :    0.093467
  25 H :    0.082557
  26 O :   -0.483307
  27 H :    0.113981
  28 H :    0.094921
  29 H :    0.153126
  30 H :    0.107780
Sum of atomic charges:   -0.0000000

LOEWDIN ATOMIC CHARGES
----------------------
   0 C :   -0.292976
   1 C :   -0.290448
   2 C :   -0.276445
   3 C :   -0.368652
   4 H :    0.142903
   5 H :    0.138965
   6 S :    0.559755
   7 C :   -0.459666
   8 N :   -0.024900
   9 N :   -0.031086
  10 H :    0.172385
  11 H :    0.157566
  12 H :    0.118111
  13 H :    0.161209
  14 H :    0.154561
  15 F :    0.104281
  16 O :   -0.248695
  17 C :   -0.260581
  18 H :    0.125519
  19 H :    0.139048
  20 C :   -0.264374
  21 H :    0.146384
  22 H :    0.147022
  23 C :   -0.268803
  24 H :    0.133614
  25 H :    0.127517
  26 O :   -0.295424
  27 H :    0.137851
  28 H :    0.130759
  29 H :    0.144889
  30 H :    0.139714

  Mayer bond orders larger than 0.100000
B(  0-C ,  1-C ) :   0.9788 B(  0-C , 17-C ) :   0.9361 B(  0-C , 18-H ) :   0.9979
B(  0-C , 19-H ) :   1.0010 B(  1-C ,  7-C ) :   1.6817 B(  1-C , 12-H ) :   1.0146
B(  2-C ,  3-C ) :   0.9669 B(  2-C , 20-C ) :   0.9833 B(  2-C , 21-H ) :   0.9716
B(  2-C , 22-H ) :   0.9600 B(  3-C ,  4-H ) :   0.9431 B(  3-C ,  5-H ) :   0.9443
B(  3-C ,  6-S ) :   0.9225 B(  6-S , 15-F ) :   1.1564 B(  6-S , 16-O ) :   1.9337
B(  6-S , 26-O ) :   1.7393 B(  7-C ,  8-N ) :   1.2013 B(  7-C ,  9-N ) :   1.1532
B(  8-N , 13-H ) :   0.8810 B(  8-N , 14-H ) :   0.9314 B(  9-N , 10-H ) :   0.9164
B(  9-N , 11-H ) :   0.9275 B( 17-C , 23-C ) :   0.9907 B( 17-C , 24-H ) :   0.9732
B( 17-C , 25-H ) :   0.9844 B( 20-C , 23-C ) :   0.9272 B( 20-C , 29-H ) :   0.9798
B( 20-C , 30-H ) :   0.9743 B( 23-C , 27-H ) :   0.9742 B( 23-C , 28-H ) :   0.9732

Dispersion correction           -0.016380103
FINAL SINGLE POINT ENERGY     -1073.100196299579

DIPOLE MOMENT
-------------
                                X             Y             Z
Electronic contribution:      0.82950      -0.99978     -23.58949
Nuclear contribution   :      0.18720       2.58739      22.98820
                        -----------------------------------------
Total Dipole Moment    :      1.01670       1.58762      -0.60129
                        -----------------------------------------
Magnitude (a.u.)       :      1.97882
Magnitude (Debye)      :      5.02977

Rotational constants in cm-1:     0.028798     0.014448     0.010940
Rotational constants in MHz :   863.355869   433.126694   327.985023

                             ****ORCA TERMINATED NORMALLY****
TOTAL RUN TIME: 0 days 0 hours 1 minutes 26 seconds 99 msec
