                         Program Version 5.0.0 -  RELEASE  -
|  1> !wB97X-D3 RIJCOSX def2-TZVP def2/J TightSCF xyzfile
|  2>
|  3> *xyzfile 0 1 D3.xyz
|  4>
|  5> %MaxCore 64000
|  6>
|  7> %pal nprocs 18
|  8> end
|  9>
| 10> %scf
| 11>   MaxIter 150
| 12> end
| 13>
| 14>
| 15>                          ****END OF INPUT****

CARTESIAN COORDINATES (ANGSTROEM)
---------------------------------
  C      1.963365   -1.749150   -1.896887
  N      2.738490   -2.015170   -3.097113
  C      0.611877    1.657634   -4.500288
  C      1.694991    1.541794   -5.570447
  H      2.697326    1.734659   -5.183996
  H      1.506656    2.272239   -6.358076
  S      1.780287   -0.033128   -6.428739
  C      4.049736   -2.154717   -3.152044
  N      4.658206   -1.986293   -4.318655
  C      4.764231   -2.454435   -2.050491
  H      4.287363   -2.776259   -1.217496
  H      5.750825   -2.658351   -2.125988
  H      2.345176   -1.690274   -3.971447
  H      4.109004   -1.592677   -5.071760
  H      5.649095   -2.156462   -4.427237
  F      2.569287    0.213657   -7.607360
  O      0.416880   -0.462969   -6.618595
  C      2.088520   -0.300912   -1.415204
  H      2.231272   -2.451616   -1.102643
  H      0.930249   -1.977801   -2.155438
  C      0.680356    0.655418   -3.348038
  H     -0.356865    1.549231   -4.991128
  H      0.650228    2.675438   -4.096000
  C      1.968993    0.733582   -2.535654
  H      3.051356   -0.168602   -0.911868
  H      1.316501   -0.136231   -0.657252
  O      2.505129   -0.933263   -5.482570
  H      2.824195    0.624726   -3.208464
  H      2.058919    1.730331   -2.093112
  H      0.542252   -0.344731   -3.766662
  H     -0.174219    0.829692   -2.685182

 Total Charge           Charge          ....    0
 Multiplicity           Mult            ....    1
 Number of Electrons    NEL             ....  120
 Basis Dimension        Dim             ....  542

ORBITAL ENERGIES
----------------

  NO   OCC          E(Eh)            E(eV)
   0   2.0000     -89.225418     -2427.9471
   1   2.0000     -24.934759      -678.5093
   2   2.0000     -19.271116      -524.3937
   3   2.0000     -19.262928      -524.1709
   4   2.0000     -14.388029      -391.5182
   5   2.0000     -14.386683      -391.4815
   6   2.0000     -10.353672      -281.7377
   7   2.0000     -10.313515      -280.6450
   8   2.0000     -10.297347      -280.2051
   9   2.0000     -10.290308      -280.0135
  10   2.0000     -10.284609      -279.8584
  11   2.0000     -10.272311      -279.5238
  12   2.0000     -10.260897      -279.2132
  13   2.0000     -10.159041      -276.4416
  14   2.0000      -8.289004      -225.5553
  15   2.0000      -6.246152      -169.9664
  16   2.0000      -6.240144      -169.8029
  17   2.0000      -6.239611      -169.7885
  18   2.0000      -1.529206       -41.6118
  19   2.0000      -1.250253       -34.0211
  20   2.0000      -1.152844       -31.3705
  21   2.0000      -1.063299       -28.9339
  22   2.0000      -0.978032       -26.6136
  23   2.0000      -0.967285       -26.3212
  24   2.0000      -0.912946       -24.8425
  25   2.0000      -0.874952       -23.8086
  26   2.0000      -0.837413       -22.7872
  27   2.0000      -0.801636       -21.8136
  28   2.0000      -0.790856       -21.5203
  29   2.0000      -0.748767       -20.3750
  30   2.0000      -0.723110       -19.6768
  31   2.0000      -0.712247       -19.3812
  32   2.0000      -0.697414       -18.9776
  33   2.0000      -0.678372       -18.4594
  34   2.0000      -0.644654       -17.5419
  35   2.0000      -0.626645       -17.0519
  36   2.0000      -0.619454       -16.8562
  37   2.0000      -0.610327       -16.6078
  38   2.0000      -0.597805       -16.2671
  39   2.0000      -0.580682       -15.8012
  40   2.0000      -0.561939       -15.2911
  41   2.0000      -0.556111       -15.1325
  42   2.0000      -0.540285       -14.7019
  43   2.0000      -0.523004       -14.2317
  44   2.0000      -0.518452       -14.1078
  45   2.0000      -0.514019       -13.9872
  46   2.0000      -0.486649       -13.2424
  47   2.0000      -0.481952       -13.1146
  48   2.0000      -0.467907       -12.7324
  49   2.0000      -0.462488       -12.5849
  50   2.0000      -0.458819       -12.4851
  51   2.0000      -0.446058       -12.1379
  52   2.0000      -0.443596       -12.0709
  53   2.0000      -0.436238       -11.8706
  54   2.0000      -0.429752       -11.6941
  55   2.0000      -0.422825       -11.5057
  56   2.0000      -0.418313       -11.3829
  57   2.0000      -0.406384       -11.0583
  58   2.0000      -0.315836        -8.5943
  59   2.0000      -0.226834        -6.1725
  60   0.0000       0.083618         2.2754
  61   0.0000       0.091755         2.4968
  62   0.0000       0.121259         3.2996
  63   0.0000       0.126166         3.4332
  64   0.0000       0.127951         3.4817

MULLIKEN ATOMIC CHARGES
-----------------------
   0 C :   -0.213170
   1 N :   -0.291824
   2 C :   -0.180215
   3 C :   -0.317604
   4 H :    0.178995
   5 H :    0.165327
   6 S :    0.913574
   7 C :    0.354233
   8 N :   -0.506735
   9 C :   -0.562597
  10 H :    0.086449
  11 H :    0.079093
  12 H :    0.231908
  13 H :    0.237407
  14 H :    0.240755
  15 F :   -0.089585
  16 O :   -0.398525
  17 C :   -0.122201
  18 H :    0.130934
  19 H :    0.135762
  20 C :   -0.287101
  21 H :    0.145563
  22 H :    0.130730
  23 C :   -0.251144
  24 H :    0.129925
  25 H :    0.094507
  26 O :   -0.518219
  27 H :    0.120102
  28 H :    0.105699
  29 H :    0.141743
  30 H :    0.116213
Sum of atomic charges:    0.0000000

LOEWDIN ATOMIC CHARGES
----------------------
   0 C :   -0.280548
   1 N :    0.119278
   2 C :   -0.274529
   3 C :   -0.366289
   4 H :    0.145031
   5 H :    0.141623
   6 S :    0.569538
   7 C :   -0.466735
   8 N :   -0.020219
   9 C :   -0.373335
  10 H :    0.092377
  11 H :    0.088743
  12 H :    0.164638
  13 H :    0.149075
  14 H :    0.170849
  15 F :    0.112078
  16 O :   -0.243410
  17 C :   -0.266667
  18 H :    0.135998
  19 H :    0.129944
  20 C :   -0.268584
  21 H :    0.147740
  22 H :    0.149669
  23 C :   -0.271281
  24 H :    0.143877
  25 H :    0.133960
  26 O :   -0.315511
  27 H :    0.137144
  28 H :    0.135360
  29 H :    0.138231
  30 H :    0.141955

  Mayer bond orders larger than 0.100000
B(  0-C ,  1-N ) :   0.9563 B(  0-C , 17-C ) :   0.9318 B(  0-C , 18-H ) :   0.9799
B(  0-C , 19-H ) :   0.9912 B(  1-N ,  7-C ) :   1.2073 B(  1-N , 12-H ) :   0.8949
B(  2-C ,  3-C ) :   0.9629 B(  2-C , 20-C ) :   0.9836 B(  2-C , 21-H ) :   0.9713
B(  2-C , 22-H ) :   0.9587 B(  3-C ,  4-H ) :   0.9406 B(  3-C ,  5-H ) :   0.9438
B(  3-C ,  6-S ) :   0.9244 B(  6-S , 15-F ) :   1.1707 B(  6-S , 16-O ) :   1.9395
B(  6-S , 26-O ) :   1.6979 B(  7-C ,  8-N ) :   1.1562 B(  7-C ,  9-C ) :   1.6129
B(  8-N , 13-H ) :   0.8912 B(  8-N , 14-H ) :   0.9249 B(  9-C , 10-H ) :   1.0065
B(  9-C , 11-H ) :   1.0043 B( 17-C , 23-C ) :   0.9857 B( 17-C , 24-H ) :   0.9633
B( 17-C , 25-H ) :   0.9822 B( 20-C , 23-C ) :   0.9315 B( 20-C , 29-H ) :   0.9807
B( 20-C , 30-H ) :   0.9736 B( 23-C , 27-H ) :   0.9725 B( 23-C , 28-H ) :   0.9702

Dispersion correction           -0.016403738
FINAL SINGLE POINT ENERGY     -1073.109510353759

DIPOLE MOMENT
-------------
                                X             Y             Z
Electronic contribution:     -1.12219      -0.20121     -24.62728
Nuclear contribution   :      0.44707       2.53104      23.12246
                        -----------------------------------------
Total Dipole Moment    :     -0.67513       2.32984      -1.50482
                        -----------------------------------------
Magnitude (a.u.)       :      2.85454
Magnitude (Debye)      :      7.25568

Rotational constants in cm-1:     0.028906     0.014696     0.011110
Rotational constants in MHz :   866.591909   440.585554   333.081943

                             ****ORCA TERMINATED NORMALLY****
TOTAL RUN TIME: 0 days 0 hours 1 minutes 17 seconds 448 msec
