                         Program Version 5.0.0 -  RELEASE  -
|  1> !wB97X-D3 RIJCOSX def2-TZVP def2/J TightSCF xyzfile
|  2>
|  3> *xyzfile 0 1 D6.xyz
|  4>
|  5> %MaxCore 64000
|  6>
|  7> %pal nprocs 18
|  8> end
|  9>
| 10> %scf
| 11>   MaxIter 150
| 12> end
| 13>
| 14>
| 15>                          ****END OF INPUT****

CARTESIAN COORDINATES (ANGSTROEM)
---------------------------------
  C      1.963365   -1.749150   -1.896887
  N      2.738490   -2.015170   -3.097113
  C      0.611877    1.657634   -4.500288
  C      1.694991    1.541794   -5.570447
  H      2.697326    1.734659   -5.183996
  H      1.506656    2.272239   -6.358076
  S      1.780287   -0.033128   -6.428739
  C      4.049736   -2.154717   -3.152044
  N      4.658206   -1.986293   -4.318655
  C      4.764231   -2.454435   -2.050491
  H      4.287363   -2.776259   -1.217496
  H      5.750825   -2.658351   -2.125988
  H      2.345176   -1.690274   -3.971447
  H      4.109004   -1.592677   -5.071760
  H      5.649095   -2.156462   -4.427237
  O      2.569287    0.213657   -7.607360
  F      0.416880   -0.462969   -6.618595
  C      2.088520   -0.300912   -1.415204
  H      2.231272   -2.451616   -1.102643
  H      0.930249   -1.977801   -2.155438
  C      0.680356    0.655418   -3.348038
  H     -0.356865    1.549231   -4.991128
  H      0.650228    2.675438   -4.096000
  C      1.968993    0.733582   -2.535654
  H      3.051356   -0.168602   -0.911868
  H      1.316501   -0.136231   -0.657252
  O      2.505129   -0.933263   -5.482570
  H      2.824195    0.624726   -3.208464
  H      2.058919    1.730331   -2.093112
  H      0.542252   -0.344731   -3.766662
  H     -0.174219    0.829692   -2.685182

 Total Charge           Charge          ....    0
 Multiplicity           Mult            ....    1
 Number of Electrons    NEL             ....  120
 Basis Dimension        Dim             ....  542

ORBITAL ENERGIES
----------------

  NO   OCC          E(Eh)            E(eV)
   0   2.0000     -89.225054     -2427.9371
   1   2.0000     -24.933757      -678.4820
   2   2.0000     -19.270441      -524.3754
   3   2.0000     -19.262565      -524.1610
   4   2.0000     -14.388693      -391.5362
   5   2.0000     -14.385821      -391.4581
   6   2.0000     -10.353389      -281.7300
   7   2.0000     -10.318219      -280.7730
   8   2.0000     -10.297528      -280.2100
   9   2.0000     -10.293435      -280.0986
  10   2.0000     -10.293224      -280.0929
  11   2.0000     -10.276913      -279.6490
  12   2.0000     -10.264267      -279.3049
  13   2.0000     -10.159344      -276.4498
  14   2.0000      -8.288640      -225.5454
  15   2.0000      -6.245975      -169.9616
  16   2.0000      -6.239872      -169.7956
  17   2.0000      -6.238984      -169.7714
  18   2.0000      -1.527083       -41.5540
  19   2.0000      -1.250878       -34.0381
  20   2.0000      -1.152513       -31.3615
  21   2.0000      -1.063727       -28.9455
  22   2.0000      -0.979713       -26.6594
  23   2.0000      -0.971142       -26.4261
  24   2.0000      -0.914546       -24.8861
  25   2.0000      -0.873027       -23.7563
  26   2.0000      -0.841797       -22.9064
  27   2.0000      -0.803669       -21.8689
  28   2.0000      -0.792241       -21.5580
  29   2.0000      -0.751305       -20.4440
  30   2.0000      -0.724554       -19.7161
  31   2.0000      -0.720832       -19.6148
  32   2.0000      -0.695166       -18.9164
  33   2.0000      -0.680662       -18.5217
  34   2.0000      -0.641284       -17.4502
  35   2.0000      -0.626986       -17.0612
  36   2.0000      -0.613265       -16.6878
  37   2.0000      -0.610632       -16.6161
  38   2.0000      -0.599720       -16.3192
  39   2.0000      -0.586347       -15.9553
  40   2.0000      -0.566825       -15.4241
  41   2.0000      -0.557787       -15.1782
  42   2.0000      -0.541600       -14.7377
  43   2.0000      -0.532089       -14.4789
  44   2.0000      -0.523792       -14.2531
  45   2.0000      -0.508377       -13.8336
  46   2.0000      -0.492464       -13.4006
  47   2.0000      -0.488037       -13.2802
  48   2.0000      -0.472461       -12.8563
  49   2.0000      -0.465059       -12.6549
  50   2.0000      -0.456834       -12.4311
  51   2.0000      -0.455583       -12.3970
  52   2.0000      -0.443277       -12.0622
  53   2.0000      -0.434964       -11.8360
  54   2.0000      -0.429665       -11.6918
  55   2.0000      -0.424179       -11.5425
  56   2.0000      -0.422066       -11.4850
  57   2.0000      -0.409471       -11.1423
  58   2.0000      -0.316146        -8.6028
  59   2.0000      -0.227195        -6.1823
  60   0.0000       0.073421         1.9979
  61   0.0000       0.101756         2.7689
  62   0.0000       0.117105         3.1866
  63   0.0000       0.120946         3.2911
  64   0.0000       0.124073         3.3762

MULLIKEN ATOMIC CHARGES
-----------------------
   0 C :   -0.208047
   1 N :   -0.292738
   2 C :   -0.210873
   3 C :   -0.307955
   4 H :    0.192650
   5 H :    0.176498
   6 S :    0.916697
   7 C :    0.350768
   8 N :   -0.506230
   9 C :   -0.562952
  10 H :    0.085252
  11 H :    0.080384
  12 H :    0.223829
  13 H :    0.250655
  14 H :    0.242652
  15 O :   -0.402730
  16 F :   -0.089854
  17 C :   -0.126601
  18 H :    0.132328
  19 H :    0.129609
  20 C :   -0.274345
  21 H :    0.136580
  22 H :    0.132151
  23 C :   -0.243812
  24 H :    0.132564
  25 H :    0.094701
  26 O :   -0.518305
  27 H :    0.124594
  28 H :    0.109417
  29 H :    0.113069
  30 H :    0.120049
Sum of atomic charges:   -0.0000000

LOEWDIN ATOMIC CHARGES
----------------------
   0 C :   -0.282023
   1 N :    0.116043
   2 C :   -0.287423
   3 C :   -0.358130
   4 H :    0.155000
   5 H :    0.146654
   6 S :    0.571284
   7 C :   -0.467255
   8 N :   -0.015628
   9 C :   -0.373402
  10 H :    0.092012
  11 H :    0.089145
  12 H :    0.160071
  13 H :    0.154261
  14 H :    0.172308
  15 O :   -0.245462
  16 F :    0.113548
  17 C :   -0.266380
  18 H :    0.136351
  19 H :    0.127862
  20 C :   -0.272437
  21 H :    0.139883
  22 H :    0.149593
  23 C :   -0.269500
  24 H :    0.144890
  25 H :    0.133835
  26 O :   -0.314135
  27 H :    0.139162
  28 H :    0.136740
  29 H :    0.130990
  30 H :    0.142145

  Mayer bond orders larger than 0.100000
B(  0-C ,  1-N ) :   0.9577 B(  0-C , 17-C ) :   0.9306 B(  0-C , 18-H ) :   0.9796
B(  0-C , 19-H ) :   0.9936 B(  1-N ,  7-C ) :   1.2044 B(  1-N , 12-H ) :   0.8975
B(  2-C ,  3-C ) :   0.9574 B(  2-C , 20-C ) :   0.9599 B(  2-C , 21-H ) :   0.9844
B(  2-C , 22-H ) :   0.9582 B(  3-C ,  4-H ) :   0.9401 B(  3-C ,  5-H ) :   0.9497
B(  3-C ,  6-S ) :   0.9186 B(  6-S , 15-O ) :   1.9712 B(  6-S , 16-F ) :   1.1584
B(  6-S , 26-O ) :   1.6903 B(  7-C ,  8-N ) :   1.1628 B(  7-C ,  9-C ) :   1.6111
B(  8-N , 13-H ) :   0.8881 B(  8-N , 14-H ) :   0.9245 B(  9-C , 10-H ) :   1.0056
B(  9-C , 11-H ) :   1.0048 B( 17-C , 23-C ) :   0.9840 B( 17-C , 24-H ) :   0.9621
B( 17-C , 25-H ) :   0.9828 B( 20-C , 23-C ) :   0.9249 B( 20-C , 29-H ) :   0.9920
B( 20-C , 30-H ) :   0.9724 B( 23-C , 27-H ) :   0.9726 B( 23-C , 28-H ) :   0.9692

Dispersion correction           -0.016353093
FINAL SINGLE POINT ENERGY     -1073.109483695540

DIPOLE MOMENT
-------------
                                X             Y             Z
Electronic contribution:     -4.88625      -1.37455     -22.82223
Nuclear contribution   :      2.90585       3.30398      21.99296
                        -----------------------------------------
Total Dipole Moment    :     -1.98040       1.92943      -0.82928
                        -----------------------------------------
Magnitude (a.u.)       :      2.88659
Magnitude (Debye)      :      7.33713

Rotational constants in cm-1:     0.029065     0.014689     0.011200
Rotational constants in MHz :   871.338526   440.374927   335.770911

                             ****ORCA TERMINATED NORMALLY****
TOTAL RUN TIME: 0 days 0 hours 1 minutes 34 seconds 471 msec
