                         Program Version 5.0.0 -  RELEASE  -
|  1> !wB97X-D3 RIJCOSX def2-SVP def2/J TightSCF
|  2> *xyz -1 1
|  3> C         -1.78916       -0.63923        4.55750
|  4> C         -2.79070       -0.78527        5.70281
|  5> H         -2.86731       -1.83565        6.00167
|  6> H         -3.77455       -0.48658        5.33481
|  7> C         -2.45380        0.05510        6.94145
|  8> C         -2.07842        1.48042        6.56410
|  9> H         -1.62558       -0.38216        7.49891
| 10> H         -3.32527        0.08775        7.59917
| 11> O         -0.90125        1.85816        6.82810
| 12> O         -2.93658        2.17731        5.96415
| 13> H         -2.09421       -1.25377        3.73641
| 14> H         -0.81933       -0.94475        4.89064
| 15> H         -1.75281        0.38306        4.24366
| 16> *
| 17> %MaxCore 64000
| 18>
| 19> %pal nprocs 18
| 20> end
| 21>
| 22> %scf
| 23>   MaxIter 150
| 24> end
| 25>
| 26>
| 27>                          ****END OF INPUT****

CARTESIAN COORDINATES (ANGSTROEM)
---------------------------------
  C     -1.789160   -0.639230    4.557500
  C     -2.790700   -0.785270    5.702810
  H     -2.867310   -1.835650    6.001670
  H     -3.774550   -0.486580    5.334810
  C     -2.453800    0.055100    6.941450
  C     -2.078420    1.480420    6.564100
  H     -1.625580   -0.382160    7.498910
  H     -3.325270    0.087750    7.599170
  O     -0.901250    1.858160    6.828100
  O     -2.936580    2.177310    5.964150
  H     -2.094210   -1.253770    3.736410
  H     -0.819330   -0.944750    4.890640
  H     -1.752810    0.383060    4.243660

 Total Charge           Charge          ....   -1
 Multiplicity           Mult            ....    1
 Number of Electrons    NEL             ....   48
 Basis Dimension        Dim             ....  119

ORBITAL ENERGIES
----------------

  NO   OCC          E(Eh)            E(eV)
   0   2.0000     -18.942693      -515.4569
   1   2.0000     -18.941015      -515.4112
   2   2.0000     -10.146442      -276.0987
   3   2.0000     -10.133772      -275.7540
   4   2.0000     -10.126147      -275.5465
   5   2.0000     -10.100095      -274.8376
   6   2.0000      -0.893736       -24.3198
   7   2.0000      -0.795771       -21.6540
   8   2.0000      -0.738767       -20.1029
   9   2.0000      -0.639111       -17.3911
  10   2.0000      -0.540478       -14.7072
  11   2.0000      -0.418046       -11.3756
  12   2.0000      -0.397095       -10.8055
  13   2.0000      -0.374713       -10.1965
  14   2.0000      -0.340675        -9.2702
  15   2.0000      -0.310671        -8.4538
  16   2.0000      -0.294226        -8.0063
  17   2.0000      -0.287241        -7.8162
  18   2.0000      -0.274697        -7.4749
  19   2.0000      -0.248235        -6.7548
  20   2.0000      -0.236892        -6.4462
  21   2.0000      -0.109000        -2.9660
  22   2.0000      -0.107515        -2.9256
  23   2.0000      -0.091203        -2.4818
  24   0.0000       0.285569         7.7707
  25   0.0000       0.328799         8.9471
  26   0.0000       0.337179         9.1751
  27   0.0000       0.356043         9.6884
  28   0.0000       0.362911         9.8753

MULLIKEN ATOMIC CHARGES
-----------------------
   0 C :   -0.002920
   1 C :   -0.088132
   2 H :   -0.033253
   3 H :    0.002199
   4 C :    0.027933
   5 C :    0.039232
   6 H :   -0.035643
   7 H :   -0.025359
   8 O :   -0.454377
   9 O :   -0.455948
  10 H :   -0.027702
  11 H :   -0.000750
  12 H :    0.054721
Sum of atomic charges:   -1.0000000

LOEWDIN ATOMIC CHARGES
----------------------
   0 C :   -0.061570
   1 C :   -0.043793
   2 H :   -0.004771
   3 H :    0.012168
   4 C :   -0.090533
   5 C :   -0.040683
   6 H :   -0.000336
   7 H :    0.007371
   8 O :   -0.409412
   9 O :   -0.412613
  10 H :   -0.000162
  11 H :    0.012615
  12 H :    0.031719

  Mayer bond orders larger than 0.100000
B(  0-C ,  1-C ) :   1.0943 B(  0-C , 10-H ) :   0.9685 B(  0-C , 11-H ) :   0.9721
B(  0-C , 12-H ) :   0.9615 B(  1-C ,  2-H ) :   0.9558 B(  1-C ,  3-H ) :   0.9485
B(  1-C ,  4-C ) :   1.0682 B(  4-C ,  5-C ) :   0.9263 B(  4-C ,  6-H ) :   0.9366
B(  4-C ,  7-H ) :   0.9354 B(  5-C ,  8-O ) :   1.8505 B(  5-C ,  9-O ) :   1.8216
B(  8-O ,  9-O ) :   0.1072

Dispersion correction           -0.003483604
FINAL SINGLE POINT ENERGY      -306.821049761393

DIPOLE MOMENT
-------------
                                X             Y             Z
Electronic contribution:      0.68591       6.56748       2.64839
Nuclear contribution   :     -1.12936      -8.75108      -3.05770
                        -----------------------------------------
Total Dipole Moment    :     -0.44345      -2.18359      -0.40931
                        -----------------------------------------
Magnitude (a.u.)       :      2.26545
Magnitude (Debye)      :      5.75832

Rotational constants in cm-1:     0.189092     0.083831     0.082013
Rotational constants in MHz :  5668.846461  2513.177001  2458.689996

                             ****ORCA TERMINATED NORMALLY****
TOTAL RUN TIME: 0 days 0 hours 0 minutes 9 seconds 278 msec
