                         Program Version 5.0.0 -  RELEASE  -
|  1> !wB97X-D3 RIJCOSX def2-SVP def2/J TightSCF
|  2> *xyz 1 1
|  3> C         -0.69912        3.48945        3.75516
|  4> H         -0.96672        4.34901        3.14049
|  5> N         -1.08067        3.79296        5.15686
|  6> C          0.77696        3.13839        3.61741
|  7> H         -1.33146        2.65651        3.44632
|  8> H          1.37140        3.88834        4.14974
|  9> H          1.04693        3.23206        2.56133
| 10> C          1.11892        1.73117        4.11516
| 11> H         -0.87449        4.76274        5.42734
| 12> H         -0.68079        3.13476        5.83900
| 13> H         -2.05755        3.53169        5.34620
| 14> H          0.52974        1.01235        3.58499
| 15> H          0.90870        1.66226        5.16204
| 16> H          2.15725        1.53562        3.94624
| 17> *
| 18> %MaxCore 64000
| 19>
| 20> %pal nprocs 18
| 21> end
| 22>
| 23> %scf
| 24>   MaxIter 150
| 25> end
| 26>
| 27>
| 28>                          ****END OF INPUT****

CARTESIAN COORDINATES (ANGSTROEM)
---------------------------------
  C     -0.699120    3.489450    3.755160
  H     -0.966720    4.349010    3.140490
  N     -1.080670    3.792960    5.156860
  C      0.776960    3.138390    3.617410
  H     -1.331460    2.656510    3.446320
  H      1.371400    3.888340    4.149740
  H      1.046930    3.232060    2.561330
  C      1.118920    1.731170    4.115160
  H     -0.874490    4.762740    5.427340
  H     -0.680790    3.134760    5.839000
  H     -2.057550    3.531690    5.346200
  H      0.529740    1.012350    3.584990
  H      0.908700    1.662260    5.162040
  H      2.157250    1.535620    3.946240

 Total Charge           Charge          ....    1
 Multiplicity           Mult            ....    1
 Number of Electrons    NEL             ....   34
 Basis Dimension        Dim             ....  106

ORBITAL ENERGIES
----------------

  NO   OCC          E(Eh)            E(eV)
   0   2.0000     -14.772429      -401.9782
   1   2.0000     -10.536616      -286.7159
   2   2.0000     -10.465893      -284.7914
   3   2.0000     -10.432355      -283.8788
   4   2.0000      -1.325102       -36.0579
   5   2.0000      -1.084912       -29.5220
   6   2.0000      -0.992504       -27.0074
   7   2.0000      -0.918810       -25.0021
   8   2.0000      -0.892120       -24.2758
   9   2.0000      -0.865392       -23.5485
  10   2.0000      -0.795105       -21.6359
  11   2.0000      -0.730479       -19.8774
  12   2.0000      -0.705427       -19.1956
  13   2.0000      -0.681628       -18.5480
  14   2.0000      -0.618478       -16.8296
  15   2.0000      -0.612755       -16.6739
  16   2.0000      -0.606635       -16.5074
  17   0.0000      -0.092695        -2.5224
  18   0.0000      -0.035979        -0.9790
  19   0.0000      -0.033175        -0.9027
  20   0.0000       0.001624         0.0442
  21   0.0000       0.032057         0.8723

MULLIKEN ATOMIC CHARGES
-----------------------
   0 C :   -0.015713
   1 H :    0.116222
   2 N :   -0.015372
   3 C :   -0.144701
   4 H :    0.100403
   5 H :    0.067152
   6 H :    0.103110
   7 C :   -0.037548
   8 H :    0.233106
   9 H :    0.202151
  10 H :    0.217556
  11 H :    0.062986
  12 H :    0.018768
  13 H :    0.091881
Sum of atomic charges:    1.0000000

LOEWDIN ATOMIC CHARGES
----------------------
   0 C :    0.050708
   1 H :    0.057580
   2 N :    0.288369
   3 C :   -0.048722
   4 H :    0.051370
   5 H :    0.037668
   6 H :    0.060657
   7 C :   -0.045718
   8 H :    0.149601
   9 H :    0.141644
  10 H :    0.151040
  11 H :    0.037182
  12 H :    0.015821
  13 H :    0.052799

  Mayer bond orders larger than 0.100000
B(  0-C ,  1-H ) :   0.9539 B(  0-C ,  2-N ) :   0.9098 B(  0-C ,  3-C ) :   1.0544
B(  0-C ,  4-H ) :   0.9563 B(  2-N ,  8-H ) :   0.9272 B(  2-N ,  9-H ) :   0.9290
B(  2-N , 10-H ) :   0.9301 B(  3-C ,  5-H ) :   0.9555 B(  3-C ,  6-H ) :   0.9429
B(  3-C ,  7-C ) :   1.0635 B(  7-C , 11-H ) :   0.9755 B(  7-C , 12-H ) :   0.9736
B(  7-C , 13-H ) :   0.9662

Dispersion correction           -0.002828484
FINAL SINGLE POINT ENERGY      -174.674226164078

DIPOLE MOMENT
-------------
                                X             Y             Z
Electronic contribution:     -1.72819       1.70444       0.78019
Nuclear contribution   :      0.19356      -0.71099       0.46987
                        -----------------------------------------
Total Dipole Moment    :     -1.53463       0.99345       1.25005
                        -----------------------------------------
Magnitude (a.u.)       :      2.21465
Magnitude (Debye)      :      5.62919

Rotational constants in cm-1:     0.465349     0.150671     0.132807
Rotational constants in MHz : 13950.800968  4516.999758  3981.442177

                             ****ORCA TERMINATED NORMALLY****
TOTAL RUN TIME: 0 days 0 hours 0 minutes 6 seconds 862 msec
