                         Program Version 5.0.0 -  RELEASE  -
|  1> !wB97X-D3 RIJCOSX def2-SVP def2/J TightSCF
|  2> *xyz 0 1
|  3> C         -1.78916       -0.63923        4.55750
|  4> C         -2.79070       -0.78527        5.70281
|  5> H         -2.86731       -1.83565        6.00167
|  6> H         -3.77455       -0.48658        5.33481
|  7> C         -2.45380        0.05510        6.94145
|  8> C         -2.07842        1.48042        6.56410
|  9> H         -1.62558       -0.38216        7.49891
| 10> H         -3.32527        0.08775        7.59917
| 11> F         -0.90125        1.85816        6.82810
| 12> O         -2.93658        2.17731        5.96415
| 13> H         -2.09421       -1.25377        3.73641
| 14> H         -0.81933       -0.94475        4.89064
| 15> H         -1.75281        0.38306        4.24366
| 16> *
| 17> %MaxCore 64000
| 18>
| 19> %pal nprocs 18
| 20> end
| 21>
| 22> %scf
| 23>   MaxIter 150
| 24> end
| 25>
| 26>
| 27>                          ****END OF INPUT****

CARTESIAN COORDINATES (ANGSTROEM)
---------------------------------
  C     -1.789160   -0.639230    4.557500
  C     -2.790700   -0.785270    5.702810
  H     -2.867310   -1.835650    6.001670
  H     -3.774550   -0.486580    5.334810
  C     -2.453800    0.055100    6.941450
  C     -2.078420    1.480420    6.564100
  H     -1.625580   -0.382160    7.498910
  H     -3.325270    0.087750    7.599170
  F     -0.901250    1.858160    6.828100
  O     -2.936580    2.177310    5.964150
  H     -2.094210   -1.253770    3.736410
  H     -0.819330   -0.944750    4.890640
  H     -1.752810    0.383060    4.243660

 Total Charge           Charge          ....    0
 Multiplicity           Mult            ....    1
 Number of Electrons    NEL             ....   48
 Basis Dimension        Dim             ....  119

ORBITAL ENERGIES
----------------

  NO   OCC          E(Eh)            E(eV)
   0   2.0000     -24.855294      -676.3469
   1   2.0000     -19.240639      -523.5644
   2   2.0000     -10.462762      -284.7062
   3   2.0000     -10.315729      -280.7052
   4   2.0000     -10.303508      -280.3727
   5   2.0000     -10.282456      -279.7998
   6   2.0000      -1.407416       -38.2977
   7   2.0000      -1.131271       -30.7835
   8   2.0000      -0.925225       -25.1766
   9   2.0000      -0.836762       -22.7695
  10   2.0000      -0.761375       -20.7181
  11   2.0000      -0.713639       -19.4191
  12   2.0000      -0.645919       -17.5764
  13   2.0000      -0.628517       -17.1028
  14   2.0000      -0.607724       -16.5370
  15   2.0000      -0.565094       -15.3770
  16   2.0000      -0.553551       -15.0629
  17   2.0000      -0.515793       -14.0354
  18   2.0000      -0.497624       -13.5410
  19   2.0000      -0.465887       -12.6774
  20   2.0000      -0.452086       -12.3019
  21   2.0000      -0.440613       -11.9897
  22   2.0000      -0.434695       -11.8287
  23   2.0000      -0.383305       -10.4303
  24   0.0000       0.061349         1.6694
  25   0.0000       0.141957         3.8628
  26   0.0000       0.179597         4.8871
  27   0.0000       0.186413         5.0726
  28   0.0000       0.202177         5.5015

MULLIKEN ATOMIC CHARGES
-----------------------
   0 C :   -0.042893
   1 C :   -0.105668
   2 H :    0.040638
   3 H :    0.053167
   4 C :   -0.058401
   5 C :    0.244078
   6 H :    0.040661
   7 H :    0.076371
   8 F :   -0.091837
   9 O :   -0.273595
  10 H :    0.038922
  11 H :    0.027103
  12 H :    0.051454
Sum of atomic charges:    0.0000000

LOEWDIN ATOMIC CHARGES
----------------------
   0 C :   -0.058417
   1 C :   -0.031367
   2 H :    0.028722
   3 H :    0.032214
   4 C :   -0.072586
   5 C :    0.118443
   6 H :    0.029191
   7 H :    0.053744
   8 F :    0.031094
   9 O :   -0.207811
  10 H :    0.029706
  11 H :    0.021336
  12 H :    0.025731

  Mayer bond orders larger than 0.100000
B(  0-C ,  1-C ) :   1.0906 B(  0-C , 10-H ) :   0.9707 B(  0-C , 11-H ) :   0.9760
B(  0-C , 12-H ) :   0.9635 B(  1-C ,  2-H ) :   0.9596 B(  1-C ,  3-H ) :   0.9534
B(  1-C ,  4-C ) :   1.0616 B(  4-C ,  5-C ) :   0.9880 B(  4-C ,  6-H ) :   0.9400
B(  4-C ,  7-H ) :   0.9342 B(  5-C ,  8-F ) :   1.1816 B(  5-C ,  9-O ) :   2.0600

Dispersion correction           -0.003394302
FINAL SINGLE POINT ENERGY      -331.374019169089

DIPOLE MOMENT
-------------
                                X             Y             Z
Electronic contribution:      2.81077       9.02870       4.26596
Nuclear contribution   :     -2.53960     -10.05333      -3.90042
                        -----------------------------------------
Total Dipole Moment    :      0.27117      -1.02463       0.36554
                        -----------------------------------------
Magnitude (a.u.)       :      1.12117
Magnitude (Debye)      :      2.84979

Rotational constants in cm-1:     0.183043     0.080991     0.078218
Rotational constants in MHz :  5487.486217  2428.040459  2344.904824

                             ****ORCA TERMINATED NORMALLY****
TOTAL RUN TIME: 0 days 0 hours 0 minutes 7 seconds 881 msec
