                         Program Version 5.0.0 -  RELEASE  -
|  1> !wB97X-D3 RIJCOSX def2-SVP def2/J TightSCF
|  2> *xyz 0 1
|  3> C         -0.69912        3.48945        3.75516
|  4> H         -0.96672        4.34901        3.14049
|  5> C         -1.08067        3.79296        5.15686
|  6> C          0.77696        3.13839        3.61741
|  7> H         -1.33146        2.65651        3.44632
|  8> H          1.37140        3.88834        4.14974
|  9> H          1.04693        3.23206        2.56133
| 10> C          1.11892        1.73117        4.11516
| 11> H         -0.87449        4.76274        5.42734
| 12> H         -0.68079        3.13476        5.83900
| 13> H         -2.05755        3.53169        5.34620
| 14> H          0.52974        1.01235        3.58499
| 15> H          0.90870        1.66226        5.16204
| 16> H          2.15725        1.53562        3.94624
| 17> *
| 18> %MaxCore 64000
| 19>
| 20> %pal nprocs 18
| 21> end
| 22>
| 23> %scf
| 24>   MaxIter 150
| 25> end
| 26>
| 27>
| 28>                          ****END OF INPUT****

CARTESIAN COORDINATES (ANGSTROEM)
---------------------------------
  C     -0.699120    3.489450    3.755160
  H     -0.966720    4.349010    3.140490
  C     -1.080670    3.792960    5.156860
  C      0.776960    3.138390    3.617410
  H     -1.331460    2.656510    3.446320
  H      1.371400    3.888340    4.149740
  H      1.046930    3.232060    2.561330
  C      1.118920    1.731170    4.115160
  H     -0.874490    4.762740    5.427340
  H     -0.680790    3.134760    5.839000
  H     -2.057550    3.531690    5.346200
  H      0.529740    1.012350    3.584990
  H      0.908700    1.662260    5.162040
  H      2.157250    1.535620    3.946240

 Total Charge           Charge          ....    0
 Multiplicity           Mult            ....    1
 Number of Electrons    NEL             ....   34
 Basis Dimension        Dim             ....  106

ORBITAL ENERGIES
----------------

  NO   OCC          E(Eh)            E(eV)
   0   2.0000     -10.276798      -279.6459
   1   2.0000     -10.272633      -279.5326
   2   2.0000     -10.268624      -279.4235
   3   2.0000     -10.249210      -278.8952
   4   2.0000      -0.911553       -24.8046
   5   2.0000      -0.837263       -22.7831
   6   2.0000      -0.749512       -20.3952
   7   2.0000      -0.672560       -18.3013
   8   2.0000      -0.568461       -15.4686
   9   2.0000      -0.559333       -15.2202
  10   2.0000      -0.526220       -14.3192
  11   2.0000      -0.483426       -13.1547
  12   2.0000      -0.474147       -12.9022
  13   2.0000      -0.458692       -12.4817
  14   2.0000      -0.415879       -11.3166
  15   2.0000      -0.413052       -11.2397
  16   2.0000      -0.408089       -11.1047
  17   0.0000       0.147560         4.0153
  18   0.0000       0.183544         4.9945
  19   0.0000       0.189481         5.1560
  20   0.0000       0.190335         5.1793
  21   0.0000       0.223482         6.0813

MULLIKEN ATOMIC CHARGES
-----------------------
   0 C :   -0.081928
   1 H :    0.023158
   2 C :    0.044396
   3 C :   -0.087763
   4 H :    0.013849
   5 H :    0.020442
   6 H :    0.020706
   7 C :   -0.018726
   8 H :    0.016262
   9 H :   -0.016861
  10 H :   -0.005811
  11 H :    0.022308
  12 H :    0.021761
  13 H :    0.028206
Sum of atomic charges:   -0.0000000

LOEWDIN ATOMIC CHARGES
----------------------
   0 C :   -0.043116
   1 H :    0.022859
   2 C :   -0.053336
   3 C :   -0.044207
   4 H :    0.019982
   5 H :    0.020051
   6 H :    0.019958
   7 C :   -0.055037
   8 H :    0.015507
   9 H :    0.014499
  10 H :    0.019856
  11 H :    0.020834
  12 H :    0.018434
  13 H :    0.023716

  Mayer bond orders larger than 0.100000
B(  0-C ,  1-H ) :   0.9578 B(  0-C ,  2-C ) :   1.0894 B(  0-C ,  3-C ) :   1.0687
B(  0-C ,  4-H ) :   0.9606 B(  2-C ,  8-H ) :   0.9732 B(  2-C ,  9-H ) :   0.9627
B(  2-C , 10-H ) :   0.9599 B(  3-C ,  5-H ) :   0.9594 B(  3-C ,  6-H ) :   0.9576
B(  3-C ,  7-C ) :   1.0792 B(  7-C , 11-H ) :   0.9755 B(  7-C , 12-H ) :   0.9757
B(  7-C , 13-H ) :   0.9728

Dispersion correction           -0.002731080
FINAL SINGLE POINT ENERGY      -158.277886985320

DIPOLE MOMENT
-------------
                                X             Y             Z
Electronic contribution:      0.12594       0.45948      -0.74666
Nuclear contribution   :     -0.14518      -0.47660       0.76944
                        -----------------------------------------
Total Dipole Moment    :     -0.01925      -0.01712       0.02277
                        -----------------------------------------
Magnitude (a.u.)       :      0.03438
Magnitude (Debye)      :      0.08739

Rotational constants in cm-1:     0.472466     0.157481     0.138592
Rotational constants in MHz : 14164.171374  4721.163669  4154.874787

                             ****ORCA TERMINATED NORMALLY****
TOTAL RUN TIME: 0 days 0 hours 0 minutes 5 seconds 526 msec
