                         Program Version 5.0.0 -  RELEASE  -
|  1> !wB97X-D3 RIJCOSX def2-SVP def2/J TightSCF
|  2> *xyz 0 1
|  3> C         -1.78916       -0.63923        4.55750
|  4> C         -2.79070       -0.78527        5.70281
|  5> H         -2.86731       -1.83565        6.00167
|  6> H         -3.77455       -0.48658        5.33481
|  7> C         -2.45380        0.05510        6.94145
|  8> C         -2.07842        1.48042        6.56410
|  9> H         -1.62558       -0.38216        7.49891
| 10> H         -3.32527        0.08775        7.59917
| 11> O         -0.90125        1.85816        6.82810
| 12> F         -2.93658        2.17731        5.96415
| 13> H         -2.09421       -1.25377        3.73641
| 14> H         -0.81933       -0.94475        4.89064
| 15> H         -1.75281        0.38306        4.24366
| 16> *
| 17> %MaxCore 64000
| 18>
| 19> %pal nprocs 18
| 20> end
| 21>
| 22> %scf
| 23>   MaxIter 150
| 24> end
| 25>
| 26>
| 27>                          ****END OF INPUT****

CARTESIAN COORDINATES (ANGSTROEM)
---------------------------------
  C     -1.789160   -0.639230    4.557500
  C     -2.790700   -0.785270    5.702810
  H     -2.867310   -1.835650    6.001670
  H     -3.774550   -0.486580    5.334810
  C     -2.453800    0.055100    6.941450
  C     -2.078420    1.480420    6.564100
  H     -1.625580   -0.382160    7.498910
  H     -3.325270    0.087750    7.599170
  O     -0.901250    1.858160    6.828100
  F     -2.936580    2.177310    5.964150
  H     -2.094210   -1.253770    3.736410
  H     -0.819330   -0.944750    4.890640
  H     -1.752810    0.383060    4.243660

 Total Charge           Charge          ....    0
 Multiplicity           Mult            ....    1
 Number of Electrons    NEL             ....   48
 Basis Dimension        Dim             ....  119

ORBITAL ENERGIES
----------------

  NO   OCC          E(Eh)            E(eV)
   0   2.0000     -24.859295      -676.4558
   1   2.0000     -19.238532      -523.5071
   2   2.0000     -10.461935      -284.6837
   3   2.0000     -10.314738      -280.6783
   4   2.0000     -10.306815      -280.4627
   5   2.0000     -10.284627      -279.8589
   6   2.0000      -1.413404       -38.4607
   7   2.0000      -1.125751       -30.6332
   8   2.0000      -0.928330       -25.2612
   9   2.0000      -0.836511       -22.7626
  10   2.0000      -0.761770       -20.7288
  11   2.0000      -0.718997       -19.5649
  12   2.0000      -0.651352       -17.7242
  13   2.0000      -0.638698       -17.3799
  14   2.0000      -0.590675       -16.0731
  15   2.0000      -0.574014       -15.6197
  16   2.0000      -0.555411       -15.1135
  17   2.0000      -0.514504       -14.0004
  18   2.0000      -0.495086       -13.4720
  19   2.0000      -0.467295       -12.7157
  20   2.0000      -0.459340       -12.4993
  21   2.0000      -0.443271       -12.0620
  22   2.0000      -0.434914       -11.8346
  23   2.0000      -0.376610       -10.2481
  24   0.0000       0.065653         1.7865
  25   0.0000       0.138027         3.7559
  26   0.0000       0.179846         4.8939
  27   0.0000       0.184598         5.0232
  28   0.0000       0.202082         5.4989

MULLIKEN ATOMIC CHARGES
-----------------------
   0 C :   -0.027272
   1 C :   -0.137870
   2 H :    0.045723
   3 H :    0.040987
   4 C :   -0.045214
   5 C :    0.237371
   6 H :    0.066268
   7 H :    0.060212
   8 O :   -0.274342
   9 F :   -0.086700
  10 H :    0.038180
  11 H :    0.039009
  12 H :    0.043648
Sum of atomic charges:   -0.0000000

LOEWDIN ATOMIC CHARGES
----------------------
   0 C :   -0.055435
   1 C :   -0.041508
   2 H :    0.030754
   3 H :    0.025151
   4 C :   -0.068441
   5 C :    0.113945
   6 H :    0.045793
   7 H :    0.042236
   8 O :   -0.208835
   9 F :    0.036946
  10 H :    0.028601
  11 H :    0.027699
  12 H :    0.023094

  Mayer bond orders larger than 0.100000
B(  0-C ,  1-C ) :   1.0860 B(  0-C , 10-H ) :   0.9711 B(  0-C , 11-H ) :   0.9751
B(  0-C , 12-H ) :   0.9630 B(  1-C ,  2-H ) :   0.9583 B(  1-C ,  3-H ) :   0.9566
B(  1-C ,  4-C ) :   1.0466 B(  4-C ,  5-C ) :   0.9987 B(  4-C ,  6-H ) :   0.9484
B(  4-C ,  7-H ) :   0.9358 B(  5-C ,  8-O ) :   2.0713 B(  5-C ,  9-F ) :   1.1767

Dispersion correction           -0.003400970
FINAL SINGLE POINT ENERGY      -331.371453001710

DIPOLE MOMENT
-------------
                                X             Y             Z
Electronic contribution:     -0.59489       9.54939       2.80635
Nuclear contribution   :     -0.24054     -10.41383      -2.92452
                        -----------------------------------------
Total Dipole Moment    :     -0.83543      -0.86445      -0.11817
                        -----------------------------------------
Magnitude (a.u.)       :      1.20797
Magnitude (Debye)      :      3.07041

Rotational constants in cm-1:     0.180403     0.081943     0.079197
Rotational constants in MHz :  5408.335479  2456.587956  2374.272438

                             ****ORCA TERMINATED NORMALLY****
TOTAL RUN TIME: 0 days 0 hours 0 minutes 7 seconds 121 msec
