                         Program Version 5.0.0 -  RELEASE  -
|  1> !wB97X-D3 RIJCOSX def2-TZVPD def2/J TightSCF
|  2> *xyz -1 1
|  3> C         -0.95121        1.33498       -0.97250
|  4> C         -0.77455        2.78833       -0.54394
|  5> H         -1.35261        3.45937       -1.19259
|  6> H         -1.17101        2.90233        0.46997
|  7> C          0.69721        3.22791       -0.52513
|  8> O          1.48929        2.37470        0.19919
|  9> H          0.71600        4.26403       -0.13077
| 10> H          1.03615        3.33092       -1.58367
| 11> H         -0.56808        1.20618       -1.96322
| 12> H         -1.99081        1.08225       -0.95647
| 13> H         -0.41866        0.69710       -0.29841
| 14> *
| 15>
| 16> %MaxCore 64000
| 17> %pal nprocs 18
| 18> end
| 19>
| 20> %scf
| 21>   MaxIter 150
| 22> end
| 23>
| 24>
| 25>                          ****END OF INPUT****

CARTESIAN COORDINATES (ANGSTROEM)
---------------------------------
  C     -0.951210    1.334980   -0.972500
  C     -0.774550    2.788330   -0.543940
  H     -1.352610    3.459370   -1.192590
  H     -1.171010    2.902330    0.469970
  C      0.697210    3.227910   -0.525130
  O      1.489290    2.374700    0.199190
  H      0.716000    4.264030   -0.130770
  H      1.036150    3.330920   -1.583670
  H     -0.568080    1.206180   -1.963220
  H     -1.990810    1.082250   -0.956470
  H     -0.418660    0.697100   -0.298410

 Total Charge           Charge          ....   -1
 Multiplicity           Mult            ....    1
 Number of Electrons    NEL             ....   34
 Basis Dimension        Dim             ....  214

ORBITAL ENERGIES
----------------

  NO   OCC          E(Eh)            E(eV)
   0   2.0000     -18.897265      -514.2207
   1   2.0000     -10.089593      -274.5518
   2   2.0000     -10.086577      -274.4697
   3   2.0000     -10.082003      -274.3452
   4   2.0000      -0.798935       -21.7401
   5   2.0000      -0.697466       -18.9790
   6   2.0000      -0.580041       -15.7837
   7   2.0000      -0.472249       -12.8506
   8   2.0000      -0.375576       -10.2200
   9   2.0000      -0.365329        -9.9411
  10   2.0000      -0.313530        -8.5316
  11   2.0000      -0.283792        -7.7224
  12   2.0000      -0.254398        -6.9225
  13   2.0000      -0.243457        -6.6248
  14   2.0000      -0.206428        -5.6172
  15   2.0000      -0.064776        -1.7626
  16   2.0000      -0.061981        -1.6866
  17   0.0000       0.202018         5.4972
  18   0.0000       0.219158         5.9636
  19   0.0000       0.230670         6.2769
  20   0.0000       0.252073         6.8592
  21   0.0000       0.274257         7.4629

MULLIKEN ATOMIC CHARGES
-----------------------
   0 C :   -1.110420
   1 C :   -0.130824
   2 H :    0.246616
   3 H :    0.251353
   4 C :   -0.483476
   5 O :   -0.923591
   6 H :    0.153290
   7 H :    0.166253
   8 H :    0.277833
   9 H :    0.297897
  10 H :    0.255071
Sum of atomic charges:   -1.0000000

LOEWDIN ATOMIC CHARGES
----------------------
   0 C :   -0.154283
   1 C :   -0.303547
   2 H :    0.078610
   3 H :    0.085628
   4 C :   -0.569676
   5 O :   -0.404593
   6 H :    0.060367
   7 H :    0.066660
   8 H :    0.053162
   9 H :    0.038190
  10 H :    0.049481

  Mayer bond orders larger than 0.100000
B(  0-C ,  1-C ) :   0.6425 B(  0-C ,  4-C ) :   0.1992 B(  0-C ,  8-H ) :   0.9566
B(  0-C ,  9-H ) :   0.9286 B(  0-C , 10-H ) :   1.0492 B(  1-C ,  2-H ) :   1.0054
B(  1-C ,  3-H ) :   0.9649 B(  1-C ,  4-C ) :   0.8042 B(  4-C ,  5-O ) :   1.1091
B(  4-C ,  6-H ) :   1.0810 B(  4-C ,  7-H ) :   1.0505

Dispersion correction           -0.001936047
FINAL SINGLE POINT ENERGY      -193.759947119963

DIPOLE MOMENT
-------------
                                X             Y             Z
Electronic contribution:      2.49571       0.02434       1.43573
Nuclear contribution   :     -4.35230      -0.04018      -2.29108
                        -----------------------------------------
Total Dipole Moment    :     -1.85659      -0.01585      -0.85535
                        -----------------------------------------
Magnitude (a.u.)       :      2.04422
Magnitude (Debye)      :      5.19598

Rotational constants in cm-1:     0.489965     0.184028     0.151025
Rotational constants in MHz : 14688.769521  5517.006179  4527.605157

                             ****ORCA TERMINATED NORMALLY****
TOTAL RUN TIME: 0 days 0 hours 0 minutes 19 seconds 343 msec
