                         Program Version 5.0.0 -  RELEASE  -
|  1> !wB97X-D3 RIJCOSX def2-TZVPD def2/J TightSCF
|  2> *xyz 1 1
|  3> C          3.95643        0.50147       -0.37910
|  4> H          3.16840        0.02920        0.20738
|  5> N          3.80389        1.96157       -0.15675
|  6> C          3.84232        0.14849       -1.85406
|  7> H          4.92323        0.17798        0.00937
|  8> H          4.62002        0.69450       -2.40215
|  9> H          4.09601       -0.91093       -1.95510
| 10> C          2.47562        0.41271       -2.48538
| 11> H          4.20643        2.24441        0.74536
| 12> H          2.80827        2.21132       -0.09610
| 13> H          4.28076        2.50155       -0.89104
| 14> H          2.49958        0.13290       -3.51787
| 15> H          2.23992        1.45318       -2.40319
| 16> H          1.73061       -0.16300       -1.97702
| 17> *
| 18>
| 19> %MaxCore 64000
| 20> %pal nprocs 18
| 21> end
| 22>
| 23> %scf
| 24>   MaxIter 150
| 25> end
| 26>
| 27>
| 28>                          ****END OF INPUT****

CARTESIAN COORDINATES (ANGSTROEM)
---------------------------------
  C      3.956430    0.501470   -0.379100
  H      3.168400    0.029200    0.207380
  N      3.803890    1.961570   -0.156750
  C      3.842320    0.148490   -1.854060
  H      4.923230    0.177980    0.009370
  H      4.620020    0.694500   -2.402150
  H      4.096010   -0.910930   -1.955100
  C      2.475620    0.412710   -2.485380
  H      4.206430    2.244410    0.745360
  H      2.808270    2.211320   -0.096100
  H      4.280760    2.501550   -0.891040
  H      2.499580    0.132900   -3.517870
  H      2.239920    1.453180   -2.403190
  H      1.730610   -0.163000   -1.977020

 Total Charge           Charge          ....    1
 Multiplicity           Mult            ....    1
 Number of Electrons    NEL             ....   34
 Basis Dimension        Dim             ....  238

ORBITAL ENERGIES
----------------

  NO   OCC          E(Eh)            E(eV)
   0   2.0000     -14.752718      -401.4419
   1   2.0000     -10.521480      -286.3040
   2   2.0000     -10.452641      -284.4308
   3   2.0000     -10.416713      -283.4532
   4   2.0000      -1.329110       -36.1669
   5   2.0000      -1.089576       -29.6489
   6   2.0000      -0.996149       -27.1066
   7   2.0000      -0.912473       -24.8296
   8   2.0000      -0.890916       -24.2430
   9   2.0000      -0.875708       -23.8292
  10   2.0000      -0.788878       -21.4664
  11   2.0000      -0.730681       -19.8828
  12   2.0000      -0.706810       -19.2333
  13   2.0000      -0.683097       -18.5880
  14   2.0000      -0.619191       -16.8490
  15   2.0000      -0.613676       -16.6990
  16   2.0000      -0.606801       -16.5119
  17   0.0000      -0.117922        -3.2088
  18   0.0000      -0.065224        -1.7748
  19   0.0000      -0.064193        -1.7468
  20   0.0000      -0.053670        -1.4604
  21   0.0000      -0.028767        -0.7828

MULLIKEN ATOMIC CHARGES
-----------------------
   0 C :   -0.618033
   1 H :    0.345075
   2 N :   -0.295422
   3 C :   -0.249585
   4 H :    0.314395
   5 H :    0.325975
   6 H :    0.291735
   7 C :   -1.246757
   8 H :    0.364540
   9 H :    0.388172
  10 H :    0.354161
  11 H :    0.327695
  12 H :    0.340216
  13 H :    0.357833
Sum of atomic charges:    1.0000000

LOEWDIN ATOMIC CHARGES
----------------------
   0 C :   -0.167640
   1 H :    0.140191
   2 N :    0.186350
   3 C :   -0.235718
   4 H :    0.138681
   5 H :    0.120161
   6 H :    0.128133
   7 C :   -0.083546
   8 H :    0.181579
   9 H :    0.180014
  10 H :    0.182834
  11 H :    0.084399
  12 H :    0.063339
  13 H :    0.081223

  Mayer bond orders larger than 0.100000
B(  0-C ,  1-H ) :   0.9140 B(  0-C ,  2-N ) :   1.0181 B(  0-C ,  3-C ) :   0.8121
B(  0-C ,  4-H ) :   0.9261 B(  0-C ,  7-C ) :   0.1238 B(  2-N ,  8-H ) :   0.8543
B(  2-N ,  9-H ) :   0.8215 B(  2-N , 10-H ) :   0.8537 B(  3-C ,  5-H ) :   0.9083
B(  3-C ,  6-H ) :   0.9778 B(  3-C ,  7-C ) :   0.6553 B(  7-C , 11-H ) :   0.9775
B(  7-C , 12-H ) :   0.9041 B(  7-C , 13-H ) :   0.9700

Dispersion correction           -0.002857464
FINAL SINGLE POINT ENERGY      -174.870327804754

DIPOLE MOMENT
-------------
                                X             Y             Z
Electronic contribution:      1.01389       1.16951       1.82932
Nuclear contribution   :     -0.57302       0.26376      -0.39709
                        -----------------------------------------
Total Dipole Moment    :      0.44087       1.43327       1.43223
                        -----------------------------------------
Magnitude (a.u.)       :      2.07362
Magnitude (Debye)      :      5.27072

Rotational constants in cm-1:     0.449370     0.157244     0.134525
Rotational constants in MHz : 13471.775278  4714.062641  4032.958796

                             ****ORCA TERMINATED NORMALLY****
TOTAL RUN TIME: 0 days 0 hours 0 minutes 15 seconds 111 msec
