                         Program Version 5.0.0 -  RELEASE  -
|  1> !wB97X-D3 RIJCOSX def2-TZVPD def2/J TightSCF xyzfile
|  2>
|  3> *xyzfile 0 1 B.xyz
|  4>
|  5> %MaxCore 64000
|  6>
|  7> %pal nprocs 18
|  8> end
|  9>
| 10> %scf
| 11>   MaxIter 150
| 12> end
| 13>
| 14>
| 15>                          ****END OF INPUT****

CARTESIAN COORDINATES (ANGSTROEM)
---------------------------------
  C      3.956426    0.501466   -0.379100
  H      3.168398    0.029201    0.207383
  N      3.803893    1.961572   -0.156747
  C      3.842322    0.148490   -1.854058
  H      4.923231    0.177982    0.009371
  H      4.620021    0.694502   -2.402150
  H      4.096015   -0.910930   -1.955103
  C      2.475619    0.412708   -2.485377
  H      2.174689    1.445076   -2.287971
  C      1.383931   -0.532740   -1.995203
  H      2.575613    0.318574   -3.571460
  H      1.264698   -0.412309   -0.915491
  H      1.705223   -1.566885   -2.164984
  C      0.031398   -0.317260   -2.677791
  C     -0.587292    1.060853   -2.436460
  H     -0.662815   -1.089530   -2.329985
  H      0.149465   -0.478040   -3.755648
  H      0.104376    1.828590   -2.793130
  C     -0.951213    1.334978   -0.972500
  H     -1.478832    1.161355   -3.062484
  H     -0.317007    0.741648   -0.311389
  H     -1.980916    1.012842   -0.788958
  C     -0.774550    2.788332   -0.543943
  H     -1.352609    3.459372   -1.192585
  H     -1.171014    2.902331    0.469968
  C      0.697208    3.227911   -0.525126
  O      1.489294    2.374703    0.199189
  H      0.715998    4.264030   -0.130774
  H      1.036148    3.330920   -1.583669
  H      4.206425    2.244406    0.745359
  H      2.808269    2.211323   -0.096097
  H      4.280757    2.501552   -0.891037

 Total Charge           Charge          ....    0
 Multiplicity           Mult            ....    1
 Number of Electrons    NEL             ....   90
 Basis Dimension        Dim             ....  599

ORBITAL ENERGIES
----------------

  NO   OCC          E(Eh)            E(eV)
   0   2.0000     -19.098077      -519.6851
   1   2.0000     -14.503553      -394.6618
   2   2.0000     -10.342805      -281.4420
   3   2.0000     -10.298421      -280.2343
   4   2.0000     -10.272419      -279.5267
   5   2.0000     -10.259940      -279.1872
   6   2.0000     -10.256716      -279.0994
   7   2.0000     -10.254338      -279.0347
   8   2.0000     -10.241788      -278.6932
   9   2.0000     -10.228486      -278.3313
  10   2.0000     -10.221275      -278.1350
  11   2.0000      -1.106944       -30.1215
  12   2.0000      -1.004493       -27.3336
  13   2.0000      -0.935381       -25.4530
  14   2.0000      -0.895582       -24.3700
  15   2.0000      -0.856489       -23.3062
  16   2.0000      -0.812421       -22.1071
  17   2.0000      -0.773505       -21.0481
  18   2.0000      -0.732672       -19.9370
  19   2.0000      -0.704705       -19.1760
  20   2.0000      -0.675716       -18.3872
  21   2.0000      -0.671630       -18.2760
  22   2.0000      -0.654773       -17.8173
  23   2.0000      -0.616428       -16.7739
  24   2.0000      -0.592782       -16.1304
  25   2.0000      -0.569599       -15.4996
  26   2.0000      -0.567917       -15.4538
  27   2.0000      -0.537625       -14.6295
  28   2.0000      -0.522022       -14.2050
  29   2.0000      -0.517522       -14.0825
  30   2.0000      -0.498334       -13.5604
  31   2.0000      -0.488206       -13.2848
  32   2.0000      -0.477495       -12.9933
  33   2.0000      -0.459231       -12.4963
  34   2.0000      -0.450438       -12.2571
  35   2.0000      -0.438191       -11.9238
  36   2.0000      -0.430533       -11.7154
  37   2.0000      -0.418237       -11.3808
  38   2.0000      -0.407096       -11.0776
  39   2.0000      -0.402068       -10.9408
  40   2.0000      -0.380979       -10.3670
  41   2.0000      -0.375069       -10.2062
  42   2.0000      -0.371102       -10.0982
  43   2.0000      -0.273314        -7.4372
  44   2.0000      -0.266777        -7.2594
  45   0.0000       0.043484         1.1833
  46   0.0000       0.068078         1.8525
  47   0.0000       0.072890         1.9834
  48   0.0000       0.085012         2.3133
  49   0.0000       0.097646         2.6571

MULLIKEN ATOMIC CHARGES
-----------------------
   0 C :   -0.593101
   1 H :    0.330716
   2 N :   -0.018100
   3 C :   -0.634451
   4 H :    0.309711
   5 H :    0.249714
   6 H :    0.274107
   7 C :    0.089133
   8 H :   -0.158776
   9 C :   -0.339604
  10 H :    0.338525
  11 H :    0.089035
  12 H :    0.325504
  13 C :   -0.718332
  14 C :   -0.575641
  15 H :    0.271155
  16 H :    0.301685
  17 H :    0.284173
  18 C :   -0.345084
  19 H :    0.319128
  20 H :    0.103141
  21 H :    0.306697
  22 C :   -0.615807
  23 H :    0.253179
  24 H :    0.328938
  25 C :   -0.364335
  26 O :   -0.890588
  27 H :    0.231178
  28 H :    0.179609
  29 H :    0.386499
  30 H :   -0.100693
  31 H :    0.382683
Sum of atomic charges:    0.0000000

LOEWDIN ATOMIC CHARGES
----------------------
   0 C :   -0.171359
   1 H :    0.127478
   2 N :    0.140250
   3 C :   -0.195060
   4 H :    0.118659
   5 H :    0.111758
   6 H :    0.117063
   7 C :   -0.205887
   8 H :    0.091590
   9 C :   -0.213482
  10 H :    0.119780
  11 H :    0.097128
  12 H :    0.113832
  13 C :   -0.211533
  14 C :   -0.210933
  15 H :    0.111524
  16 H :    0.107452
  17 H :    0.090946
  18 C :   -0.217463
  19 H :    0.108915
  20 H :    0.090194
  21 H :    0.107070
  22 C :   -0.206842
  23 H :    0.107619
  24 H :    0.104994
  25 C :   -0.416339
  26 O :   -0.283884
  27 H :    0.095840
  28 H :    0.086810
  29 H :    0.163118
  30 H :   -0.042418
  31 H :    0.163181

  Mayer bond orders larger than 0.100000
B(  0-C ,  1-H ) :   0.9091 B(  0-C ,  2-N ) :   0.9565 B(  0-C ,  3-C ) :   0.7882
B(  0-C ,  4-H ) :   0.8950 B(  0-C ,  9-C ) :   0.1304 B(  0-C , 30-H ) :   0.1334
B(  2-N , 26-O ) :  -0.1063 B(  2-N , 29-H ) :   0.8124 B(  2-N , 30-H ) :   0.9530
B(  2-N , 31-H ) :   0.7815 B(  3-C ,  5-H ) :   0.9522 B(  3-C ,  6-H ) :   0.9532
B(  3-C ,  7-C ) :   0.8510 B(  3-C ,  8-H ) :   0.1581 B(  3-C ,  9-C ) :   0.3561
B(  7-C ,  8-H ) :   1.2373 B(  7-C ,  9-C ) :   0.3732 B(  7-C , 10-H ) :   0.7944
B(  7-C , 13-C ) :   0.3529 B(  7-C , 14-C ) :   0.1313 B(  9-C , 11-H ) :   1.1259
B(  9-C , 12-H ) :   0.8483 B(  9-C , 13-C ) :   0.8881 B( 13-C , 14-C ) :   0.9051
B( 13-C , 15-H ) :   0.9589 B( 13-C , 16-H ) :   0.9257 B( 13-C , 18-C ) :   0.3303
B( 14-C , 17-H ) :   0.9703 B( 14-C , 18-C ) :   0.5907 B( 14-C , 19-H ) :   0.9064
B( 14-C , 22-C ) :   0.3911 B( 18-C , 20-H ) :   1.0287 B( 18-C , 21-H ) :   0.9059
B( 18-C , 22-C ) :   0.9674 B( 22-C , 23-H ) :   0.9823 B( 22-C , 24-H ) :   0.8761
B( 22-C , 25-C ) :   0.9928 B( 25-C , 26-O ) :   0.8869 B( 25-C , 27-H ) :   0.9622
B( 25-C , 28-H ) :   0.9745 B( 26-O , 30-H ) :   0.3742

Dispersion correction           -0.014836133
FINAL SINGLE POINT ENERGY      -485.600248471580

DIPOLE MOMENT
-------------
                                X             Y             Z
Electronic contribution:      2.13549       0.90284       2.54995
Nuclear contribution   :      0.61785      -1.47632      -2.91844
                        -----------------------------------------
Total Dipole Moment    :      2.75334      -0.57349      -0.36849
                        -----------------------------------------
Magnitude (a.u.)       :      2.83647
Magnitude (Debye)      :      7.20973

Rotational constants in cm-1:     0.040993     0.027400     0.018162
Rotational constants in MHz :  1228.944366   821.418004   544.476857

                             ****ORCA TERMINATED NORMALLY****
TOTAL RUN TIME: 0 days 0 hours 1 minutes 56 seconds 929 msec
