                         Program Version 5.0.0 -  RELEASE  -
|  1> !wB97X-D3 RIJCOSX def2-TZVPD def2/J TightSCF
|  2> *xyz 0 1
|  3> C         -0.95121        1.33498       -0.97250
|  4> C         -0.77455        2.78833       -0.54394
|  5> H         -1.35261        3.45937       -1.19259
|  6> H         -1.17101        2.90233        0.46997
|  7> C          0.69721        3.22791       -0.52513
|  8> F          1.48929        2.37470        0.19919
|  9> H          0.71600        4.26403       -0.13077
| 10> H          1.03615        3.33092       -1.58367
| 11> H         -0.56808        1.20618       -1.96322
| 12> H         -1.99081        1.08225       -0.95647
| 13> H         -0.41866        0.69710       -0.29841
| 14> *
| 15>
| 16> %MaxCore 64000
| 17> %pal nprocs 18
| 18> end
| 19>
| 20> %scf
| 21>   MaxIter 150
| 22> end
| 23>
| 24>
| 25>                          ****END OF INPUT****

CARTESIAN COORDINATES (ANGSTROEM)
---------------------------------
  C     -0.951210    1.334980   -0.972500
  C     -0.774550    2.788330   -0.543940
  H     -1.352610    3.459370   -1.192590
  H     -1.171010    2.902330    0.469970
  C      0.697210    3.227910   -0.525130
  F      1.489290    2.374700    0.199190
  H      0.716000    4.264030   -0.130770
  H      1.036150    3.330920   -1.583670
  H     -0.568080    1.206180   -1.963220
  H     -1.990810    1.082250   -0.956470
  H     -0.418660    0.697100   -0.298410

 Total Charge           Charge          ....    0
 Multiplicity           Mult            ....    1
 Number of Electrons    NEL             ....   34
 Basis Dimension        Dim             ....  214

ORBITAL ENERGIES
----------------

  NO   OCC          E(Eh)            E(eV)
   0   2.0000     -24.772459      -674.0929
   1   2.0000     -10.351804      -281.6869
   2   2.0000     -10.279552      -279.7208
   3   2.0000     -10.257508      -279.1210
   4   2.0000      -1.314453       -35.7681
   5   2.0000      -0.906125       -24.6569
   6   2.0000      -0.804039       -21.8790
   7   2.0000      -0.705556       -19.1992
   8   2.0000      -0.611439       -16.6381
   9   2.0000      -0.595959       -16.2169
  10   2.0000      -0.572244       -15.5716
  11   2.0000      -0.535711       -14.5774
  12   2.0000      -0.497011       -13.5244
  13   2.0000      -0.471262       -12.8237
  14   2.0000      -0.449194       -12.2232
  15   2.0000      -0.419837       -11.4243
  16   2.0000      -0.418198       -11.3798
  17   0.0000       0.072537         1.9738
  18   0.0000       0.091488         2.4895
  19   0.0000       0.096659         2.6302
  20   0.0000       0.112064         3.0494
  21   0.0000       0.137169         3.7326

MULLIKEN ATOMIC CHARGES
-----------------------
   0 C :   -1.187619
   1 C :   -0.229090
   2 H :    0.279454
   3 H :    0.289986
   4 C :   -0.263629
   5 F :   -0.320325
   6 H :    0.227413
   7 H :    0.259459
   8 H :    0.329951
   9 H :    0.309910
  10 H :    0.304490
Sum of atomic charges:    0.0000000

LOEWDIN ATOMIC CHARGES
----------------------
   0 C :   -0.114220
   1 C :   -0.245596
   2 H :    0.110699
   3 H :    0.105020
   4 C :   -0.249444
   5 F :   -0.040350
   6 H :    0.114277
   7 H :    0.120935
   8 H :    0.068283
   9 H :    0.064276
  10 H :    0.066120

  Mayer bond orders larger than 0.100000
B(  0-C ,  1-C ) :   0.6688 B(  0-C ,  4-C ) :   0.1571 B(  0-C ,  8-H ) :   0.9359
B(  0-C ,  9-H ) :   0.9675 B(  0-C , 10-H ) :   0.9840 B(  1-C ,  2-H ) :   0.9549
B(  1-C ,  3-H ) :   0.9384 B(  1-C ,  4-C ) :   0.8629 B(  4-C ,  5-F ) :   0.7756
B(  4-C ,  6-H ) :   0.9917 B(  4-C ,  7-H ) :   0.9580

Dispersion correction           -0.001927792
FINAL SINGLE POINT ENERGY      -218.404069436772

DIPOLE MOMENT
-------------
                                X             Y             Z
Electronic contribution:      5.51899       0.34492       2.74860
Nuclear contribution   :     -6.00193       0.02246      -3.08821
                        -----------------------------------------
Total Dipole Moment    :     -0.48294       0.36738      -0.33961
                        -----------------------------------------
Magnitude (a.u.)       :      0.69536
Magnitude (Debye)      :      1.76747

Rotational constants in cm-1:     0.475356     0.173608     0.142756
Rotational constants in MHz : 14250.818869  5204.623090  4279.716550

                             ****ORCA TERMINATED NORMALLY****
TOTAL RUN TIME: 0 days 0 hours 0 minutes 13 seconds 350 msec
