                         Program Version 5.0.0 -  RELEASE  -
|  1> !wB97X-D3 RIJCOSX def2-TZVPD def2/J TightSCF
|  2> *xyz 0 1
|  3> C          3.95643        0.50147       -0.37910
|  4> H          3.16840        0.02920        0.20738
|  5> C          3.80389        1.96157       -0.15675
|  6> C          3.84232        0.14849       -1.85406
|  7> H          4.92323        0.17798        0.00937
|  8> H          4.62002        0.69450       -2.40215
|  9> H          4.09601       -0.91093       -1.95510
| 10> C          2.47562        0.41271       -2.48538
| 11> H          4.20643        2.24441        0.74536
| 12> H          2.80827        2.21132       -0.09610
| 13> H          4.28076        2.50155       -0.89104
| 14> H          2.49958        0.13290       -3.51787
| 15> H          2.23992        1.45318       -2.40319
| 16> H          1.73061       -0.16300       -1.97702
| 17> *
| 18>
| 19> %MaxCore 64000
| 20> %pal nprocs 18
| 21> end
| 22>
| 23> %scf
| 24>   MaxIter 150
| 25> end
| 26>
| 27>
| 28>                          ****END OF INPUT****

CARTESIAN COORDINATES (ANGSTROEM)
---------------------------------
  C      3.956430    0.501470   -0.379100
  H      3.168400    0.029200    0.207380
  C      3.803890    1.961570   -0.156750
  C      3.842320    0.148490   -1.854060
  H      4.923230    0.177980    0.009370
  H      4.620020    0.694500   -2.402150
  H      4.096010   -0.910930   -1.955100
  C      2.475620    0.412710   -2.485380
  H      4.206430    2.244410    0.745360
  H      2.808270    2.211320   -0.096100
  H      4.280760    2.501550   -0.891040
  H      2.499580    0.132900   -3.517870
  H      2.239920    1.453180   -2.403190
  H      1.730610   -0.163000   -1.977020

 Total Charge           Charge          ....    0
 Multiplicity           Mult            ....    1
 Number of Electrons    NEL             ....   34
 Basis Dimension        Dim             ....  238

ORBITAL ENERGIES
----------------

  NO   OCC          E(Eh)            E(eV)
   0   2.0000     -10.262684      -279.2618
   1   2.0000     -10.257973      -279.1336
   2   2.0000     -10.251481      -278.9570
   3   2.0000     -10.230615      -278.3892
   4   2.0000      -0.919790       -25.0288
   5   2.0000      -0.844034       -22.9673
   6   2.0000      -0.756631       -20.5890
   7   2.0000      -0.675315       -18.3763
   8   2.0000      -0.567150       -15.4329
   9   2.0000      -0.563522       -15.3342
  10   2.0000      -0.525019       -14.2865
  11   2.0000      -0.486447       -13.2369
  12   2.0000      -0.478930       -13.0324
  13   2.0000      -0.457626       -12.4526
  14   2.0000      -0.416239       -11.3265
  15   2.0000      -0.412438       -11.2230
  16   2.0000      -0.410235       -11.1631
  17   0.0000       0.076414         2.0793
  18   0.0000       0.093909         2.5554
  19   0.0000       0.093956         2.5567
  20   0.0000       0.099354         2.7036
  21   0.0000       0.140183         3.8146

MULLIKEN ATOMIC CHARGES
-----------------------
   0 C :   -0.094590
   1 H :    0.232301
   2 C :   -1.479551
   3 C :   -0.272731
   4 H :    0.246174
   5 H :    0.284276
   6 H :    0.243485
   7 C :   -1.253243
   8 H :    0.378180
   9 H :    0.371029
  10 H :    0.365778
  11 H :    0.319240
  12 H :    0.332320
  13 H :    0.327332
Sum of atomic charges:    0.0000000

LOEWDIN ATOMIC CHARGES
----------------------
   0 C :   -0.278278
   1 H :    0.109741
   2 C :   -0.124496
   3 C :   -0.278291
   4 H :    0.107090
   5 H :    0.107473
   6 H :    0.101025
   7 C :   -0.107749
   8 H :    0.053013
   9 H :    0.056315
  10 H :    0.060654
  11 H :    0.063207
  12 H :    0.061821
  13 H :    0.068474

  Mayer bond orders larger than 0.100000
B(  0-C ,  1-H ) :   0.9642 B(  0-C ,  2-C ) :   0.5300 B(  0-C ,  3-C ) :   0.7867
B(  0-C ,  4-H ) :   0.9685 B(  0-C ,  7-C ) :   0.1183 B(  2-C ,  3-C ) :   0.1919
B(  2-C ,  7-C ) :   0.1342 B(  2-C ,  8-H ) :   0.9053 B(  2-C ,  9-H ) :   0.9305
B(  2-C , 10-H ) :   0.9300 B(  3-C ,  5-H ) :   0.9573 B(  3-C ,  6-H ) :   0.9826
B(  3-C ,  7-C ) :   0.6236 B(  7-C , 11-H ) :   0.9446 B(  7-C , 12-H ) :   0.9550
B(  7-C , 13-H ) :   0.9690

Dispersion correction           -0.002757932
FINAL SINGLE POINT ENERGY      -158.455874824197

DIPOLE MOMENT
-------------
                                X             Y             Z
Electronic contribution:      0.49602      -0.62520       0.09707
Nuclear contribution   :     -0.48267       0.62853      -0.07145
                        -----------------------------------------
Total Dipole Moment    :      0.01335       0.00333       0.02562
                        -----------------------------------------
Magnitude (a.u.)       :      0.02908
Magnitude (Debye)      :      0.07392

Rotational constants in cm-1:     0.457318     0.164089     0.140183
Rotational constants in MHz : 13710.038687  4919.250587  4202.581436

                             ****ORCA TERMINATED NORMALLY****
TOTAL RUN TIME: 0 days 0 hours 0 minutes 12 seconds 340 msec
