                         Program Version 5.0.0 -  RELEASE  -
|  1> !wB97X-D3 RIJCOSX def2-TZVPD def2/J TightSCF xyzfile
|  2>
|  3> *xyzfile 0 1 D1.xyz
|  4>
|  5> %MaxCore 64000
|  6>
|  7> %pal nprocs 18
|  8> end
|  9>
| 10> %scf
| 11>   MaxIter 150
| 12> end
| 13>
| 14>
| 15>                          ****END OF INPUT****

CARTESIAN COORDINATES (ANGSTROEM)
---------------------------------
  C      3.956426    0.501466   -0.379100
  H      3.168398    0.029201    0.207383
  C      3.803893    1.961572   -0.156747
  C      3.842322    0.148490   -1.854058
  H      4.923231    0.177982    0.009371
  H      4.620021    0.694502   -2.402150
  H      4.096015   -0.910930   -1.955103
  C      2.475619    0.412708   -2.485377
  H      2.174689    1.445076   -2.287971
  C      1.383931   -0.532740   -1.995203
  H      2.575613    0.318574   -3.571460
  H      1.264698   -0.412309   -0.915491
  H      1.705223   -1.566885   -2.164984
  C      0.031398   -0.317260   -2.677791
  C     -0.587292    1.060853   -2.436460
  H     -0.662815   -1.089530   -2.329985
  H      0.149465   -0.478040   -3.755648
  H      0.104376    1.828590   -2.793130
  C     -0.951213    1.334978   -0.972500
  H     -1.478832    1.161355   -3.062484
  H     -0.317007    0.741648   -0.311389
  H     -1.980916    1.012842   -0.788958
  C     -0.774550    2.788332   -0.543943
  H     -1.352609    3.459372   -1.192585
  H     -1.171014    2.902331    0.469968
  C      0.697208    3.227911   -0.525126
  F      1.489294    2.374703    0.199189
  H      0.715998    4.264030   -0.130774
  H      1.036148    3.330920   -1.583669
  H      4.206425    2.244406    0.745359
  H      2.808269    2.211323   -0.096097
  H      4.280757    2.501552   -0.891037

 Total Charge           Charge          ....    0
 Multiplicity           Mult            ....    1
 Number of Electrons    NEL             ....   90
 Basis Dimension        Dim             ....  599

ORBITAL ENERGIES
----------------

  NO   OCC          E(Eh)            E(eV)
   0   2.0000     -24.793027      -674.6526
   1   2.0000     -10.363566      -282.0070
   2   2.0000     -10.285891      -279.8933
   3   2.0000     -10.272377      -279.5256
   4   2.0000     -10.269063      -279.4354
   5   2.0000     -10.265905      -279.3495
   6   2.0000     -10.259999      -279.1888
   7   2.0000     -10.257906      -279.1318
   8   2.0000     -10.251802      -278.9657
   9   2.0000     -10.240660      -278.6625
  10   2.0000     -10.185457      -277.1604
  11   2.0000      -1.348319       -36.6896
  12   2.0000      -0.938696       -25.5432
  13   2.0000      -0.918618       -24.9969
  14   2.0000      -0.885019       -24.0826
  15   2.0000      -0.852798       -23.2058
  16   2.0000      -0.804287       -21.8858
  17   2.0000      -0.777546       -21.1581
  18   2.0000      -0.735103       -20.0032
  19   2.0000      -0.710242       -19.3267
  20   2.0000      -0.673745       -18.3335
  21   2.0000      -0.658342       -17.9144
  22   2.0000      -0.635498       -17.2928
  23   2.0000      -0.619386       -16.8543
  24   2.0000      -0.597391       -16.2558
  25   2.0000      -0.571989       -15.5646
  26   2.0000      -0.560220       -15.2444
  27   2.0000      -0.549903       -14.9636
  28   2.0000      -0.529523       -14.4091
  29   2.0000      -0.526174       -14.3179
  30   2.0000      -0.508966       -13.8497
  31   2.0000      -0.490649       -13.3512
  32   2.0000      -0.483767       -13.1640
  33   2.0000      -0.470106       -12.7922
  34   2.0000      -0.461474       -12.5573
  35   2.0000      -0.450378       -12.2554
  36   2.0000      -0.443373       -12.0648
  37   2.0000      -0.436079       -11.8663
  38   2.0000      -0.416901       -11.3444
  39   2.0000      -0.412222       -11.2171
  40   2.0000      -0.405123       -11.0240
  41   2.0000      -0.403938       -10.9917
  42   2.0000      -0.388730       -10.5779
  43   2.0000      -0.387553       -10.5458
  44   2.0000      -0.365918        -9.9571
  45   0.0000       0.067820         1.8455
  46   0.0000       0.074560         2.0289
  47   0.0000       0.079815         2.1719
  48   0.0000       0.085063         2.3147
  49   0.0000       0.094951         2.5838

MULLIKEN ATOMIC CHARGES
-----------------------
   0 C :   -0.150397
   1 H :    0.265128
   2 C :   -0.816655
   3 C :   -0.738831
   4 H :    0.239015
   5 H :    0.303685
   6 H :    0.253499
   7 C :   -0.037200
   8 H :   -0.203532
   9 C :   -0.265639
  10 H :    0.337222
  11 H :    0.048973
  12 H :    0.338951
  13 C :   -0.748226
  14 C :   -0.576463
  15 H :    0.271612
  16 H :    0.319813
  17 H :    0.311874
  18 C :   -0.423766
  19 H :    0.319681
  20 H :    0.195597
  21 H :    0.320455
  22 C :   -0.621440
  23 H :    0.277219
  24 H :    0.328180
  25 C :   -0.314740
  26 F :   -0.376540
  27 H :    0.289050
  28 H :    0.278645
  29 H :    0.406364
  30 H :   -0.214154
  31 H :    0.382621
Sum of atomic charges:   -0.0000000

LOEWDIN ATOMIC CHARGES
----------------------
   0 C :   -0.253294
   1 H :    0.104601
   2 C :   -0.112012
   3 C :   -0.217992
   4 H :    0.106032
   5 H :    0.111679
   6 H :    0.106485
   7 C :   -0.207503
   8 H :    0.087959
   9 C :   -0.212720
  10 H :    0.117274
  11 H :    0.095194
  12 H :    0.117261
  13 C :   -0.211022
  14 C :   -0.209413
  15 H :    0.111754
  16 H :    0.110621
  17 H :    0.092205
  18 C :   -0.207768
  19 H :    0.111681
  20 H :    0.098020
  21 H :    0.114776
  22 C :   -0.181129
  23 H :    0.121815
  24 H :    0.111477
  25 C :   -0.200057
  26 F :   -0.040591
  27 H :    0.126386
  28 H :    0.120277
  29 H :    0.060771
  30 H :   -0.037614
  31 H :    0.064849

  Mayer bond orders larger than 0.100000
B(  0-C ,  1-H ) :   0.9281 B(  0-C ,  2-C ) :   0.4735 B(  0-C ,  3-C ) :   0.7969
B(  0-C ,  4-H ) :   0.9661 B(  0-C ,  9-C ) :   0.1433 B(  2-C ,  3-C ) :   0.3167
B(  2-C , 26-F ) :   0.1939 B(  2-C , 29-H ) :   0.9205 B(  2-C , 30-H ) :   1.0924
B(  2-C , 31-H ) :   0.9983 B(  3-C ,  5-H ) :   0.9116 B(  3-C ,  6-H ) :   0.9356
B(  3-C ,  7-C ) :   1.0623 B(  3-C ,  8-H ) :   0.1763 B(  3-C ,  9-C ) :   0.3083
B(  7-C ,  8-H ) :   1.3512 B(  7-C ,  9-C ) :   0.3751 B(  7-C , 10-H ) :   0.7685
B(  7-C , 13-C ) :   0.3444 B(  7-C , 14-C ) :   0.1214 B(  8-H ,  9-C ) :  -0.1223
B(  9-C , 11-H ) :   1.1489 B(  9-C , 12-H ) :   0.8332 B(  9-C , 13-C ) :   0.8881
B( 13-C , 14-C ) :   0.9296 B( 13-C , 15-H ) :   0.9609 B( 13-C , 16-H ) :   0.9183
B( 13-C , 18-C ) :   0.3459 B( 14-C , 17-H ) :   0.9484 B( 14-C , 18-C ) :   0.5792
B( 14-C , 19-H ) :   0.9078 B( 14-C , 22-C ) :   0.3667 B( 18-C , 20-H ) :   1.0150
B( 18-C , 21-H ) :   0.9034 B( 18-C , 22-C ) :   0.9222 B( 22-C , 23-H ) :   0.9477
B( 22-C , 24-H ) :   0.9007 B( 22-C , 25-C ) :   0.9470 B( 22-C , 26-F ) :   0.1161
B( 25-C , 26-F ) :   0.6652 B( 25-C , 27-H ) :   0.8854 B( 25-C , 28-H ) :   0.9763
B( 26-F , 30-H ) :  -0.1347

Dispersion correction           -0.014488145
FINAL SINGLE POINT ENERGY      -493.567955053985

DIPOLE MOMENT
-------------
                                X             Y             Z
Electronic contribution:     -1.96459       3.28973       4.28091
Nuclear contribution   :      1.09293      -2.80761      -4.51228
                        -----------------------------------------
Total Dipole Moment    :     -0.87166       0.48212      -0.23137
                        -----------------------------------------
Magnitude (a.u.)       :      1.02262
Magnitude (Debye)      :      2.59930

Rotational constants in cm-1:     0.040502     0.027818     0.018259
Rotational constants in MHz :  1214.218058   833.972871   547.398614

                             ****ORCA TERMINATED NORMALLY****
TOTAL RUN TIME: 0 days 0 hours 1 minutes 55 seconds 147 msec
