                         Program Version 5.0.0 -  RELEASE  -
|  1> !PBE D3BJ RIJCOSX def2-TZVP def2/J TightSCF
|  2> *xyz -1 1
|  3> C         -1.10433        0.25137       -2.86006
|  4> C         -0.71189        0.84252       -4.21834
|  5> H          0.15463        1.49980       -4.13091
|  6> H         -1.53813        1.45922       -4.58267
|  7> C         -0.39762       -0.20587       -5.28802
|  8> O          0.61717       -0.00535       -5.99827
|  9> O         -1.13317       -1.22138       -5.34147
| 10> H         -1.95489       -0.38644       -2.98099
| 11> H         -1.34603        1.04362       -2.18269
| 12> H         -0.28606       -0.31581       -2.46809
| 13> *
| 14>
| 15> %MaxCore 64000
| 16>
| 17> %pal nprocs 4
| 18> end
| 19>
| 20> %scf
| 21>   MaxIter 150
| 22> end
| 23>
| 24>
| 25>                          ****END OF INPUT****

CARTESIAN COORDINATES (ANGSTROEM)
---------------------------------
  C     -1.104330    0.251370   -2.860060
  C     -0.711890    0.842520   -4.218340
  H      0.154630    1.499800   -4.130910
  H     -1.538130    1.459220   -4.582670
  C     -0.397620   -0.205870   -5.288020
  O      0.617170   -0.005350   -5.998270
  O     -1.133170   -1.221380   -5.341470
  H     -1.954890   -0.386440   -2.980990
  H     -1.346030    1.043620   -2.182690
  H     -0.286060   -0.315810   -2.468090

 Total Charge           Charge          ....   -1
 Multiplicity           Mult            ....    1
 Number of Electrons    NEL             ....   40
 Basis Dimension        Dim             ....  185

ORBITAL ENERGIES
----------------

  NO   OCC          E(Eh)            E(eV)
   0   2.0000     -18.474764      -502.7239
   1   2.0000     -18.472773      -502.6697
   2   2.0000      -9.743049      -265.1218
   3   2.0000      -9.709177      -264.2001
   4   2.0000      -9.698934      -263.9214
   5   2.0000      -0.722219       -19.6526
   6   2.0000      -0.634126       -17.2554
   7   2.0000      -0.526100       -14.3159
   8   2.0000      -0.403565       -10.9816
   9   2.0000      -0.258393        -7.0312
  10   2.0000      -0.237840        -6.4719
  11   2.0000      -0.202079        -5.4988
  12   2.0000      -0.175037        -4.7630
  13   2.0000      -0.161081        -4.3832
  14   2.0000      -0.149315        -4.0631
  15   2.0000      -0.122743        -3.3400
  16   2.0000      -0.109138        -2.9698
  17   2.0000      -0.001241        -0.0338
  18   2.0000       0.012433         0.3383
  19   2.0000       0.029522         0.8033
  20   0.0000       0.166492         4.5305
  21   0.0000       0.207905         5.6574
  22   0.0000       0.215296         5.8585
  23   0.0000       0.229955         6.2574
  24   0.0000       0.238001         6.4763

MULLIKEN ATOMIC CHARGES
-----------------------
   0 C :   -0.301772
   1 C :   -0.146680
   2 H :    0.033522
   3 H :    0.030785
   4 C :    0.109115
   5 O :   -0.470545
   6 O :   -0.467993
   7 H :    0.084176
   8 H :    0.049030
   9 H :    0.080362
Sum of atomic charges:   -1.0000000

LOEWDIN ATOMIC CHARGES
----------------------
   0 C :   -0.336274
   1 C :   -0.305454
   2 H :    0.118362
   3 H :    0.121473
   4 C :   -0.738871
   5 O :   -0.085497
   6 O :   -0.082172
   7 H :    0.109032
   8 H :    0.091933
   9 H :    0.107470

  Mayer bond orders larger than 0.100000
B(  0-C ,  1-C ) :   0.9666 B(  0-C ,  7-H ) :   0.9605 B(  0-C ,  8-H ) :   0.9555
B(  0-C ,  9-H ) :   0.9758 B(  1-C ,  2-H ) :   0.9392 B(  1-C ,  3-H ) :   0.9385
B(  1-C ,  4-C ) :   0.9418 B(  4-C ,  5-O ) :   1.9331 B(  4-C ,  6-O ) :   1.8936

Dispersion correction           -0.006523781
FINAL SINGLE POINT ENERGY      -267.636157903838

DIPOLE MOMENT
-------------
                                X             Y             Z
Electronic contribution:      1.61235      -2.49746      -5.41385
Nuclear contribution   :     -2.09607       3.44215       6.87744
                        -----------------------------------------
Total Dipole Moment    :     -0.48372       0.94469       1.46359
                        -----------------------------------------
Magnitude (a.u.)       :      1.80790
Magnitude (Debye)      :      4.59532

Rotational constants in cm-1:     0.324698     0.133739     0.103466
Rotational constants in MHz :  9734.203431  4009.406827  3101.846422

                             ****ORCA TERMINATED NORMALLY****
TOTAL RUN TIME: 0 days 0 hours 0 minutes 7 seconds 880 msec
