                         Program Version 5.0.0 -  RELEASE  -
|  1> !PBE D3BJ RIJCOSX def2-TZVP def2/J TightSCF
|  2> *xyz 1 1
|  3> C          2.23447       -2.98975       -2.39762
|  4> N          2.75680       -2.94555       -3.76503
|  5> C          1.98721       -2.59045       -4.81898
|  6> N          0.74322       -3.01749       -4.91352
|  7> N          2.49964       -1.84860       -5.80324
|  8> H          3.30978       -1.29282       -5.55895
|  9> H          1.80103       -1.30430       -6.28913
| 10> H          3.71612       -2.62880       -3.82953
| 11> H          0.39583       -3.62775       -4.18502
| 12> H          0.03920       -2.45438       -5.37137
| 13> C          2.19120       -1.61950       -1.71549
| 14> H          2.87278       -3.66637       -1.82801
| 15> H          1.24619       -3.44744       -2.40784
| 16> H          1.56387       -0.96046       -2.27853
| 17> H          3.18033       -1.21449       -1.66568
| 18> H          1.79916       -1.72608       -0.72562
| 19> *
| 20>
| 21> %MaxCore 64000
| 22>
| 23> %pal nprocs 4
| 24> end
| 25>
| 26> %scf
| 27>   MaxIter 150
| 28> end
| 29>
| 30>
| 31>                          ****END OF INPUT****

CARTESIAN COORDINATES (ANGSTROEM)
---------------------------------
  C      2.234470   -2.989750   -2.397620
  N      2.756800   -2.945550   -3.765030
  C      1.987210   -2.590450   -4.818980
  N      0.743220   -3.017490   -4.913520
  N      2.499640   -1.848600   -5.803240
  H      3.309780   -1.292820   -5.558950
  H      1.801030   -1.304300   -6.289130
  H      3.716120   -2.628800   -3.829530
  H      0.395830   -3.627750   -4.185020
  H      0.039200   -2.454380   -5.371370
  C      2.191200   -1.619500   -1.715490
  H      2.872780   -3.666370   -1.828010
  H      1.246190   -3.447440   -2.407840
  H      1.563870   -0.960460   -2.278530
  H      3.180330   -1.214490   -1.665680
  H      1.799160   -1.726080   -0.725620

 Total Charge           Charge          ....    1
 Multiplicity           Mult            ....    1
 Number of Electrons    NEL             ....   48
 Basis Dimension        Dim             ....  246

ORBITAL ENERGIES
----------------

  NO   OCC          E(Eh)            E(eV)
   0   2.0000     -14.211900      -386.7255
   1   2.0000     -14.208569      -386.6348
   2   2.0000     -14.208254      -386.6263
   3   2.0000     -10.206989      -277.7463
   4   2.0000     -10.090050      -274.5642
   5   2.0000     -10.021858      -272.7086
   6   2.0000      -1.135492       -30.8983
   7   2.0000      -1.029078       -28.0026
   8   2.0000      -1.025031       -27.8925
   9   2.0000      -0.860905       -23.4264
  10   2.0000      -0.784140       -21.3375
  11   2.0000      -0.746647       -20.3173
  12   2.0000      -0.731356       -19.9012
  13   2.0000      -0.688296       -18.7295
  14   2.0000      -0.651858       -17.7379
  15   2.0000      -0.636789       -17.3279
  16   2.0000      -0.602830       -16.4038
  17   2.0000      -0.574255       -15.6263
  18   2.0000      -0.556251       -15.1363
  19   2.0000      -0.525543       -14.3007
  20   2.0000      -0.493023       -13.4158
  21   2.0000      -0.474610       -12.9148
  22   2.0000      -0.447635       -12.1808
  23   2.0000      -0.413799       -11.2600
  24   0.0000      -0.225706        -6.1418
  25   0.0000      -0.177668        -4.8346
  26   0.0000      -0.146184        -3.9779
  27   0.0000      -0.132226        -3.5980
  28   0.0000      -0.116805        -3.1784

MULLIKEN ATOMIC CHARGES
-----------------------
   0 C :   -0.152783
   1 N :   -0.206018
   2 C :    0.320575
   3 N :   -0.338710
   4 N :   -0.310436
   5 H :    0.264196
   6 H :    0.263384
   7 H :    0.237183
   8 H :    0.271567
   9 H :    0.275526
  10 C :   -0.337021
  11 H :    0.172415
  12 H :    0.114031
  13 H :    0.121921
  14 H :    0.139710
  15 H :    0.164459
Sum of atomic charges:    1.0000000

LOEWDIN ATOMIC CHARGES
----------------------
   0 C :   -0.291254
   1 N :    0.168190
   2 C :   -0.431908
   3 N :    0.097949
   4 N :    0.072829
   5 H :    0.194310
   6 H :    0.198373
   7 H :    0.204611
   8 H :    0.196205
   9 H :    0.197884
  10 C :   -0.285793
  11 H :    0.152503
  12 H :    0.136217
  13 H :    0.121745
  14 H :    0.127662
  15 H :    0.140477

  Mayer bond orders larger than 0.100000
B(  0-C ,  1-N ) :   0.9134 B(  0-C , 10-C ) :   0.9954 B(  0-C , 11-H ) :   0.9460
B(  0-C , 12-H ) :   0.9620 B(  1-N ,  2-C ) :   1.3575 B(  1-N ,  7-H ) :   0.9023
B(  2-C ,  3-N ) :   1.3582 B(  2-C ,  4-N ) :   1.3560 B(  3-N ,  8-H ) :   0.8941
B(  3-N ,  9-H ) :   0.8879 B(  4-N ,  5-H ) :   0.8958 B(  4-N ,  6-H ) :   0.8936
B( 10-C , 13-H ) :   0.9580 B( 10-C , 14-H ) :   0.9605 B( 10-C , 15-H ) :   0.9531

Dispersion correction           -0.012433815
FINAL SINGLE POINT ENERGY      -284.144865157683

DIPOLE MOMENT
-------------
                                X             Y             Z
Electronic contribution:      0.19417      -1.67933      -5.19052
Nuclear contribution   :     -0.59121       2.30298       4.63196
                        -----------------------------------------
Total Dipole Moment    :     -0.39703       0.62365      -0.55856
                        -----------------------------------------
Magnitude (a.u.)       :      0.92659
Magnitude (Debye)      :      2.35520

Rotational constants in cm-1:     0.205874     0.074757     0.066901
Rotational constants in MHz :  6171.937773  2241.151057  2005.629823

                             ****ORCA TERMINATED NORMALLY****
TOTAL RUN TIME: 0 days 0 hours 0 minutes 12 seconds 442 msec
