                         Program Version 5.0.0 -  RELEASE  -
|  1> !PBE D3BJ RIJCOSX def2-TZVP def2/J TightSCF xyzfile
|  2>
|  3> *xyzfile 0 1 B.xyz
|  4>
|  5> %MaxCore 64000
|  6>
|  7> %pal nprocs 18
|  8> end
|  9>
| 10> %scf
| 11>   MaxIter 150
| 12> end
| 13>
| 14>
| 15>                          ****END OF INPUT****

CARTESIAN COORDINATES (ANGSTROEM)
---------------------------------
  C      2.234473   -2.989754   -2.397622
  N      2.756799   -2.945553   -3.765029
  C     -1.104325    0.251374   -2.860056
  C     -0.711893    0.842517   -4.218344
  H      0.154626    1.499800   -4.130909
  H     -1.538134    1.459222   -4.582671
  C     -0.397624   -0.205875   -5.288018
  C      1.987208   -2.590451   -4.818975
  N      0.743221   -3.017493   -4.913524
  N      2.499636   -1.848598   -5.803241
  H      3.309780   -1.292818   -5.558947
  H      1.801025   -1.304298   -6.289129
  H      3.716116   -2.628797   -3.829533
  H      0.395828   -3.627747   -4.185024
  H      0.039201   -2.454383   -5.371367
  O      0.617165   -0.005348   -5.998273
  O     -1.133173   -1.221380   -5.341465
  C      2.191199   -1.619503   -1.715492
  H      2.872783   -3.666368   -1.828014
  H      1.246188   -3.447444   -2.407842
  C      1.298729   -0.554314   -2.359773
  H      1.872917   -1.787955   -0.681310
  H      3.216809   -1.238432   -1.654428
  C     -0.196255   -0.863365   -2.325763
  H      1.612531   -0.371346   -3.393065
  H      1.480944    0.388638   -1.834444
  H     -0.404105   -1.761825   -2.909448
  H     -0.490439   -1.087880   -1.294131
  H     -1.143842    1.066711   -2.129680
  H     -2.114401   -0.156834   -2.930323

 Total Charge           Charge          ....    0
 Multiplicity           Mult            ....    1
 Number of Electrons    NEL             ....  102
 Basis Dimension        Dim             ....  505

ORBITAL ENERGIES
----------------

  NO   OCC          E(Eh)            E(eV)
   0   2.0000     -18.666425      -507.9392
   1   2.0000     -18.665609      -507.9171
   2   2.0000     -14.051467      -382.3599
   3   2.0000     -14.019304      -381.4847
   4   2.0000     -14.019076      -381.4785
   5   2.0000     -10.031607      -272.9739
   6   2.0000      -9.953724      -270.8546
   7   2.0000      -9.927997      -270.1545
   8   2.0000      -9.905405      -269.5398
   9   2.0000      -9.885473      -268.9974
  10   2.0000      -9.872033      -268.6317
  11   2.0000      -9.862520      -268.3728
  12   2.0000      -9.848606      -267.9942
  13   2.0000      -0.962523       -26.1916
  14   2.0000      -0.916989       -24.9525
  15   2.0000      -0.864431       -23.5224
  16   2.0000      -0.844540       -22.9811
  17   2.0000      -0.825341       -22.4587
  18   2.0000      -0.745543       -20.2873
  19   2.0000      -0.704937       -19.1823
  20   2.0000      -0.657785       -17.8992
  21   2.0000      -0.616471       -16.7750
  22   2.0000      -0.594974       -16.1901
  23   2.0000      -0.563334       -15.3291
  24   2.0000      -0.555238       -15.1088
  25   2.0000      -0.522039       -14.2054
  26   2.0000      -0.500946       -13.6314
  27   2.0000      -0.480388       -13.0720
  28   2.0000      -0.460303       -12.5255
  29   2.0000      -0.451629       -12.2895
  30   2.0000      -0.434492       -11.8231
  31   2.0000      -0.422873       -11.5070
  32   2.0000      -0.410997       -11.1838
  33   2.0000      -0.397601       -10.8193
  34   2.0000      -0.387351       -10.5404
  35   2.0000      -0.380038       -10.3414
  36   2.0000      -0.367266        -9.9938
  37   2.0000      -0.355076        -9.6621
  38   2.0000      -0.341188        -9.2842
  39   2.0000      -0.334186        -9.0937
  40   2.0000      -0.321805        -8.7568
  41   2.0000      -0.313779        -8.5384
  42   2.0000      -0.301309        -8.1990
  43   2.0000      -0.284857        -7.7514
  44   2.0000      -0.274550        -7.4709
  45   2.0000      -0.267788        -7.2869
  46   2.0000      -0.262899        -7.1539
  47   2.0000      -0.254552        -6.9267
  48   2.0000      -0.191589        -5.2134
  49   2.0000      -0.176423        -4.8007
  50   2.0000      -0.163926        -4.4607
  51   0.0000      -0.051056        -1.3893
  52   0.0000      -0.028331        -0.7709
  53   0.0000      -0.005967        -0.1624
  54   0.0000       0.011961         0.3255
  55   0.0000       0.025978         0.7069

MULLIKEN ATOMIC CHARGES
-----------------------
   0 C :   -0.177649
   1 N :   -0.192327
   2 C :   -0.147652
   3 C :   -0.148591
   4 H :    0.077595
   5 H :    0.095568
   6 C :    0.181438
   7 C :    0.177529
   8 N :   -0.287066
   9 N :   -0.277003
  10 H :    0.218362
  11 H :    0.257469
  12 H :    0.206083
  13 H :    0.223253
  14 H :    0.254062
  15 O :   -0.472983
  16 O :   -0.441505
  17 C :   -0.183613
  18 H :    0.139476
  19 H :    0.120908
  20 C :   -0.160652
  21 H :    0.099695
  22 H :    0.101531
  23 C :   -0.177243
  24 H :    0.112917
  25 H :    0.091409
  26 H :    0.066333
  27 H :    0.076489
  28 H :    0.079720
  29 H :    0.086449
Sum of atomic charges:    0.0000000

LOEWDIN ATOMIC CHARGES
----------------------
   0 C :   -0.284034
   1 N :    0.140980
   2 C :   -0.268320
   3 C :   -0.254190
   4 H :    0.136362
   5 H :    0.146862
   6 C :   -0.684191
   7 C :   -0.461795
   8 N :    0.099892
   9 N :    0.057700
  10 H :    0.173326
  11 H :    0.166819
  12 H :    0.189775
  13 H :    0.174462
  14 H :    0.159728
  15 O :   -0.038417
  16 O :   -0.026654
  17 C :   -0.272889
  18 H :    0.140078
  19 H :    0.135264
  20 C :   -0.269570
  21 H :    0.146525
  22 H :    0.137886
  23 C :   -0.276085
  24 H :    0.145078
  25 H :    0.143943
  26 H :    0.131442
  27 H :    0.134212
  28 H :    0.133253
  29 H :    0.142558

  Mayer bond orders larger than 0.100000
B(  0-C ,  1-N ) :   0.9270 B(  0-C , 17-C ) :   0.9985 B(  0-C , 18-H ) :   0.9571
B(  0-C , 19-H ) :   0.9672 B(  1-N ,  7-C ) :   1.3200 B(  1-N , 12-H ) :   0.9083
B(  2-C ,  3-C ) :   0.9984 B(  2-C , 23-C ) :   1.0350 B(  2-C , 28-H ) :   0.9414
B(  2-C , 29-H ) :   0.9354 B(  3-C ,  4-H ) :   0.9430 B(  3-C ,  5-H ) :   0.9215
B(  3-C ,  6-C ) :   0.9765 B(  6-C , 15-O ) :   1.7502 B(  6-C , 16-O ) :   1.7631
B(  7-C ,  8-N ) :   1.4320 B(  7-C ,  9-N ) :   1.4077 B(  8-N , 13-H ) :   0.9110
B(  8-N , 14-H ) :   0.7685 B(  9-N , 10-H ) :   0.9128 B(  9-N , 11-H ) :   0.8022
B( 11-H , 15-O ) :   0.1620 B( 14-H , 16-O ) :   0.2032 B( 17-C , 20-C ) :   0.9960
B( 17-C , 21-H ) :   0.9406 B( 17-C , 22-H ) :   0.9527 B( 20-C , 23-C ) :   1.0010
B( 20-C , 24-H ) :   0.9287 B( 20-C , 25-H ) :   0.9449 B( 23-C , 26-H ) :   0.9429
B( 23-C , 27-H ) :   0.9455

Dispersion correction           -0.035310302
FINAL SINGLE POINT ENERGY      -629.327869446737

DIPOLE MOMENT
-------------
                                X             Y             Z
Electronic contribution:      0.54847      -2.83205     -10.36542
Nuclear contribution   :      1.76912       1.50070      12.36652
                        -----------------------------------------
Total Dipole Moment    :      2.31758      -1.33135       2.00110
                        -----------------------------------------
Magnitude (a.u.)       :      3.33888
Magnitude (Debye)      :      8.48675

Rotational constants in cm-1:     0.033272     0.023886     0.017112
Rotational constants in MHz :   997.469575   716.074432   513.001395

                             ****ORCA TERMINATED NORMALLY****
TOTAL RUN TIME: 0 days 0 hours 0 minutes 22 seconds 586 msec
