                         Program Version 5.0.0 -  RELEASE  -
|  1> !PBE D3BJ RIJCOSX def2-TZVP def2/J TightSCF
|  2> *xyz 0 1
|  3> C         -1.10433        0.25137       -2.86006
|  4> C         -0.71189        0.84252       -4.21834
|  5> H          0.15463        1.49980       -4.13091
|  6> H         -1.53813        1.45922       -4.58267
|  7> C         -0.39762       -0.20587       -5.28802
|  8> F          0.61717       -0.00535       -5.99827
|  9> O         -1.13317       -1.22138       -5.34147
| 10> H         -1.95489       -0.38644       -2.98099
| 11> H         -1.34603        1.04362       -2.18269
| 12> H         -0.28606       -0.31581       -2.46809
| 13> *
| 14>
| 15> %MaxCore 64000
| 16>
| 17> %pal nprocs 4
| 18> end
| 19>
| 20> %scf
| 21>   MaxIter 150
| 22> end
| 23>
| 24>
| 25>                          ****END OF INPUT****

CARTESIAN COORDINATES (ANGSTROEM)
---------------------------------
  C     -1.104330    0.251370   -2.860060
  C     -0.711890    0.842520   -4.218340
  H      0.154630    1.499800   -4.130910
  H     -1.538130    1.459220   -4.582670
  C     -0.397620   -0.205870   -5.288020
  F      0.617170   -0.005350   -5.998270
  O     -1.133170   -1.221380   -5.341470
  H     -1.954890   -0.386440   -2.980990
  H     -1.346030    1.043620   -2.182690
  H     -0.286060   -0.315810   -2.468090

 Total Charge           Charge          ....    0
 Multiplicity           Mult            ....    1
 Number of Electrons    NEL             ....   40
 Basis Dimension        Dim             ....  185

ORBITAL ENERGIES
----------------

  NO   OCC          E(Eh)            E(eV)
   0   2.0000     -24.324039      -661.8908
   1   2.0000     -18.751274      -510.2481
   2   2.0000     -10.045765      -273.3592
   3   2.0000      -9.911596      -269.7082
   4   2.0000      -9.881429      -268.8874
   5   2.0000      -1.214268       -33.0419
   6   2.0000      -0.943962       -25.6865
   7   2.0000      -0.725561       -19.7435
   8   2.0000      -0.623922       -16.9778
   9   2.0000      -0.573356       -15.6018
  10   2.0000      -0.487590       -13.2680
  11   2.0000      -0.473525       -12.8853
  12   2.0000      -0.448711       -12.2101
  13   2.0000      -0.415090       -11.2952
  14   2.0000      -0.382421       -10.4062
  15   2.0000      -0.351180        -9.5561
  16   2.0000      -0.330870        -9.0034
  17   2.0000      -0.327640        -8.9155
  18   2.0000      -0.306526        -8.3410
  19   2.0000      -0.243017        -6.6128
  20   0.0000      -0.064777        -1.7627
  21   0.0000       0.013493         0.3672
  22   0.0000       0.053519         1.4563
  23   0.0000       0.067222         1.8292
  24   0.0000       0.076571         2.0836

MULLIKEN ATOMIC CHARGES
-----------------------
   0 C :   -0.339596
   1 C :   -0.215947
   2 H :    0.108616
   3 H :    0.124148
   4 C :    0.297485
   5 F :   -0.060648
   6 O :   -0.289274
   7 H :    0.137199
   8 H :    0.120442
   9 H :    0.117575
Sum of atomic charges:   -0.0000000

LOEWDIN ATOMIC CHARGES
----------------------
   0 C :   -0.292191
   1 C :   -0.269490
   2 H :    0.140592
   3 H :    0.156749
   4 C :   -0.538127
   5 F :    0.345990
   6 O :    0.088377
   7 H :    0.126346
   8 H :    0.120228
   9 H :    0.121525

  Mayer bond orders larger than 0.100000
B(  0-C ,  1-C ) :   1.0001 B(  0-C ,  7-H ) :   0.9625 B(  0-C ,  8-H ) :   0.9602
B(  0-C ,  9-H ) :   0.9720 B(  1-C ,  2-H ) :   0.9456 B(  1-C ,  3-H ) :   0.9214
B(  1-C ,  4-C ) :   1.0088 B(  4-C ,  5-F ) :   1.1964 B(  4-C ,  6-O ) :   2.0780

Dispersion correction           -0.006206110
FINAL SINGLE POINT ENERGY      -292.192361969065

DIPOLE MOMENT
-------------
                                X             Y             Z
Electronic contribution:      3.60240      -2.41900      -7.75799
Nuclear contribution   :     -3.36368       3.36392       8.24820
                        -----------------------------------------
Total Dipole Moment    :      0.23871       0.94492       0.49021
                        -----------------------------------------
Magnitude (a.u.)       :      1.09094
Magnitude (Debye)      :      2.77295

Rotational constants in cm-1:     0.315013     0.126712     0.098430
Rotational constants in MHz :  9443.861322  3798.734540  2950.846388

                             ****ORCA TERMINATED NORMALLY****
TOTAL RUN TIME: 0 days 0 hours 0 minutes 7 seconds 376 msec
