                         Program Version 5.0.0 -  RELEASE  -
|  1> !PBE D3BJ RIJCOSX def2-TZVP def2/J TightSCF
|  2> *xyz 0 1
|  3> C          2.23447       -2.98975       -2.39762
|  4> C          2.75680       -2.94555       -3.76503
|  5> C          1.98721       -2.59045       -4.81898
|  6> N          0.74322       -3.01749       -4.91352
|  7> N          2.49964       -1.84860       -5.80324
|  8> H          3.30978       -1.29282       -5.55895
|  9> H          1.80103       -1.30430       -6.28913
| 10> H          3.71612       -2.62880       -3.82953
| 11> H          0.39583       -3.62775       -4.18502
| 12> H          0.03920       -2.45438       -5.37137
| 13> C          2.19120       -1.61950       -1.71549
| 14> H          2.87278       -3.66637       -1.82801
| 15> H          1.24619       -3.44744       -2.40784
| 16> H          1.56387       -0.96046       -2.27853
| 17> H          3.18033       -1.21449       -1.66568
| 18> H          1.79916       -1.72608       -0.72562
| 19> *
| 20>
| 21> %MaxCore 64000
| 22>
| 23> %pal nprocs 4
| 24> end
| 25>
| 26> %scf
| 27>   MaxIter 150
| 28> end
| 29>
| 30>
| 31>                          ****END OF INPUT****

CARTESIAN COORDINATES (ANGSTROEM)
---------------------------------
  C      2.234470   -2.989750   -2.397620
  C      2.756800   -2.945550   -3.765030
  C      1.987210   -2.590450   -4.818980
  N      0.743220   -3.017490   -4.913520
  N      2.499640   -1.848600   -5.803240
  H      3.309780   -1.292820   -5.558950
  H      1.801030   -1.304300   -6.289130
  H      3.716120   -2.628800   -3.829530
  H      0.395830   -3.627750   -4.185020
  H      0.039200   -2.454380   -5.371370
  C      2.191200   -1.619500   -1.715490
  H      2.872780   -3.666370   -1.828010
  H      1.246190   -3.447440   -2.407840
  H      1.563870   -0.960460   -2.278530
  H      3.180330   -1.214490   -1.665680
  H      1.799160   -1.726080   -0.725620

 Total Charge           Charge          ....    0
 Multiplicity           Mult            ....    1
 Number of Electrons    NEL             ....   48
 Basis Dimension        Dim             ....  246

ORBITAL ENERGIES
----------------

  NO   OCC          E(Eh)            E(eV)
   0   2.0000     -13.988900      -380.6573
   1   2.0000     -13.984736      -380.5440
   2   2.0000      -9.921072      -269.9661
   3   2.0000      -9.857535      -268.2372
   4   2.0000      -9.847198      -267.9559
   5   2.0000      -9.806831      -266.8574
   6   2.0000      -0.888285       -24.1715
   7   2.0000      -0.803127       -21.8542
   8   2.0000      -0.700047       -19.0492
   9   2.0000      -0.624376       -16.9901
  10   2.0000      -0.558760       -15.2046
  11   2.0000      -0.522643       -14.2218
  12   2.0000      -0.491145       -13.3647
  13   2.0000      -0.455636       -12.3985
  14   2.0000      -0.422207       -11.4888
  15   2.0000      -0.400741       -10.9047
  16   2.0000      -0.366052        -9.9608
  17   2.0000      -0.345785        -9.4093
  18   2.0000      -0.326772        -8.8919
  19   2.0000      -0.316193        -8.6040
  20   2.0000      -0.284840        -7.7509
  21   2.0000      -0.278213        -7.5706
  22   2.0000      -0.231881        -6.3098
  23   2.0000      -0.130118        -3.5407
  24   0.0000      -0.008820        -0.2400
  25   0.0000       0.021978         0.5980
  26   0.0000       0.036918         1.0046
  27   0.0000       0.041119         1.1189
  28   0.0000       0.056538         1.5385

MULLIKEN ATOMIC CHARGES
-----------------------
   0 C :   -0.166642
   1 C :   -0.317153
   2 C :    0.242219
   3 N :   -0.409887
   4 N :   -0.394915
   5 H :    0.230803
   6 H :    0.200175
   7 H :    0.057457
   8 H :    0.230030
   9 H :    0.201711
  10 C :   -0.290101
  11 H :    0.091611
  12 H :    0.039190
  13 H :    0.091348
  14 H :    0.093905
  15 H :    0.100250
Sum of atomic charges:    0.0000000

LOEWDIN ATOMIC CHARGES
----------------------
   0 C :   -0.320957
   1 C :   -0.279856
   2 C :   -0.482526
   3 N :    0.014286
   4 N :   -0.007861
   5 H :    0.173541
   6 H :    0.161676
   7 H :    0.117746
   8 H :    0.175593
   9 H :    0.156284
  10 C :   -0.306290
  11 H :    0.136775
  12 H :    0.124593
  13 H :    0.112177
  14 H :    0.113967
  15 H :    0.110852

  Mayer bond orders larger than 0.100000
B(  0-C ,  1-C ) :   1.0716 B(  0-C , 10-C ) :   0.9585 B(  0-C , 11-H ) :   0.9607
B(  0-C , 12-H ) :   0.9548 B(  1-C ,  2-C ) :   1.6386 B(  1-C ,  7-H ) :   1.0093
B(  2-C ,  3-N ) :   1.1858 B(  2-C ,  4-N ) :   1.1763 B(  3-N ,  8-H ) :   0.9198
B(  3-N ,  9-H ) :   0.9064 B(  4-N ,  5-H ) :   0.9187 B(  4-N ,  6-H ) :   0.9228
B( 10-C , 13-H ) :   0.9747 B( 10-C , 14-H ) :   0.9708 B( 10-C , 15-H ) :   0.9605

Dispersion correction           -0.012901354
FINAL SINGLE POINT ENERGY      -267.666899748939

DIPOLE MOMENT
-------------
                                X             Y             Z
Electronic contribution:     -0.33636      -1.37972      -5.07271
Nuclear contribution   :     -0.44240       2.20379       4.66256
                        -----------------------------------------
Total Dipole Moment    :     -0.77876       0.82407      -0.41015
                        -----------------------------------------
Magnitude (a.u.)       :      1.20573
Magnitude (Debye)      :      3.06471

Rotational constants in cm-1:     0.209447     0.075194     0.066975
Rotational constants in MHz :  6279.068019  2254.272519  2007.845458

                             ****ORCA TERMINATED NORMALLY****
TOTAL RUN TIME: 0 days 0 hours 0 minutes 11 seconds 887 msec
