                         Program Version 5.0.0 -  RELEASE  -
|  1> !PBE D3BJ RIJCOSX def2-TZVP def2/J TightSCF
|  2> *xyz 0 1
|  3> C         -1.10433        0.25137       -2.86006
|  4> C         -0.71189        0.84252       -4.21834
|  5> H          0.15463        1.49980       -4.13091
|  6> H         -1.53813        1.45922       -4.58267
|  7> C         -0.39762       -0.20587       -5.28802
|  8> O          0.61717       -0.00535       -5.99827
|  9> F         -1.13317       -1.22138       -5.34147
| 10> H         -1.95489       -0.38644       -2.98099
| 11> H         -1.34603        1.04362       -2.18269
| 12> H         -0.28606       -0.31581       -2.46809
| 13> *
| 14>
| 15> %MaxCore 64000
| 16>
| 17> %pal nprocs 4
| 18> end
| 19>
| 20> %scf
| 21>   MaxIter 150
| 22> end
| 23>
| 24>
| 25>                          ****END OF INPUT****

CARTESIAN COORDINATES (ANGSTROEM)
---------------------------------
  C     -1.104330    0.251370   -2.860060
  C     -0.711890    0.842520   -4.218340
  H      0.154630    1.499800   -4.130910
  H     -1.538130    1.459220   -4.582670
  C     -0.397620   -0.205870   -5.288020
  O      0.617170   -0.005350   -5.998270
  F     -1.133170   -1.221380   -5.341470
  H     -1.954890   -0.386440   -2.980990
  H     -1.346030    1.043620   -2.182690
  H     -0.286060   -0.315810   -2.468090

 Total Charge           Charge          ....    0
 Multiplicity           Mult            ....    1
 Number of Electrons    NEL             ....   40
 Basis Dimension        Dim             ....  185

ORBITAL ENERGIES
----------------

  NO   OCC          E(Eh)            E(eV)
   0   2.0000     -24.324721      -661.9093
   1   2.0000     -18.749846      -510.2093
   2   2.0000     -10.045062      -273.3400
   3   2.0000      -9.910776      -269.6859
   4   2.0000      -9.886941      -269.0374
   5   2.0000      -1.214652       -33.0524
   6   2.0000      -0.942743       -25.6533
   7   2.0000      -0.729532       -19.8516
   8   2.0000      -0.619295       -16.8519
   9   2.0000      -0.580245       -15.7893
  10   2.0000      -0.489351       -13.3159
  11   2.0000      -0.479420       -13.0457
  12   2.0000      -0.440744       -11.9933
  13   2.0000      -0.416063       -11.3217
  14   2.0000      -0.383816       -10.4442
  15   2.0000      -0.354910        -9.6576
  16   2.0000      -0.337704        -9.1894
  17   2.0000      -0.331961        -9.0331
  18   2.0000      -0.307023        -8.3545
  19   2.0000      -0.238268        -6.4836
  20   0.0000      -0.062785        -1.7085
  21   0.0000       0.008426         0.2293
  22   0.0000       0.053737         1.4622
  23   0.0000       0.070427         1.9164
  24   0.0000       0.078622         2.1394

MULLIKEN ATOMIC CHARGES
-----------------------
   0 C :   -0.347120
   1 C :   -0.212992
   2 H :    0.131691
   3 H :    0.117772
   4 C :    0.289756
   5 O :   -0.286748
   6 F :   -0.063541
   7 H :    0.120191
   8 H :    0.125691
   9 H :    0.125300
Sum of atomic charges:   -0.0000000

LOEWDIN ATOMIC CHARGES
----------------------
   0 C :   -0.301611
   1 C :   -0.264678
   2 H :    0.153399
   3 H :    0.152832
   4 C :   -0.538960
   5 O :    0.085972
   6 F :    0.348412
   7 H :    0.120406
   8 H :    0.122155
   9 H :    0.122073

  Mayer bond orders larger than 0.100000
B(  0-C ,  1-C ) :   0.9804 B(  0-C ,  7-H ) :   0.9648 B(  0-C ,  8-H ) :   0.9614
B(  0-C ,  9-H ) :   0.9703 B(  1-C ,  2-H ) :   0.9527 B(  1-C ,  3-H ) :   0.9222
B(  1-C ,  4-C ) :   1.0241 B(  4-C ,  5-O ) :   2.0961 B(  4-C ,  6-F ) :   1.1843

Dispersion correction           -0.006159165
FINAL SINGLE POINT ENERGY      -292.191407996069

DIPOLE MOMENT
-------------
                                X             Y             Z
Electronic contribution:      0.71626      -4.39954      -6.64899
Nuclear contribution   :     -1.45527       4.68977       7.53208
                        -----------------------------------------
Total Dipole Moment    :     -0.73900       0.29023       0.88309
                        -----------------------------------------
Magnitude (a.u.)       :      1.18752
Magnitude (Debye)      :      3.01843

Rotational constants in cm-1:     0.298240     0.132464     0.099915
Rotational constants in MHz :  8940.998095  3971.171647  2995.369122

                             ****ORCA TERMINATED NORMALLY****
TOTAL RUN TIME: 0 days 0 hours 0 minutes 7 seconds 138 msec
