                         Program Version 5.0.0 -  RELEASE  -
|  1> !PBE D3BJ RIJCOSX def2-TZVP def2/J TightSCF
|  2> *xyz 0 1
|  3> C          2.23447       -2.98975       -2.39762
|  4> N          2.75680       -2.94555       -3.76503
|  5> C          1.98721       -2.59045       -4.81898
|  6> C          0.74322       -3.01749       -4.91352
|  7> N          2.49964       -1.84860       -5.80324
|  8> H          3.30978       -1.29282       -5.55895
|  9> H          1.80103       -1.30430       -6.28913
| 10> H          3.71612       -2.62880       -3.82953
| 11> H          0.39583       -3.62775       -4.18502
| 12> H          0.03920       -2.45438       -5.37137
| 13> C          2.19120       -1.61950       -1.71549
| 14> H          2.87278       -3.66637       -1.82801
| 15> H          1.24619       -3.44744       -2.40784
| 16> H          1.56387       -0.96046       -2.27853
| 17> H          3.18033       -1.21449       -1.66568
| 18> H          1.79916       -1.72608       -0.72562
| 19> *
| 20>
| 21> %MaxCore 64000
| 22>
| 23> %pal nprocs 4
| 24> end
| 25>
| 26> %scf
| 27>   MaxIter 150
| 28> end
| 29>
| 30>
| 31>                          ****END OF INPUT****

CARTESIAN COORDINATES (ANGSTROEM)
---------------------------------
  C      2.234470   -2.989750   -2.397620
  N      2.756800   -2.945550   -3.765030
  C      1.987210   -2.590450   -4.818980
  C      0.743220   -3.017490   -4.913520
  N      2.499640   -1.848600   -5.803240
  H      3.309780   -1.292820   -5.558950
  H      1.801030   -1.304300   -6.289130
  H      3.716120   -2.628800   -3.829530
  H      0.395830   -3.627750   -4.185020
  H      0.039200   -2.454380   -5.371370
  C      2.191200   -1.619500   -1.715490
  H      2.872780   -3.666370   -1.828010
  H      1.246190   -3.447440   -2.407840
  H      1.563870   -0.960460   -2.278530
  H      3.180330   -1.214490   -1.665680
  H      1.799160   -1.726080   -0.725620

 Total Charge           Charge          ....    0
 Multiplicity           Mult            ....    1
 Number of Electrons    NEL             ....   48
 Basis Dimension        Dim             ....  246

ORBITAL ENERGIES
----------------

  NO   OCC          E(Eh)            E(eV)
   0   2.0000     -13.988079      -380.6350
   1   2.0000     -13.983132      -380.5004
   2   2.0000      -9.918919      -269.9075
   3   2.0000      -9.912474      -269.7321
   4   2.0000      -9.868425      -268.5335
   5   2.0000      -9.797428      -266.6016
   6   2.0000      -0.885528       -24.0964
   7   2.0000      -0.811421       -22.0799
   8   2.0000      -0.685988       -18.6667
   9   2.0000      -0.645153       -17.5555
  10   2.0000      -0.579166       -15.7599
  11   2.0000      -0.506887       -13.7931
  12   2.0000      -0.491559       -13.3760
  13   2.0000      -0.461286       -12.5522
  14   2.0000      -0.413846       -11.2613
  15   2.0000      -0.398646       -10.8477
  16   2.0000      -0.370089       -10.0706
  17   2.0000      -0.351411        -9.5624
  18   2.0000      -0.347695        -9.4613
  19   2.0000      -0.326887        -8.8950
  20   2.0000      -0.313304        -8.5254
  21   2.0000      -0.304664        -8.2903
  22   2.0000      -0.211341        -5.7509
  23   2.0000      -0.145223        -3.9517
  24   0.0000      -0.003199        -0.0870
  25   0.0000       0.022941         0.6242
  26   0.0000       0.034364         0.9351
  27   0.0000       0.045923         1.2496
  28   0.0000       0.061717         1.6794

MULLIKEN ATOMIC CHARGES
-----------------------
   0 C :   -0.089868
   1 N :   -0.262315
   2 C :    0.275738
   3 C :   -0.473284
   4 N :   -0.401319
   5 H :    0.189536
   6 H :    0.226854
   7 H :    0.172539
   8 H :    0.073794
   9 H :    0.085094
  10 C :   -0.343848
  11 H :    0.106556
  12 H :    0.106333
  13 H :    0.126215
  14 H :    0.096994
  15 H :    0.110981
Sum of atomic charges:    0.0000000

LOEWDIN ATOMIC CHARGES
----------------------
   0 C :   -0.308612
   1 N :    0.115741
   2 C :   -0.482143
   3 C :   -0.318057
   4 N :   -0.010811
   5 H :    0.151650
   6 H :    0.177242
   7 H :    0.171469
   8 H :    0.101117
   9 H :    0.098966
  10 C :   -0.313612
  11 H :    0.128854
  12 H :    0.136585
  13 H :    0.120382
  14 H :    0.112162
  15 H :    0.119066

  Mayer bond orders larger than 0.100000
B(  0-C ,  1-N ) :   0.9750 B(  0-C , 10-C ) :   0.9927 B(  0-C , 11-H ) :   0.9617
B(  0-C , 12-H ) :   0.9554 B(  1-N ,  2-C ) :   1.1515 B(  1-N ,  7-H ) :   0.9271
B(  2-C ,  3-C ) :   1.6363 B(  2-C ,  4-N ) :   1.1796 B(  3-C ,  8-H ) :   1.0018
B(  3-C ,  9-H ) :   0.9676 B(  4-N ,  5-H ) :   0.9167 B(  4-N ,  6-H ) :   0.9175
B( 10-C , 13-H ) :   0.9688 B( 10-C , 14-H ) :   0.9683 B( 10-C , 15-H ) :   0.9597

Dispersion correction           -0.012837408
FINAL SINGLE POINT ENERGY      -267.661120641249

DIPOLE MOMENT
-------------
                                X             Y             Z
Electronic contribution:      1.53336      -1.25894      -3.87940
Nuclear contribution   :     -0.86957       2.18853       4.41892
                        -----------------------------------------
Total Dipole Moment    :      0.66379       0.92959       0.53951
                        -----------------------------------------
Magnitude (a.u.)       :      1.26327
Magnitude (Debye)      :      3.21097

Rotational constants in cm-1:     0.214718     0.075736     0.068547
Rotational constants in MHz :  6437.075121  2270.519635  2054.974198

                             ****ORCA TERMINATED NORMALLY****
TOTAL RUN TIME: 0 days 0 hours 0 minutes 11 seconds 867 msec
