                         Program Version 5.0.0 -  RELEASE  -
|  1> !PBE D3BJ RIJCOSX def2-TZVP def2/J TightSCF
|  2> *xyz 0 1
|  3> C          2.23447       -2.98975       -2.39762
|  4> N          2.75680       -2.94555       -3.76503
|  5> C          1.98721       -2.59045       -4.81898
|  6> N          0.74322       -3.01749       -4.91352
|  7> C          2.49964       -1.84860       -5.80324
|  8> H          3.30978       -1.29282       -5.55895
|  9> H          1.80103       -1.30430       -6.28913
| 10> H          3.71612       -2.62880       -3.82953
| 11> H          0.39583       -3.62775       -4.18502
| 12> H          0.03920       -2.45438       -5.37137
| 13> C          2.19120       -1.61950       -1.71549
| 14> H          2.87278       -3.66637       -1.82801
| 15> H          1.24619       -3.44744       -2.40784
| 16> H          1.56387       -0.96046       -2.27853
| 17> H          3.18033       -1.21449       -1.66568
| 18> H          1.79916       -1.72608       -0.72562
| 19> *
| 20>
| 21> %MaxCore 64000
| 22>
| 23> %pal nprocs 4
| 24> end
| 25>
| 26> %scf
| 27>   MaxIter 150
| 28> end
| 29>
| 30>
| 31>                          ****END OF INPUT****

CARTESIAN COORDINATES (ANGSTROEM)
---------------------------------
  C      2.234470   -2.989750   -2.397620
  N      2.756800   -2.945550   -3.765030
  C      1.987210   -2.590450   -4.818980
  N      0.743220   -3.017490   -4.913520
  C      2.499640   -1.848600   -5.803240
  H      3.309780   -1.292820   -5.558950
  H      1.801030   -1.304300   -6.289130
  H      3.716120   -2.628800   -3.829530
  H      0.395830   -3.627750   -4.185020
  H      0.039200   -2.454380   -5.371370
  C      2.191200   -1.619500   -1.715490
  H      2.872780   -3.666370   -1.828010
  H      1.246190   -3.447440   -2.407840
  H      1.563870   -0.960460   -2.278530
  H      3.180330   -1.214490   -1.665680
  H      1.799160   -1.726080   -0.725620

 Total Charge           Charge          ....    0
 Multiplicity           Mult            ....    1
 Number of Electrons    NEL             ....   48
 Basis Dimension        Dim             ....  246

ORBITAL ENERGIES
----------------

  NO   OCC          E(Eh)            E(eV)
   0   2.0000     -13.986672      -380.5967
   1   2.0000     -13.986232      -380.5847
   2   2.0000      -9.921435      -269.9760
   3   2.0000      -9.920250      -269.9437
   4   2.0000      -9.872087      -268.6331
   5   2.0000      -9.793066      -266.4829
   6   2.0000      -0.887039       -24.1376
   7   2.0000      -0.811416       -22.0798
   8   2.0000      -0.697263       -18.9735
   9   2.0000      -0.638935       -17.3863
  10   2.0000      -0.568690       -15.4748
  11   2.0000      -0.544901       -14.8275
  12   2.0000      -0.486922       -13.2498
  13   2.0000      -0.442295       -12.0354
  14   2.0000      -0.440287       -11.9808
  15   2.0000      -0.391970       -10.6660
  16   2.0000      -0.380805       -10.3622
  17   2.0000      -0.355275        -9.6675
  18   2.0000      -0.332746        -9.0545
  19   2.0000      -0.322228        -8.7683
  20   2.0000      -0.319724        -8.7001
  21   2.0000      -0.310595        -8.4517
  22   2.0000      -0.213650        -5.8137
  23   2.0000      -0.140320        -3.8183
  24   0.0000      -0.002105        -0.0573
  25   0.0000       0.020458         0.5567
  26   0.0000       0.025999         0.7075
  27   0.0000       0.042745         1.1632
  28   0.0000       0.055991         1.5236

MULLIKEN ATOMIC CHARGES
-----------------------
   0 C :   -0.134666
   1 N :   -0.246708
   2 C :    0.242816
   3 N :   -0.415419
   4 C :   -0.418438
   5 H :    0.062733
   6 H :    0.059633
   7 H :    0.202045
   8 H :    0.206591
   9 H :    0.232454
  10 C :   -0.320452
  11 H :    0.115791
  12 H :    0.077560
  13 H :    0.121961
  14 H :    0.105440
  15 H :    0.108658
Sum of atomic charges:   -0.0000000

LOEWDIN ATOMIC CHARGES
----------------------
   0 C :   -0.324762
   1 N :    0.115810
   2 C :   -0.482440
   3 N :    0.016249
   4 C :   -0.346218
   5 H :    0.096565
   6 H :    0.101525
   7 H :    0.188507
   8 H :    0.160262
   9 H :    0.175244
  10 C :   -0.310526
  11 H :    0.130590
  12 H :    0.123845
  13 H :    0.120585
  14 H :    0.116483
  15 H :    0.118280

  Mayer bond orders larger than 0.100000
B(  0-C ,  1-N ) :   1.0012 B(  0-C , 10-C ) :   0.9812 B(  0-C , 11-H ) :   0.9623
B(  0-C , 12-H ) :   0.9642 B(  1-N ,  2-C ) :   1.1945 B(  1-N ,  7-H ) :   0.9223
B(  2-C ,  3-N ) :   1.1407 B(  2-C ,  4-C ) :   1.7242 B(  3-N ,  8-H ) :   0.9264
B(  3-N ,  9-H ) :   0.9147 B(  4-C ,  5-H ) :   0.9991 B(  4-C ,  6-H ) :   0.9876
B( 10-C , 13-H ) :   0.9693 B( 10-C , 14-H ) :   0.9677 B( 10-C , 15-H ) :   0.9584

Dispersion correction           -0.012798985
FINAL SINGLE POINT ENERGY      -267.656042925785

DIPOLE MOMENT
-------------
                                X             Y             Z
Electronic contribution:     -0.13177      -2.42256      -2.99088
Nuclear contribution   :     -0.49695       2.43650       4.23017
                        -----------------------------------------
Total Dipole Moment    :     -0.62873       0.01394       1.23929
                        -----------------------------------------
Magnitude (a.u.)       :      1.38972
Magnitude (Debye)      :      3.53239

Rotational constants in cm-1:     0.211102     0.077011     0.069221
Rotational constants in MHz :  6328.667765  2308.731604  2075.192956

                             ****ORCA TERMINATED NORMALLY****
TOTAL RUN TIME: 0 days 0 hours 0 minutes 10 seconds 256 msec
