                         Program Version 5.0.0 -  RELEASE  -
|  1> !PBE D3BJ RIJCOSX def2-TZVP def2/J TightSCF xyzfile
|  2>
|  3> *xyzfile 0 1 D1.xyz
|  4>
|  5> %MaxCore 64000
|  6>
|  7> %pal nprocs 18
|  8> end
|  9>
| 10> %scf
| 11>   MaxIter 150
| 12> end
| 13>
| 14>
| 15>                          ****END OF INPUT****

CARTESIAN COORDINATES (ANGSTROEM)
---------------------------------
  C      2.234473   -2.989754   -2.397622
  C      2.756799   -2.945553   -3.765029
  C     -1.104325    0.251374   -2.860056
  C     -0.711893    0.842517   -4.218344
  H      0.154626    1.499800   -4.130909
  H     -1.538134    1.459222   -4.582671
  C     -0.397624   -0.205875   -5.288018
  C      1.987208   -2.590451   -4.818975
  N      0.743221   -3.017493   -4.913524
  N      2.499636   -1.848598   -5.803241
  H      3.309780   -1.292818   -5.558947
  H      1.801025   -1.304298   -6.289129
  H      3.716116   -2.628797   -3.829533
  H      0.395828   -3.627747   -4.185024
  H      0.039201   -2.454383   -5.371367
  F      0.617165   -0.005348   -5.998273
  O     -1.133173   -1.221380   -5.341465
  C      2.191199   -1.619503   -1.715492
  H      2.872783   -3.666368   -1.828014
  H      1.246188   -3.447444   -2.407842
  C      1.298729   -0.554314   -2.359773
  H      1.872917   -1.787955   -0.681310
  H      3.216809   -1.238432   -1.654428
  C     -0.196255   -0.863365   -2.325763
  H      1.612531   -0.371346   -3.393065
  H      1.480944    0.388638   -1.834444
  H     -0.404105   -1.761825   -2.909448
  H     -0.490439   -1.087880   -1.294131
  H     -1.143842    1.066711   -2.129680
  H     -2.114401   -0.156834   -2.930323

 Total Charge           Charge          ....    0
 Multiplicity           Mult            ....    1
 Number of Electrons    NEL             ....  102
 Basis Dimension        Dim             ....  505

ORBITAL ENERGIES
----------------

  NO   OCC          E(Eh)            E(eV)
   0   2.0000     -24.355317      -662.7419
   1   2.0000     -18.779943      -511.0282
   2   2.0000     -13.973693      -380.2435
   3   2.0000     -13.964343      -379.9891
   4   2.0000     -10.067639      -273.9544
   5   2.0000      -9.921302      -269.9723
   6   2.0000      -9.913109      -269.7494
   7   2.0000      -9.898404      -269.3493
   8   2.0000      -9.879348      -268.8307
   9   2.0000      -9.876187      -268.7447
  10   2.0000      -9.865537      -268.4549
  11   2.0000      -9.855802      -268.1900
  12   2.0000      -9.802076      -266.7280
  13   2.0000      -1.247162       -33.9370
  14   2.0000      -0.976997       -26.5854
  15   2.0000      -0.877119       -23.8676
  16   2.0000      -0.790576       -21.5127
  17   2.0000      -0.753952       -20.5161
  18   2.0000      -0.717303       -19.5188
  19   2.0000      -0.682888       -18.5823
  20   2.0000      -0.641970       -17.4689
  21   2.0000      -0.622470       -16.9383
  22   2.0000      -0.589212       -16.0333
  23   2.0000      -0.552954       -15.0466
  24   2.0000      -0.528303       -14.3759
  25   2.0000      -0.522324       -14.2132
  26   2.0000      -0.506705       -13.7882
  27   2.0000      -0.492873       -13.4118
  28   2.0000      -0.484133       -13.1739
  29   2.0000      -0.463146       -12.6028
  30   2.0000      -0.444170       -12.0865
  31   2.0000      -0.429685       -11.6923
  32   2.0000      -0.424424       -11.5492
  33   2.0000      -0.410612       -11.1733
  34   2.0000      -0.394179       -10.7262
  35   2.0000      -0.389726       -10.6050
  36   2.0000      -0.374886       -10.2012
  37   2.0000      -0.361090        -9.8258
  38   2.0000      -0.348952        -9.4955
  39   2.0000      -0.343096        -9.3361
  40   2.0000      -0.332219        -9.0401
  41   2.0000      -0.322259        -8.7691
  42   2.0000      -0.315306        -8.5799
  43   2.0000      -0.305239        -8.3060
  44   2.0000      -0.295657        -8.0452
  45   2.0000      -0.284078        -7.7302
  46   2.0000      -0.273672        -7.4470
  47   2.0000      -0.267968        -7.2918
  48   2.0000      -0.265347        -7.2205
  49   2.0000      -0.217096        -5.9075
  50   2.0000      -0.124324        -3.3830
  51   0.0000      -0.090190        -2.4542
  52   0.0000       0.000380         0.0103
  53   0.0000       0.022157         0.6029
  54   0.0000       0.025124         0.6837
  55   0.0000       0.030125         0.8197

MULLIKEN ATOMIC CHARGES
-----------------------
   0 C :   -0.202112
   1 C :   -0.262914
   2 C :   -0.155276
   3 C :   -0.198376
   4 H :    0.116261
   5 H :    0.136708
   6 C :    0.292136
   7 C :    0.041324
   8 N :   -0.337799
   9 N :   -0.332863
  10 H :    0.222947
  11 H :    0.196486
  12 H :    0.051352
  13 H :    0.214295
  14 H :    0.212660
  15 F :   -0.083196
  16 O :   -0.303592
  17 C :   -0.102920
  18 H :    0.091243
  19 H :    0.068224
  20 C :   -0.130422
  21 H :    0.071856
  22 H :    0.073701
  23 C :   -0.222623
  24 H :    0.078771
  25 H :    0.078665
  26 H :    0.087449
  27 H :    0.089610
  28 H :    0.102601
  29 H :    0.105804
Sum of atomic charges:   -0.0000000

LOEWDIN ATOMIC CHARGES
----------------------
   0 C :   -0.297065
   1 C :   -0.272073
   2 C :   -0.258806
   3 C :   -0.242091
   4 H :    0.146553
   5 H :    0.161519
   6 C :   -0.538293
   7 C :   -0.499133
   8 N :    0.031842
   9 N :   -0.003296
  10 H :    0.169530
  11 H :    0.147933
  12 H :    0.117200
  13 H :    0.170046
  14 H :    0.140351
  15 F :    0.352867
  16 O :    0.098459
  17 C :   -0.261583
  18 H :    0.140774
  19 H :    0.129674
  20 C :   -0.270797
  21 H :    0.133897
  22 H :    0.136611
  23 C :   -0.272218
  24 H :    0.136269
  25 H :    0.137410
  26 H :    0.135225
  27 H :    0.140686
  28 H :    0.142839
  29 H :    0.145671

  Mayer bond orders larger than 0.100000
B(  0-C ,  1-C ) :   1.0433 B(  0-C , 17-C ) :   0.9693 B(  0-C , 18-H ) :   0.9514
B(  0-C , 19-H ) :   0.9635 B(  1-C ,  7-C ) :   1.6825 B(  1-C , 12-H ) :   0.9968
B(  2-C ,  3-C ) :   0.9994 B(  2-C , 23-C ) :   1.0124 B(  2-C , 28-H ) :   0.9413
B(  2-C , 29-H ) :   0.9431 B(  3-C ,  4-H ) :   0.9340 B(  3-C ,  5-H ) :   0.9142
B(  3-C ,  6-C ) :   1.0319 B(  6-C , 15-F ) :   1.1354 B(  6-C , 16-O ) :   1.9784
B(  7-C ,  8-N ) :   1.2595 B(  7-C ,  9-N ) :   1.1898 B(  8-N , 13-H ) :   0.9206
B(  8-N , 14-H ) :   0.8608 B(  9-N , 10-H ) :   0.9210 B(  9-N , 11-H ) :   0.9192
B( 14-H , 16-O ) :   0.1094 B( 17-C , 20-C ) :   1.0341 B( 17-C , 21-H ) :   0.9327
B( 17-C , 22-H ) :   0.9421 B( 20-C , 23-C ) :   0.9924 B( 20-C , 24-H ) :   0.9311
B( 20-C , 25-H ) :   0.9465 B( 23-C , 26-H ) :   0.9492 B( 23-C , 27-H ) :   0.9495

Dispersion correction           -0.035215986
FINAL SINGLE POINT ENERGY      -637.210057472229

DIPOLE MOMENT
-------------
                                X             Y             Z
Electronic contribution:     -2.95586       2.05673     -14.58054
Nuclear contribution   :      2.31842      -0.27661      14.74721
                        -----------------------------------------
Total Dipole Moment    :     -0.63743       1.78013       0.16667
                        -----------------------------------------
Magnitude (a.u.)       :      1.89814
Magnitude (Debye)      :      4.82469

Rotational constants in cm-1:     0.032691     0.023990     0.017099
Rotational constants in MHz :   980.050971   719.190545   512.606858

                             ****ORCA TERMINATED NORMALLY****
TOTAL RUN TIME: 0 days 0 hours 0 minutes 23 seconds 289 msec
