                         Program Version 5.0.0 -  RELEASE  -
|  1> !PBE D3BJ RIJCOSX def2-TZVP def2/J TightSCF xyzfile
|  2>
|  3> *xyzfile 0 1 D5.xyz
|  4>
|  5> %MaxCore 64000
|  6>
|  7> %pal nprocs 18
|  8> end
|  9>
| 10> %scf
| 11>   MaxIter 150
| 12> end
| 13>
| 14>
| 15>                          ****END OF INPUT****

CARTESIAN COORDINATES (ANGSTROEM)
---------------------------------
  C      2.234473   -2.989754   -2.397622
  N      2.756799   -2.945553   -3.765029
  C     -1.104325    0.251374   -2.860056
  C     -0.711893    0.842517   -4.218344
  H      0.154626    1.499800   -4.130909
  H     -1.538134    1.459222   -4.582671
  C     -0.397624   -0.205875   -5.288018
  C      1.987208   -2.590451   -4.818975
  C      0.743221   -3.017493   -4.913524
  N      2.499636   -1.848598   -5.803241
  H      3.309780   -1.292818   -5.558947
  H      1.801025   -1.304298   -6.289129
  H      3.716116   -2.628797   -3.829533
  H      0.395828   -3.627747   -4.185024
  H      0.039201   -2.454383   -5.371367
  O      0.617165   -0.005348   -5.998273
  F     -1.133173   -1.221380   -5.341465
  C      2.191199   -1.619503   -1.715492
  H      2.872783   -3.666368   -1.828014
  H      1.246188   -3.447444   -2.407842
  C      1.298729   -0.554314   -2.359773
  H      1.872917   -1.787955   -0.681310
  H      3.216809   -1.238432   -1.654428
  C     -0.196255   -0.863365   -2.325763
  H      1.612531   -0.371346   -3.393065
  H      1.480944    0.388638   -1.834444
  H     -0.404105   -1.761825   -2.909448
  H     -0.490439   -1.087880   -1.294131
  H     -1.143842    1.066711   -2.129680
  H     -2.114401   -0.156834   -2.930323

 Total Charge           Charge          ....    0
 Multiplicity           Mult            ....    1
 Number of Electrons    NEL             ....  102
 Basis Dimension        Dim             ....  505

ORBITAL ENERGIES
----------------

  NO   OCC          E(Eh)            E(eV)
   0   2.0000     -24.330006      -662.0531
   1   2.0000     -18.764608      -510.6110
   2   2.0000     -13.980350      -380.4247
   3   2.0000     -13.959088      -379.8461
   4   2.0000     -10.055426      -273.6221
   5   2.0000      -9.912613      -269.7359
   6   2.0000      -9.908746      -269.6307
   7   2.0000      -9.908386      -269.6209
   8   2.0000      -9.897033      -269.3120
   9   2.0000      -9.882497      -268.9164
  10   2.0000      -9.881112      -268.8787
  11   2.0000      -9.880452      -268.8608
  12   2.0000      -9.785216      -266.2693
  13   2.0000      -1.224178       -33.3116
  14   2.0000      -0.960393       -26.1336
  15   2.0000      -0.873853       -23.7788
  16   2.0000      -0.798699       -21.7337
  17   2.0000      -0.751744       -20.4560
  18   2.0000      -0.712836       -19.3973
  19   2.0000      -0.665567       -18.1110
  20   2.0000      -0.637641       -17.3511
  21   2.0000      -0.621372       -16.9084
  22   2.0000      -0.596910       -16.2427
  23   2.0000      -0.557879       -15.1807
  24   2.0000      -0.526731       -14.3331
  25   2.0000      -0.510338       -13.8870
  26   2.0000      -0.489746       -13.3267
  27   2.0000      -0.485622       -13.2144
  28   2.0000      -0.476819       -12.9749
  29   2.0000      -0.461510       -12.5583
  30   2.0000      -0.435957       -11.8630
  31   2.0000      -0.430668       -11.7191
  32   2.0000      -0.422691       -11.5020
  33   2.0000      -0.401931       -10.9371
  34   2.0000      -0.395533       -10.7630
  35   2.0000      -0.373305       -10.1581
  36   2.0000      -0.368092       -10.0163
  37   2.0000      -0.364309        -9.9134
  38   2.0000      -0.346031        -9.4160
  39   2.0000      -0.339393        -9.2353
  40   2.0000      -0.332489        -9.0475
  41   2.0000      -0.327356        -8.9078
  42   2.0000      -0.316182        -8.6037
  43   2.0000      -0.314677        -8.5628
  44   2.0000      -0.298155        -8.1132
  45   2.0000      -0.289190        -7.8693
  46   2.0000      -0.287246        -7.8164
  47   2.0000      -0.280628        -7.6363
  48   2.0000      -0.252114        -6.8604
  49   2.0000      -0.198782        -5.4091
  50   2.0000      -0.136573        -3.7163
  51   0.0000      -0.073688        -2.0052
  52   0.0000       0.000801         0.0218
  53   0.0000       0.012673         0.3448
  54   0.0000       0.028779         0.7831
  55   0.0000       0.032086         0.8731

MULLIKEN ATOMIC CHARGES
-----------------------
   0 C :   -0.137947
   1 N :   -0.216947
   2 C :   -0.187326
   3 C :   -0.188230
   4 H :    0.125777
   5 H :    0.129685
   6 C :    0.305163
   7 C :    0.131826
   8 C :   -0.476756
   9 N :   -0.330476
  10 H :    0.180197
  11 H :    0.232642
  12 H :    0.173112
  13 H :    0.075486
  14 H :    0.098164
  15 O :   -0.334368
  16 F :   -0.053790
  17 C :   -0.191345
  18 H :    0.114823
  19 H :    0.118230
  20 C :   -0.136556
  21 H :    0.080183
  22 H :    0.089610
  23 C :   -0.198444
  24 H :    0.112309
  25 H :    0.082271
  26 H :    0.110539
  27 H :    0.084198
  28 H :    0.102278
  29 H :    0.105692
Sum of atomic charges:    0.0000000

LOEWDIN ATOMIC CHARGES
----------------------
   0 C :   -0.287454
   1 N :    0.121632
   2 C :   -0.268090
   3 C :   -0.237472
   4 H :    0.155869
   5 H :    0.156956
   6 C :   -0.527488
   7 C :   -0.496599
   8 C :   -0.318988
   9 N :    0.003451
  10 H :    0.148569
  11 H :    0.160787
  12 H :    0.171842
  13 H :    0.097009
  14 H :    0.092820
  15 O :    0.086623
  16 F :    0.367800
  17 C :   -0.274713
  18 H :    0.132866
  19 H :    0.138476
  20 C :   -0.270836
  21 H :    0.139272
  22 H :    0.135244
  23 C :   -0.274000
  24 H :    0.144173
  25 H :    0.138180
  26 H :    0.141091
  27 H :    0.138640
  28 H :    0.142110
  29 H :    0.142229

  Mayer bond orders larger than 0.100000
B(  0-C ,  1-N ) :   0.9703 B(  0-C , 17-C ) :   1.0087 B(  0-C , 18-H ) :   0.9589
B(  0-C , 19-H ) :   0.9630 B(  1-N ,  7-C ) :   1.1769 B(  1-N , 12-H ) :   0.9181
B(  2-C ,  3-C ) :   0.9774 B(  2-C , 23-C ) :   1.0009 B(  2-C , 28-H ) :   0.9395
B(  2-C , 29-H ) :   0.9537 B(  3-C ,  4-H ) :   0.9447 B(  3-C ,  5-H ) :   0.9172
B(  3-C ,  6-C ) :   1.0334 B(  6-C , 15-O ) :   1.9557 B(  6-C , 16-F ) :   1.1822
B(  7-C ,  8-C ) :   1.5980 B(  7-C ,  9-N ) :   1.2409 B(  8-C , 13-H ) :   1.0041
B(  8-C , 14-H ) :   0.9841 B(  9-N , 10-H ) :   0.9191 B(  9-N , 11-H ) :   0.8775
B( 17-C , 20-C ) :   1.0044 B( 17-C , 21-H ) :   0.9374 B( 17-C , 22-H ) :   0.9520
B( 20-C , 23-C ) :   0.9828 B( 20-C , 24-H ) :   0.9354 B( 20-C , 25-H ) :   0.9475
B( 23-C , 26-H ) :   0.9539 B( 23-C , 27-H ) :   0.9475

Dispersion correction           -0.035246701
FINAL SINGLE POINT ENERGY      -637.198346997604

DIPOLE MOMENT
-------------
                                X             Y             Z
Electronic contribution:     -4.26278       0.09667     -12.51317
Nuclear contribution   :      4.07548       1.14852      13.79455
                        -----------------------------------------
Total Dipole Moment    :     -0.18729       1.24519       1.28138
                        -----------------------------------------
Magnitude (a.u.)       :      1.79653
Magnitude (Debye)      :      4.56641

Rotational constants in cm-1:     0.033274     0.023559     0.016968
Rotational constants in MHz :   997.539108   706.293545   508.690532

                             ****ORCA TERMINATED NORMALLY****
TOTAL RUN TIME: 0 days 0 hours 0 minutes 22 seconds 945 msec
