                         Program Version 5.0.0 -  RELEASE  -
|  1> !CAM-B3LYP RIJCOSX def2-TZVP def2/J TightSCF
|  2> *xyz -1 1
|  3> C         -5.57236       -5.80780       -0.81644
|  4> S         -6.90318       -4.61903       -0.52846
|  5> O         -8.11485       -5.25093       -0.95701
|  6> O         -6.53271       -3.42684       -1.31485
|  7> O         -6.86563       -4.29496        0.91412
|  8> C         -4.45780       -5.94187        0.22919
|  9> H         -5.17735       -5.54257       -1.79771
| 10> H         -6.07420       -6.76889       -0.92127
| 11> H         -3.75515       -6.68239       -0.09144
| 12> H         -4.88182       -6.23486        1.16689
| 13> H         -3.95908       -5.00189        0.34143
| 14> *
| 15> %MaxCore 64000
| 16>
| 17> %pal nprocs 4
| 18> end
| 19>
| 20> %scf
| 21>   MaxIter 150
| 22> end
| 23>
| 24>                          ****END OF INPUT****

CARTESIAN COORDINATES (ANGSTROEM)
---------------------------------
  C     -5.572360   -5.807800   -0.816440
  S     -6.903180   -4.619030   -0.528460
  O     -8.114850   -5.250930   -0.957010
  O     -6.532710   -3.426840   -1.314850
  O     -6.865630   -4.294960    0.914120
  C     -4.457800   -5.941870    0.229190
  H     -5.177350   -5.542570   -1.797710
  H     -6.074200   -6.768890   -0.921270
  H     -3.755150   -6.682390   -0.091440
  H     -4.881820   -6.234860    1.166890
  H     -3.959080   -5.001890    0.341430

 Total Charge           Charge          ....   -1
 Multiplicity           Mult            ....    1
 Number of Electrons    NEL             ....   58
 Basis Dimension        Dim             ....  222

ORBITAL ENERGIES
----------------

  NO   OCC          E(Eh)            E(eV)
   0   2.0000     -88.912183     -2419.4235
   1   2.0000     -18.975292      -516.3440
   2   2.0000     -18.960866      -515.9514
   3   2.0000     -18.959619      -515.9175
   4   2.0000     -10.104102      -274.9466
   5   2.0000     -10.100594      -274.8511
   6   2.0000      -7.955167      -216.4711
   7   2.0000      -5.919831      -161.0868
   8   2.0000      -5.918587      -161.0529
   9   2.0000      -5.918373      -161.0471
  10   2.0000      -0.999835       -27.2069
  11   2.0000      -0.866128       -23.5685
  12   2.0000      -0.842490       -22.9253
  13   2.0000      -0.713400       -19.4126
  14   2.0000      -0.586903       -15.9705
  15   2.0000      -0.451505       -12.2861
  16   2.0000      -0.388347       -10.5675
  17   2.0000      -0.380280       -10.3480
  18   2.0000      -0.341661        -9.2971
  19   2.0000      -0.324192        -8.8217
  20   2.0000      -0.322302        -8.7703
  21   2.0000      -0.290134        -7.8950
  22   2.0000      -0.284294        -7.7360
  23   2.0000      -0.212890        -5.7930
  24   2.0000      -0.211193        -5.7469
  25   2.0000      -0.176909        -4.8139
  26   2.0000      -0.164971        -4.4891
  27   2.0000      -0.160138        -4.3576
  28   2.0000      -0.122151        -3.3239
  29   0.0000       0.205856         5.6016
  30   0.0000       0.253763         6.9053
  31   0.0000       0.268733         7.3126
  32   0.0000       0.272415         7.4128
  33   0.0000       0.296144         8.0585

MULLIKEN ATOMIC CHARGES
-----------------------
   0 C :   -0.251916
   1 S :    0.834028
   2 O :   -0.541487
   3 O :   -0.590782
   4 O :   -0.593024
   5 C :   -0.317852
   6 H :    0.091400
   7 H :    0.086174
   8 H :    0.068719
   9 H :    0.109674
  10 H :    0.105066
Sum of atomic charges:   -1.0000000

LOEWDIN ATOMIC CHARGES
----------------------
   0 C :   -0.424860
   1 S :    0.432611
   2 O :   -0.371992
   3 O :   -0.431111
   4 O :   -0.427047
   5 C :   -0.339535
   6 H :    0.118739
   7 H :    0.116873
   8 H :    0.099187
   9 H :    0.113558
  10 H :    0.113578

  Mayer bond orders larger than 0.100000
B(  0-C ,  1-S ) :   0.8801 B(  0-C ,  5-C ) :   0.9381 B(  0-C ,  6-H ) :   0.9675
B(  0-C ,  7-H ) :   0.9627 B(  1-S ,  2-O ) :   1.8310 B(  1-S ,  3-O ) :   1.7718
B(  1-S ,  4-O ) :   1.7555 B(  5-C ,  8-H ) :   0.9677 B(  5-C ,  9-H ) :   0.9776
B(  5-C , 10-H ) :   0.9801

FINAL SINGLE POINT ENERGY      -703.196581060395

DIPOLE MOMENT
-------------
                                X             Y             Z
Electronic contribution:     -6.69183       4.31695      -0.92642
Nuclear contribution   :      8.13140      -5.68016       0.80206
                        -----------------------------------------
Total Dipole Moment    :      1.43957      -1.36321      -0.12436
                        -----------------------------------------
Magnitude (a.u.)       :      1.98650
Magnitude (Debye)      :      5.04928

Rotational constants in cm-1:     0.162101     0.080498     0.079099
Rotational constants in MHz :  4859.669771  2413.267251  2371.338602

                             ****ORCA TERMINATED NORMALLY****
TOTAL RUN TIME: 0 days 0 hours 0 minutes 37 seconds 446 msec
