                         Program Version 5.0.0 -  RELEASE  -
|  1> !CAM-B3LYP RIJCOSX def2-TZVP def2/J TightSCF
|  2> *xyz 1 1
|  3> C         -4.38262       -1.67089        1.21620
|  4> N         -5.76354       -1.91517        0.70501
|  5> C         -3.28173       -2.19127        0.29436
|  6> H         -5.84081       -2.11520       -0.30065
|  7> H         -6.40882       -1.14866        0.93612
|  8> H         -6.17478       -2.79061        1.05143
|  9> H         -4.32862       -2.13922        2.19810
| 10> H         -4.26158       -0.59740        1.35725
| 11> H         -3.36057       -1.71407       -0.66008
| 12> H         -3.38775       -3.24919        0.17403
| 13> H         -2.32559       -1.97514        0.72329
| 14> *
| 15> %MaxCore 64000
| 16>
| 17> %pal nprocs 4
| 18> end
| 19>
| 20> %scf
| 21>   MaxIter 150
| 22> end
| 23>
| 24>                          ****END OF INPUT****

CARTESIAN COORDINATES (ANGSTROEM)
---------------------------------
  C     -4.382620   -1.670890    1.216200
  N     -5.763540   -1.915170    0.705010
  C     -3.281730   -2.191270    0.294360
  H     -5.840810   -2.115200   -0.300650
  H     -6.408820   -1.148660    0.936120
  H     -6.174780   -2.790610    1.051430
  H     -4.328620   -2.139220    2.198100
  H     -4.261580   -0.597400    1.357250
  H     -3.360570   -1.714070   -0.660080
  H     -3.387750   -3.249190    0.174030
  H     -2.325590   -1.975140    0.723290

 Total Charge           Charge          ....    1
 Multiplicity           Mult            ....    1
 Number of Electrons    NEL             ....   26
 Basis Dimension        Dim             ....  141

ORBITAL ENERGIES
----------------

  NO   OCC          E(Eh)            E(eV)
   0   2.0000     -14.725094      -400.6902
   1   2.0000     -10.498315      -285.6737
   2   2.0000     -10.416487      -283.4470
   3   2.0000      -1.299458       -35.3601
   4   2.0000      -1.048962       -28.5437
   5   2.0000      -0.927439       -25.2369
   6   2.0000      -0.869695       -23.6656
   7   2.0000      -0.848351       -23.0848
   8   2.0000      -0.772629       -21.0243
   9   2.0000      -0.710461       -19.3326
  10   2.0000      -0.650397       -17.6982
  11   2.0000      -0.632943       -17.2233
  12   2.0000      -0.614642       -16.7253
  13   0.0000      -0.158288        -4.3072
  14   0.0000      -0.098395        -2.6775
  15   0.0000      -0.094617        -2.5747
  16   0.0000      -0.073722        -2.0061
  17   0.0000      -0.037058        -1.0084

MULLIKEN ATOMIC CHARGES
-----------------------
   0 C :   -0.181753
   1 N :   -0.299809
   2 C :   -0.374944
   3 H :    0.321448
   4 H :    0.336177
   5 H :    0.325647
   6 H :    0.192163
   7 H :    0.190884
   8 H :    0.156639
   9 H :    0.152314
  10 H :    0.181233
Sum of atomic charges:    1.0000000

LOEWDIN ATOMIC CHARGES
----------------------
   0 C :   -0.270794
   1 N :    0.165145
   2 C :   -0.277627
   3 H :    0.221160
   4 H :    0.225200
   5 H :    0.223054
   6 H :    0.152565
   7 H :    0.153393
   8 H :    0.130466
   9 H :    0.129815
  10 H :    0.147622

  Mayer bond orders larger than 0.100000
B(  0-C ,  1-N ) :   0.8185 B(  0-C ,  2-C ) :   0.9597 B(  0-C ,  6-H ) :   0.9627
B(  0-C ,  7-H ) :   0.9626 B(  1-N ,  3-H ) :   0.8792 B(  1-N ,  4-H ) :   0.8787
B(  1-N ,  5-H ) :   0.8842 B(  2-C ,  8-H ) :   0.9602 B(  2-C ,  9-H ) :   0.9633
B(  2-C , 10-H ) :   0.9592

FINAL SINGLE POINT ENERGY      -135.502747988064

DIPOLE MOMENT
-------------
                                X             Y             Z
Electronic contribution:     -1.82167       0.24096       0.30815
Nuclear contribution   :      0.19437      -0.25358      -0.32106
                        -----------------------------------------
Total Dipole Moment    :     -1.62730      -0.01262      -0.01291
                        -----------------------------------------
Magnitude (a.u.)       :      1.62740
Magnitude (Debye)      :      4.13652

Rotational constants in cm-1:     1.030014     0.272489     0.242697
Rotational constants in MHz : 30879.030706  8169.007780  7275.865152

                             ****ORCA TERMINATED NORMALLY****
TOTAL RUN TIME: 0 days 0 hours 0 minutes 16 seconds 694 msec
