                         Program Version 5.0.0 -  RELEASE  -
|  1> !CAM-B3LYP RIJCOSX def2-TZVP def2/J TightSCF xyzfile
|  2>
|  3> *xyzfile 0 1 B.xyz
|  4>
|  5> %MaxCore 64000
|  6>
|  7> %pal nprocs 18
|  8> end
|  9>
| 10> %scf
| 11>   MaxIter 150
| 12> end
| 13>
| 14>
| 15>                          ****END OF INPUT****

CARTESIAN COORDINATES (ANGSTROEM)
---------------------------------
  C     -4.382623   -1.670889    1.216201
  N     -5.763539   -1.915170    0.705012
  C     -3.281728   -2.191272    0.294361
  C     -5.572364   -5.807798   -0.816445
  S     -6.903179   -4.619033   -0.528458
  H     -5.840812   -2.115205   -0.300646
  H     -6.408823   -1.148656    0.936124
  H     -6.174781   -2.790606    1.051433
  O     -8.114853   -5.250932   -0.957007
  O     -6.532715   -3.426838   -1.314848
  H     -4.328618   -2.139223    2.198103
  H     -4.261583   -0.597399    1.357248
  O     -6.865632   -4.294957    0.914118
  C     -3.474641   -3.605898   -0.259608
  H     -2.354548   -2.127602    0.871433
  H     -3.166611   -1.499693   -0.545037
  C     -3.827078   -4.661097    0.786174
  H     -2.560559   -3.889391   -0.788050
  H     -4.255932   -3.570040   -1.019300
  C     -4.457800   -5.941875    0.229195
  H     -5.177347   -5.542575   -1.797714
  H     -6.074202   -6.768894   -0.921272
  H     -4.530506   -4.253640    1.511979
  H     -2.933400   -4.932302    1.356825
  H     -3.681064   -6.562236   -0.229885
  H     -4.843942   -6.512728    1.075805

 Total Charge           Charge          ....    0
 Multiplicity           Mult            ....    1
 Number of Electrons    NEL             ....   98
 Basis Dimension        Dim             ....  437

ORBITAL ENERGIES
----------------

  NO   OCC          E(Eh)            E(eV)
   0   2.0000     -89.086171     -2424.1579
   1   2.0000     -19.152527      -521.1668
   2   2.0000     -19.148308      -521.0519
   3   2.0000     -19.135562      -520.7051
   4   2.0000     -14.495611      -394.4456
   5   2.0000     -10.332295      -281.1560
   6   2.0000     -10.278275      -279.6861
   7   2.0000     -10.252018      -278.9716
   8   2.0000     -10.249333      -278.8985
   9   2.0000     -10.247442      -278.8471
  10   2.0000     -10.246047      -278.8091
  11   2.0000      -8.130022      -221.2292
  12   2.0000      -6.094517      -165.8402
  13   2.0000      -6.093938      -165.8245
  14   2.0000      -6.092616      -165.7885
  15   2.0000      -1.180371       -32.1195
  16   2.0000      -1.091287       -29.6954
  17   2.0000      -1.039726       -28.2924
  18   2.0000      -1.036832       -28.2136
  19   2.0000      -0.916262       -24.9327
  20   2.0000      -0.875038       -23.8110
  21   2.0000      -0.823783       -22.4163
  22   2.0000      -0.771331       -20.9890
  23   2.0000      -0.715851       -19.4793
  24   2.0000      -0.675153       -18.3719
  25   2.0000      -0.663620       -18.0580
  26   2.0000      -0.649206       -17.6658
  27   2.0000      -0.612279       -16.6610
  28   2.0000      -0.583324       -15.8731
  29   2.0000      -0.561887       -15.2897
  30   2.0000      -0.555952       -15.1282
  31   2.0000      -0.540018       -14.6946
  32   2.0000      -0.518727       -14.1153
  33   2.0000      -0.509550       -13.8656
  34   2.0000      -0.500919       -13.6307
  35   2.0000      -0.489173       -13.3111
  36   2.0000      -0.486068       -13.2266
  37   2.0000      -0.454519       -12.3681
  38   2.0000      -0.443386       -12.0651
  39   2.0000      -0.439149       -11.9499
  40   2.0000      -0.411286       -11.1916
  41   2.0000      -0.404978       -11.0200
  42   2.0000      -0.398052       -10.8316
  43   2.0000      -0.388396       -10.5688
  44   2.0000      -0.384798       -10.4709
  45   2.0000      -0.347511        -9.4562
  46   2.0000      -0.340779        -9.2731
  47   2.0000      -0.331907        -9.0317
  48   2.0000      -0.308936        -8.4066
  49   0.0000       0.023898         0.6503
  50   0.0000       0.063052         1.7157
  51   0.0000       0.074800         2.0354
  52   0.0000       0.077194         2.1006
  53   0.0000       0.094372         2.5680

MULLIKEN ATOMIC CHARGES
-----------------------
   0 C :   -0.230128
   1 N :   -0.277282
   2 C :   -0.188420
   3 C :   -0.323805
   4 S :    0.897295
   5 H :    0.304859
   6 H :    0.272191
   7 H :    0.301516
   8 O :   -0.479227
   9 O :   -0.604744
  10 H :    0.174642
  11 H :    0.150127
  12 O :   -0.592841
  13 C :   -0.299069
  14 H :    0.120500
  15 H :    0.132186
  16 C :   -0.240807
  17 H :    0.113249
  18 H :    0.173781
  19 C :   -0.157555
  20 H :    0.142042
  21 H :    0.152466
  22 H :    0.126918
  23 H :    0.105273
  24 H :    0.107579
  25 H :    0.119252
Sum of atomic charges:   -0.0000000

LOEWDIN ATOMIC CHARGES
----------------------
   0 C :   -0.274454
   1 N :    0.137371
   2 C :   -0.268632
   3 C :   -0.380738
   4 S :    0.473685
   5 H :    0.186166
   6 H :    0.197440
   7 H :    0.165829
   8 O :   -0.308919
   9 O :   -0.396090
  10 H :    0.140342
  11 H :    0.136554
  12 O :   -0.377718
  13 C :   -0.271737
  14 H :    0.147297
  15 H :    0.142501
  16 C :   -0.275798
  17 H :    0.140029
  18 H :    0.144093
  19 C :   -0.281295
  20 H :    0.133513
  21 H :    0.139426
  22 H :    0.133480
  23 H :    0.135009
  24 H :    0.139310
  25 H :    0.143337

  Mayer bond orders larger than 0.100000
B(  0-C ,  1-N ) :   0.8647 B(  0-C ,  2-C ) :   0.9370 B(  0-C , 10-H ) :   0.9812
B(  0-C , 11-H ) :   0.9792 B(  1-N ,  5-H ) :   0.8229 B(  1-N ,  6-H ) :   0.9072
B(  1-N ,  7-H ) :   0.7869 B(  2-C , 13-C ) :   0.9446 B(  2-C , 14-H ) :   0.9746
B(  2-C , 15-H ) :   0.9804 B(  3-C ,  4-S ) :   0.9044 B(  3-C , 19-C ) :   0.9334
B(  3-C , 20-H ) :   0.9608 B(  3-C , 21-H ) :   0.9607 B(  4-S ,  8-O ) :   1.9582
B(  4-S ,  9-O ) :   1.5856 B(  4-S , 12-O ) :   1.5488 B(  5-H ,  9-O ) :   0.1090
B(  7-H , 12-O ) :   0.1815 B( 13-C , 16-C ) :   0.8995 B( 13-C , 17-H ) :   0.9777
B( 13-C , 18-H ) :   0.9783 B( 16-C , 19-C ) :   0.9542 B( 16-C , 22-H ) :   0.9747
B( 16-C , 23-H ) :   0.9688 B( 19-C , 24-H ) :   0.9680 B( 19-C , 25-H ) :   0.9787

FINAL SINGLE POINT ENERGY      -916.288010784530

DIPOLE MOMENT
-------------
                                X             Y             Z
Electronic contribution:    -13.53017      -2.90738      -3.66631
Nuclear contribution   :     16.18863       5.15617       4.97370
                        -----------------------------------------
Total Dipole Moment    :      2.65846       2.24879       1.30739
                        -----------------------------------------
Magnitude (a.u.)       :      3.71937
Magnitude (Debye)      :      9.45389

Rotational constants in cm-1:     0.048546     0.025588     0.020102
Rotational constants in MHz :  1455.374030   767.095631   602.645620

                             ****ORCA TERMINATED NORMALLY****
TOTAL RUN TIME: 0 days 0 hours 1 minutes 5 seconds 564 msec
