                         Program Version 5.0.0 -  RELEASE  -
|  1> !CAM-B3LYP RIJCOSX def2-TZVP def2/J TightSCF
|  2> *xyz 0 1
|  3> C         -5.57236       -5.80780       -0.81644
|  4> S         -6.90318       -4.61903       -0.52846
|  5> F         -8.11485       -5.25093       -0.95701
|  6> O         -6.53271       -3.42684       -1.31485
|  7> O         -6.86563       -4.29496        0.91412
|  8> C         -4.45780       -5.94187        0.22919
|  9> H         -5.17735       -5.54257       -1.79771
| 10> H         -6.07420       -6.76889       -0.92127
| 11> H         -3.75515       -6.68239       -0.09144
| 12> H         -4.88182       -6.23486        1.16689
| 13> H         -3.95908       -5.00189        0.34143
| 14> *
| 15> %MaxCore 64000
| 16>
| 17> %pal nprocs 4
| 18> end
| 19>
| 20> %scf
| 21>   MaxIter 150
| 22> end
| 23>
| 24>                          ****END OF INPUT****

CARTESIAN COORDINATES (ANGSTROEM)
---------------------------------
  C     -5.572360   -5.807800   -0.816440
  S     -6.903180   -4.619030   -0.528460
  F     -8.114850   -5.250930   -0.957010
  O     -6.532710   -3.426840   -1.314850
  O     -6.865630   -4.294960    0.914120
  C     -4.457800   -5.941870    0.229190
  H     -5.177350   -5.542570   -1.797710
  H     -6.074200   -6.768890   -0.921270
  H     -3.755150   -6.682390   -0.091440
  H     -4.881820   -6.234860    1.166890
  H     -3.959080   -5.001890    0.341430

 Total Charge           Charge          ....    0
 Multiplicity           Mult            ....    1
 Number of Electrons    NEL             ....   58
 Basis Dimension        Dim             ....  222

ORBITAL ENERGIES
----------------

  NO   OCC          E(Eh)            E(eV)
   0   2.0000     -89.180380     -2426.7215
   1   2.0000     -24.885460      -677.1678
   2   2.0000     -19.201542      -522.5005
   3   2.0000     -19.201261      -522.4929
   4   2.0000     -10.309304      -280.5304
   5   2.0000     -10.264072      -279.2996
   6   2.0000      -8.223973      -223.7857
   7   2.0000      -6.191783      -168.4870
   8   2.0000      -6.185374      -168.3126
   9   2.0000      -6.184956      -168.3012
  10   2.0000      -1.478775       -40.2395
  11   2.0000      -1.176921       -32.0257
  12   2.0000      -1.077726       -29.3264
  13   2.0000      -0.905926       -24.6515
  14   2.0000      -0.821213       -22.3463
  15   2.0000      -0.759294       -20.6615
  16   2.0000      -0.671926       -18.2840
  17   2.0000      -0.669524       -18.2187
  18   2.0000      -0.629177       -17.1208
  19   2.0000      -0.566092       -15.4042
  20   2.0000      -0.550684       -14.9849
  21   2.0000      -0.513091       -13.9619
  22   2.0000      -0.497541       -13.5388
  23   2.0000      -0.474208       -12.9039
  24   2.0000      -0.458932       -12.4882
  25   2.0000      -0.448535       -12.2053
  26   2.0000      -0.391262       -10.6468
  27   2.0000      -0.389323       -10.5940
  28   2.0000      -0.367259        -9.9936
  29   0.0000       0.057089         1.5535
  30   0.0000       0.069580         1.8934
  31   0.0000       0.095415         2.5964
  32   0.0000       0.112588         3.0637
  33   0.0000       0.117239         3.1902

MULLIKEN ATOMIC CHARGES
-----------------------
   0 C :   -0.260262
   1 S :    0.872841
   2 F :   -0.096230
   3 O :   -0.441644
   4 O :   -0.446070
   5 C :   -0.332245
   6 H :    0.160343
   7 H :    0.129554
   8 H :    0.131335
   9 H :    0.138895
  10 H :    0.143482
Sum of atomic charges:   -0.0000000

LOEWDIN ATOMIC CHARGES
----------------------
   0 C :   -0.391642
   1 S :    0.552398
   2 F :    0.107226
   3 O :   -0.310908
   4 O :   -0.309852
   5 C :   -0.300148
   6 H :    0.143001
   7 H :    0.132436
   8 H :    0.124779
   9 H :    0.125420
  10 H :    0.127291

  Mayer bond orders larger than 0.100000
B(  0-C ,  1-S ) :   0.9084 B(  0-C ,  5-C ) :   0.9523 B(  0-C ,  6-H ) :   0.9432
B(  0-C ,  7-H ) :   0.9444 B(  1-S ,  2-F ) :   1.1533 B(  1-S ,  3-O ) :   1.9047
B(  1-S ,  4-O ) :   1.8925 B(  5-C ,  8-H ) :   0.9603 B(  5-C ,  9-H ) :   0.9693
B(  5-C , 10-H ) :   0.9718

FINAL SINGLE POINT ENERGY      -727.713007241960

DIPOLE MOMENT
-------------
                                X             Y             Z
Electronic contribution:     -9.41059       3.54979      -1.87595
Nuclear contribution   :      9.80704      -5.24335       1.35017
                        -----------------------------------------
Total Dipole Moment    :      0.39645      -1.69356      -0.52577
                        -----------------------------------------
Magnitude (a.u.)       :      1.81707
Magnitude (Debye)      :      4.61863

Rotational constants in cm-1:     0.156316     0.078308     0.076228
Rotational constants in MHz :  4686.224999  2347.601204  2285.245115

                             ****ORCA TERMINATED NORMALLY****
TOTAL RUN TIME: 0 days 0 hours 0 minutes 39 seconds 379 msec
