                         Program Version 5.0.0 -  RELEASE  -
|  1> !CAM-B3LYP RIJCOSX def2-TZVP def2/J TightSCF
|  2> *xyz 0 1
|  3> C         -4.38262       -1.67089        1.21620
|  4> C         -5.76354       -1.91517        0.70501
|  5> C         -3.28173       -2.19127        0.29436
|  6> H         -5.84081       -2.11520       -0.30065
|  7> H         -6.40882       -1.14866        0.93612
|  8> H         -6.17478       -2.79061        1.05143
|  9> H         -4.32862       -2.13922        2.19810
| 10> H         -4.26158       -0.59740        1.35725
| 11> H         -3.36057       -1.71407       -0.66008
| 12> H         -3.38775       -3.24919        0.17403
| 13> H         -2.32559       -1.97514        0.72329
| 14> *
| 15> %MaxCore 64000
| 16>
| 17> %pal nprocs 4
| 18> end
| 19>
| 20> %scf
| 21>   MaxIter 150
| 22> end
| 23>
| 24>                          ****END OF INPUT****

CARTESIAN COORDINATES (ANGSTROEM)
---------------------------------
  C     -4.382620   -1.670890    1.216200
  C     -5.763540   -1.915170    0.705010
  C     -3.281730   -2.191270    0.294360
  H     -5.840810   -2.115200   -0.300650
  H     -6.408820   -1.148660    0.936120
  H     -6.174780   -2.790610    1.051430
  H     -4.328620   -2.139220    2.198100
  H     -4.261580   -0.597400    1.357250
  H     -3.360570   -1.714070   -0.660080
  H     -3.387750   -3.249190    0.174030
  H     -2.325590   -1.975140    0.723290

 Total Charge           Charge          ....    0
 Multiplicity           Mult            ....    1
 Number of Electrons    NEL             ....   26
 Basis Dimension        Dim             ....  141

ORBITAL ENERGIES
----------------

  NO   OCC          E(Eh)            E(eV)
   0   2.0000     -10.229806      -278.3672
   1   2.0000     -10.220302      -278.1086
   2   2.0000     -10.201305      -277.5916
   3   2.0000      -0.871501       -23.7147
   4   2.0000      -0.772692       -21.0260
   5   2.0000      -0.667305       -18.1583
   6   2.0000      -0.534089       -14.5333
   7   2.0000      -0.512064       -13.9340
   8   2.0000      -0.478125       -13.0104
   9   2.0000      -0.452955       -12.3255
  10   2.0000      -0.405740       -11.0407
  11   2.0000      -0.398415       -10.8414
  12   2.0000      -0.386104       -10.5064
  13   0.0000       0.077118         2.0985
  14   0.0000       0.118793         3.2325
  15   0.0000       0.122379         3.3301
  16   0.0000       0.132647         3.6095
  17   0.0000       0.157869         4.2958

MULLIKEN ATOMIC CHARGES
-----------------------
   0 C :   -0.136460
   1 C :   -0.366994
   2 C :   -0.348134
   3 H :    0.113689
   4 H :    0.113288
   5 H :    0.116437
   6 H :    0.089893
   7 H :    0.089647
   8 H :    0.110900
   9 H :    0.106378
  10 H :    0.111357
Sum of atomic charges:    0.0000000

LOEWDIN ATOMIC CHARGES
----------------------
   0 C :   -0.315927
   1 C :   -0.311025
   2 C :   -0.306691
   3 H :    0.109574
   4 H :    0.108911
   5 H :    0.109699
   6 H :    0.131593
   7 H :    0.130839
   8 H :    0.114624
   9 H :    0.114416
  10 H :    0.113987

  Mayer bond orders larger than 0.100000
B(  0-C ,  1-C ) :   0.9263 B(  0-C ,  2-C ) :   0.9561 B(  0-C ,  6-H ) :   0.9802
B(  0-C ,  7-H ) :   0.9830 B(  1-C ,  3-H ) :   0.9846 B(  1-C ,  4-H ) :   0.9854
B(  1-C ,  5-H ) :   0.9827 B(  2-C ,  8-H ) :   0.9795 B(  2-C ,  9-H ) :   0.9796
B(  2-C , 10-H ) :   0.9841

FINAL SINGLE POINT ENERGY      -119.090959908866

DIPOLE MOMENT
-------------
                                X             Y             Z
Electronic contribution:      0.18536       0.23923       0.33967
Nuclear contribution   :     -0.21528      -0.24783      -0.32864
                        -----------------------------------------
Total Dipole Moment    :     -0.02991      -0.00860       0.01103
                        -----------------------------------------
Magnitude (a.u.)       :      0.03302
Magnitude (Debye)      :      0.08393

Rotational constants in cm-1:     1.037566     0.286459     0.254172
Rotational constants in MHz : 31105.431429  8587.814531  7619.871198

                             ****ORCA TERMINATED NORMALLY****
TOTAL RUN TIME: 0 days 0 hours 0 minutes 15 seconds 379 msec
