                         Program Version 5.0.0 -  RELEASE  -
|  1> !CAM-B3LYP RIJCOSX def2-TZVP def2/J TightSCF
|  2> *xyz 0 1
|  3> C         -5.57236       -5.80780       -0.81644
|  4> S         -6.90318       -4.61903       -0.52846
|  5> O         -8.11485       -5.25093       -0.95701
|  6> F         -6.53271       -3.42684       -1.31485
|  7> O         -6.86563       -4.29496        0.91412
|  8> C         -4.45780       -5.94187        0.22919
|  9> H         -5.17735       -5.54257       -1.79771
| 10> H         -6.07420       -6.76889       -0.92127
| 11> H         -3.75515       -6.68239       -0.09144
| 12> H         -4.88182       -6.23486        1.16689
| 13> H         -3.95908       -5.00189        0.34143
| 14> *
| 15> %MaxCore 64000
| 16>
| 17> %pal nprocs 4
| 18> end
| 19>
| 20> %scf
| 21>   MaxIter 150
| 22> end
| 23>
| 24>                          ****END OF INPUT****

CARTESIAN COORDINATES (ANGSTROEM)
---------------------------------
  C     -5.572360   -5.807800   -0.816440
  S     -6.903180   -4.619030   -0.528460
  O     -8.114850   -5.250930   -0.957010
  F     -6.532710   -3.426840   -1.314850
  O     -6.865630   -4.294960    0.914120
  C     -4.457800   -5.941870    0.229190
  H     -5.177350   -5.542570   -1.797710
  H     -6.074200   -6.768890   -0.921270
  H     -3.755150   -6.682390   -0.091440
  H     -4.881820   -6.234860    1.166890
  H     -3.959080   -5.001890    0.341430

 Total Charge           Charge          ....    0
 Multiplicity           Mult            ....    1
 Number of Electrons    NEL             ....   58
 Basis Dimension        Dim             ....  222

ORBITAL ENERGIES
----------------

  NO   OCC          E(Eh)            E(eV)
   0   2.0000     -89.178291     -2426.6647
   1   2.0000     -24.862899      -676.5539
   2   2.0000     -19.216267      -522.9012
   3   2.0000     -19.201309      -522.4942
   4   2.0000     -10.308741      -280.5151
   5   2.0000     -10.263788      -279.2919
   6   2.0000      -8.221890      -223.7290
   7   2.0000      -6.189817      -168.4335
   8   2.0000      -6.183421      -168.2594
   9   2.0000      -6.182790      -168.2423
  10   2.0000      -1.441942       -39.2372
  11   2.0000      -1.194345       -32.4998
  12   2.0000      -1.093499       -29.7556
  13   2.0000      -0.905741       -24.6465
  14   2.0000      -0.807271       -21.9670
  15   2.0000      -0.751174       -20.4405
  16   2.0000      -0.654833       -17.8189
  17   2.0000      -0.644076       -17.5262
  18   2.0000      -0.624988       -17.0068
  19   2.0000      -0.564696       -15.3662
  20   2.0000      -0.552313       -15.0292
  21   2.0000      -0.524829       -14.2813
  22   2.0000      -0.501193       -13.6382
  23   2.0000      -0.471558       -12.8317
  24   2.0000      -0.469288       -12.7700
  25   2.0000      -0.451619       -12.2892
  26   2.0000      -0.404918       -11.0184
  27   2.0000      -0.393078       -10.6962
  28   2.0000      -0.380232       -10.3466
  29   0.0000       0.054965         1.4957
  30   0.0000       0.074540         2.0283
  31   0.0000       0.093303         2.5389
  32   0.0000       0.116355         3.1662
  33   0.0000       0.119264         3.2453

MULLIKEN ATOMIC CHARGES
-----------------------
   0 C :   -0.269021
   1 S :    0.874918
   2 O :   -0.402374
   3 F :   -0.128883
   4 O :   -0.453196
   5 C :   -0.327171
   6 H :    0.137580
   7 H :    0.163302
   8 H :    0.130659
   9 H :    0.147811
  10 H :    0.126376
Sum of atomic charges:    0.0000000

LOEWDIN ATOMIC CHARGES
----------------------
   0 C :   -0.389735
   1 S :    0.559678
   2 O :   -0.259276
   3 F :    0.053095
   4 O :   -0.312968
   5 C :   -0.305988
   6 H :    0.134460
   7 H :    0.147463
   8 H :    0.124031
   9 H :    0.127137
  10 H :    0.122102

  Mayer bond orders larger than 0.100000
B(  0-C ,  1-S ) :   0.9058 B(  0-C ,  5-C ) :   0.9472 B(  0-C ,  6-H ) :   0.9488
B(  0-C ,  7-H ) :   0.9450 B(  1-S ,  2-O ) :   1.9585 B(  1-S ,  3-F ) :   1.1095
B(  1-S ,  4-O ) :   1.8913 B(  5-C ,  8-H ) :   0.9610 B(  5-C ,  9-H ) :   0.9694
B(  5-C , 10-H ) :   0.9728

FINAL SINGLE POINT ENERGY      -727.731786322020

DIPOLE MOMENT
-------------
                                X             Y             Z
Electronic contribution:     -6.70565       6.67973      -2.50656
Nuclear contribution   :      8.15840      -7.14411       1.72305
                        -----------------------------------------
Total Dipole Moment    :      1.45275      -0.46437      -0.78351
                        -----------------------------------------
Magnitude (a.u.)       :      1.71464
Magnitude (Debye)      :      4.35828

Rotational constants in cm-1:     0.153926     0.078297     0.077402
Rotational constants in MHz :  4614.585804  2347.272644  2320.438903

                             ****ORCA TERMINATED NORMALLY****
TOTAL RUN TIME: 0 days 0 hours 0 minutes 36 seconds 894 msec
