                         Program Version 5.0.0 -  RELEASE  -
|  1> !CAM-B3LYP RIJCOSX def2-TZVP def2/J TightSCF
|  2> *xyz 0 1
|  3> C         -5.57236       -5.80780       -0.81644
|  4> S         -6.90318       -4.61903       -0.52846
|  5> O         -8.11485       -5.25093       -0.95701
|  6> O         -6.53271       -3.42684       -1.31485
|  7> F         -6.86563       -4.29496        0.91412
|  8> C         -4.45780       -5.94187        0.22919
|  9> H         -5.17735       -5.54257       -1.79771
| 10> H         -6.07420       -6.76889       -0.92127
| 11> H         -3.75515       -6.68239       -0.09144
| 12> H         -4.88182       -6.23486        1.16689
| 13> H         -3.95908       -5.00189        0.34143
| 14> *
| 15> %MaxCore 64000
| 16>
| 17> %pal nprocs 4
| 18> end
| 19>
| 20> %scf
| 21>   MaxIter 150
| 22> end
| 23>
| 24>                          ****END OF INPUT****

CARTESIAN COORDINATES (ANGSTROEM)
---------------------------------
  C     -5.572360   -5.807800   -0.816440
  S     -6.903180   -4.619030   -0.528460
  O     -8.114850   -5.250930   -0.957010
  O     -6.532710   -3.426840   -1.314850
  F     -6.865630   -4.294960    0.914120
  C     -4.457800   -5.941870    0.229190
  H     -5.177350   -5.542570   -1.797710
  H     -6.074200   -6.768890   -0.921270
  H     -3.755150   -6.682390   -0.091440
  H     -4.881820   -6.234860    1.166890
  H     -3.959080   -5.001890    0.341430

 Total Charge           Charge          ....    0
 Multiplicity           Mult            ....    1
 Number of Electrons    NEL             ....   58
 Basis Dimension        Dim             ....  222

ORBITAL ENERGIES
----------------

  NO   OCC          E(Eh)            E(eV)
   0   2.0000     -89.177684     -2426.6482
   1   2.0000     -24.861667      -676.5204
   2   2.0000     -19.215918      -522.8917
   3   2.0000     -19.200376      -522.4688
   4   2.0000     -10.307981      -280.4944
   5   2.0000     -10.271164      -279.4926
   6   2.0000      -8.221323      -223.7136
   7   2.0000      -6.189343      -168.4206
   8   2.0000      -6.182656      -168.2386
   9   2.0000      -6.182337      -168.2300
  10   2.0000      -1.439127       -39.1606
  11   2.0000      -1.194820       -32.5127
  12   2.0000      -1.094033       -29.7702
  13   2.0000      -0.908711       -24.7273
  14   2.0000      -0.804360       -21.8878
  15   2.0000      -0.755631       -20.5618
  16   2.0000      -0.660266       -17.9668
  17   2.0000      -0.643131       -17.5005
  18   2.0000      -0.616983       -16.7890
  19   2.0000      -0.569581       -15.4991
  20   2.0000      -0.545670       -14.8484
  21   2.0000      -0.521493       -14.1906
  22   2.0000      -0.514707       -14.0059
  23   2.0000      -0.481904       -13.1133
  24   2.0000      -0.466378       -12.6908
  25   2.0000      -0.455205       -12.3867
  26   2.0000      -0.405282       -11.0283
  27   2.0000      -0.391536       -10.6542
  28   2.0000      -0.379646       -10.3307
  29   0.0000       0.044935         1.2227
  30   0.0000       0.089171         2.4265
  31   0.0000       0.102604         2.7920
  32   0.0000       0.109607         2.9826
  33   0.0000       0.116699         3.1755

MULLIKEN ATOMIC CHARGES
-----------------------
   0 C :   -0.258544
   1 S :    0.874832
   2 O :   -0.402205
   3 O :   -0.450971
   4 F :   -0.132581
   5 C :   -0.357272
   6 H :    0.165052
   7 H :    0.154457
   8 H :    0.136344
   9 H :    0.130835
  10 H :    0.140054
Sum of atomic charges:   -0.0000000

LOEWDIN ATOMIC CHARGES
----------------------
   0 C :   -0.384102
   1 S :    0.560062
   2 O :   -0.259333
   3 O :   -0.315835
   4 F :    0.052736
   5 C :   -0.313152
   6 H :    0.148098
   7 H :    0.141365
   8 H :    0.126557
   9 H :    0.120164
  10 H :    0.123438

  Mayer bond orders larger than 0.100000
B(  0-C ,  1-S ) :   0.9088 B(  0-C ,  5-C ) :   0.9447 B(  0-C ,  6-H ) :   0.9441
B(  0-C ,  7-H ) :   0.9458 B(  1-S ,  2-O ) :   1.9572 B(  1-S ,  3-O ) :   1.9016
B(  1-S ,  4-F ) :   1.1032 B(  5-C ,  8-H ) :   0.9649 B(  5-C ,  9-H ) :   0.9702
B(  5-C , 10-H ) :   0.9702

FINAL SINGLE POINT ENERGY      -727.732020254422

DIPOLE MOMENT
-------------
                                X             Y             Z
Electronic contribution:     -7.25194       5.15975       1.31366
Nuclear contribution   :      8.50531      -6.23950      -0.59960
                        -----------------------------------------
Total Dipole Moment    :      1.25337      -1.07975       0.71406
                        -----------------------------------------
Magnitude (a.u.)       :      1.80185
Magnitude (Debye)      :      4.57995

Rotational constants in cm-1:     0.152799     0.080212     0.076962
Rotational constants in MHz :  4580.804531  2404.707790  2307.252710

                             ****ORCA TERMINATED NORMALLY****
TOTAL RUN TIME: 0 days 0 hours 0 minutes 36 seconds 641 msec
