                         Program Version 5.0.0 -  RELEASE  -
|  1> !M062X D3Zero RIJCOSX def2-SVPD def2/J TightSCF
|  2> *xyz -1 1
|  3> C         -1.10433        0.25137       -2.86006
|  4> C         -0.71189        0.84252       -4.21834
|  5> H          0.15463        1.49980       -4.13091
|  6> H         -1.53813        1.45922       -4.58267
|  7> C         -0.39762       -0.20587       -5.28802
|  8> O          0.61717       -0.00535       -5.99827
|  9> O         -1.13317       -1.22138       -5.34147
| 10> C         -0.19626       -0.86337       -2.32576
| 11> H         -1.14384        1.06671       -2.12968
| 12> H         -2.11440       -0.15683       -2.93032
| 13> H         -0.15538       -1.66172       -3.03700
| 14> H         -0.58845       -1.22999       -1.40020
| 15> H          0.78852       -0.47602       -2.16737
| 16> *
| 17>
| 18> %MaxCore 64000
| 19>
| 20> %pal nprocs 4
| 21> end
| 22>
| 23> %scf
| 24>   MaxIter 150
| 25> end
| 26>
| 27>
| 28>                          ****END OF INPUT****

CARTESIAN COORDINATES (ANGSTROEM)
---------------------------------
  C     -1.104330    0.251370   -2.860060
  C     -0.711890    0.842520   -4.218340
  H      0.154630    1.499800   -4.130910
  H     -1.538130    1.459220   -4.582670
  C     -0.397620   -0.205870   -5.288020
  O      0.617170   -0.005350   -5.998270
  O     -1.133170   -1.221380   -5.341470
  C     -0.196260   -0.863370   -2.325760
  H     -1.143840    1.066710   -2.129680
  H     -2.114400   -0.156830   -2.930320
  H     -0.155380   -1.661720   -3.037000
  H     -0.588450   -1.229990   -1.400200
  H      0.788520   -0.476020   -2.167370

 Total Charge           Charge          ....   -1
 Multiplicity           Mult            ....    1
 Number of Electrons    NEL             ....   48
 Basis Dimension        Dim             ....  182

ORBITAL ENERGIES
----------------

  NO   OCC          E(Eh)            E(eV)
   0   2.0000     -19.375372      -527.2307
   1   2.0000     -19.374573      -527.2089
   2   2.0000     -10.440893      -284.1111
   3   2.0000     -10.401831      -283.0482
   4   2.0000     -10.392320      -282.7894
   5   2.0000     -10.377266      -282.3798
   6   2.0000      -0.933131       -25.3918
   7   2.0000      -0.832912       -22.6647
   8   2.0000      -0.724784       -19.7224
   9   2.0000      -0.626631       -17.0515
  10   2.0000      -0.522952       -14.2302
  11   2.0000      -0.397938       -10.8284
  12   2.0000      -0.373597       -10.1661
  13   2.0000      -0.363101        -9.8805
  14   2.0000      -0.325667        -8.8618
  15   2.0000      -0.309196        -8.4137
  16   2.0000      -0.285022        -7.7559
  17   2.0000      -0.272590        -7.4176
  18   2.0000      -0.260635        -7.0923
  19   2.0000      -0.239436        -6.5154
  20   2.0000      -0.228883        -6.2282
  21   2.0000      -0.114777        -3.1233
  22   2.0000      -0.113007        -3.0751
  23   2.0000      -0.106254        -2.8913
  24   0.0000       0.165397         4.5007
  25   0.0000       0.187760         5.1092
  26   0.0000       0.205632         5.5955
  27   0.0000       0.214926         5.8484
  28   0.0000       0.241186         6.5630

MULLIKEN ATOMIC CHARGES
-----------------------
   0 C :   -0.412976
   1 C :    0.176227
   2 H :   -0.021996
   3 H :   -0.052529
   4 C :    0.531747
   5 O :   -0.742508
   6 O :   -0.796033
   7 C :    0.671940
   8 H :   -0.195279
   9 H :   -0.012011
  10 H :   -0.074708
  11 H :   -0.057630
  12 H :   -0.014243
Sum of atomic charges:   -1.0000000

LOEWDIN ATOMIC CHARGES
----------------------
   0 C :   -0.091399
   1 C :    0.000441
   2 H :    0.003517
   3 H :    0.011716
   4 C :   -0.292275
   5 O :   -0.336905
   6 O :   -0.328660
   7 C :    0.116231
   8 H :   -0.002978
   9 H :    0.009981
  10 H :   -0.027955
  11 H :   -0.036464
  12 H :   -0.025250

  Mayer bond orders larger than 0.100000
B(  0-C ,  1-C ) :   1.1940 B(  0-C ,  2-H ) :   0.1376 B(  0-C ,  3-H ) :   0.1216
B(  0-C ,  7-C ) :   1.3321 B(  0-C ,  8-H ) :   0.9863 B(  0-C ,  9-H ) :   0.8959
B(  0-C , 10-H ) :   0.2220 B(  0-C , 11-H ) :   0.2223 B(  0-C , 12-H ) :   0.2030
B(  1-C ,  2-H ) :   0.8725 B(  1-C ,  3-H ) :   0.8422 B(  1-C ,  4-C ) :   1.0059
B(  1-C ,  8-H ) :   0.1029 B(  1-C ,  9-H ) :   0.1163 B(  2-H ,  4-C ) :   0.2148
B(  4-C ,  5-O ) :   1.3382 B(  4-C ,  6-O ) :   1.4017 B(  7-C , 10-H ) :   0.8513
B(  7-C , 11-H ) :   0.7434 B(  7-C , 12-H ) :   0.7863

Dispersion correction           -0.000199283
FINAL SINGLE POINT ENERGY      -306.799907910397

DIPOLE MOMENT
-------------
                                X             Y             Z
Electronic contribution:      0.66266      -1.02083      -7.11662
Nuclear contribution   :     -1.15173       1.87787       9.37659
                        -----------------------------------------
Total Dipole Moment    :     -0.48907       0.85704       2.25997
                        -----------------------------------------
Magnitude (a.u.)       :      2.46600
Magnitude (Debye)      :      6.26808

Rotational constants in cm-1:     0.203160     0.081703     0.075834
Rotational constants in MHz :  6090.598467  2449.397428  2273.436534

                             ****ORCA TERMINATED NORMALLY****
TOTAL RUN TIME: 0 days 0 hours 0 minutes 19 seconds 936 msec
