                         Program Version 5.0.0 -  RELEASE  -
|  1> !M062X D3Zero RIJCOSX def2-SVPD def2/J TightSCF
|  2> *xyz 1 1
|  3> C          2.23447       -2.98975       -2.39762
|  4> N          2.75680       -2.94555       -3.76503
|  5> C          1.98721       -2.59045       -4.81898
|  6> N          0.74322       -3.01749       -4.91352
|  7> N          2.49964       -1.84860       -5.80324
|  8> H          3.30978       -1.29282       -5.55895
|  9> H          1.80103       -1.30430       -6.28913
| 10> H          3.71612       -2.62880       -3.82953
| 11> H          0.39583       -3.62775       -4.18502
| 12> H          0.03920       -2.45438       -5.37137
| 13> C          2.19120       -1.61950       -1.71549
| 14> H          2.87278       -3.66637       -1.82801
| 15> H          1.24619       -3.44744       -2.40784
| 16> C          1.29873       -0.55431       -2.35977
| 17> H          1.87292       -1.78796       -0.68131
| 18> H          3.21681       -1.23843       -1.65443
| 19> H          1.61097       -0.39090       -3.37007
| 20> H          1.37981        0.35955       -1.80916
| 21> H          0.28197       -0.88750       -2.35015
| 22> *
| 23>
| 24> %MaxCore 64000
| 25>
| 26> %pal nprocs 4
| 27> end
| 28>
| 29> %scf
| 30>   MaxIter 150
| 31> end
| 32>
| 33>
| 34>                          ****END OF INPUT****

CARTESIAN COORDINATES (ANGSTROEM)
---------------------------------
  C      2.234470   -2.989750   -2.397620
  N      2.756800   -2.945550   -3.765030
  C      1.987210   -2.590450   -4.818980
  N      0.743220   -3.017490   -4.913520
  N      2.499640   -1.848600   -5.803240
  H      3.309780   -1.292820   -5.558950
  H      1.801030   -1.304300   -6.289130
  H      3.716120   -2.628800   -3.829530
  H      0.395830   -3.627750   -4.185020
  H      0.039200   -2.454380   -5.371370
  C      2.191200   -1.619500   -1.715490
  H      2.872780   -3.666370   -1.828010
  H      1.246190   -3.447440   -2.407840
  C      1.298730   -0.554310   -2.359770
  H      1.872920   -1.787960   -0.681310
  H      3.216810   -1.238430   -1.654430
  H      1.610970   -0.390900   -3.370070
  H      1.379810    0.359550   -1.809160
  H      0.281970   -0.887500   -2.350150

 Total Charge           Charge          ....    1
 Multiplicity           Mult            ....    1
 Number of Electrons    NEL             ....   56
 Basis Dimension        Dim             ....  236

ORBITAL ENERGIES
----------------

  NO   OCC          E(Eh)            E(eV)
   0   2.0000     -14.991329      -407.9348
   1   2.0000     -14.987407      -407.8281
   2   2.0000     -14.984529      -407.7498
   3   2.0000     -10.895823      -296.4904
   4   2.0000     -10.758460      -292.7526
   5   2.0000     -10.700305      -291.1701
   6   2.0000     -10.681114      -290.6479
   7   2.0000      -1.322685       -35.9921
   8   2.0000      -1.200359       -32.6634
   9   2.0000      -1.194738       -32.5105
  10   2.0000      -1.030996       -28.0548
  11   2.0000      -0.954475       -25.9726
  12   2.0000      -0.907453       -24.6930
  13   2.0000      -0.863343       -23.4928
  14   2.0000      -0.846268       -23.0281
  15   2.0000      -0.806918       -21.9573
  16   2.0000      -0.772461       -21.0197
  17   2.0000      -0.754175       -20.5221
  18   2.0000      -0.722639       -19.6640
  19   2.0000      -0.696457       -18.9516
  20   2.0000      -0.667575       -18.1656
  21   2.0000      -0.655970       -17.8498
  22   2.0000      -0.625267       -17.0144
  23   2.0000      -0.586608       -15.9624
  24   2.0000      -0.558485       -15.1971
  25   2.0000      -0.556722       -15.1492
  26   2.0000      -0.545757       -14.8508
  27   2.0000      -0.507258       -13.8032
  28   0.0000      -0.157313        -4.2807
  29   0.0000      -0.128098        -3.4857
  30   0.0000      -0.102927        -2.8008
  31   0.0000      -0.091177        -2.4811
  32   0.0000      -0.068689        -1.8691

MULLIKEN ATOMIC CHARGES
-----------------------
   0 C :    0.724806
   1 N :   -0.472353
   2 C :    1.056217
   3 N :   -0.004053
   4 N :   -0.085459
   5 H :    0.020354
   6 H :    0.051123
   7 H :   -0.146739
   8 H :    0.025284
   9 H :   -0.018698
  10 C :   -0.368024
  11 H :   -0.252066
  12 H :   -0.064657
  13 C :    0.789046
  14 H :   -0.019958
  15 H :   -0.023649
  16 H :   -0.185794
  17 H :   -0.058772
  18 H :    0.033392
Sum of atomic charges:    1.0000000

LOEWDIN ATOMIC CHARGES
----------------------
   0 C :    0.075716
   1 N :    0.049833
   2 C :   -0.053482
   3 N :    0.282796
   4 N :    0.267756
   5 H :    0.036348
   6 H :    0.036542
   7 H :    0.052429
   8 H :    0.027368
   9 H :    0.050470
  10 C :   -0.045382
  11 H :    0.040963
  12 H :    0.018431
  13 C :    0.142389
  14 H :    0.039744
  15 H :    0.029756
  16 H :   -0.041226
  17 H :   -0.000156
  18 H :   -0.010294

  Mayer bond orders larger than 0.100000
B(  0-C ,  1-N ) :   0.9105 B(  0-C , 10-C ) :   1.1201 B(  0-C , 11-H ) :   0.9057
B(  0-C , 12-H ) :   0.7623 B(  0-C , 14-H ) :   0.1383 B(  0-C , 15-H ) :   0.1271
B(  1-N ,  2-C ) :   1.0723 B(  1-N ,  4-N ) :   0.1460 B(  1-N ,  7-H ) :   1.1980
B(  1-N , 11-H ) :   0.1919 B(  1-N , 12-H ) :   0.1223 B(  2-C ,  3-N ) :   1.0074
B(  2-C ,  4-N ) :   0.9490 B(  2-C ,  7-H ) :  -0.1693 B(  3-N ,  4-N ) :   0.1332
B(  3-N ,  8-H ) :   0.9739 B(  3-N ,  9-H ) :   1.1843 B(  4-N ,  5-H ) :   0.9988
B(  4-N ,  6-H ) :   0.9900 B(  8-H ,  9-H ) :  -0.1653 B( 10-C , 12-H ) :   0.1447
B( 10-C , 13-C ) :   1.2900 B( 10-C , 14-H ) :   0.9418 B( 10-C , 15-H ) :   0.9371
B( 10-C , 16-H ) :   0.2356 B( 10-C , 17-H ) :   0.2020 B( 10-C , 18-H ) :   0.2382
B( 11-H , 12-H ) :  -0.1451 B( 13-C , 16-H ) :   0.8180 B( 13-C , 17-H ) :   0.7989
B( 13-C , 18-H ) :   0.7194 B( 16-H , 18-H ) :   0.1311

Dispersion correction           -0.000489154
FINAL SINGLE POINT ENERGY      -323.321580321088

DIPOLE MOMENT
-------------
                                X             Y             Z
Electronic contribution:      1.22805      -3.56033      -5.56193
Nuclear contribution   :     -1.48325       3.81474       4.74728
                        -----------------------------------------
Total Dipole Moment    :     -0.25520       0.25441      -0.81466
                        -----------------------------------------
Magnitude (a.u.)       :      0.89079
Magnitude (Debye)      :      2.26422

Rotational constants in cm-1:     0.127669     0.058023     0.053953
Rotational constants in MHz :  3827.411023  1739.493733  1617.466565

                             ****ORCA TERMINATED NORMALLY****
TOTAL RUN TIME: 0 days 0 hours 0 minutes 34 seconds 355 msec
