                         Program Version 5.0.0 -  RELEASE  -
|  1> !M062X D3Zero RIJCOSX def2-SVPD def2/J TightSCF
|  2> *xyz 0 1
|  3> C         -1.10433        0.25137       -2.86006
|  4> C         -0.71189        0.84252       -4.21834
|  5> H          0.15463        1.49980       -4.13091
|  6> H         -1.53813        1.45922       -4.58267
|  7> C         -0.39762       -0.20587       -5.28802
|  8> F          0.61717       -0.00535       -5.99827
|  9> O         -1.13317       -1.22138       -5.34147
| 10> C         -0.19626       -0.86337       -2.32576
| 11> H         -1.14384        1.06671       -2.12968
| 12> H         -2.11440       -0.15683       -2.93032
| 13> H         -0.15538       -1.66172       -3.03700
| 14> H         -0.58845       -1.22999       -1.40020
| 15> H          0.78852       -0.47602       -2.16737
| 16> *
| 17>
| 18> %MaxCore 64000
| 19>
| 20> %pal nprocs 4
| 21> end
| 22>
| 23> %scf
| 24>   MaxIter 150
| 25> end
| 26>
| 27>
| 28>                          ****END OF INPUT****

CARTESIAN COORDINATES (ANGSTROEM)
---------------------------------
  C     -1.104330    0.251370   -2.860060
  C     -0.711890    0.842520   -4.218340
  H      0.154630    1.499800   -4.130910
  H     -1.538130    1.459220   -4.582670
  C     -0.397620   -0.205870   -5.288020
  F      0.617170   -0.005350   -5.998270
  O     -1.133170   -1.221380   -5.341470
  C     -0.196260   -0.863370   -2.325760
  H     -1.143840    1.066710   -2.129680
  H     -2.114400   -0.156830   -2.930320
  H     -0.155380   -1.661720   -3.037000
  H     -0.588450   -1.229990   -1.400200
  H      0.788520   -0.476020   -2.167370

 Total Charge           Charge          ....    0
 Multiplicity           Mult            ....    1
 Number of Electrons    NEL             ....   48
 Basis Dimension        Dim             ....  182

ORBITAL ENERGIES
----------------

  NO   OCC          E(Eh)            E(eV)
   0   2.0000     -25.329767      -689.2580
   1   2.0000     -19.650024      -534.7043
   2   2.0000     -10.739890      -292.2473
   3   2.0000     -10.583318      -287.9867
   4   2.0000     -10.564878      -287.4850
   5   2.0000     -10.540408      -286.8191
   6   2.0000      -1.446778       -39.3688
   7   2.0000      -1.145649       -31.1747
   8   2.0000      -0.903600       -24.5882
   9   2.0000      -0.819261       -22.2932
  10   2.0000      -0.757276       -20.6065
  11   2.0000      -0.694526       -18.8990
  12   2.0000      -0.645449       -17.5636
  13   2.0000      -0.625423       -17.0186
  14   2.0000      -0.592494       -16.1226
  15   2.0000      -0.539833       -14.6896
  16   2.0000      -0.528026       -14.3683
  17   2.0000      -0.486607       -13.2412
  18   2.0000      -0.478036       -13.0080
  19   2.0000      -0.436136       -11.8679
  20   2.0000      -0.420482       -11.4419
  21   2.0000      -0.413740       -11.2584
  22   2.0000      -0.405114       -11.0237
  23   2.0000      -0.371681       -10.1140
  24   0.0000       0.009492         0.2583
  25   0.0000       0.030100         0.8191
  26   0.0000       0.055554         1.5117
  27   0.0000       0.062224         1.6932
  28   0.0000       0.076724         2.0878

MULLIKEN ATOMIC CHARGES
-----------------------
   0 C :   -0.399453
   1 C :    0.034769
   2 H :    0.055706
   3 H :    0.038445
   4 C :    0.820820
   5 F :   -0.398858
   6 O :   -0.586239
   7 C :    0.666143
   8 H :   -0.139741
   9 H :    0.018321
  10 H :   -0.087990
  11 H :   -0.022709
  12 H :    0.000784
Sum of atomic charges:   -0.0000000

LOEWDIN ATOMIC CHARGES
----------------------
   0 C :   -0.061810
   1 C :    0.042687
   2 H :    0.026233
   3 H :    0.041426
   4 C :    0.011506
   5 F :   -0.048138
   6 O :   -0.141491
   7 C :    0.135217
   8 H :    0.023681
   9 H :    0.026379
  10 H :   -0.026826
  11 H :   -0.013818
  12 H :   -0.015046

  Mayer bond orders larger than 0.100000
B(  0-C ,  1-C ) :   1.2390 B(  0-C ,  2-H ) :   0.1312 B(  0-C ,  3-H ) :   0.1200
B(  0-C ,  7-C ) :   1.3595 B(  0-C ,  8-H ) :   0.9780 B(  0-C ,  9-H ) :   0.8985
B(  0-C , 10-H ) :   0.2045 B(  0-C , 11-H ) :   0.2081 B(  0-C , 12-H ) :   0.1926
B(  1-C ,  2-H ) :   0.8774 B(  1-C ,  3-H ) :   0.8432 B(  1-C ,  4-C ) :   1.0919
B(  1-C ,  8-H ) :   0.1010 B(  1-C ,  9-H ) :   0.1096 B(  2-H ,  4-C ) :   0.1137
B(  4-C ,  5-F ) :   0.6518 B(  4-C ,  6-O ) :   1.7631 B(  7-C , 10-H ) :   0.8538
B(  7-C , 11-H ) :   0.7593 B(  7-C , 12-H ) :   0.7920

Dispersion correction           -0.000199076
FINAL SINGLE POINT ENERGY      -331.330259700131

DIPOLE MOMENT
-------------
                                X             Y             Z
Electronic contribution:      2.60063      -0.66808     -10.65523
Nuclear contribution   :     -2.39146       1.63977      11.24418
                        -----------------------------------------
Total Dipole Moment    :      0.20917       0.97168       0.58895
                        -----------------------------------------
Magnitude (a.u.)       :      1.15533
Magnitude (Debye)      :      2.93661

Rotational constants in cm-1:     0.198868     0.077542     0.072498
Rotational constants in MHz :  5961.919605  2324.650173  2173.425242

                             ****ORCA TERMINATED NORMALLY****
TOTAL RUN TIME: 0 days 0 hours 0 minutes 21 seconds 118 msec
