                         Program Version 5.0.0 -  RELEASE  -
|  1> !M062X D3Zero RIJCOSX def2-SVPD def2/J TightSCF
|  2> *xyz 0 1
|  3> C          2.23447       -2.98975       -2.39762
|  4> C          2.75680       -2.94555       -3.76503
|  5> C          1.98721       -2.59045       -4.81898
|  6> N          0.74322       -3.01749       -4.91352
|  7> N          2.49964       -1.84860       -5.80324
|  8> H          3.30978       -1.29282       -5.55895
|  9> H          1.80103       -1.30430       -6.28913
| 10> H          3.71612       -2.62880       -3.82953
| 11> H          0.39583       -3.62775       -4.18502
| 12> H          0.03920       -2.45438       -5.37137
| 13> C          2.19120       -1.61950       -1.71549
| 14> H          2.87278       -3.66637       -1.82801
| 15> H          1.24619       -3.44744       -2.40784
| 16> C          1.29873       -0.55431       -2.35977
| 17> H          1.87292       -1.78796       -0.68131
| 18> H          3.21681       -1.23843       -1.65443
| 19> H          1.61097       -0.39090       -3.37007
| 20> H          1.37981        0.35955       -1.80916
| 21> H          0.28197       -0.88750       -2.35015
| 22> *
| 23>
| 24> %MaxCore 64000
| 25>
| 26> %pal nprocs 4
| 27> end
| 28>
| 29> %scf
| 30>   MaxIter 150
| 31> end
| 32>
| 33>
| 34>                          ****END OF INPUT****

CARTESIAN COORDINATES (ANGSTROEM)
---------------------------------
  C      2.234470   -2.989750   -2.397620
  C      2.756800   -2.945550   -3.765030
  C      1.987210   -2.590450   -4.818980
  N      0.743220   -3.017490   -4.913520
  N      2.499640   -1.848600   -5.803240
  H      3.309780   -1.292820   -5.558950
  H      1.801030   -1.304300   -6.289130
  H      3.716120   -2.628800   -3.829530
  H      0.395830   -3.627750   -4.185020
  H      0.039200   -2.454380   -5.371370
  C      2.191200   -1.619500   -1.715490
  H      2.872780   -3.666370   -1.828010
  H      1.246190   -3.447440   -2.407840
  C      1.298730   -0.554310   -2.359770
  H      1.872920   -1.787960   -0.681310
  H      3.216810   -1.238430   -1.654430
  H      1.610970   -0.390900   -3.370070
  H      1.379810    0.359550   -1.809160
  H      0.281970   -0.887500   -2.350150

 Total Charge           Charge          ....    0
 Multiplicity           Mult            ....    1
 Number of Electrons    NEL             ....   56
 Basis Dimension        Dim             ....  236

ORBITAL ENERGIES
----------------

  NO   OCC          E(Eh)            E(eV)
   0   2.0000     -14.769453      -401.8972
   1   2.0000     -14.765756      -401.7966
   2   2.0000     -10.603072      -288.5243
   3   2.0000     -10.532843      -286.6132
   4   2.0000     -10.528508      -286.4953
   5   2.0000     -10.527046      -286.4555
   6   2.0000     -10.478383      -285.1313
   7   2.0000      -1.073152       -29.2020
   8   2.0000      -0.973453       -26.4890
   9   2.0000      -0.879138       -23.9226
  10   2.0000      -0.809937       -22.0395
  11   2.0000      -0.744704       -20.2644
  12   2.0000      -0.679882       -18.5005
  13   2.0000      -0.645660       -17.5693
  14   2.0000      -0.619248       -16.8506
  15   2.0000      -0.581664       -15.8279
  16   2.0000      -0.540995       -14.7212
  17   2.0000      -0.522203       -14.2099
  18   2.0000      -0.509898       -13.8750
  19   2.0000      -0.481283       -13.0964
  20   2.0000      -0.457300       -12.4438
  21   2.0000      -0.441890       -12.0244
  22   2.0000      -0.417326       -11.3560
  23   2.0000      -0.400949       -10.9104
  24   2.0000      -0.377462       -10.2713
  25   2.0000      -0.373882       -10.1739
  26   2.0000      -0.342622        -9.3232
  27   2.0000      -0.214077        -5.8253
  28   0.0000       0.027549         0.7497
  29   0.0000       0.058385         1.5887
  30   0.0000       0.060179         1.6375
  31   0.0000       0.069551         1.8926
  32   0.0000       0.083112         2.2616

MULLIKEN ATOMIC CHARGES
-----------------------
   0 C :    0.141585
   1 C :   -0.072862
   2 C :    0.319490
   3 N :   -0.027860
   4 N :   -0.074119
   5 H :    0.062448
   6 H :    0.030746
   7 H :   -0.162714
   8 H :    0.011304
   9 H :   -0.103893
  10 C :   -0.312553
  11 H :   -0.064989
  12 H :   -0.180676
  13 C :    0.838711
  14 H :   -0.105737
  15 H :   -0.062451
  16 H :   -0.148898
  17 H :   -0.112160
  18 H :    0.024627
Sum of atomic charges:   -0.0000000

LOEWDIN ATOMIC CHARGES
----------------------
   0 C :   -0.072321
   1 C :   -0.012130
   2 C :   -0.250895
   3 N :    0.195728
   4 N :    0.186258
   5 H :    0.004967
   6 H :   -0.008668
   7 H :   -0.056410
   8 H :   -0.001831
   9 H :    0.001999
  10 C :   -0.072190
  11 H :    0.011853
  12 H :   -0.004728
  13 C :    0.126333
  14 H :    0.014377
  15 H :    0.019460
  16 H :   -0.038876
  17 H :   -0.022177
  18 H :   -0.020749

  Mayer bond orders larger than 0.100000
B(  0-C ,  1-C ) :   1.2397 B(  0-C ,  2-C ) :   0.1375 B(  0-C ,  7-H ) :   0.3082
B(  0-C , 10-C ) :   1.1500 B(  0-C , 11-H ) :   0.8298 B(  0-C , 12-H ) :   0.7962
B(  0-C , 14-H ) :   0.2059 B(  0-C , 15-H ) :   0.1705 B(  1-C ,  2-C ) :   1.7614
B(  1-C ,  3-N ) :   0.1198 B(  1-C ,  4-N ) :   0.2499 B(  1-C ,  7-H ) :   0.5867
B(  1-C , 11-H ) :   0.1915 B(  1-C , 12-H ) :   0.2067 B(  2-C ,  3-N ) :   0.9919
B(  2-C ,  4-N ) :   0.9043 B(  2-C ,  6-H ) :   0.1119 B(  2-C ,  7-H ) :   0.2964
B(  3-N ,  4-N ) :   0.1117 B(  3-N ,  8-H ) :   0.9862 B(  3-N ,  9-H ) :   1.1868
B(  4-N ,  5-H ) :   0.9343 B(  4-N ,  6-H ) :   0.8578 B(  8-H ,  9-H ) :  -0.1515
B( 10-C , 12-H ) :   0.1279 B( 10-C , 13-C ) :   1.3022 B( 10-C , 14-H ) :   0.9074
B( 10-C , 15-H ) :   0.9279 B( 10-C , 16-H ) :   0.2571 B( 10-C , 17-H ) :   0.2283
B( 10-C , 18-H ) :   0.2281 B( 13-C , 16-H ) :   0.8124 B( 13-C , 17-H ) :   0.7541
B( 13-C , 18-H ) :   0.7217 B( 16-H , 18-H ) :   0.1340

Dispersion correction           -0.000485266
FINAL SINGLE POINT ENERGY      -306.858011468191

DIPOLE MOMENT
-------------
                                X             Y             Z
Electronic contribution:      0.57955      -2.84494      -5.01368
Nuclear contribution   :     -1.30515       3.65216       4.73330
                        -----------------------------------------
Total Dipole Moment    :     -0.72560       0.80722      -0.28038
                        -----------------------------------------
Magnitude (a.u.)       :      1.12103
Magnitude (Debye)      :      2.84943

Rotational constants in cm-1:     0.129987     0.058163     0.054282
Rotational constants in MHz :  3896.918182  1743.696851  1627.337267

                             ****ORCA TERMINATED NORMALLY****
TOTAL RUN TIME: 0 days 0 hours 0 minutes 35 seconds 437 msec
