                         Program Version 5.0.0 -  RELEASE  -
|  1> !M062X D3Zero RIJCOSX def2-SVPD def2/J TightSCF
|  2> *xyz 0 1
|  3> C         -1.10433        0.25137       -2.86006
|  4> C         -0.71189        0.84252       -4.21834
|  5> H          0.15463        1.49980       -4.13091
|  6> H         -1.53813        1.45922       -4.58267
|  7> C         -0.39762       -0.20587       -5.28802
|  8> O          0.61717       -0.00535       -5.99827
|  9> F         -1.13317       -1.22138       -5.34147
| 10> C         -0.19626       -0.86337       -2.32576
| 11> H         -1.14384        1.06671       -2.12968
| 12> H         -2.11440       -0.15683       -2.93032
| 13> H         -0.15538       -1.66172       -3.03700
| 14> H         -0.58845       -1.22999       -1.40020
| 15> H          0.78852       -0.47602       -2.16737
| 16> *
| 17>
| 18> %MaxCore 64000
| 19>
| 20> %pal nprocs 4
| 21> end
| 22>
| 23> %scf
| 24>   MaxIter 150
| 25> end
| 26>
| 27>
| 28>                          ****END OF INPUT****

CARTESIAN COORDINATES (ANGSTROEM)
---------------------------------
  C     -1.104330    0.251370   -2.860060
  C     -0.711890    0.842520   -4.218340
  H      0.154630    1.499800   -4.130910
  H     -1.538130    1.459220   -4.582670
  C     -0.397620   -0.205870   -5.288020
  O      0.617170   -0.005350   -5.998270
  F     -1.133170   -1.221380   -5.341470
  C     -0.196260   -0.863370   -2.325760
  H     -1.143840    1.066710   -2.129680
  H     -2.114400   -0.156830   -2.930320
  H     -0.155380   -1.661720   -3.037000
  H     -0.588450   -1.229990   -1.400200
  H      0.788520   -0.476020   -2.167370

 Total Charge           Charge          ....    0
 Multiplicity           Mult            ....    1
 Number of Electrons    NEL             ....   48
 Basis Dimension        Dim             ....  182

ORBITAL ENERGIES
----------------

  NO   OCC          E(Eh)            E(eV)
   0   2.0000     -25.330494      -689.2778
   1   2.0000     -19.648566      -534.6647
   2   2.0000     -10.738756      -292.2164
   3   2.0000     -10.582161      -287.9552
   4   2.0000     -10.569870      -287.6208
   5   2.0000     -10.548609      -287.0422
   6   2.0000      -1.447090       -39.3773
   7   2.0000      -1.144045       -31.1310
   8   2.0000      -0.909237       -24.7416
   9   2.0000      -0.819158       -22.2904
  10   2.0000      -0.758307       -20.6346
  11   2.0000      -0.699423       -19.0323
  12   2.0000      -0.647369       -17.6158
  13   2.0000      -0.637715       -17.3531
  14   2.0000      -0.576106       -15.6766
  15   2.0000      -0.546532       -14.8719
  16   2.0000      -0.527936       -14.3659
  17   2.0000      -0.492620       -13.4049
  18   2.0000      -0.476666       -12.9707
  19   2.0000      -0.445031       -12.1099
  20   2.0000      -0.431702       -11.7472
  21   2.0000      -0.417176       -11.3519
  22   2.0000      -0.407407       -11.0861
  23   2.0000      -0.365628        -9.9493
  24   0.0000       0.013276         0.3613
  25   0.0000       0.027805         0.7566
  26   0.0000       0.057369         1.5611
  27   0.0000       0.060878         1.6566
  28   0.0000       0.072037         1.9602

MULLIKEN ATOMIC CHARGES
-----------------------
   0 C :   -0.404264
   1 C :    0.064844
   2 H :    0.031223
   3 H :    0.026345
   4 C :    0.833935
   5 O :   -0.532656
   6 F :   -0.445422
   7 C :    0.665086
   8 H :   -0.149348
   9 H :    0.003667
  10 H :   -0.088003
  11 H :   -0.021611
  12 H :    0.016202
Sum of atomic charges:    0.0000000

LOEWDIN ATOMIC CHARGES
----------------------
   0 C :   -0.070855
   1 C :    0.048189
   2 H :    0.037055
   3 H :    0.039326
   4 C :    0.004626
   5 O :   -0.143613
   6 F :   -0.046308
   7 C :    0.135020
   8 H :    0.023940
   9 H :    0.021445
  10 H :   -0.025103
  11 H :   -0.013578
  12 H :   -0.010144

  Mayer bond orders larger than 0.100000
B(  0-C ,  1-C ) :   1.2060 B(  0-C ,  2-H ) :   0.1255 B(  0-C ,  3-H ) :   0.1092
B(  0-C ,  7-C ) :   1.3550 B(  0-C ,  8-H ) :   0.9870 B(  0-C ,  9-H ) :   0.9025
B(  0-C , 10-H ) :   0.2041 B(  0-C , 11-H ) :   0.2119 B(  0-C , 12-H ) :   0.1974
B(  1-C ,  2-H ) :   0.9100 B(  1-C ,  3-H ) :   0.8544 B(  1-C ,  4-C ) :   1.0466
B(  1-C ,  8-H ) :   0.1036 B(  2-H ,  4-C ) :   0.1434 B(  4-C ,  5-O ) :   1.7396
B(  4-C ,  6-F ) :   0.6308 B(  7-C , 10-H ) :   0.8517 B(  7-C , 11-H ) :   0.7583
B(  7-C , 12-H ) :   0.7948

Dispersion correction           -0.000205284
FINAL SINGLE POINT ENERGY      -331.329222829788

DIPOLE MOMENT
-------------
                                X             Y             Z
Electronic contribution:     -0.35484      -2.70685      -9.48901
Nuclear contribution   :     -0.41432       3.01336      10.50227
                        -----------------------------------------
Total Dipole Moment    :     -0.76916       0.30651       1.01327
                        -----------------------------------------
Magnitude (a.u.)       :      1.30853
Magnitude (Debye)      :      3.32603

Rotational constants in cm-1:     0.192167     0.080512     0.073747
Rotational constants in MHz :  5761.018137  2413.690728  2210.882638

                             ****ORCA TERMINATED NORMALLY****
TOTAL RUN TIME: 0 days 0 hours 0 minutes 21 seconds 378 msec
