                         Program Version 5.0.0 -  RELEASE  -
|  1> !M062X D3Zero RIJCOSX def2-SVPD def2/J TightSCF
|  2> *xyz 0 1
|  3> C          2.23447       -2.98975       -2.39762
|  4> N          2.75680       -2.94555       -3.76503
|  5> C          1.98721       -2.59045       -4.81898
|  6> C          0.74322       -3.01749       -4.91352
|  7> N          2.49964       -1.84860       -5.80324
|  8> H          3.30978       -1.29282       -5.55895
|  9> H          1.80103       -1.30430       -6.28913
| 10> H          3.71612       -2.62880       -3.82953
| 11> H          0.39583       -3.62775       -4.18502
| 12> H          0.03920       -2.45438       -5.37137
| 13> C          2.19120       -1.61950       -1.71549
| 14> H          2.87278       -3.66637       -1.82801
| 15> H          1.24619       -3.44744       -2.40784
| 16> C          1.29873       -0.55431       -2.35977
| 17> H          1.87292       -1.78796       -0.68131
| 18> H          3.21681       -1.23843       -1.65443
| 19> H          1.61097       -0.39090       -3.37007
| 20> H          1.37981        0.35955       -1.80916
| 21> H          0.28197       -0.88750       -2.35015
| 22> *
| 23>
| 24> %MaxCore 64000
| 25>
| 26> %pal nprocs 4
| 27> end
| 28>
| 29> %scf
| 30>   MaxIter 150
| 31> end
| 32>
| 33>
| 34>                          ****END OF INPUT****

CARTESIAN COORDINATES (ANGSTROEM)
---------------------------------
  C      2.234470   -2.989750   -2.397620
  N      2.756800   -2.945550   -3.765030
  C      1.987210   -2.590450   -4.818980
  C      0.743220   -3.017490   -4.913520
  N      2.499640   -1.848600   -5.803240
  H      3.309780   -1.292820   -5.558950
  H      1.801030   -1.304300   -6.289130
  H      3.716120   -2.628800   -3.829530
  H      0.395830   -3.627750   -4.185020
  H      0.039200   -2.454380   -5.371370
  C      2.191200   -1.619500   -1.715490
  H      2.872780   -3.666370   -1.828010
  H      1.246190   -3.447440   -2.407840
  C      1.298730   -0.554310   -2.359770
  H      1.872920   -1.787960   -0.681310
  H      3.216810   -1.238430   -1.654430
  H      1.610970   -0.390900   -3.370070
  H      1.379810    0.359550   -1.809160
  H      0.281970   -0.887500   -2.350150

 Total Charge           Charge          ....    0
 Multiplicity           Mult            ....    1
 Number of Electrons    NEL             ....   56
 Basis Dimension        Dim             ....  236

ORBITAL ENERGIES
----------------

  NO   OCC          E(Eh)            E(eV)
   0   2.0000     -14.764405      -401.7599
   1   2.0000     -14.763835      -401.7444
   2   2.0000     -10.599441      -288.4255
   3   2.0000     -10.583335      -287.9872
   4   2.0000     -10.551305      -287.1156
   5   2.0000     -10.535360      -286.6817
   6   2.0000     -10.470392      -284.9138
   7   2.0000      -1.069542       -29.1037
   8   2.0000      -0.983668       -26.7670
   9   2.0000      -0.868268       -23.6268
  10   2.0000      -0.808306       -21.9951
  11   2.0000      -0.772498       -21.0208
  12   2.0000      -0.683602       -18.6018
  13   2.0000      -0.637741       -17.3538
  14   2.0000      -0.617793       -16.8110
  15   2.0000      -0.584126       -15.8949
  16   2.0000      -0.542554       -14.7636
  17   2.0000      -0.526235       -14.3196
  18   2.0000      -0.493806       -13.4371
  19   2.0000      -0.479161       -13.0386
  20   2.0000      -0.469801       -12.7839
  21   2.0000      -0.445710       -12.1284
  22   2.0000      -0.433081       -11.7847
  23   2.0000      -0.421834       -11.4787
  24   2.0000      -0.406060       -11.0495
  25   2.0000      -0.395874       -10.7723
  26   2.0000      -0.316682        -8.6174
  27   2.0000      -0.230056        -6.2601
  28   0.0000       0.029678         0.8076
  29   0.0000       0.052824         1.4374
  30   0.0000       0.058631         1.5954
  31   0.0000       0.069013         1.8779
  32   0.0000       0.086406         2.3512

MULLIKEN ATOMIC CHARGES
-----------------------
   0 C :    0.708865
   1 N :   -0.405954
   2 C :    0.417013
   3 C :    0.370893
   4 N :   -0.074533
   5 H :   -0.029358
   6 H :    0.065009
   7 H :   -0.249188
   8 H :   -0.140606
   9 H :   -0.366845
  10 C :   -0.382670
  11 H :   -0.285545
  12 H :   -0.071969
  13 C :    0.840641
  14 H :   -0.069299
  15 H :   -0.055874
  16 H :   -0.219080
  17 H :   -0.052377
  18 H :    0.000875
Sum of atomic charges:    0.0000000

LOEWDIN ATOMIC CHARGES
----------------------
   0 C :    0.051637
   1 N :   -0.012088
   2 C :   -0.260438
   3 C :    0.165653
   4 N :    0.182986
   5 H :   -0.011850
   6 H :    0.003558
   7 H :    0.014603
   8 H :   -0.102098
   9 H :   -0.088282
  10 C :   -0.066071
  11 H :    0.018476
  12 H :    0.009515
  13 C :    0.131639
  14 H :    0.018773
  15 H :    0.015159
  16 H :   -0.036398
  17 H :   -0.020257
  18 H :   -0.014516

  Mayer bond orders larger than 0.100000
B(  0-C ,  1-N ) :   0.9293 B(  0-C , 10-C ) :   1.0795 B(  0-C , 11-H ) :   0.9093
B(  0-C , 12-H ) :   0.7444 B(  0-C , 14-H ) :   0.1499 B(  0-C , 15-H ) :   0.1333
B(  1-N ,  2-C ) :   1.0058 B(  1-N ,  3-C ) :   0.2549 B(  1-N ,  4-N ) :   0.1200
B(  1-N ,  7-H ) :   1.1407 B(  1-N , 11-H ) :   0.1683 B(  1-N , 12-H ) :   0.1290
B(  2-C ,  3-C ) :   1.8783 B(  2-C ,  4-N ) :   0.8559 B(  2-C ,  7-H ) :  -0.1197
B(  2-C ,  8-H ) :   0.3179 B(  2-C ,  9-H ) :   0.1820 B(  3-C ,  4-N ) :   0.1934
B(  3-C ,  8-H ) :   0.5194 B(  3-C ,  9-H ) :   0.8583 B(  4-N ,  5-H ) :   0.9305
B(  4-N ,  6-H ) :   0.9191 B(  8-H ,  9-H ) :   0.1051 B( 10-C , 12-H ) :   0.1506
B( 10-C , 13-C ) :   1.2817 B( 10-C , 14-H ) :   0.9458 B( 10-C , 15-H ) :   0.9411
B( 10-C , 16-H ) :   0.2564 B( 10-C , 17-H ) :   0.1970 B( 10-C , 18-H ) :   0.2446
B( 11-H , 12-H ) :  -0.1562 B( 13-C , 16-H ) :   0.8204 B( 13-C , 17-H ) :   0.7590
B( 13-C , 18-H ) :   0.7146 B( 16-H , 18-H ) :   0.1599

Dispersion correction           -0.000485671
FINAL SINGLE POINT ENERGY      -306.852146614411

DIPOLE MOMENT
-------------
                                X             Y             Z
Electronic contribution:      2.33631      -2.70148      -3.89273
Nuclear contribution   :     -1.74624       3.63640       4.48172
                        -----------------------------------------
Total Dipole Moment    :      0.59008       0.93492       0.58899
                        -----------------------------------------
Magnitude (a.u.)       :      1.25267
Magnitude (Debye)      :      3.18404

Rotational constants in cm-1:     0.131012     0.059513     0.054636
Rotational constants in MHz :  3927.631151  1784.169731  1637.945644

                             ****ORCA TERMINATED NORMALLY****
TOTAL RUN TIME: 0 days 0 hours 0 minutes 35 seconds 90 msec
