                         Program Version 5.0.0 -  RELEASE  -
|  1> !M062X D3Zero RIJCOSX def2-SVPD def2/J TightSCF
|  2> *xyz 0 1
|  3> C          2.23447       -2.98975       -2.39762
|  4> N          2.75680       -2.94555       -3.76503
|  5> C          1.98721       -2.59045       -4.81898
|  6> N          0.74322       -3.01749       -4.91352
|  7> C          2.49964       -1.84860       -5.80324
|  8> H          3.30978       -1.29282       -5.55895
|  9> H          1.80103       -1.30430       -6.28913
| 10> H          3.71612       -2.62880       -3.82953
| 11> H          0.39583       -3.62775       -4.18502
| 12> H          0.03920       -2.45438       -5.37137
| 13> C          2.19120       -1.61950       -1.71549
| 14> H          2.87278       -3.66637       -1.82801
| 15> H          1.24619       -3.44744       -2.40784
| 16> C          1.29873       -0.55431       -2.35977
| 17> H          1.87292       -1.78796       -0.68131
| 18> H          3.21681       -1.23843       -1.65443
| 19> H          1.61097       -0.39090       -3.37007
| 20> H          1.37981        0.35955       -1.80916
| 21> H          0.28197       -0.88750       -2.35015
| 22> *
| 23>
| 24> %MaxCore 64000
| 25>
| 26> %pal nprocs 4
| 27> end
| 28>
| 29> %scf
| 30>   MaxIter 150
| 31> end
| 32>
| 33>
| 34>                          ****END OF INPUT****

CARTESIAN COORDINATES (ANGSTROEM)
---------------------------------
  C      2.234470   -2.989750   -2.397620
  N      2.756800   -2.945550   -3.765030
  C      1.987210   -2.590450   -4.818980
  N      0.743220   -3.017490   -4.913520
  C      2.499640   -1.848600   -5.803240
  H      3.309780   -1.292820   -5.558950
  H      1.801030   -1.304300   -6.289130
  H      3.716120   -2.628800   -3.829530
  H      0.395830   -3.627750   -4.185020
  H      0.039200   -2.454380   -5.371370
  C      2.191200   -1.619500   -1.715490
  H      2.872780   -3.666370   -1.828010
  H      1.246190   -3.447440   -2.407840
  C      1.298730   -0.554310   -2.359770
  H      1.872920   -1.787960   -0.681310
  H      3.216810   -1.238430   -1.654430
  H      1.610970   -0.390900   -3.370070
  H      1.379810    0.359550   -1.809160
  H      0.281970   -0.887500   -2.350150

 Total Charge           Charge          ....    0
 Multiplicity           Mult            ....    1
 Number of Electrons    NEL             ....   56
 Basis Dimension        Dim             ....  236

ORBITAL ENERGIES
----------------

  NO   OCC          E(Eh)            E(eV)
   0   2.0000     -14.766589      -401.8193
   1   2.0000     -14.763623      -401.7386
   2   2.0000     -10.603874      -288.5461
   3   2.0000     -10.591431      -288.2075
   4   2.0000     -10.554278      -287.1965
   5   2.0000     -10.537294      -286.7344
   6   2.0000     -10.465695      -284.7860
   7   2.0000      -1.071789       -29.1649
   8   2.0000      -0.983432       -26.7606
   9   2.0000      -0.875758       -23.8306
  10   2.0000      -0.815704       -22.1964
  11   2.0000      -0.758823       -20.6486
  12   2.0000      -0.681190       -18.5361
  13   2.0000      -0.675733       -18.3876
  14   2.0000      -0.615538       -16.7497
  15   2.0000      -0.565303       -15.3827
  16   2.0000      -0.559303       -15.2194
  17   2.0000      -0.521383       -14.1875
  18   2.0000      -0.516399       -14.0519
  19   2.0000      -0.472549       -12.8587
  20   2.0000      -0.457568       -12.4511
  21   2.0000      -0.448816       -12.2129
  22   2.0000      -0.434150       -11.8138
  23   2.0000      -0.423228       -11.5166
  24   2.0000      -0.406223       -11.0539
  25   2.0000      -0.403037       -10.9672
  26   2.0000      -0.318280        -8.6608
  27   2.0000      -0.225379        -6.1329
  28   0.0000       0.029804         0.8110
  29   0.0000       0.051470         1.4006
  30   0.0000       0.052983         1.4417
  31   0.0000       0.067375         1.8334
  32   0.0000       0.084437         2.2977

MULLIKEN ATOMIC CHARGES
-----------------------
   0 C :    0.742081
   1 N :   -0.494005
   2 C :    0.286609
   3 N :    0.119822
   4 C :    0.496259
   5 H :   -0.150331
   6 H :   -0.368962
   7 H :   -0.157093
   8 H :   -0.077484
   9 H :   -0.067974
  10 C :   -0.398227
  11 H :   -0.296381
  12 H :   -0.097218
  13 C :    0.788082
  14 H :   -0.067867
  15 H :   -0.053820
  16 H :   -0.108474
  17 H :   -0.133776
  18 H :    0.038761
Sum of atomic charges:    0.0000000

LOEWDIN ATOMIC CHARGES
----------------------
   0 C :    0.044503
   1 N :   -0.008222
   2 C :   -0.255505
   3 N :    0.196496
   4 C :    0.143803
   5 H :   -0.103197
   6 H :   -0.102942
   7 H :    0.027687
   8 H :   -0.015652
   9 H :    0.017171
  10 C :   -0.066888
  11 H :    0.017254
  12 H :    0.003854
  13 C :    0.133868
  14 H :    0.017430
  15 H :    0.019036
  16 H :   -0.031347
  17 H :   -0.018930
  18 H :   -0.018419

  Mayer bond orders larger than 0.100000
B(  0-C ,  1-N ) :   0.9458 B(  0-C , 10-C ) :   1.0892 B(  0-C , 11-H ) :   0.9029
B(  0-C , 12-H ) :   0.7526 B(  0-C , 14-H ) :   0.1327 B(  0-C , 15-H ) :   0.1461
B(  1-N ,  2-C ) :   0.9894 B(  1-N ,  4-C ) :   0.2037 B(  1-N ,  7-H ) :   1.1394
B(  1-N , 11-H ) :   0.1857 B(  1-N , 12-H ) :   0.1392 B(  2-C ,  3-N ) :   1.0284
B(  2-C ,  4-C ) :   2.0953 B(  2-C ,  5-H ) :   0.2658 B(  2-C ,  6-H ) :   0.3149
B(  2-C ,  7-H ) :  -0.1240 B(  3-N ,  4-C ) :   0.1955 B(  3-N ,  8-H ) :   0.9797
B(  3-N ,  9-H ) :   1.0883 B(  4-C ,  5-H ) :   0.6612 B(  4-C ,  6-H ) :   0.6730
B(  5-H ,  6-H ) :   0.2436 B(  8-H ,  9-H ) :  -0.1591 B( 10-C , 12-H ) :   0.1561
B( 10-C , 13-C ) :   1.2934 B( 10-C , 14-H ) :   0.9617 B( 10-C , 15-H ) :   0.9175
B( 10-C , 16-H ) :   0.2521 B( 10-C , 17-H ) :   0.2113 B( 10-C , 18-H ) :   0.2378
B( 11-H , 12-H ) :  -0.1500 B( 13-C , 16-H ) :   0.8226 B( 13-C , 17-H ) :   0.7849
B( 13-C , 18-H ) :   0.7230 B( 16-H , 18-H ) :   0.1105

Dispersion correction           -0.000483676
FINAL SINGLE POINT ENERGY      -306.847463559097

DIPOLE MOMENT
-------------
                                X             Y             Z
Electronic contribution:      0.75587      -3.81400      -3.03480
Nuclear contribution   :     -1.36148       3.89245       4.28682
                        -----------------------------------------
Total Dipole Moment    :     -0.60561       0.07846       1.25202
                        -----------------------------------------
Magnitude (a.u.)       :      1.39301
Magnitude (Debye)      :      3.54076

Rotational constants in cm-1:     0.130039     0.059901     0.055416
Rotational constants in MHz :  3898.472533  1795.778295  1661.317267

                             ****ORCA TERMINATED NORMALLY****
TOTAL RUN TIME: 0 days 0 hours 0 minutes 38 seconds 147 msec
