                         Program Version 5.0.0 -  RELEASE  -
|  1> !M062X D3Zero RIJCOSX def2-SVPD def2/J TightSCF xyzfile
|  2>
|  3> *xyzfile 0 1 D1.xyz
|  4>
|  5> %MaxCore 64000
|  6>
|  7> %pal nprocs 4
|  8> end
|  9>
| 10> %scf
| 11>   MaxIter 150
| 12> end
| 13>
| 14>
| 15>                          ****END OF INPUT****

CARTESIAN COORDINATES (ANGSTROEM)
---------------------------------
  C      2.234473   -2.989754   -2.397622
  C      2.756799   -2.945553   -3.765029
  C     -1.104325    0.251374   -2.860056
  C     -0.711893    0.842517   -4.218344
  H      0.154626    1.499800   -4.130909
  H     -1.538134    1.459222   -4.582671
  C     -0.397624   -0.205875   -5.288018
  C      1.987208   -2.590451   -4.818975
  N      0.743221   -3.017493   -4.913524
  N      2.499636   -1.848598   -5.803241
  H      3.309780   -1.292818   -5.558947
  H      1.801025   -1.304298   -6.289129
  H      3.716116   -2.628797   -3.829533
  H      0.395828   -3.627747   -4.185024
  H      0.039201   -2.454383   -5.371367
  F      0.617165   -0.005348   -5.998273
  O     -1.133173   -1.221380   -5.341465
  C      2.191199   -1.619503   -1.715492
  H      2.872783   -3.666368   -1.828014
  H      1.246188   -3.447444   -2.407842
  C      1.298729   -0.554314   -2.359773
  H      1.872917   -1.787955   -0.681310
  H      3.216809   -1.238432   -1.654428
  C     -0.196255   -0.863365   -2.325763
  H      1.612531   -0.371346   -3.393065
  H      1.480944    0.388638   -1.834444
  H     -0.404105   -1.761825   -2.909448
  H     -0.490439   -1.087880   -1.294131
  H     -1.143842    1.066711   -2.129680
  H     -2.114401   -0.156834   -2.930323

 Total Charge           Charge          ....    0
 Multiplicity           Mult            ....    1
 Number of Electrons    NEL             ....  102
 Basis Dimension        Dim             ....  402

ORBITAL ENERGIES
----------------

  NO   OCC          E(Eh)            E(eV)
   0   2.0000     -25.365240      -690.2233
   1   2.0000     -19.681452      -535.5595
   2   2.0000     -14.750492      -401.3813
   3   2.0000     -14.741899      -401.1475
   4   2.0000     -10.769326      -293.0483
   5   2.0000     -10.597302      -288.3672
   6   2.0000     -10.591380      -288.2061
   7   2.0000     -10.571724      -287.6712
   8   2.0000     -10.551074      -287.1093
   9   2.0000     -10.547454      -287.0108
  10   2.0000     -10.534675      -286.6631
  11   2.0000     -10.524175      -286.3774
  12   2.0000     -10.466507      -284.8081
  13   2.0000      -1.483512       -40.3684
  14   2.0000      -1.182099       -32.1666
  15   2.0000      -1.058864       -28.8132
  16   2.0000      -0.958215       -26.0743
  17   2.0000      -0.924996       -25.1704
  18   2.0000      -0.882956       -24.0265
  19   2.0000      -0.845683       -23.0122
  20   2.0000      -0.803235       -21.8571
  21   2.0000      -0.778017       -21.1709
  22   2.0000      -0.739583       -20.1251
  23   2.0000      -0.697906       -18.9910
  24   2.0000      -0.684433       -18.6244
  25   2.0000      -0.666649       -18.1404
  26   2.0000      -0.658859       -17.9285
  27   2.0000      -0.632527       -17.2119
  28   2.0000      -0.622299       -16.9336
  29   2.0000      -0.595817       -16.2130
  30   2.0000      -0.568261       -15.4632
  31   2.0000      -0.556889       -15.1537
  32   2.0000      -0.548810       -14.9339
  33   2.0000      -0.529628       -14.4119
  34   2.0000      -0.518398       -14.1063
  35   2.0000      -0.509312       -13.8591
  36   2.0000      -0.493354       -13.4249
  37   2.0000      -0.480586       -13.0774
  38   2.0000      -0.463993       -12.6259
  39   2.0000      -0.455946       -12.4069
  40   2.0000      -0.445162       -12.1135
  41   2.0000      -0.437315       -11.9000
  42   2.0000      -0.423566       -11.5258
  43   2.0000      -0.410773       -11.1777
  44   2.0000      -0.403228       -10.9724
  45   2.0000      -0.394827       -10.7438
  46   2.0000      -0.380347       -10.3498
  47   2.0000      -0.372409       -10.1338
  48   2.0000      -0.365781        -9.9534
  49   2.0000      -0.323547        -8.8042
  50   2.0000      -0.202306        -5.5050
  51   0.0000      -0.019656        -0.5349
  52   0.0000       0.018973         0.5163
  53   0.0000       0.042550         1.1578
  54   0.0000       0.047013         1.2793
  55   0.0000       0.052308         1.4234

MULLIKEN ATOMIC CHARGES
-----------------------
   0 C :    0.285515
   1 C :   -0.082476
   2 C :    0.557669
   3 C :    0.139670
   4 H :    0.219984
   5 H :   -0.252132
   6 C :    0.789325
   7 C :    0.400337
   8 N :    0.199065
   9 N :    0.043220
  10 H :    0.140725
  11 H :   -0.181930
  12 H :   -0.189310
  13 H :    0.066900
  14 H :   -0.494349
  15 F :   -0.409840
  16 O :   -0.653889
  17 C :    0.494309
  18 H :   -0.171841
  19 H :   -0.152152
  20 C :   -0.019422
  21 H :   -0.022714
  22 H :   -0.106276
  23 C :    0.026461
  24 H :   -0.126788
  25 H :   -0.154517
  26 H :   -0.173945
  27 H :   -0.160297
  28 H :   -0.088641
  29 H :    0.077337
Sum of atomic charges:    0.0000000

LOEWDIN ATOMIC CHARGES
----------------------
   0 C :   -0.063109
   1 C :   -0.013628
   2 C :   -0.009924
   3 C :    0.059696
   4 H :    0.028601
   5 H :    0.043128
   6 C :    0.049647
   7 C :   -0.224792
   8 N :    0.228066
   9 N :    0.202954
  10 H :    0.009972
  11 H :   -0.062311
  12 H :   -0.060708
  13 H :    0.005676
  14 H :   -0.096337
  15 F :   -0.046409
  16 O :   -0.127019
  17 C :   -0.023418
  18 H :    0.011491
  19 H :   -0.007859
  20 C :   -0.027413
  21 H :    0.018505
  22 H :    0.022952
  23 C :   -0.022679
  24 H :   -0.000962
  25 H :    0.024402
  26 H :   -0.007880
  27 H :    0.030800
  28 H :    0.029259
  29 H :    0.029296

  Mayer bond orders larger than 0.100000
B(  0-C ,  1-C ) :   1.1880 B(  0-C ,  7-C ) :   0.1426 B(  0-C , 12-H ) :   0.3590
B(  0-C , 17-C ) :   1.1160 B(  0-C , 18-H ) :   0.7505 B(  0-C , 19-H ) :   0.7725
B(  0-C , 21-H ) :   0.2036 B(  0-C , 22-H ) :   0.1900 B(  1-C ,  7-C ) :   1.6453
B(  1-C ,  8-N ) :   0.1459 B(  1-C ,  9-N ) :   0.3171 B(  1-C , 12-H ) :   0.4711
B(  1-C , 18-H ) :   0.2064 B(  1-C , 19-H ) :   0.2044 B(  2-C ,  3-C ) :   1.1816
B(  2-C ,  4-H ) :   0.1063 B(  2-C ,  5-H ) :   0.1596 B(  2-C , 23-C ) :   1.2559
B(  2-C , 28-H ) :   0.7874 B(  2-C , 29-H ) :   0.6374 B(  3-C ,  4-H ) :   0.7884
B(  3-C ,  5-H ) :   0.8237 B(  3-C ,  6-C ) :   1.1768 B(  3-C , 23-C ) :   0.1074
B(  3-C , 28-H ) :   0.1440 B(  4-H ,  5-H ) :  -0.1222 B(  4-H ,  6-C ) :   0.1659
B(  5-H ,  6-C ) :   0.1896 B(  6-C , 15-F ) :   0.5528 B(  6-C , 16-O ) :   1.5803
B(  7-C ,  8-N ) :   0.9535 B(  7-C ,  9-N ) :   0.8301 B(  7-C , 11-H ) :   0.1095
B(  7-C , 12-H ) :   0.4114 B(  7-C , 14-H ) :  -0.1022 B(  8-N ,  9-N ) :   0.1052
B(  8-N , 13-H ) :   0.8988 B(  8-N , 14-H ) :   1.2439 B(  9-N , 10-H ) :   0.8500
B(  9-N , 11-H ) :   0.8381 B( 13-H , 14-H ) :  -0.2684 B( 14-H , 16-O ) :   0.1566
B( 17-C , 19-H ) :   0.1089 B( 17-C , 20-C ) :   1.2512 B( 17-C , 21-H ) :   0.7597
B( 17-C , 22-H ) :   0.6855 B( 20-C , 21-H ) :   0.1467 B( 20-C , 22-H ) :   0.2772
B( 20-C , 23-C ) :   1.2773 B( 20-C , 24-H ) :   0.9418 B( 20-C , 25-H ) :   0.7891
B( 20-C , 26-H ) :   0.1484 B( 20-C , 27-H ) :   0.2123 B( 21-H , 22-H ) :  -0.1750
B( 23-C , 24-H ) :   0.1458 B( 23-C , 25-H ) :   0.2138 B( 23-C , 26-H ) :   0.9449
B( 23-C , 27-H ) :   0.7883 B( 23-C , 28-H ) :   0.1621 B( 23-C , 29-H ) :   0.2550
B( 28-H , 29-H ) :  -0.1495

Dispersion correction           -0.001673400
FINAL SINGLE POINT ENERGY      -637.001502097001

DIPOLE MOMENT
-------------
                                X             Y             Z
Electronic contribution:     -3.10006       2.24766     -14.48634
Nuclear contribution   :      2.31842      -0.27661      14.74721
                        -----------------------------------------
Total Dipole Moment    :     -0.78164       1.97105       0.26087
                        -----------------------------------------
Magnitude (a.u.)       :      2.13637
Magnitude (Debye)      :      5.43021

Rotational constants in cm-1:     0.032691     0.023990     0.017099
Rotational constants in MHz :   980.050971   719.190545   512.606858

                             ****ORCA TERMINATED NORMALLY****
TOTAL RUN TIME: 0 days 0 hours 2 minutes 46 seconds 168 msec
