                         Program Version 5.0.0 -  RELEASE  -
|  1> !M062X D3Zero RIJCOSX def2-SVPD def2/J TightSCF xyzfile
|  2>
|  3> *xyzfile 0 1 D5.xyz
|  4>
|  5> %MaxCore 64000
|  6>
|  7> %pal nprocs 4
|  8> end
|  9>
| 10> %scf
| 11>   MaxIter 150
| 12> end
| 13>
| 14>
| 15>                          ****END OF INPUT****

CARTESIAN COORDINATES (ANGSTROEM)
---------------------------------
  C      2.234473   -2.989754   -2.397622
  N      2.756799   -2.945553   -3.765029
  C     -1.104325    0.251374   -2.860056
  C     -0.711893    0.842517   -4.218344
  H      0.154626    1.499800   -4.130909
  H     -1.538134    1.459222   -4.582671
  C     -0.397624   -0.205875   -5.288018
  C      1.987208   -2.590451   -4.818975
  C      0.743221   -3.017493   -4.913524
  N      2.499636   -1.848598   -5.803241
  H      3.309780   -1.292818   -5.558947
  H      1.801025   -1.304298   -6.289129
  H      3.716116   -2.628797   -3.829533
  H      0.395828   -3.627747   -4.185024
  H      0.039201   -2.454383   -5.371367
  O      0.617165   -0.005348   -5.998273
  F     -1.133173   -1.221380   -5.341465
  C      2.191199   -1.619503   -1.715492
  H      2.872783   -3.666368   -1.828014
  H      1.246188   -3.447444   -2.407842
  C      1.298729   -0.554314   -2.359773
  H      1.872917   -1.787955   -0.681310
  H      3.216809   -1.238432   -1.654428
  C     -0.196255   -0.863365   -2.325763
  H      1.612531   -0.371346   -3.393065
  H      1.480944    0.388638   -1.834444
  H     -0.404105   -1.761825   -2.909448
  H     -0.490439   -1.087880   -1.294131
  H     -1.143842    1.066711   -2.129680
  H     -2.114401   -0.156834   -2.930323

 Total Charge           Charge          ....    0
 Multiplicity           Mult            ....    1
 Number of Electrons    NEL             ....  102
 Basis Dimension        Dim             ....  402

ORBITAL ENERGIES
----------------

  NO   OCC          E(Eh)            E(eV)
   0   2.0000     -25.337464      -689.4674
   1   2.0000     -19.663979      -535.0841
   2   2.0000     -14.755783      -401.5253
   3   2.0000     -14.735573      -400.9753
   4   2.0000     -10.752259      -292.5839
   5   2.0000     -10.587498      -288.1005
   6   2.0000     -10.587027      -288.0876
   7   2.0000     -10.580959      -287.9225
   8   2.0000     -10.569690      -287.6159
   9   2.0000     -10.552821      -287.1569
  10   2.0000     -10.552513      -287.1485
  11   2.0000     -10.552209      -287.1402
  12   2.0000     -10.456531      -284.5367
  13   2.0000      -1.457661       -39.6650
  14   2.0000      -1.162821       -31.6420
  15   2.0000      -1.055739       -28.7281
  16   2.0000      -0.969155       -26.3721
  17   2.0000      -0.921573       -25.0773
  18   2.0000      -0.876811       -23.8592
  19   2.0000      -0.824249       -22.4290
  20   2.0000      -0.793545       -21.5935
  21   2.0000      -0.777789       -21.1647
  22   2.0000      -0.752571       -20.4785
  23   2.0000      -0.700928       -19.0732
  24   2.0000      -0.672836       -18.3088
  25   2.0000      -0.660611       -17.9761
  26   2.0000      -0.646367       -17.5885
  27   2.0000      -0.622446       -16.9376
  28   2.0000      -0.604644       -16.4532
  29   2.0000      -0.596193       -16.2232
  30   2.0000      -0.563191       -15.3252
  31   2.0000      -0.555312       -15.1108
  32   2.0000      -0.546831       -14.8800
  33   2.0000      -0.523242       -14.2381
  34   2.0000      -0.515360       -14.0237
  35   2.0000      -0.497111       -13.5271
  36   2.0000      -0.483097       -13.1457
  37   2.0000      -0.478248       -13.0138
  38   2.0000      -0.463178       -12.6037
  39   2.0000      -0.460002       -12.5173
  40   2.0000      -0.444185       -12.0869
  41   2.0000      -0.436599       -11.8805
  42   2.0000      -0.424289       -11.5455
  43   2.0000      -0.422002       -11.4832
  44   2.0000      -0.411135       -11.1875
  45   2.0000      -0.394881       -10.7453
  46   2.0000      -0.390966       -10.6387
  47   2.0000      -0.381555       -10.3826
  48   2.0000      -0.373804       -10.1717
  49   2.0000      -0.302063        -8.2196
  50   2.0000      -0.219541        -5.9740
  51   0.0000      -0.000025        -0.0007
  52   0.0000       0.025987         0.7071
  53   0.0000       0.039435         1.0731
  54   0.0000       0.046610         1.2683
  55   0.0000       0.054851         1.4926

MULLIKEN ATOMIC CHARGES
-----------------------
   0 C :    0.789988
   1 N :   -0.427625
   2 C :    0.559779
   3 C :    0.173734
   4 H :    0.199061
   5 H :   -0.262168
   6 C :    0.655149
   7 C :    0.471611
   8 C :    0.812972
   9 N :    0.072651
  10 H :    0.067300
  11 H :   -0.168833
  12 H :   -0.192650
  13 H :   -0.033504
  14 H :   -0.857719
  15 O :   -0.511467
  16 F :   -0.547328
  17 C :    0.409933
  18 H :   -0.387731
  19 H :    0.022368
  20 C :    0.020754
  21 H :    0.018219
  22 H :   -0.091398
  23 C :   -0.027307
  24 H :   -0.201944
  25 H :   -0.193013
  26 H :   -0.176779
  27 H :   -0.147641
  28 H :   -0.097152
  29 H :    0.050740
Sum of atomic charges:    0.0000000

LOEWDIN ATOMIC CHARGES
----------------------
   0 C :    0.060806
   1 N :   -0.008837
   2 C :   -0.018259
   3 C :    0.064570
   4 H :    0.036199
   5 H :    0.040126
   6 C :    0.047015
   7 C :   -0.229179
   8 C :    0.186120
   9 N :    0.204504
  10 H :   -0.004787
  11 H :   -0.077681
  12 H :    0.015024
  13 H :   -0.089717
  14 H :   -0.139005
  15 O :   -0.139024
  16 F :   -0.053957
  17 C :   -0.016961
  18 H :    0.018758
  19 H :    0.005327
  20 C :   -0.023096
  21 H :    0.022295
  22 H :    0.019556
  23 C :   -0.023765
  24 H :    0.002932
  25 H :    0.025972
  26 H :   -0.006141
  27 H :    0.028725
  28 H :    0.027021
  29 H :    0.025458

  Mayer bond orders larger than 0.100000
B(  0-C ,  1-N ) :   0.9390 B(  0-C , 17-C ) :   1.0623 B(  0-C , 18-H ) :   0.8388
B(  0-C , 19-H ) :   0.7442 B(  0-C , 21-H ) :   0.1561 B(  0-C , 22-H ) :   0.1219
B(  1-N ,  7-C ) :   0.9696 B(  1-N ,  8-C ) :   0.2952 B(  1-N ,  9-N ) :   0.1389
B(  1-N , 12-H ) :   1.0923 B(  1-N , 18-H ) :   0.2058 B(  1-N , 19-H ) :   0.1191
B(  2-C ,  3-C ) :   1.1432 B(  2-C ,  5-H ) :   0.1533 B(  2-C , 23-C ) :   1.2582
B(  2-C , 28-H ) :   0.7972 B(  2-C , 29-H ) :   0.6458 B(  3-C ,  4-H ) :   0.8196
B(  3-C ,  5-H ) :   0.8026 B(  3-C ,  6-C ) :   1.1834 B(  3-C , 28-H ) :   0.1364
B(  4-H ,  5-H ) :  -0.1279 B(  4-H ,  6-C ) :   0.1998 B(  5-H ,  6-C ) :   0.2184
B(  6-C , 14-H ) :   0.1576 B(  6-C , 15-O ) :   1.5934 B(  6-C , 16-F ) :   0.5401
B(  7-C ,  8-C ) :   1.8350 B(  7-C ,  9-N ) :   0.7845 B(  7-C , 13-H ) :   0.3729
B(  7-C , 14-H ) :   0.1431 B(  8-C ,  9-N ) :   0.2184 B(  8-C , 13-H ) :   0.3210
B(  8-C , 14-H ) :   0.1910 B(  9-N , 10-H ) :   0.8444 B(  9-N , 11-H ) :   0.9319
B(  9-N , 13-H ) :   0.1008 B( 11-H , 13-H ) :  -0.1022 B( 11-H , 15-O ) :   0.1007
B( 13-H , 14-H ) :  -0.2030 B( 14-H , 16-F ) :   0.2193 B( 17-C , 19-H ) :   0.1268
B( 17-C , 20-C ) :   1.2276 B( 17-C , 21-H ) :   0.7929 B( 17-C , 22-H ) :   0.7231
B( 18-H , 19-H ) :  -0.1921 B( 20-C , 21-H ) :   0.1565 B( 20-C , 22-H ) :   0.2469
B( 20-C , 23-C ) :   1.2843 B( 20-C , 24-H ) :   0.9381 B( 20-C , 25-H ) :   0.8420
B( 20-C , 26-H ) :   0.1627 B( 20-C , 27-H ) :   0.2415 B( 21-H , 22-H ) :  -0.1431
B( 23-C , 24-H ) :   0.1591 B( 23-C , 25-H ) :   0.2209 B( 23-C , 26-H ) :   0.9468
B( 23-C , 27-H ) :   0.7798 B( 23-C , 28-H ) :   0.1687 B( 23-C , 29-H ) :   0.2446
B( 28-H , 29-H ) :  -0.1599

Dispersion correction           -0.001688026
FINAL SINGLE POINT ENERGY      -636.992292922561

DIPOLE MOMENT
-------------
                                X             Y             Z
Electronic contribution:     -4.37260       0.20485     -12.38152
Nuclear contribution   :      4.07548       1.14852      13.79455
                        -----------------------------------------
Total Dipole Moment    :     -0.29711       1.35337       1.41303
                        -----------------------------------------
Magnitude (a.u.)       :      1.97902
Magnitude (Debye)      :      5.03028

Rotational constants in cm-1:     0.033274     0.023559     0.016968
Rotational constants in MHz :   997.539108   706.293545   508.690532

                             ****ORCA TERMINATED NORMALLY****
TOTAL RUN TIME: 0 days 0 hours 2 minutes 44 seconds 425 msec
