                         Program Version 5.0.0 -  RELEASE  -
|  1> !M062X D3Zero RIJCOSX def2-SVPD def2/J TightSCF xyzfile
|  2>
|  3> *xyzfile 0 1 D6.xyz
|  4>
|  5> %MaxCore 64000
|  6>
|  7> %pal nprocs 4
|  8> end
|  9>
| 10> %scf
| 11>   MaxIter 150
| 12> end
| 13>
| 14>
| 15>                          ****END OF INPUT****

CARTESIAN COORDINATES (ANGSTROEM)
---------------------------------
  C      2.234473   -2.989754   -2.397622
  N      2.756799   -2.945553   -3.765029
  C     -1.104325    0.251374   -2.860056
  C     -0.711893    0.842517   -4.218344
  H      0.154626    1.499800   -4.130909
  H     -1.538134    1.459222   -4.582671
  C     -0.397624   -0.205875   -5.288018
  C      1.987208   -2.590451   -4.818975
  N      0.743221   -3.017493   -4.913524
  C      2.499636   -1.848598   -5.803241
  H      3.309780   -1.292818   -5.558947
  H      1.801025   -1.304298   -6.289129
  H      3.716116   -2.628797   -3.829533
  H      0.395828   -3.627747   -4.185024
  H      0.039201   -2.454383   -5.371367
  O      0.617165   -0.005348   -5.998273
  F     -1.133173   -1.221380   -5.341465
  C      2.191199   -1.619503   -1.715492
  H      2.872783   -3.666368   -1.828014
  H      1.246188   -3.447444   -2.407842
  C      1.298729   -0.554314   -2.359773
  H      1.872917   -1.787955   -0.681310
  H      3.216809   -1.238432   -1.654428
  C     -0.196255   -0.863365   -2.325763
  H      1.612531   -0.371346   -3.393065
  H      1.480944    0.388638   -1.834444
  H     -0.404105   -1.761825   -2.909448
  H     -0.490439   -1.087880   -1.294131
  H     -1.143842    1.066711   -2.129680
  H     -2.114401   -0.156834   -2.930323

 Total Charge           Charge          ....    0
 Multiplicity           Mult            ....    1
 Number of Electrons    NEL             ....  102
 Basis Dimension        Dim             ....  402

ORBITAL ENERGIES
----------------

  NO   OCC          E(Eh)            E(eV)
   0   2.0000     -25.351717      -689.8553
   1   2.0000     -19.661334      -535.0121
   2   2.0000     -14.753232      -401.4558
   3   2.0000     -14.750748      -401.3883
   4   2.0000     -10.748996      -292.4950
   5   2.0000     -10.588472      -288.1270
   6   2.0000     -10.587145      -288.0909
   7   2.0000     -10.586867      -288.0833
   8   2.0000     -10.573873      -287.7297
   9   2.0000     -10.561035      -287.3804
  10   2.0000     -10.555093      -287.2187
  11   2.0000     -10.553933      -287.1871
  12   2.0000     -10.442717      -284.1608
  13   2.0000      -1.471195       -40.0333
  14   2.0000      -1.159323       -31.5468
  15   2.0000      -1.060599       -28.8604
  16   2.0000      -0.974424       -26.5154
  17   2.0000      -0.926192       -25.2030
  18   2.0000      -0.881833       -23.9959
  19   2.0000      -0.832045       -22.6411
  20   2.0000      -0.799846       -21.7649
  21   2.0000      -0.775610       -21.1054
  22   2.0000      -0.748412       -20.3653
  23   2.0000      -0.700402       -19.0589
  24   2.0000      -0.692577       -18.8460
  25   2.0000      -0.666902       -18.1473
  26   2.0000      -0.653718       -17.7886
  27   2.0000      -0.648434       -17.6448
  28   2.0000      -0.605609       -16.4795
  29   2.0000      -0.590159       -16.0590
  30   2.0000      -0.566949       -15.4275
  31   2.0000      -0.554396       -15.0859
  32   2.0000      -0.543256       -14.7827
  33   2.0000      -0.534396       -14.5417
  34   2.0000      -0.519345       -14.1321
  35   2.0000      -0.507200       -13.8016
  36   2.0000      -0.489776       -13.3275
  37   2.0000      -0.478548       -13.0220
  38   2.0000      -0.458826       -12.4853
  39   2.0000      -0.451073       -12.2743
  40   2.0000      -0.448159       -12.1950
  41   2.0000      -0.437554       -11.9064
  42   2.0000      -0.432440       -11.7673
  43   2.0000      -0.426148       -11.5961
  44   2.0000      -0.406852       -11.0710
  45   2.0000      -0.395557       -10.7636
  46   2.0000      -0.393499       -10.7077
  47   2.0000      -0.386269       -10.5109
  48   2.0000      -0.360484        -9.8093
  49   2.0000      -0.308327        -8.3900
  50   2.0000      -0.208435        -5.6718
  51   0.0000      -0.000425        -0.0116
  52   0.0000       0.021716         0.5909
  53   0.0000       0.038222         1.0401
  54   0.0000       0.041233         1.1220
  55   0.0000       0.051967         1.4141

MULLIKEN ATOMIC CHARGES
-----------------------
   0 C :    0.840595
   1 N :   -0.547979
   2 C :    0.559174
   3 C :    0.182672
   4 H :    0.210115
   5 H :   -0.250672
   6 C :    0.664369
   7 C :    0.299536
   8 N :    0.321062
   9 C :    0.786348
  10 H :   -0.059102
  11 H :   -0.631845
  12 H :   -0.128975
  13 H :   -0.033559
  14 H :   -0.385387
  15 O :   -0.505287
  16 F :   -0.493839
  17 C :    0.383533
  18 H :   -0.388222
  19 H :    0.013772
  20 C :   -0.001441
  21 H :    0.017092
  22 H :   -0.115455
  23 C :    0.032193
  24 H :   -0.085882
  25 H :   -0.270801
  26 H :   -0.197795
  27 H :   -0.159532
  28 H :   -0.097666
  29 H :    0.042976
Sum of atomic charges:    0.0000000

LOEWDIN ATOMIC CHARGES
----------------------
   0 C :    0.053309
   1 N :   -0.007749
   2 C :   -0.020368
   3 C :    0.065466
   4 H :    0.038346
   5 H :    0.039713
   6 C :    0.042241
   7 C :   -0.231946
   8 N :    0.224097
   9 C :    0.165428
  10 H :   -0.090977
  11 H :   -0.162334
  12 H :    0.026456
  13 H :   -0.009110
  14 H :   -0.056223
  15 O :   -0.124774
  16 F :   -0.051809
  17 C :   -0.017321
  18 H :    0.017340
  19 H :   -0.000349
  20 C :   -0.019089
  21 H :    0.020834
  22 H :    0.023010
  23 C :   -0.028810
  24 H :    0.008060
  25 H :    0.027180
  26 H :   -0.011514
  27 H :    0.028488
  28 H :    0.028064
  29 H :    0.024339

  Mayer bond orders larger than 0.100000
B(  0-C ,  1-N ) :   0.9398 B(  0-C , 12-H ) :  -0.1154 B(  0-C , 17-C ) :   1.0708
B(  0-C , 18-H ) :   0.8338 B(  0-C , 19-H ) :   0.7462 B(  0-C , 21-H ) :   0.1371
B(  0-C , 22-H ) :   0.1457 B(  1-N ,  7-C ) :   0.9699 B(  1-N ,  9-C ) :   0.2144
B(  1-N , 12-H ) :   1.1448 B(  1-N , 18-H ) :   0.2249 B(  1-N , 19-H ) :   0.1195
B(  2-C ,  3-C ) :   1.1570 B(  2-C ,  5-H ) :   0.1501 B(  2-C , 23-C ) :   1.2447
B(  2-C , 28-H ) :   0.8083 B(  2-C , 29-H ) :   0.6396 B(  3-C ,  4-H ) :   0.8150
B(  3-C ,  5-H ) :   0.8169 B(  3-C ,  6-C ) :   1.1558 B(  3-C , 28-H ) :   0.1310
B(  4-H ,  5-H ) :  -0.1207 B(  4-H ,  6-C ) :   0.2075 B(  5-H ,  6-C ) :   0.1943
B(  6-C , 15-O ) :   1.7109 B(  6-C , 16-F ) :   0.4696 B(  7-C ,  8-N ) :   0.9403
B(  7-C ,  9-C ) :   2.0411 B(  7-C , 10-H ) :   0.3416 B(  7-C , 11-H ) :   0.3750
B(  7-C , 12-H ) :  -0.1393 B(  8-N ,  9-C ) :   0.2195 B(  8-N , 13-H ) :   0.9563
B(  8-N , 14-H ) :   1.0759 B(  9-C , 10-H ) :   0.4227 B(  9-C , 11-H ) :   0.1914
B( 10-H , 11-H ) :   0.3033 B( 11-H , 15-O ) :   0.1775 B( 13-H , 14-H ) :  -0.2466
B( 17-C , 19-H ) :   0.1355 B( 17-C , 20-C ) :   1.2367 B( 17-C , 21-H ) :   0.8254
B( 17-C , 22-H ) :   0.7041 B( 18-H , 19-H ) :  -0.1884 B( 20-C , 21-H ) :   0.1400
B( 20-C , 22-H ) :   0.2560 B( 20-C , 23-C ) :   1.2892 B( 20-C , 24-H ) :   0.9288
B( 20-C , 25-H ) :   0.8711 B( 20-C , 26-H ) :   0.1702 B( 20-C , 27-H ) :   0.2162
B( 21-H , 22-H ) :  -0.1469 B( 23-C , 24-H ) :   0.1406 B( 23-C , 25-H ) :   0.1852
B( 23-C , 26-H ) :   0.9164 B( 23-C , 27-H ) :   0.7847 B( 23-C , 28-H ) :   0.1699
B( 23-C , 29-H ) :   0.2490 B( 28-H , 29-H ) :  -0.1600

Dispersion correction           -0.001679901
FINAL SINGLE POINT ENERGY      -636.977072130738

DIPOLE MOMENT
-------------
                                X             Y             Z
Electronic contribution:     -5.70383      -0.68245     -11.68229
Nuclear contribution   :      4.34606       1.32859      13.65749
                        -----------------------------------------
Total Dipole Moment    :     -1.35776       0.64614       1.97519
                        -----------------------------------------
Magnitude (a.u.)       :      2.48242
Magnitude (Debye)      :      6.30981

Rotational constants in cm-1:     0.033551     0.023540     0.017085
Rotational constants in MHz :  1005.818710   705.725032   512.192443

                             ****ORCA TERMINATED NORMALLY****
TOTAL RUN TIME: 0 days 0 hours 2 minutes 45 seconds 537 msec
