                         Program Version 5.0.0 -  RELEASE  -
|  1> !LC-BLYP RIJCOSX def2-TZVPD def2/J TightSCF
|  2>
|  3> *xyz -1 1
|  4> C          2.95263        1.86308       -3.57485
|  5> C          4.12921        0.89839       -3.41895
|  6> H          3.73369       -0.10060       -3.23763
|  7> H          4.71910        0.86256       -4.33901
|  8> C          5.01734        1.31521       -2.22130
|  9> O          4.73706        0.85411       -1.12283
| 10> O          5.92815        2.16811       -2.49136
| 11> H          2.35067        1.56005       -4.40594
| 12> H          3.32277        2.85258       -3.74453
| 13> H          2.36134        1.85149       -2.68315
| 14> *
| 15> %MaxCore 64000
| 16>
| 17> %pal nprocs 4
| 18> end
| 19>
| 20> %scf
| 21>   MaxIter 150
| 22> end
| 23>
| 24>
| 25>                          ****END OF INPUT****

CARTESIAN COORDINATES (ANGSTROEM)
---------------------------------
  C      2.952630    1.863080   -3.574850
  C      4.129210    0.898390   -3.418950
  H      3.733690   -0.100600   -3.237630
  H      4.719100    0.862560   -4.339010
  C      5.017340    1.315210   -2.221300
  O      4.737060    0.854110   -1.122830
  O      5.928150    2.168110   -2.491360
  H      2.350670    1.560050   -4.405940
  H      3.322770    2.852580   -3.744530
  H      2.361340    1.851490   -2.683150

 Total Charge           Charge          ....   -1
 Multiplicity           Mult            ....    1
 Number of Electrons    NEL             ....   40
 Basis Dimension        Dim             ....  236

ORBITAL ENERGIES
----------------

  NO   OCC          E(Eh)            E(eV)
   0   2.0000     -18.682096      -508.3657
   1   2.0000     -18.671333      -508.0728
   2   2.0000      -9.955542      -270.9041
   3   2.0000      -9.905997      -269.5559
   4   2.0000      -9.893454      -269.2146
   5   2.0000      -0.921130       -25.0652
   6   2.0000      -0.823355       -22.4046
   7   2.0000      -0.716500       -19.4970
   8   2.0000      -0.579435       -15.7672
   9   2.0000      -0.429120       -11.6770
  10   2.0000      -0.398023       -10.8308
  11   2.0000      -0.365016        -9.9326
  12   2.0000      -0.338011        -9.1977
  13   2.0000      -0.314528        -8.5587
  14   2.0000      -0.313759        -8.5378
  15   2.0000      -0.278451        -7.5770
  16   2.0000      -0.273313        -7.4372
  17   2.0000      -0.150839        -4.1045
  18   2.0000      -0.140416        -3.8209
  19   2.0000      -0.130242        -3.5441
  20   0.0000       0.177154         4.8206
  21   0.0000       0.199267         5.4223
  22   0.0000       0.206205         5.6111
  23   0.0000       0.217764         5.9257
  24   0.0000       0.251644         6.8476

MULLIKEN ATOMIC CHARGES
-----------------------
   0 C :   -1.295364
   1 C :   -0.455336
   2 H :    0.326968
   3 H :    0.331735
   4 C :    0.308405
   5 O :   -0.609035
   6 O :   -0.691280
   7 H :    0.353118
   8 H :    0.365523
   9 H :    0.365266
Sum of atomic charges:   -1.0000000

LOEWDIN ATOMIC CHARGES
----------------------
   0 C :   -0.143370
   1 C :   -0.229463
   2 H :    0.091192
   3 H :    0.094705
   4 C :   -0.812532
   5 O :   -0.058300
   6 O :   -0.121140
   7 H :    0.048199
   8 H :    0.065099
   9 H :    0.065609

  Mayer bond orders larger than 0.100000
B(  0-C ,  1-C ) :   0.4218 B(  0-C ,  7-H ) :   0.9000 B(  0-C ,  8-H ) :   0.9487
B(  0-C ,  9-H ) :   0.9466 B(  1-C ,  2-H ) :   0.9607 B(  1-C ,  3-H ) :   0.9521
B(  1-C ,  4-C ) :   0.8714 B(  4-C ,  5-O ) :   1.5651 B(  4-C ,  6-O ) :   1.4740

FINAL SINGLE POINT ENERGY      -267.353475408384

DIPOLE MOMENT
-------------
                                X             Y             Z
Electronic contribution:      4.38428      -0.22358       3.86027
Nuclear contribution   :     -5.85873      -0.10793      -5.24103
                        -----------------------------------------
Total Dipole Moment    :     -1.47445      -0.33151      -1.38076
                        -----------------------------------------
Magnitude (a.u.)       :      2.04705
Magnitude (Debye)      :      5.20318

Rotational constants in cm-1:     0.292505     0.135951     0.110253
Rotational constants in MHz :  8769.065873  4075.717001  3305.311891

                             ****ORCA TERMINATED NORMALLY****
TOTAL RUN TIME: 0 days 0 hours 0 minutes 34 seconds 508 msec
