                         Program Version 5.0.0 -  RELEASE  -
|  1> !LC-BLYP RIJCOSX def2-TZVPD def2/J TightSCF
|  2>
|  3> *xyz 1 1
|  4> C          3.34350        3.35457       -3.59200
|  5> C          2.95263        1.86308       -3.57485
|  6> C          4.25587        3.70385       -4.72605
|  7> N          3.73403        4.29378       -5.80077
|  8> N          5.51504        3.40725       -4.63718
|  9> H          6.14919        3.60120       -5.39905
| 10> H          5.81358        2.89950       -3.80879
| 11> H          2.74138        4.51311       -5.82470
| 12> H          4.28755        4.52126       -6.61434
| 13> H          3.86125        3.59725       -2.66298
| 14> H          2.44649        3.97346       -3.65656
| 15> H          2.44395        1.61721       -4.48352
| 16> H          2.30781        1.67290       -2.74242
| 17> H          3.83491        1.26414       -3.48670
| 18> *
| 19> %MaxCore 64000
| 20>
| 21> %pal nprocs 4
| 22> end
| 23>
| 24> %scf
| 25>   MaxIter 150
| 26> end
| 27>
| 28>
| 29>                          ****END OF INPUT****

CARTESIAN COORDINATES (ANGSTROEM)
---------------------------------
  C      3.343500    3.354570   -3.592000
  C      2.952630    1.863080   -3.574850
  C      4.255870    3.703850   -4.726050
  N      3.734030    4.293780   -5.800770
  N      5.515040    3.407250   -4.637180
  H      6.149190    3.601200   -5.399050
  H      5.813580    2.899500   -3.808790
  H      2.741380    4.513110   -5.824700
  H      4.287550    4.521260   -6.614340
  H      3.861250    3.597250   -2.662980
  H      2.446490    3.973460   -3.656560
  H      2.443950    1.617210   -4.483520
  H      2.307810    1.672900   -2.742420
  H      3.834910    1.264140   -3.486700

 Total Charge           Charge          ....    1
 Multiplicity           Mult            ....    1
 Number of Electrons    NEL             ....   40
 Basis Dimension        Dim             ....  266

ORBITAL ENERGIES
----------------

  NO   OCC          E(Eh)            E(eV)
   0   2.0000     -14.418179      -392.3386
   1   2.0000     -14.413388      -392.2082
   2   2.0000     -10.393822      -282.8303
   3   2.0000     -10.267125      -279.3827
   4   2.0000     -10.222786      -278.1761
   5   2.0000      -1.306692       -35.5569
   6   2.0000      -1.210937       -32.9513
   7   2.0000      -1.078384       -29.3443
   8   2.0000      -0.967787       -26.3348
   9   2.0000      -0.923330       -25.1251
  10   2.0000      -0.882939       -24.0260
  11   2.0000      -0.856314       -23.3015
  12   2.0000      -0.802920       -21.8486
  13   2.0000      -0.758839       -20.6491
  14   2.0000      -0.728559       -19.8251
  15   2.0000      -0.717906       -19.5352
  16   2.0000      -0.644592       -17.5402
  17   2.0000      -0.635989       -17.3061
  18   2.0000      -0.627378       -17.0718
  19   2.0000      -0.591965       -16.1082
  20   0.0000      -0.130582        -3.5533
  21   0.0000      -0.112783        -3.0690
  22   0.0000      -0.073407        -1.9975
  23   0.0000      -0.068855        -1.8737
  24   0.0000      -0.049768        -1.3542

MULLIKEN ATOMIC CHARGES
-----------------------
   0 C :   -0.923433
   1 C :   -1.174763
   2 C :    0.726899
   3 N :   -0.323474
   4 N :   -0.274355
   5 H :    0.226329
   6 H :    0.254041
   7 H :    0.234302
   8 H :    0.210609
   9 H :    0.405382
  10 H :    0.428407
  11 H :    0.395115
  12 H :    0.421709
  13 H :    0.393231
Sum of atomic charges:    1.0000000

LOEWDIN ATOMIC CHARGES
----------------------
   0 C :   -0.161890
   1 C :   -0.063265
   2 C :   -0.376759
   3 N :    0.231283
   4 N :    0.242514
   5 H :    0.153270
   6 H :    0.157058
   7 H :    0.148421
   8 H :    0.143216
   9 H :    0.137218
  10 H :    0.131935
  11 H :    0.086926
  12 H :    0.090579
  13 H :    0.079495

  Mayer bond orders larger than 0.100000
B(  0-C ,  1-C ) :   0.5353 B(  0-C ,  2-C ) :   0.5953 B(  0-C ,  9-H ) :   0.9343
B(  0-C , 10-H ) :   0.8779 B(  1-C , 11-H ) :   0.9298 B(  1-C , 12-H ) :   0.9135
B(  1-C , 13-H ) :   0.8790 B(  2-C ,  3-N ) :   1.0764 B(  2-C ,  4-N ) :   1.1689
B(  3-N ,  4-N ) :   0.1117 B(  3-N ,  7-H ) :   0.9515 B(  3-N ,  8-H ) :   1.0272
B(  4-N ,  5-H ) :   0.9968 B(  4-N ,  6-H ) :   0.9316

FINAL SINGLE POINT ENERGY      -228.509207958757

DIPOLE MOMENT
-------------
                                X             Y             Z
Electronic contribution:      2.37417       2.57716      -2.27666
Nuclear contribution   :     -1.74195      -2.09431       1.58516
                        -----------------------------------------
Total Dipole Moment    :      0.63222       0.48286      -0.69150
                        -----------------------------------------
Magnitude (a.u.)       :      1.05405
Magnitude (Debye)      :      2.67919

Rotational constants in cm-1:     0.258965     0.126500     0.098780
Rotational constants in MHz :  7763.584551  3792.383135  2961.336502

                             ****ORCA TERMINATED NORMALLY****
TOTAL RUN TIME: 0 days 0 hours 0 minutes 44 seconds 923 msec
