                         Program Version 5.0.0 -  RELEASE  -
|  1> !LC-BLYP RIJCOSX def2-TZVPD def2/J TightSCF xyzfile
|  2>
|  3> *xyzfile 0 1 B.xyz
|  4>
|  5> %MaxCore 64000
|  6>
|  7> %pal nprocs 4
|  8> end
|  9>
| 10> %scf
| 11>   MaxIter 150
| 12> end
| 13>
| 14>
| 15>                          ****END OF INPUT****

CARTESIAN COORDINATES (ANGSTROEM)
---------------------------------
  C      3.343500    3.354571   -3.591998
  C      2.952633    1.863077   -3.574849
  C      4.129209    0.898394   -3.418950
  H      3.733687   -0.100605   -3.237633
  H      4.719095    0.862556   -4.339005
  C      5.017344    1.315212   -2.221305
  C      4.255868    3.703851   -4.726054
  N      3.734032    4.293783   -5.800770
  N      5.515039    3.407255   -4.637185
  H      6.149187    3.601203   -5.399053
  H      5.813584    2.899504   -3.808785
  H      2.741380    4.513109   -5.824701
  H      4.287548    4.521260   -6.614341
  H      2.278938    1.735250   -2.725496
  H      2.377466    1.625787   -4.475869
  O      4.737055    0.854112   -1.122825
  O      5.928146    2.168108   -2.491365
  H      3.861246    3.597252   -2.662979
  H      2.446493    3.973461   -3.656556

 Total Charge           Charge          ....    0
 Multiplicity           Mult            ....    1
 Number of Electrons    NEL             ....   70
 Basis Dimension        Dim             ....  429

ORBITAL ENERGIES
----------------

  NO   OCC          E(Eh)            E(eV)
   0   2.0000     -18.848842      -512.9031
   1   2.0000     -18.837011      -512.5811
   2   2.0000     -14.269272      -388.2866
   3   2.0000     -14.229951      -387.2167
   4   2.0000     -10.234813      -278.5034
   5   2.0000     -10.120235      -275.3856
   6   2.0000     -10.113686      -275.2074
   7   2.0000     -10.089152      -274.5398
   8   2.0000     -10.049317      -273.4558
   9   2.0000      -1.148482       -31.2518
  10   2.0000      -1.088344       -29.6154
  11   2.0000      -1.051793       -28.6207
  12   2.0000      -0.997756       -27.1503
  13   2.0000      -0.934765       -25.4362
  14   2.0000      -0.848455       -23.0876
  15   2.0000      -0.784735       -21.3537
  16   2.0000      -0.742154       -20.1950
  17   2.0000      -0.725458       -19.7407
  18   2.0000      -0.694307       -18.8930
  19   2.0000      -0.648116       -17.6361
  20   2.0000      -0.613234       -16.6870
  21   2.0000      -0.593514       -16.1503
  22   2.0000      -0.568769       -15.4770
  23   2.0000      -0.552443       -15.0327
  24   2.0000      -0.529611       -14.4115
  25   2.0000      -0.501662       -13.6509
  26   2.0000      -0.484520       -13.1844
  27   2.0000      -0.474115       -12.9013
  28   2.0000      -0.469349       -12.7716
  29   2.0000      -0.440636       -11.9903
  30   2.0000      -0.432539       -11.7700
  31   2.0000      -0.429029       -11.6745
  32   2.0000      -0.320511        -8.7216
  33   2.0000      -0.314245        -8.5510
  34   2.0000      -0.293011        -7.9732
  35   0.0000       0.005609         0.1526
  36   0.0000       0.021120         0.5747
  37   0.0000       0.041915         1.1406
  38   0.0000       0.060425         1.6443
  39   0.0000       0.064344         1.7509

MULLIKEN ATOMIC CHARGES
-----------------------
   0 C :   -1.021036
   1 C :   -0.726003
   2 C :   -0.780821
   3 H :    0.405010
   4 H :    0.377069
   5 C :    0.378182
   6 C :    0.563225
   7 N :   -0.331138
   8 N :   -0.232695
   9 H :    0.157307
  10 H :    0.365790
  11 H :    0.219005
  12 H :    0.191779
  13 H :    0.438796
  14 H :    0.353776
  15 O :   -0.552531
  16 O :   -0.734308
  17 H :    0.468208
  18 H :    0.460384
Sum of atomic charges:    0.0000000

LOEWDIN ATOMIC CHARGES
----------------------
   0 C :   -0.116919
   1 C :   -0.186434
   2 C :   -0.140823
   3 H :    0.118150
   4 H :    0.108500
   5 C :   -0.720884
   6 C :   -0.372697
   7 N :    0.191391
   8 N :    0.238245
   9 H :    0.143442
  10 H :    0.017517
  11 H :    0.129912
  12 H :    0.125902
  13 H :    0.127083
  14 H :    0.116346
  15 O :    0.026062
  16 O :   -0.068406
  17 H :    0.139124
  18 H :    0.124490

  Mayer bond orders larger than 0.100000
B(  0-C ,  1-C ) :   0.5598 B(  0-C ,  6-C ) :   0.5862 B(  0-C , 17-H ) :   0.9091
B(  0-C , 18-H ) :   0.8619 B(  1-C ,  2-C ) :   0.5954 B(  1-C , 13-H ) :   0.8687
B(  1-C , 14-H ) :   0.9375 B(  2-C ,  3-H ) :   0.9142 B(  2-C ,  4-H ) :   0.9494
B(  2-C ,  5-C ) :   0.8905 B(  5-C , 15-O ) :   1.6290 B(  5-C , 16-O ) :   1.3004
B(  6-C ,  7-N ) :   0.9819 B(  6-C ,  8-N ) :   1.2601 B(  7-N ,  8-N ) :   0.1034
B(  7-N , 11-H ) :   0.9745 B(  7-N , 12-H ) :   1.0258 B(  8-N ,  9-H ) :   1.0653
B(  8-N , 10-H ) :   0.6960 B(  8-N , 16-O ) :  -0.1266 B( 10-H , 16-O ) :   0.1449

FINAL SINGLE POINT ENERGY      -455.644835584231

DIPOLE MOMENT
-------------
                                X             Y             Z
Electronic contribution:      3.87451       0.02316       2.56026
Nuclear contribution   :     -5.42217       2.65262      -7.07590
                        -----------------------------------------
Total Dipole Moment    :     -1.54766       2.67578      -4.51564
                        -----------------------------------------
Magnitude (a.u.)       :      5.47230
Magnitude (Debye)      :     13.90949

Rotational constants in cm-1:     0.107541     0.035862     0.030371
Rotational constants in MHz :  3223.996852  1075.120464   910.508313

                             ****ORCA TERMINATED NORMALLY****
TOTAL RUN TIME: 0 days 0 hours 2 minutes 20 seconds 398 msec
