                         Program Version 5.0.0 -  RELEASE  -
|  1> !LC-BLYP RIJCOSX def2-TZVPD def2/J TightSCF
|  2>
|  3> *xyz 0 1
|  4> C          2.95263        1.86308       -3.57485
|  5> C          4.12921        0.89839       -3.41895
|  6> H          3.73369       -0.10060       -3.23763
|  7> H          4.71910        0.86256       -4.33901
|  8> C          5.01734        1.31521       -2.22130
|  9> F          4.73706        0.85411       -1.12283
| 10> O          5.92815        2.16811       -2.49136
| 11> H          2.35067        1.56005       -4.40594
| 12> H          3.32277        2.85258       -3.74453
| 13> H          2.36134        1.85149       -2.68315
| 14> *
| 15> %MaxCore 64000
| 16>
| 17> %pal nprocs 4
| 18> end
| 19>
| 20> %scf
| 21>   MaxIter 150
| 22> end
| 23>
| 24>
| 25>                          ****END OF INPUT****

CARTESIAN COORDINATES (ANGSTROEM)
---------------------------------
  C      2.952630    1.863080   -3.574850
  C      4.129210    0.898390   -3.418950
  H      3.733690   -0.100600   -3.237630
  H      4.719100    0.862560   -4.339010
  C      5.017340    1.315210   -2.221300
  F      4.737060    0.854110   -1.122830
  O      5.928150    2.168110   -2.491360
  H      2.350670    1.560050   -4.405940
  H      3.322770    2.852580   -3.744530
  H      2.361340    1.851490   -2.683150

 Total Charge           Charge          ....    0
 Multiplicity           Mult            ....    1
 Number of Electrons    NEL             ....   40
 Basis Dimension        Dim             ....  236

ORBITAL ENERGIES
----------------

  NO   OCC          E(Eh)            E(eV)
   0   2.0000     -24.539979      -667.7668
   1   2.0000     -18.943812      -515.4873
   2   2.0000     -10.254315      -279.0341
   3   2.0000     -10.100710      -274.8543
   4   2.0000     -10.075667      -274.1728
   5   2.0000      -1.425750       -38.7966
   6   2.0000      -1.115724       -30.3604
   7   2.0000      -0.912516       -24.8308
   8   2.0000      -0.799691       -21.7607
   9   2.0000      -0.756283       -20.5795
  10   2.0000      -0.672886       -18.3102
  11   2.0000      -0.655324       -17.8323
  12   2.0000      -0.612881       -16.6773
  13   2.0000      -0.571658       -15.5556
  14   2.0000      -0.539218       -14.6729
  15   2.0000      -0.503504       -13.7010
  16   2.0000      -0.479386       -13.0447
  17   2.0000      -0.471794       -12.8382
  18   2.0000      -0.447603       -12.1799
  19   2.0000      -0.387221       -10.5368
  20   0.0000       0.041453         1.1280
  21   0.0000       0.052210         1.4207
  22   0.0000       0.071766         1.9529
  23   0.0000       0.079508         2.1635
  24   0.0000       0.087482         2.3805

MULLIKEN ATOMIC CHARGES
-----------------------
   0 C :   -1.290474
   1 C :   -0.498311
   2 H :    0.363195
   3 H :    0.348685
   4 C :    0.506239
   5 F :   -0.143964
   6 O :   -0.457546
   7 H :    0.375179
   8 H :    0.399123
   9 H :    0.397875
Sum of atomic charges:    0.0000000

LOEWDIN ATOMIC CHARGES
----------------------
   0 C :   -0.103156
   1 C :   -0.171736
   2 H :    0.112449
   3 H :    0.123151
   4 C :   -0.529562
   5 F :    0.264749
   6 O :    0.070675
   7 H :    0.074652
   8 H :    0.080742
   9 H :    0.078036

  Mayer bond orders larger than 0.100000
B(  0-C ,  1-C ) :   0.4693 B(  0-C ,  7-H ) :   0.9151 B(  0-C ,  8-H ) :   0.9286
B(  0-C ,  9-H ) :   0.8926 B(  1-C ,  2-H ) :   0.9246 B(  1-C ,  3-H ) :   0.9456
B(  1-C ,  4-C ) :   0.8625 B(  4-C ,  5-F ) :   1.0821 B(  4-C ,  6-O ) :   1.7560

FINAL SINGLE POINT ENERGY      -291.893362580022

DIPOLE MOMENT
-------------
                                X             Y             Z
Electronic contribution:      5.03622      -1.19531       6.50789
Nuclear contribution   :     -6.06116       0.51860      -6.80802
                        -----------------------------------------
Total Dipole Moment    :     -1.02494      -0.67671      -0.30013
                        -----------------------------------------
Magnitude (a.u.)       :      1.26432
Magnitude (Debye)      :      3.21365

Rotational constants in cm-1:     0.276196     0.132056     0.105465
Rotational constants in MHz :  8280.156449  3958.940601  3161.775929

                             ****ORCA TERMINATED NORMALLY****
TOTAL RUN TIME: 0 days 0 hours 0 minutes 39 seconds 209 msec
