                         Program Version 5.0.0 -  RELEASE  -
|  1> !LC-BLYP RIJCOSX def2-TZVPD def2/J TightSCF
|  2>
|  3> *xyz 0 1
|  4> C          3.34350        3.35457       -3.59200
|  5> C          2.95263        1.86308       -3.57485
|  6> C          4.25587        3.70385       -4.72605
|  7> C          3.73403        4.29378       -5.80077
|  8> N          5.51504        3.40725       -4.63718
|  9> H          6.14919        3.60120       -5.39905
| 10> H          5.81358        2.89950       -3.80879
| 11> H          2.74138        4.51311       -5.82470
| 12> H          4.28755        4.52126       -6.61434
| 13> H          3.86125        3.59725       -2.66298
| 14> H          2.44649        3.97346       -3.65656
| 15> H          2.44395        1.61721       -4.48352
| 16> H          2.30781        1.67290       -2.74242
| 17> H          3.83491        1.26414       -3.48670
| 18> *
| 19> %MaxCore 64000
| 20>
| 21> %pal nprocs 4
| 22> end
| 23>
| 24> %scf
| 25>   MaxIter 150
| 26> end
| 27>
| 28>
| 29>                          ****END OF INPUT****

CARTESIAN COORDINATES (ANGSTROEM)
---------------------------------
  C      3.343500    3.354570   -3.592000
  C      2.952630    1.863080   -3.574850
  C      4.255870    3.703850   -4.726050
  C      3.734030    4.293780   -5.800770
  N      5.515040    3.407250   -4.637180
  H      6.149190    3.601200   -5.399050
  H      5.813580    2.899500   -3.808790
  H      2.741380    4.513110   -5.824700
  H      4.287550    4.521260   -6.614340
  H      3.861250    3.597250   -2.662980
  H      2.446490    3.973460   -3.656560
  H      2.443950    1.617210   -4.483520
  H      2.307810    1.672900   -2.742420
  H      3.834910    1.264140   -3.486700

 Total Charge           Charge          ....    0
 Multiplicity           Mult            ....    1
 Number of Electrons    NEL             ....   40
 Basis Dimension        Dim             ....  266

ORBITAL ENERGIES
----------------

  NO   OCC          E(Eh)            E(eV)
   0   2.0000     -14.173357      -385.6767
   1   2.0000     -10.090497      -274.5764
   2   2.0000     -10.067922      -273.9621
   3   2.0000     -10.053583      -273.5719
   4   2.0000      -9.999434      -272.0984
   5   2.0000      -1.039797       -28.2943
   6   2.0000      -0.887517       -24.1506
   7   2.0000      -0.821665       -22.3586
   8   2.0000      -0.744848       -20.2683
   9   2.0000      -0.675715       -18.3871
  10   2.0000      -0.637009       -17.3339
  11   2.0000      -0.585824       -15.9411
  12   2.0000      -0.542191       -14.7538
  13   2.0000      -0.526428       -14.3248
  14   2.0000      -0.495838       -13.4924
  15   2.0000      -0.484397       -13.1811
  16   2.0000      -0.452616       -12.3163
  17   2.0000      -0.434752       -11.8302
  18   2.0000      -0.430522       -11.7151
  19   2.0000      -0.283180        -7.7057
  20   0.0000       0.050366         1.3705
  21   0.0000       0.075720         2.0605
  22   0.0000       0.081435         2.2160
  23   0.0000       0.083518         2.2726
  24   0.0000       0.111442         3.0325

MULLIKEN ATOMIC CHARGES
-----------------------
   0 C :   -0.978261
   1 C :   -1.136522
   2 C :    0.735522
   3 C :   -1.194468
   4 N :   -0.322965
   5 H :    0.178394
   6 H :    0.192468
   7 H :    0.284846
   8 H :    0.333606
   9 H :    0.406828
  10 H :    0.382729
  11 H :    0.362391
  12 H :    0.392139
  13 H :    0.363292
Sum of atomic charges:    0.0000000

LOEWDIN ATOMIC CHARGES
----------------------
   0 C :   -0.215308
   1 C :   -0.101231
   2 C :   -0.521795
   3 C :    0.015957
   4 N :    0.114373
   5 H :    0.117719
   6 H :    0.113465
   7 H :    0.022410
   8 H :    0.018394
   9 H :    0.114085
  10 H :    0.114846
  11 H :    0.075256
  12 H :    0.066952
  13 H :    0.064877

  Mayer bond orders larger than 0.100000
B(  0-C ,  1-C ) :   0.5035 B(  0-C ,  2-C ) :   0.5416 B(  0-C ,  3-C ) :   0.1596
B(  0-C ,  4-N ) :   0.1268 B(  0-C ,  9-H ) :   0.9647 B(  0-C , 10-H ) :   0.9163
B(  1-C ,  2-C ) :  -0.1075 B(  1-C , 11-H ) :   0.9755 B(  1-C , 12-H ) :   0.9170
B(  1-C , 13-H ) :   0.9069 B(  2-C ,  3-C ) :   1.0658 B(  2-C ,  4-N ) :   0.8894
B(  2-C ,  8-H ) :  -0.1444 B(  3-C ,  4-N ) :   0.1246 B(  3-C ,  7-H ) :   1.0125
B(  3-C ,  8-H ) :   1.0376 B(  4-N ,  5-H ) :   1.0162 B(  4-N ,  6-H ) :   1.0058

FINAL SINGLE POINT ENERGY      -212.042462735166

DIPOLE MOMENT
-------------
                                X             Y             Z
Electronic contribution:      2.31842       1.47714      -0.84965
Nuclear contribution   :     -1.79713      -1.86925       1.28073
                        -----------------------------------------
Total Dipole Moment    :      0.52130      -0.39210       0.43108
                        -----------------------------------------
Magnitude (a.u.)       :      0.78187
Magnitude (Debye)      :      1.98737

Rotational constants in cm-1:     0.269040     0.129645     0.102087
Rotational constants in MHz :  8065.609820  3886.645139  3060.489045

                             ****ORCA TERMINATED NORMALLY****
TOTAL RUN TIME: 0 days 0 hours 0 minutes 46 seconds 591 msec
