                         Program Version 5.0.0 -  RELEASE  -
|  1> !LC-BLYP RIJCOSX def2-TZVPD def2/J TightSCF
|  2>
|  3> *xyz 0 1
|  4> C          2.95263        1.86308       -3.57485
|  5> C          4.12921        0.89839       -3.41895
|  6> H          3.73369       -0.10060       -3.23763
|  7> H          4.71910        0.86256       -4.33901
|  8> C          5.01734        1.31521       -2.22130
|  9> O          4.73706        0.85411       -1.12283
| 10> F          5.92815        2.16811       -2.49136
| 11> H          2.35067        1.56005       -4.40594
| 12> H          3.32277        2.85258       -3.74453
| 13> H          2.36134        1.85149       -2.68315
| 14> *
| 15> %MaxCore 64000
| 16>
| 17> %pal nprocs 4
| 18> end
| 19>
| 20> %scf
| 21>   MaxIter 150
| 22> end
| 23>
| 24>
| 25>                          ****END OF INPUT****

CARTESIAN COORDINATES (ANGSTROEM)
---------------------------------
  C      2.952630    1.863080   -3.574850
  C      4.129210    0.898390   -3.418950
  H      3.733690   -0.100600   -3.237630
  H      4.719100    0.862560   -4.339010
  C      5.017340    1.315210   -2.221300
  O      4.737060    0.854110   -1.122830
  F      5.928150    2.168110   -2.491360
  H      2.350670    1.560050   -4.405940
  H      3.322770    2.852580   -3.744530
  H      2.361340    1.851490   -2.683150

 Total Charge           Charge          ....    0
 Multiplicity           Mult            ....    1
 Number of Electrons    NEL             ....   40
 Basis Dimension        Dim             ....  236

ORBITAL ENERGIES
----------------

  NO   OCC          E(Eh)            E(eV)
   0   2.0000     -24.519161      -667.2003
   1   2.0000     -18.953197      -515.7427
   2   2.0000     -10.249688      -278.9082
   3   2.0000     -10.100246      -274.8417
   4   2.0000     -10.075888      -274.1789
   5   2.0000      -1.386029       -37.7158
   6   2.0000      -1.148129       -31.2422
   7   2.0000      -0.912305       -24.8251
   8   2.0000      -0.790206       -21.5026
   9   2.0000      -0.742789       -20.2123
  10   2.0000      -0.653323       -17.7778
  11   2.0000      -0.636532       -17.3209
  12   2.0000      -0.611950       -16.6520
  13   2.0000      -0.570728       -15.5303
  14   2.0000      -0.542085       -14.7509
  15   2.0000      -0.507691       -13.8150
  16   2.0000      -0.487225       -13.2581
  17   2.0000      -0.472397       -12.8546
  18   2.0000      -0.462679       -12.5901
  19   2.0000      -0.397726       -10.8227
  20   0.0000       0.043165         1.1746
  21   0.0000       0.055938         1.5222
  22   0.0000       0.072104         1.9621
  23   0.0000       0.081128         2.2076
  24   0.0000       0.086799         2.3619

MULLIKEN ATOMIC CHARGES
-----------------------
   0 C :   -1.287216
   1 C :   -0.503040
   2 H :    0.342864
   3 H :    0.369708
   4 C :    0.485758
   5 O :   -0.396500
   6 F :   -0.181802
   7 H :    0.374197
   8 H :    0.393369
   9 H :    0.402663
Sum of atomic charges:   -0.0000000

LOEWDIN ATOMIC CHARGES
----------------------
   0 C :   -0.103110
   1 C :   -0.170046
   2 H :    0.119576
   3 H :    0.116631
   4 C :   -0.523062
   5 O :    0.125599
   6 F :    0.200908
   7 H :    0.074632
   8 H :    0.077644
   9 H :    0.081228

  Mayer bond orders larger than 0.100000
B(  0-C ,  1-C ) :   0.4701 B(  0-C ,  7-H ) :   0.9150 B(  0-C ,  8-H ) :   0.8954
B(  0-C ,  9-H ) :   0.9256 B(  1-C ,  2-H ) :   0.9515 B(  1-C ,  3-H ) :   0.9176
B(  1-C ,  4-C ) :   0.8562 B(  4-C ,  5-O ) :   1.8235 B(  4-C ,  6-F ) :   1.0180

FINAL SINGLE POINT ENERGY      -291.909736710131

DIPOLE MOMENT
-------------
                                X             Y             Z
Electronic contribution:      7.02767       1.00170       4.21412
Nuclear contribution   :     -7.35982      -0.91407      -5.31589
                        -----------------------------------------
Total Dipole Moment    :     -0.33214       0.08763      -1.10177
                        -----------------------------------------
Magnitude (a.u.)       :      1.15408
Magnitude (Debye)      :      2.93344

Rotational constants in cm-1:     0.275433     0.132201     0.105422
Rotational constants in MHz :  8257.268192  3963.279062  3160.465566

                             ****ORCA TERMINATED NORMALLY****
TOTAL RUN TIME: 0 days 0 hours 0 minutes 35 seconds 475 msec
