                         Program Version 5.0.0 -  RELEASE  -
|  1> !LC-BLYP RIJCOSX def2-TZVPD def2/J TightSCF
|  2>
|  3> *xyz 0 1
|  4> C          3.34350        3.35457       -3.59200
|  5> C          2.95263        1.86308       -3.57485
|  6> C          4.25587        3.70385       -4.72605
|  7> N          3.73403        4.29378       -5.80077
|  8> C          5.51504        3.40725       -4.63718
|  9> H          6.14919        3.60120       -5.39905
| 10> H          5.81358        2.89950       -3.80879
| 11> H          2.74138        4.51311       -5.82470
| 12> H          4.28755        4.52126       -6.61434
| 13> H          3.86125        3.59725       -2.66298
| 14> H          2.44649        3.97346       -3.65656
| 15> H          2.44395        1.61721       -4.48352
| 16> H          2.30781        1.67290       -2.74242
| 17> H          3.83491        1.26414       -3.48670
| 18> *
| 19> %MaxCore 64000
| 20>
| 21> %pal nprocs 4
| 22> end
| 23>
| 24> %scf
| 25>   MaxIter 150
| 26> end
| 27>
| 28>
| 29>                          ****END OF INPUT****

CARTESIAN COORDINATES (ANGSTROEM)
---------------------------------
  C      3.343500    3.354570   -3.592000
  C      2.952630    1.863080   -3.574850
  C      4.255870    3.703850   -4.726050
  N      3.734030    4.293780   -5.800770
  C      5.515040    3.407250   -4.637180
  H      6.149190    3.601200   -5.399050
  H      5.813580    2.899500   -3.808790
  H      2.741380    4.513110   -5.824700
  H      4.287550    4.521260   -6.614340
  H      3.861250    3.597250   -2.662980
  H      2.446490    3.973460   -3.656560
  H      2.443950    1.617210   -4.483520
  H      2.307810    1.672900   -2.742420
  H      3.834910    1.264140   -3.486700

 Total Charge           Charge          ....    0
 Multiplicity           Mult            ....    1
 Number of Electrons    NEL             ....   40
 Basis Dimension        Dim             ....  266

ORBITAL ENERGIES
----------------

  NO   OCC          E(Eh)            E(eV)
   0   2.0000     -14.169504      -385.5718
   1   2.0000     -10.087739      -274.5013
   2   2.0000     -10.067365      -273.9469
   3   2.0000     -10.051393      -273.5123
   4   2.0000      -9.998181      -272.0643
   5   2.0000      -1.025672       -27.9099
   6   2.0000      -0.889717       -24.2104
   7   2.0000      -0.825071       -22.4513
   8   2.0000      -0.746061       -20.3014
   9   2.0000      -0.669402       -18.2154
  10   2.0000      -0.625057       -17.0087
  11   2.0000      -0.589402       -16.0384
  12   2.0000      -0.544913       -14.8278
  13   2.0000      -0.518143       -14.0994
  14   2.0000      -0.495307       -13.4780
  15   2.0000      -0.485771       -13.2185
  16   2.0000      -0.447682       -12.1821
  17   2.0000      -0.435783       -11.8583
  18   2.0000      -0.430608       -11.7175
  19   2.0000      -0.288222        -7.8429
  20   0.0000       0.051569         1.4033
  21   0.0000       0.075535         2.0554
  22   0.0000       0.079806         2.1716
  23   0.0000       0.085255         2.3199
  24   0.0000       0.113169         3.0795

MULLIKEN ATOMIC CHARGES
-----------------------
   0 C :   -0.979870
   1 C :   -1.135230
   2 C :    0.725485
   3 N :   -0.366197
   4 C :   -1.133302
   5 H :    0.356040
   6 H :    0.316721
   7 H :    0.179320
   8 H :    0.154814
   9 H :    0.355418
  10 H :    0.419069
  11 H :    0.354247
  12 H :    0.382568
  13 H :    0.370916
Sum of atomic charges:   -0.0000000

LOEWDIN ATOMIC CHARGES
----------------------
   0 C :   -0.214140
   1 C :   -0.100324
   2 C :   -0.509999
   3 N :    0.106104
   4 C :    0.007625
   5 H :    0.029512
   6 H :    0.036068
   7 H :    0.102418
   8 H :    0.106545
   9 H :    0.117397
  10 H :    0.109707
  11 H :    0.072941
  12 H :    0.066343
  13 H :    0.069804

  Mayer bond orders larger than 0.100000
B(  0-C ,  1-C ) :   0.5088 B(  0-C ,  2-C ) :   0.4763 B(  0-C ,  4-C ) :   0.1563
B(  0-C ,  9-H ) :   0.9870 B(  0-C , 10-H ) :   0.9411 B(  1-C , 11-H ) :   0.9423
B(  1-C , 12-H ) :   0.9168 B(  1-C , 13-H ) :   0.9337 B(  2-C ,  3-N ) :   0.7935
B(  2-C ,  4-C ) :   1.1146 B(  2-C ,  5-H ) :  -0.1386 B(  2-C , 10-H ) :  -0.1084
B(  3-N ,  4-C ) :   0.1328 B(  3-N ,  7-H ) :   1.0290 B(  3-N ,  8-H ) :   1.0538
B(  4-C ,  5-H ) :   1.0081 B(  4-C ,  6-H ) :   0.9706

FINAL SINGLE POINT ENERGY      -212.043224640638

DIPOLE MOMENT
-------------
                                X             Y             Z
Electronic contribution:      0.78533       2.26097      -1.84732
Nuclear contribution   :     -1.38463      -2.07457       1.55023
                        -----------------------------------------
Total Dipole Moment    :     -0.59930       0.18639      -0.29709
                        -----------------------------------------
Magnitude (a.u.)       :      0.69438
Magnitude (Debye)      :      1.76497

Rotational constants in cm-1:     0.272312     0.128195     0.101724
Rotational constants in MHz :  8163.717141  3843.180148  3049.598073

                             ****ORCA TERMINATED NORMALLY****
TOTAL RUN TIME: 0 days 0 hours 0 minutes 49 seconds 508 msec
