                         Program Version 5.0.0 -  RELEASE  -
|  1> !LC-BLYP RIJCOSX def2-TZVPD def2/J TightSCF xyzfile
|  2>
|  3> *xyzfile 0 1 D1.xyz
|  4>
|  5> %MaxCore 64000
|  6>
|  7> %pal nprocs 4
|  8> end
|  9>
| 10> %scf
| 11>   MaxIter 150
| 12> end
| 13>
| 14>
| 15>                          ****END OF INPUT****

CARTESIAN COORDINATES (ANGSTROEM)
---------------------------------
  C      3.343500    3.354571   -3.591998
  C      2.952633    1.863077   -3.574849
  C      4.129209    0.898394   -3.418950
  H      3.733687   -0.100605   -3.237633
  H      4.719095    0.862556   -4.339005
  C      5.017344    1.315212   -2.221305
  C      4.255868    3.703851   -4.726054
  C      3.734032    4.293783   -5.800770
  N      5.515039    3.407255   -4.637185
  H      6.149187    3.601203   -5.399053
  H      5.813584    2.899504   -3.808785
  H      2.741380    4.513109   -5.824701
  H      4.287548    4.521260   -6.614341
  H      2.278938    1.735250   -2.725496
  H      2.377466    1.625787   -4.475869
  F      4.737055    0.854112   -1.122825
  O      5.928146    2.168108   -2.491365
  H      3.861246    3.597252   -2.662979
  H      2.446493    3.973461   -3.656556

 Total Charge           Charge          ....    0
 Multiplicity           Mult            ....    1
 Number of Electrons    NEL             ....   70
 Basis Dimension        Dim             ....  429

ORBITAL ENERGIES
----------------

  NO   OCC          E(Eh)            E(eV)
   0   2.0000     -24.562386      -668.3765
   1   2.0000     -18.972114      -516.2575
   2   2.0000     -14.135493      -384.6463
   3   2.0000     -10.282774      -279.8085
   4   2.0000     -10.110279      -275.1147
   5   2.0000     -10.092295      -274.6253
   6   2.0000     -10.081242      -274.3246
   7   2.0000     -10.070944      -274.0443
   8   2.0000      -9.989423      -271.8260
   9   2.0000      -1.447492       -39.3883
  10   2.0000      -1.154656       -31.4198
  11   2.0000      -1.018997       -27.7283
  12   2.0000      -0.934528       -25.4298
  13   2.0000      -0.860754       -23.4223
  14   2.0000      -0.817379       -22.2420
  15   2.0000      -0.786799       -21.4099
  16   2.0000      -0.741541       -20.1783
  17   2.0000      -0.695291       -18.9198
  18   2.0000      -0.683468       -18.5981
  19   2.0000      -0.655879       -17.8474
  20   2.0000      -0.651416       -17.7259
  21   2.0000      -0.613314       -16.6891
  22   2.0000      -0.592379       -16.1194
  23   2.0000      -0.565137       -15.3782
  24   2.0000      -0.547600       -14.9010
  25   2.0000      -0.534881       -14.5549
  26   2.0000      -0.498311       -13.5597
  27   2.0000      -0.486649       -13.2424
  28   2.0000      -0.477952       -13.0057
  29   2.0000      -0.473886       -12.8951
  30   2.0000      -0.457374       -12.4458
  31   2.0000      -0.429410       -11.6849
  32   2.0000      -0.423980       -11.5371
  33   2.0000      -0.405261       -11.0277
  34   2.0000      -0.268587        -7.3086
  35   0.0000       0.023240         0.6324
  36   0.0000       0.040310         1.0969
  37   0.0000       0.063787         1.7357
  38   0.0000       0.067405         1.8342
  39   0.0000       0.070316         1.9134

MULLIKEN ATOMIC CHARGES
-----------------------
   0 C :   -1.117966
   1 C :   -0.654604
   2 C :   -0.794569
   3 H :    0.426340
   4 H :    0.411488
   5 C :    0.512956
   6 C :    0.607595
   7 C :   -1.156501
   8 N :   -0.307169
   9 H :    0.105606
  10 H :    0.352524
  11 H :    0.294508
  12 H :    0.341336
  13 H :    0.389062
  14 H :    0.394093
  15 F :   -0.154308
  16 O :   -0.541640
  17 H :    0.446395
  18 H :    0.444856
Sum of atomic charges:    0.0000000

LOEWDIN ATOMIC CHARGES
----------------------
   0 C :   -0.153875
   1 C :   -0.184179
   2 C :   -0.102985
   3 H :    0.121193
   4 H :    0.130306
   5 C :   -0.466943
   6 C :   -0.498043
   7 C :    0.011583
   8 N :    0.124329
   9 H :    0.122506
  10 H :    0.011961
  11 H :    0.017208
  12 H :    0.016794
  13 H :    0.117972
  14 H :    0.128781
  15 F :    0.289974
  16 O :    0.069602
  17 H :    0.119803
  18 H :    0.124012

  Mayer bond orders larger than 0.100000
B(  0-C ,  1-C ) :   0.5337 B(  0-C ,  2-C ) :  -0.1249 B(  0-C ,  6-C ) :   0.6221
B(  0-C ,  7-C ) :   0.2083 B(  0-C , 17-H ) :   0.8987 B(  0-C , 18-H ) :   0.9200
B(  1-C ,  2-C ) :   0.5882 B(  1-C , 13-H ) :   0.9095 B(  1-C , 14-H ) :   0.8973
B(  2-C ,  3-H ) :   0.9037 B(  2-C ,  4-H ) :   0.9434 B(  2-C ,  5-C ) :   0.8684
B(  2-C ,  8-N ) :   0.1664 B(  5-C , 15-F ) :   1.0791 B(  5-C , 16-O ) :   1.6726
B(  6-C ,  7-C ) :   1.1355 B(  6-C ,  8-N ) :   0.8422 B(  6-C , 12-H ) :  -0.1145
B(  7-C ,  8-N ) :   0.1340 B(  7-C , 11-H ) :   1.0491 B(  7-C , 12-H ) :   1.0018
B(  8-N ,  9-H ) :   1.0884 B(  8-N , 10-H ) :   0.8245

FINAL SINGLE POINT ENERGY      -463.551721152376

DIPOLE MOMENT
-------------
                                X             Y             Z
Electronic contribution:      5.51613      -5.96989      10.55543
Nuclear contribution   :     -5.86483       4.68058     -10.07545
                        -----------------------------------------
Total Dipole Moment    :     -0.34871      -1.28931       0.47998
                        -----------------------------------------
Magnitude (a.u.)       :      1.41925
Magnitude (Debye)      :      3.60746

Rotational constants in cm-1:     0.107256     0.035474     0.030113
Rotational constants in MHz :  3215.453922  1063.481574   902.777619

                             ****ORCA TERMINATED NORMALLY****
TOTAL RUN TIME: 0 days 0 hours 2 minutes 21 seconds 694 msec
