                         Program Version 5.0.0 -  RELEASE  -
|  1> !LC-BLYP RIJCOSX def2-TZVPD def2/J TightSCF xyzfile
|  2>
|  3> *xyzfile 0 1 D2.xyz
|  4>
|  5> %MaxCore 64000
|  6>
|  7> %pal nprocs 4
|  8> end
|  9>
| 10> %scf
| 11>   MaxIter 150
| 12> end
| 13>
| 14>
| 15>                          ****END OF INPUT****

CARTESIAN COORDINATES (ANGSTROEM)
---------------------------------
  C      3.343500    3.354571   -3.591998
  C      2.952633    1.863077   -3.574849
  C      4.129209    0.898394   -3.418950
  H      3.733687   -0.100605   -3.237633
  H      4.719095    0.862556   -4.339005
  C      5.017344    1.315212   -2.221305
  C      4.255868    3.703851   -4.726054
  N      3.734032    4.293783   -5.800770
  C      5.515039    3.407255   -4.637185
  H      6.149187    3.601203   -5.399053
  H      5.813584    2.899504   -3.808785
  H      2.741380    4.513109   -5.824701
  H      4.287548    4.521260   -6.614341
  H      2.278938    1.735250   -2.725496
  H      2.377466    1.625787   -4.475869
  F      4.737055    0.854112   -1.122825
  O      5.928146    2.168108   -2.491365
  H      3.861246    3.597252   -2.662979
  H      2.446493    3.973461   -3.656556

 Total Charge           Charge          ....    0
 Multiplicity           Mult            ....    1
 Number of Electrons    NEL             ....   70
 Basis Dimension        Dim             ....  429

ORBITAL ENERGIES
----------------

  NO   OCC          E(Eh)            E(eV)
   0   2.0000     -24.544058      -667.8778
   1   2.0000     -18.946042      -515.5480
   2   2.0000     -14.159767      -385.3069
   3   2.0000     -10.260867      -279.2124
   4   2.0000     -10.097676      -274.7717
   5   2.0000     -10.088430      -274.5201
   6   2.0000     -10.074738      -274.1476
   7   2.0000     -10.070072      -274.0206
   8   2.0000      -9.967395      -271.2266
   9   2.0000      -1.429720       -38.9047
  10   2.0000      -1.129673       -30.7400
  11   2.0000      -1.016874       -27.6705
  12   2.0000      -0.928303       -25.2604
  13   2.0000      -0.857715       -23.3396
  14   2.0000      -0.809220       -22.0200
  15   2.0000      -0.784596       -21.3500
  16   2.0000      -0.730191       -19.8695
  17   2.0000      -0.682988       -18.5851
  18   2.0000      -0.669952       -18.2303
  19   2.0000      -0.650321       -17.6961
  20   2.0000      -0.635390       -17.2898
  21   2.0000      -0.603103       -16.4113
  22   2.0000      -0.585071       -15.9206
  23   2.0000      -0.571467       -15.5504
  24   2.0000      -0.551992       -15.0205
  25   2.0000      -0.519310       -14.1311
  26   2.0000      -0.494912       -13.4672
  27   2.0000      -0.492169       -13.3926
  28   2.0000      -0.465159       -12.6576
  29   2.0000      -0.455541       -12.3959
  30   2.0000      -0.449241       -12.2245
  31   2.0000      -0.427050       -11.6206
  32   2.0000      -0.418572       -11.3899
  33   2.0000      -0.366011        -9.9597
  34   2.0000      -0.274721        -7.4755
  35   0.0000       0.038243         1.0407
  36   0.0000       0.048023         1.3068
  37   0.0000       0.060786         1.6541
  38   0.0000       0.069062         1.8793
  39   0.0000       0.072641         1.9767

MULLIKEN ATOMIC CHARGES
-----------------------
   0 C :   -1.159995
   1 C :   -0.656437
   2 C :   -0.791624
   3 H :    0.432874
   4 H :    0.456683
   5 C :    0.445499
   6 C :    0.755262
   7 N :   -0.367584
   8 C :   -1.136988
   9 H :    0.297906
  10 H :    0.398576
  11 H :    0.173497
  12 H :    0.163531
  13 H :    0.389428
  14 H :    0.381699
  15 F :   -0.169657
  16 O :   -0.491554
  17 H :    0.395251
  18 H :    0.483631
Sum of atomic charges:    0.0000000

LOEWDIN ATOMIC CHARGES
----------------------
   0 C :   -0.151301
   1 C :   -0.186148
   2 C :   -0.103857
   3 H :    0.119398
   4 H :    0.128476
   5 C :   -0.476076
   6 C :   -0.480654
   7 N :    0.100056
   8 C :    0.023294
   9 H :    0.042437
  10 H :   -0.040919
  11 H :    0.097661
  12 H :    0.104601
  13 H :    0.117225
  14 H :    0.125623
  15 F :    0.279478
  16 O :    0.060144
  17 H :    0.121871
  18 H :    0.118690

  Mayer bond orders larger than 0.100000
B(  0-C ,  1-C ) :   0.5847 B(  0-C ,  2-C ) :  -0.1454 B(  0-C ,  6-C ) :   0.3991
B(  0-C ,  7-N ) :   0.1488 B(  0-C , 17-H ) :   0.9674 B(  0-C , 18-H ) :   0.8894
B(  1-C ,  2-C ) :   0.5865 B(  1-C ,  8-C ) :  -0.1092 B(  1-C , 13-H ) :   0.8974
B(  1-C , 14-H ) :   0.9089 B(  2-C ,  3-H ) :   0.8922 B(  2-C ,  4-H ) :   0.9410
B(  2-C ,  5-C ) :   0.8632 B(  2-C ,  8-C ) :   0.1364 B(  4-H ,  8-C ) :  -0.1010
B(  5-C , 15-F ) :   1.0653 B(  5-C , 16-O ) :   1.7372 B(  6-C ,  7-N ) :   0.7351
B(  6-C ,  8-C ) :   0.8544 B(  6-C ,  9-H ) :  -0.1841 B(  6-C , 18-H ) :  -0.1096
B(  7-N ,  8-C ) :   0.1164 B(  7-N , 11-H ) :   1.0427 B(  7-N , 12-H ) :   1.0443
B(  8-C ,  9-H ) :   1.2058 B(  8-C , 10-H ) :   1.0783 B(  8-C , 16-O ) :   0.1009
B( 10-H , 16-O ) :  -0.3656

FINAL SINGLE POINT ENERGY      -463.527336570652

DIPOLE MOMENT
-------------
                                X             Y             Z
Electronic contribution:      4.29700      -5.16797       9.57260
Nuclear contribution   :     -5.64491       4.57111      -9.93176
                        -----------------------------------------
Total Dipole Moment    :     -1.34791      -0.59686      -0.35916
                        -----------------------------------------
Magnitude (a.u.)       :      1.51726
Magnitude (Debye)      :      3.85658

Rotational constants in cm-1:     0.109825     0.034347     0.029470
Rotational constants in MHz :  3292.465653  1029.684117   883.494260

                             ****ORCA TERMINATED NORMALLY****
TOTAL RUN TIME: 0 days 0 hours 2 minutes 32 seconds 392 msec
