                         Program Version 5.0.0 -  RELEASE  -
|  1> !LC-BLYP RIJCOSX def2-TZVPD def2/J TightSCF xyzfile
|  2>
|  3> *xyzfile 0 1 D3.xyz
|  4>
|  5> %MaxCore 64000
|  6>
|  7> %pal nprocs 4
|  8> end
|  9>
| 10> %scf
| 11>   MaxIter 150
| 12> end
| 13>
| 14>
| 15>                          ****END OF INPUT****

CARTESIAN COORDINATES (ANGSTROEM)
---------------------------------
  C      3.343500    3.354571   -3.591998
  C      2.952633    1.863077   -3.574849
  C      4.129209    0.898394   -3.418950
  H      3.733687   -0.100605   -3.237633
  H      4.719095    0.862556   -4.339005
  C      5.017344    1.315212   -2.221305
  C      4.255868    3.703851   -4.726054
  C      3.734032    4.293783   -5.800770
  N      5.515039    3.407255   -4.637185
  H      6.149187    3.601203   -5.399053
  H      5.813584    2.899504   -3.808785
  H      2.741380    4.513109   -5.824701
  H      4.287548    4.521260   -6.614341
  H      2.278938    1.735250   -2.725496
  H      2.377466    1.625787   -4.475869
  O      4.737055    0.854112   -1.122825
  F      5.928146    2.168108   -2.491365
  H      3.861246    3.597252   -2.662979
  H      2.446493    3.973461   -3.656556

 Total Charge           Charge          ....    0
 Multiplicity           Mult            ....    1
 Number of Electrons    NEL             ....   70
 Basis Dimension        Dim             ....  429

ORBITAL ENERGIES
----------------

  NO   OCC          E(Eh)            E(eV)
   0   2.0000     -24.550072      -668.0414
   1   2.0000     -18.970450      -516.2122
   2   2.0000     -14.163006      -385.3950
   3   2.0000     -10.267266      -279.3865
   4   2.0000     -10.106245      -275.0049
   5   2.0000     -10.094895      -274.6961
   6   2.0000     -10.091106      -274.5930
   7   2.0000     -10.079870      -274.2872
   8   2.0000     -10.003308      -272.2038
   9   2.0000      -1.422817       -38.7168
  10   2.0000      -1.165208       -31.7069
  11   2.0000      -1.041335       -28.3362
  12   2.0000      -0.934728       -25.4353
  13   2.0000      -0.867253       -23.5991
  14   2.0000      -0.825737       -22.4694
  15   2.0000      -0.787244       -21.4220
  16   2.0000      -0.750103       -20.4113
  17   2.0000      -0.694928       -18.9100
  18   2.0000      -0.680388       -18.5143
  19   2.0000      -0.659215       -17.9382
  20   2.0000      -0.634484       -17.2652
  21   2.0000      -0.611622       -16.6431
  22   2.0000      -0.591620       -16.0988
  23   2.0000      -0.577415       -15.7123
  24   2.0000      -0.552596       -15.0369
  25   2.0000      -0.529579       -14.4106
  26   2.0000      -0.505449       -13.7540
  27   2.0000      -0.499898       -13.6029
  28   2.0000      -0.490160       -13.3379
  29   2.0000      -0.480087       -13.0638
  30   2.0000      -0.460259       -12.5243
  31   2.0000      -0.439219       -11.9518
  32   2.0000      -0.433663       -11.8006
  33   2.0000      -0.410849       -11.1798
  34   2.0000      -0.285118        -7.7585
  35   0.0000       0.036676         0.9980
  36   0.0000       0.044452         1.2096
  37   0.0000       0.063136         1.7180
  38   0.0000       0.067140         1.8270
  39   0.0000       0.068797         1.8721

MULLIKEN ATOMIC CHARGES
-----------------------
   0 C :   -1.160850
   1 C :   -0.638030
   2 C :   -0.769196
   3 H :    0.397665
   4 H :    0.433004
   5 C :    0.456777
   6 C :    0.662775
   7 C :   -1.161527
   8 N :   -0.340517
   9 H :    0.107862
  10 H :    0.391869
  11 H :    0.297728
  12 H :    0.339612
  13 H :    0.404245
  14 H :    0.403757
  15 O :   -0.403043
  16 F :   -0.292725
  17 H :    0.425527
  18 H :    0.445068
Sum of atomic charges:    0.0000000

LOEWDIN ATOMIC CHARGES
----------------------
   0 C :   -0.151865
   1 C :   -0.183621
   2 C :   -0.110543
   3 H :    0.127239
   4 H :    0.122571
   5 C :   -0.495801
   6 C :   -0.496249
   7 C :    0.021001
   8 N :    0.127553
   9 H :    0.125834
  10 H :    0.045947
  11 H :    0.022158
  12 H :    0.019824
  13 H :    0.122129
  14 H :    0.127974
  15 O :    0.149382
  16 F :    0.178916
  17 H :    0.121839
  18 H :    0.125712

  Mayer bond orders larger than 0.100000
B(  0-C ,  1-C ) :   0.5336 B(  0-C ,  6-C ) :   0.5859 B(  0-C ,  7-C ) :   0.1986
B(  0-C , 17-H ) :   0.9321 B(  0-C , 18-H ) :   0.9086 B(  1-C ,  2-C ) :   0.5927
B(  1-C , 13-H ) :   0.9059 B(  1-C , 14-H ) :   0.8951 B(  2-C ,  3-H ) :   0.9160
B(  2-C ,  4-H ) :   0.9192 B(  2-C ,  5-C ) :   0.8535 B(  2-C ,  8-N ) :   0.1700
B(  5-C , 15-O ) :   1.8139 B(  5-C , 16-F ) :   0.9348 B(  6-C ,  7-C ) :   1.0982
B(  6-C ,  8-N ) :   0.8183 B(  6-C , 12-H ) :  -0.1236 B(  7-C ,  8-N ) :   0.1317
B(  7-C , 11-H ) :   1.0402 B(  7-C , 12-H ) :   1.0108 B(  8-N ,  9-H ) :   1.0929
B(  8-N , 10-H ) :   0.8399

FINAL SINGLE POINT ENERGY      -463.558263061436

DIPOLE MOMENT
-------------
                                X             Y             Z
Electronic contribution:      7.43064      -3.59092       8.03686
Nuclear contribution   :     -7.21688       3.18902      -8.52197
                        -----------------------------------------
Total Dipole Moment    :      0.21376      -0.40189      -0.48512
                        -----------------------------------------
Magnitude (a.u.)       :      0.66524
Magnitude (Debye)      :      1.69092

Rotational constants in cm-1:     0.103917     0.036987     0.030872
Rotational constants in MHz :  3115.342573  1108.839114   925.506342

                             ****ORCA TERMINATED NORMALLY****
TOTAL RUN TIME: 0 days 0 hours 2 minutes 20 seconds 471 msec
