                         Program Version 5.0.0 -  RELEASE  -
|  1> !LC-BLYP RIJCOSX def2-TZVPD def2/J TightSCF xyzfile
|  2>
|  3> *xyzfile 0 1 D4.xyz
|  4>
|  5> %MaxCore 64000
|  6>
|  7> %pal nprocs 4
|  8> end
|  9>
| 10> %scf
| 11>   MaxIter 150
| 12> end
| 13>
| 14>
| 15>                          ****END OF INPUT****

CARTESIAN COORDINATES (ANGSTROEM)
---------------------------------
  C      3.343500    3.354571   -3.591998
  C      2.952633    1.863077   -3.574849
  C      4.129209    0.898394   -3.418950
  H      3.733687   -0.100605   -3.237633
  H      4.719095    0.862556   -4.339005
  C      5.017344    1.315212   -2.221305
  C      4.255868    3.703851   -4.726054
  N      3.734032    4.293783   -5.800770
  C      5.515039    3.407255   -4.637185
  H      6.149187    3.601203   -5.399053
  H      5.813584    2.899504   -3.808785
  H      2.741380    4.513109   -5.824701
  H      4.287548    4.521260   -6.614341
  H      2.278938    1.735250   -2.725496
  H      2.377466    1.625787   -4.475869
  O      4.737055    0.854112   -1.122825
  F      5.928146    2.168108   -2.491365
  H      3.861246    3.597252   -2.662979
  H      2.446493    3.973461   -3.656556

 Total Charge           Charge          ....    0
 Multiplicity           Mult            ....    1
 Number of Electrons    NEL             ....   70
 Basis Dimension        Dim             ....  429

ORBITAL ENERGIES
----------------

  NO   OCC          E(Eh)            E(eV)
   0   2.0000     -24.521347      -667.2598
   1   2.0000     -18.955093      -515.7943
   2   2.0000     -14.173073      -385.6689
   3   2.0000     -10.251451      -278.9562
   4   2.0000     -10.094772      -274.6927
   5   2.0000     -10.091560      -274.6053
   6   2.0000     -10.088619      -274.5253
   7   2.0000     -10.079633      -274.2807
   8   2.0000      -9.990775      -271.8628
   9   2.0000      -1.396370       -37.9972
  10   2.0000      -1.150194       -31.2984
  11   2.0000      -1.030479       -28.0408
  12   2.0000      -0.931655       -25.3516
  13   2.0000      -0.863236       -23.4898
  14   2.0000      -0.820680       -22.3318
  15   2.0000      -0.781067       -21.2539
  16   2.0000      -0.729601       -19.8535
  17   2.0000      -0.692852       -18.8535
  18   2.0000      -0.654337       -17.8054
  19   2.0000      -0.641203       -17.4480
  20   2.0000      -0.631460       -17.1829
  21   2.0000      -0.611583       -16.6420
  22   2.0000      -0.588742       -16.0205
  23   2.0000      -0.569391       -15.4939
  24   2.0000      -0.552150       -15.0248
  25   2.0000      -0.524910       -14.2835
  26   2.0000      -0.501257       -13.6399
  27   2.0000      -0.488240       -13.2857
  28   2.0000      -0.479560       -13.0495
  29   2.0000      -0.468014       -12.7353
  30   2.0000      -0.452166       -12.3041
  31   2.0000      -0.435132       -11.8405
  32   2.0000      -0.427660       -11.6372
  33   2.0000      -0.397962       -10.8291
  34   2.0000      -0.291303        -7.9268
  35   0.0000       0.042659         1.1608
  36   0.0000       0.053283         1.4499
  37   0.0000       0.061880         1.6838
  38   0.0000       0.066590         1.8120
  39   0.0000       0.074411         2.0248

MULLIKEN ATOMIC CHARGES
-----------------------
   0 C :   -1.210153
   1 C :   -0.645456
   2 C :   -0.752893
   3 H :    0.403496
   4 H :    0.479391
   5 C :    0.404402
   6 C :    0.785009
   7 N :   -0.363184
   8 C :   -1.263613
   9 H :    0.299375
  10 H :    0.524249
  11 H :    0.178592
  12 H :    0.166144
  13 H :    0.409674
  14 H :    0.390768
  15 O :   -0.421324
  16 F :   -0.254066
  17 H :    0.385160
  18 H :    0.484427
Sum of atomic charges:   -0.0000000

LOEWDIN ATOMIC CHARGES
----------------------
   0 C :   -0.148451
   1 C :   -0.184851
   2 C :   -0.110430
   3 H :    0.125750
   4 H :    0.121622
   5 C :   -0.498281
   6 C :   -0.477804
   7 N :    0.108407
   8 C :    0.024802
   9 H :    0.043452
  10 H :   -0.011899
  11 H :    0.102001
  12 H :    0.107348
  13 H :    0.121587
  14 H :    0.125034
  15 O :    0.140001
  16 F :    0.166593
  17 H :    0.124496
  18 H :    0.120623

  Mayer bond orders larger than 0.100000
B(  0-C ,  1-C ) :   0.5841 B(  0-C ,  2-C ) :  -0.1129 B(  0-C ,  6-C ) :   0.3763
B(  0-C ,  7-N ) :   0.1483 B(  0-C , 17-H ) :   0.9816 B(  0-C , 18-H ) :   0.8785
B(  1-C ,  2-C ) :   0.5940 B(  1-C , 13-H ) :   0.8925 B(  1-C , 14-H ) :   0.9025
B(  2-C ,  3-H ) :   0.9078 B(  2-C ,  4-H ) :   0.9158 B(  2-C ,  5-C ) :   0.8413
B(  2-C ,  8-C ) :   0.1487 B(  4-H ,  8-C ) :  -0.1041 B(  5-C , 15-O ) :   1.7966
B(  5-C , 16-F ) :   0.9919 B(  6-C ,  7-N ) :   0.7422 B(  6-C ,  8-C ) :   0.8813
B(  6-C ,  9-H ) :  -0.1671 B(  6-C , 18-H ) :  -0.1026 B(  7-N ,  8-C ) :   0.1196
B(  7-N , 11-H ) :   1.0348 B(  7-N , 12-H ) :   1.0421 B(  8-C ,  9-H ) :   1.1725
B(  8-C , 10-H ) :   0.9171 B(  8-C , 16-F ) :   0.1054 B( 10-H , 16-F ) :  -0.3184

FINAL SINGLE POINT ENERGY      -463.546069053773

DIPOLE MOMENT
-------------
                                X             Y             Z
Electronic contribution:      6.18298      -2.83146       7.09813
Nuclear contribution   :     -6.99695       3.07955      -8.37829
                        -----------------------------------------
Total Dipole Moment    :     -0.81397       0.24809      -1.28016
                        -----------------------------------------
Magnitude (a.u.)       :      1.53717
Magnitude (Debye)      :      3.90719

Rotational constants in cm-1:     0.106302     0.035771     0.030198
Rotational constants in MHz :  3186.860872  1072.397550   905.318354

                             ****ORCA TERMINATED NORMALLY****
TOTAL RUN TIME: 0 days 0 hours 2 minutes 22 seconds 855 msec
