                         Program Version 5.0.0 -  RELEASE  -
|  1> !M062X D3Zero RIJCOSX def2-SVPD def2/J TightSCF
|  2> *xyz -1 1
|  3> C         -1.36646        2.47911       -4.31393
|  4> C         -2.35773        2.30686       -3.13675
|  5> O         -3.44376        2.84652       -3.25274
|  6> O         -1.97092        1.58304       -2.15123
|  7> H         -1.80853        3.10058       -5.06443
|  8> H         -1.13980        1.52081       -4.73248
|  9> H         -0.46612        2.93495       -3.95827
| 10> *
| 11> %MaxCore 64000
| 12>
| 13> %pal nprocs 4
| 14> end
| 15>
| 16> %scf
| 17>   MaxIter 150
| 18> end
| 19>
| 20>
| 21>                          ****END OF INPUT****

CARTESIAN COORDINATES (ANGSTROEM)
---------------------------------
  C     -1.366460    2.479110   -4.313930
  C     -2.357730    2.306860   -3.136750
  O     -3.443760    2.846520   -3.252740
  O     -1.970920    1.583040   -2.151230
  H     -1.808530    3.100580   -5.064430
  H     -1.139800    1.520810   -4.732480
  H     -0.466120    2.934950   -3.958270

 Total Charge           Charge          ....   -1
 Multiplicity           Mult            ....    1
 Number of Electrons    NEL             ....   32
 Basis Dimension        Dim             ....  110

ORBITAL ENERGIES
----------------

  NO   OCC          E(Eh)            E(eV)
   0   2.0000     -19.375051      -527.2219
   1   2.0000     -19.362431      -526.8785
   2   2.0000     -10.436982      -284.0047
   3   2.0000     -10.360588      -281.9259
   4   2.0000      -0.933655       -25.4060
   5   2.0000      -0.824658       -22.4401
   6   2.0000      -0.625182       -17.0121
   7   2.0000      -0.377815       -10.2809
   8   2.0000      -0.326768        -8.8918
   9   2.0000      -0.314187        -8.5495
  10   2.0000      -0.305671        -8.3177
  11   2.0000      -0.258302        -7.0288
  12   2.0000      -0.239776        -6.5246
  13   2.0000      -0.108541        -2.9536
  14   2.0000      -0.107909        -2.9364
  15   2.0000      -0.098898        -2.6911
  16   0.0000       0.191437         5.2093
  17   0.0000       0.222314         6.0495
  18   0.0000       0.252749         6.8777
  19   0.0000       0.258836         7.0433
  20   0.0000       0.284027         7.7288

MULLIKEN ATOMIC CHARGES
-----------------------
   0 C :    0.457168
   1 C :    0.128848
   2 O :   -0.631574
   3 O :   -0.765182
   4 H :   -0.077361
   5 H :   -0.055586
   6 H :   -0.056314
Sum of atomic charges:   -1.0000000

LOEWDIN ATOMIC CHARGES
----------------------
   0 C :    0.146192
   1 C :   -0.323134
   2 O :   -0.321352
   3 O :   -0.376969
   4 H :   -0.045791
   5 H :   -0.038907
   6 H :   -0.040038

  Mayer bond orders larger than 0.100000
B(  0-C ,  1-C ) :   1.1926 B(  0-C ,  4-H ) :   0.8825 B(  0-C ,  5-H ) :   0.8316
B(  0-C ,  6-H ) :   0.8263 B(  1-C ,  2-O ) :   1.4885 B(  1-C ,  3-O ) :   1.3737
B(  1-C ,  4-H ) :   0.2375 B(  1-C ,  5-H ) :   0.1569 B(  1-C ,  6-H ) :   0.1604

Dispersion correction           -0.000017638
FINAL SINGLE POINT ENERGY      -228.266444919852

DIPOLE MOMENT
-------------
                                X             Y             Z
Electronic contribution:     -2.43728      -0.32793       2.69632
Nuclear contribution   :      3.20990       0.60513      -3.84153
                        -----------------------------------------
Total Dipole Moment    :      0.77263       0.27720      -1.14521
                        -----------------------------------------
Magnitude (a.u.)       :      1.40900
Magnitude (Debye)      :      3.58140

Rotational constants in cm-1:     0.394521     0.330294     0.185888
Rotational constants in MHz : 11827.441786  9901.964904  5572.768963

                             ****ORCA TERMINATED NORMALLY****
TOTAL RUN TIME: 0 days 0 hours 0 minutes 8 seconds 142 msec
