                         Program Version 5.0.0 -  RELEASE  -
|  1> !M062X D3Zero RIJCOSX def2-SVPD def2/J TightSCF
|  2> *xyz 1 1
|  3> C          0.64866        1.00359       -3.64560
|  4> N          0.28128        0.67645       -2.24018
|  5> H          0.39079       -0.31925       -2.02649
|  6> H         -0.69269        0.99010       -2.13812
|  7> H          0.85421        1.21221       -1.57528
|  8> H          0.03905        0.43387       -4.31545
|  9> H          1.67860        0.76457       -3.80989
| 10> H          0.49232        2.04741       -3.82138
| 11> *
| 12> %MaxCore 64000
| 13>
| 14> %pal nprocs 4
| 15> end
| 16>
| 17> %scf
| 18>   MaxIter 150
| 19> end
| 20>
| 21>
| 22>                          ****END OF INPUT****

CARTESIAN COORDINATES (ANGSTROEM)
---------------------------------
  C      0.648660    1.003590   -3.645600
  N      0.281280    0.676450   -2.240180
  H      0.390790   -0.319250   -2.026490
  H     -0.692690    0.990100   -2.138120
  H      0.854210    1.212210   -1.575280
  H      0.039050    0.433870   -4.315450
  H      1.678600    0.764570   -3.809890
  H      0.492320    2.047410   -3.821380

 Total Charge           Charge          ....    1
 Multiplicity           Mult            ....    1
 Number of Electrons    NEL             ....   18
 Basis Dimension        Dim             ....   88

ORBITAL ENERGIES
----------------

  NO   OCC          E(Eh)            E(eV)
   0   2.0000     -15.110404      -411.1750
   1   2.0000     -10.810737      -294.1751
   2   2.0000      -1.323948       -36.0264
   3   2.0000      -1.022677       -27.8285
   4   2.0000      -0.892025       -24.2732
   5   2.0000      -0.882465       -24.0131
   6   2.0000      -0.780439       -21.2368
   7   2.0000      -0.694184       -18.8897
   8   2.0000      -0.691908       -18.8278
   9   0.0000      -0.178511        -4.8575
  10   0.0000      -0.111157        -3.0247
  11   0.0000      -0.106239        -2.8909
  12   0.0000      -0.104890        -2.8542
  13   0.0000      -0.063050        -1.7157

MULLIKEN ATOMIC CHARGES
-----------------------
   0 C :    0.815018
   1 N :   -0.893518
   2 H :    0.371356
   3 H :    0.413618
   4 H :    0.385806
   5 H :   -0.030073
   6 H :   -0.040491
   7 H :   -0.021717
Sum of atomic charges:    1.0000000

LOEWDIN ATOMIC CHARGES
----------------------
   0 C :    0.286124
   1 N :    0.306184
   2 H :    0.110385
   3 H :    0.109131
   4 H :    0.111354
   5 H :    0.026133
   6 H :    0.024136
   7 H :    0.026554

  Mayer bond orders larger than 0.100000
B(  0-C ,  1-N ) :   0.8099 B(  0-C ,  5-H ) :   0.9126 B(  0-C ,  6-H ) :   0.9336
B(  0-C ,  7-H ) :   0.9041 B(  1-N ,  2-H ) :   0.7732 B(  1-N ,  3-H ) :   0.7220
B(  1-N ,  4-H ) :   0.7597

Dispersion correction           -0.000006088
FINAL SINGLE POINT ENERGY       -96.086730750421

DIPOLE MOMENT
-------------
                                X             Y             Z
Electronic contribution:     -0.25752      -0.27245       1.04303
Nuclear contribution   :      0.04246       0.12404      -0.26487
                        -----------------------------------------
Total Dipole Moment    :     -0.21507      -0.14840       0.77816
                        -----------------------------------------
Magnitude (a.u.)       :      0.82086
Magnitude (Debye)      :      2.08647

Rotational constants in cm-1:     2.856727     0.687609     0.685111
Rotational constants in MHz : 85642.512409 20614.005719 20539.101620

                             ****ORCA TERMINATED NORMALLY****
TOTAL RUN TIME: 0 days 0 hours 0 minutes 5 seconds 175 msec
