                         Program Version 5.0.0 -  RELEASE  -
|  1> !M062X D3Zero RIJCOSX def2-SVPD def2/J TightSCF
|  2> *xyz 0 1
|  3> C         -1.36646        2.47911       -4.31393
|  4> C         -2.35773        2.30686       -3.13675
|  5> F         -3.44376        2.84652       -3.25274
|  6> O         -1.97092        1.58304       -2.15123
|  7> H         -1.80853        3.10058       -5.06443
|  8> H         -1.13980        1.52081       -4.73248
|  9> H         -0.46612        2.93495       -3.95827
| 10> *
| 11> %MaxCore 64000
| 12>
| 13> %pal nprocs 4
| 14> end
| 15>
| 16> %scf
| 17>   MaxIter 150
| 18> end
| 19>
| 20>
| 21>                          ****END OF INPUT****

CARTESIAN COORDINATES (ANGSTROEM)
---------------------------------
  C     -1.366460    2.479110   -4.313930
  C     -2.357730    2.306860   -3.136750
  F     -3.443760    2.846520   -3.252740
  O     -1.970920    1.583040   -2.151230
  H     -1.808530    3.100580   -5.064430
  H     -1.139800    1.520810   -4.732480
  H     -0.466120    2.934950   -3.958270

 Total Charge           Charge          ....    0
 Multiplicity           Mult            ....    1
 Number of Electrons    NEL             ....   32
 Basis Dimension        Dim             ....  110

ORBITAL ENERGIES
----------------

  NO   OCC          E(Eh)            E(eV)
   0   2.0000     -25.345942      -689.6981
   1   2.0000     -19.646932      -534.6202
   2   2.0000     -10.748190      -292.4731
   3   2.0000     -10.579827      -287.8917
   4   2.0000      -1.478783       -40.2397
   5   2.0000      -1.128618       -30.7112
   6   2.0000      -0.863178       -23.4883
   7   2.0000      -0.774352       -21.0712
   8   2.0000      -0.665683       -18.1141
   9   2.0000      -0.659786       -17.9537
  10   2.0000      -0.585886       -15.9428
  11   2.0000      -0.515285       -14.0216
  12   2.0000      -0.502741       -13.6803
  13   2.0000      -0.475683       -12.9440
  14   2.0000      -0.415504       -11.3064
  15   2.0000      -0.370272       -10.0756
  16   0.0000       0.010479         0.2851
  17   0.0000       0.025980         0.7069
  18   0.0000       0.064982         1.7682
  19   0.0000       0.099117         2.6971
  20   0.0000       0.102491         2.7889

MULLIKEN ATOMIC CHARGES
-----------------------
   0 C :    0.312280
   1 C :    0.472852
   2 F :   -0.328172
   3 O :   -0.559080
   4 H :    0.001543
   5 H :    0.051854
   6 H :    0.048722
Sum of atomic charges:    0.0000000

LOEWDIN ATOMIC CHARGES
----------------------
   0 C :    0.220422
   1 C :   -0.015245
   2 F :   -0.026633
   3 O :   -0.168554
   4 H :   -0.014864
   5 H :    0.002758
   6 H :    0.002116

  Mayer bond orders larger than 0.100000
B(  0-C ,  1-C ) :   1.2549 B(  0-C ,  4-H ) :   0.8965 B(  0-C ,  5-H ) :   0.8306
B(  0-C ,  6-H ) :   0.8258 B(  1-C ,  2-F ) :   0.8036 B(  1-C ,  3-O ) :   1.7387
B(  1-C ,  4-H ) :   0.1449 B(  1-C ,  5-H ) :   0.1262 B(  1-C ,  6-H ) :   0.1317

Dispersion correction           -0.000021265
FINAL SINGLE POINT ENERGY      -252.788052152651

DIPOLE MOMENT
-------------
                                X             Y             Z
Electronic contribution:     -4.29256       0.52136       2.67487
Nuclear contribution   :      4.40923       0.04336      -3.80230
                        -----------------------------------------
Total Dipole Moment    :      0.11667       0.56472      -1.12744
                        -----------------------------------------
Magnitude (a.u.)       :      1.26634
Magnitude (Debye)      :      3.21879

Rotational constants in cm-1:     0.364425     0.322930     0.176742
Rotational constants in MHz : 10925.196996  9681.206479  5298.597717

                             ****ORCA TERMINATED NORMALLY****
TOTAL RUN TIME: 0 days 0 hours 0 minutes 8 seconds 113 msec
