                         Program Version 5.0.0 -  RELEASE  -
|  1> !M062X D3Zero RIJCOSX def2-SVPD def2/J TightSCF
|  2> *xyz 0 1
|  3> C          0.64866        1.00359       -3.64560
|  4> C          0.28128        0.67645       -2.24018
|  5> H          0.39079       -0.31925       -2.02649
|  6> H         -0.69269        0.99010       -2.13812
|  7> H          0.85421        1.21221       -1.57528
|  8> H          0.03905        0.43387       -4.31545
|  9> H          1.67860        0.76457       -3.80989
| 10> H          0.49232        2.04741       -3.82138
| 11> *
| 12> %MaxCore 64000
| 13>
| 14> %pal nprocs 4
| 15> end
| 16>
| 17> %scf
| 18>   MaxIter 150
| 19> end
| 20>
| 21>
| 22>                          ****END OF INPUT****

CARTESIAN COORDINATES (ANGSTROEM)
---------------------------------
  C      0.648660    1.003590   -3.645600
  C      0.281280    0.676450   -2.240180
  H      0.390790   -0.319250   -2.026490
  H     -0.692690    0.990100   -2.138120
  H      0.854210    1.212210   -1.575280
  H      0.039050    0.433870   -4.315450
  H      1.678600    0.764570   -3.809890
  H      0.492320    2.047410   -3.821380

 Total Charge           Charge          ....    0
 Multiplicity           Mult            ....    1
 Number of Electrons    NEL             ....   18
 Basis Dimension        Dim             ....   88

ORBITAL ENERGIES
----------------

  NO   OCC          E(Eh)            E(eV)
   0   2.0000     -10.526688      -286.4457
   1   2.0000     -10.513894      -286.0976
   2   2.0000      -0.859623       -23.3915
   3   2.0000      -0.699510       -19.0346
   4   2.0000      -0.522786       -14.2257
   5   2.0000      -0.516616       -14.0578
   6   2.0000      -0.428658       -11.6644
   7   2.0000      -0.409837       -11.1522
   8   2.0000      -0.404487       -11.0066
   9   0.0000       0.045569         1.2400
  10   0.0000       0.076103         2.0709
  11   0.0000       0.128143         3.4869
  12   0.0000       0.129734         3.5302
  13   0.0000       0.147589         4.0161

MULLIKEN ATOMIC CHARGES
-----------------------
   0 C :    0.140963
   1 C :    0.482481
   2 H :   -0.184375
   3 H :   -0.123476
   4 H :   -0.154736
   5 H :   -0.055972
   6 H :   -0.060212
   7 H :   -0.044673
Sum of atomic charges:    0.0000000

LOEWDIN ATOMIC CHARGES
----------------------
   0 C :    0.071583
   1 C :    0.080251
   2 H :   -0.034241
   3 H :   -0.033766
   4 H :   -0.033676
   5 H :   -0.016160
   6 H :   -0.018816
   7 H :   -0.015174

  Mayer bond orders larger than 0.100000
B(  0-C ,  1-C ) :   1.4644 B(  0-C ,  2-H ) :   0.1552 B(  0-C ,  3-H ) :   0.1896
B(  0-C ,  4-H ) :   0.1581 B(  0-C ,  5-H ) :   0.8739 B(  0-C ,  6-H ) :   0.9009
B(  0-C ,  7-H ) :   0.8655 B(  1-C ,  2-H ) :   0.8224 B(  1-C ,  3-H ) :   0.7974
B(  1-C ,  4-H ) :   0.8054 B(  1-C ,  5-H ) :   0.1452 B(  1-C ,  6-H ) :   0.1320
B(  1-C ,  7-H ) :   0.1496

Dispersion correction           -0.000006021
FINAL SINGLE POINT ENERGY       -79.699741357666

DIPOLE MOMENT
-------------
                                X             Y             Z
Electronic contribution:      0.01307      -0.06311       0.04364
Nuclear contribution   :     -0.02064       0.06655      -0.02194
                        -----------------------------------------
Total Dipole Moment    :     -0.00757       0.00344       0.02171
                        -----------------------------------------
Magnitude (a.u.)       :      0.02324
Magnitude (Debye)      :      0.05908

Rotational constants in cm-1:     2.856742     0.718110     0.715385
Rotational constants in MHz : 85642.970161 21528.388214 21446.695095

                             ****ORCA TERMINATED NORMALLY****
TOTAL RUN TIME: 0 days 0 hours 0 minutes 5 seconds 72 msec
