                         Program Version 5.0.0 -  RELEASE  -
|  1> !M062X D3Zero RIJCOSX def2-SVPD def2/J TightSCF
|  2> *xyz 0 1
|  3> C         -1.36646        2.47911       -4.31393
|  4> C         -2.35773        2.30686       -3.13675
|  5> O         -3.44376        2.84652       -3.25274
|  6> F         -1.97092        1.58304       -2.15123
|  7> H         -1.80853        3.10058       -5.06443
|  8> H         -1.13980        1.52081       -4.73248
|  9> H         -0.46612        2.93495       -3.95827
| 10> *
| 11> %MaxCore 64000
| 12>
| 13> %pal nprocs 4
| 14> end
| 15>
| 16> %scf
| 17>   MaxIter 150
| 18> end
| 19>
| 20>
| 21>                          ****END OF INPUT****

CARTESIAN COORDINATES (ANGSTROEM)
---------------------------------
  C     -1.366460    2.479110   -4.313930
  C     -2.357730    2.306860   -3.136750
  O     -3.443760    2.846520   -3.252740
  F     -1.970920    1.583040   -2.151230
  H     -1.808530    3.100580   -5.064430
  H     -1.139800    1.520810   -4.732480
  H     -0.466120    2.934950   -3.958270

 Total Charge           Charge          ....    0
 Multiplicity           Mult            ....    1
 Number of Electrons    NEL             ....   32
 Basis Dimension        Dim             ....  110

ORBITAL ENERGIES
----------------

  NO   OCC          E(Eh)            E(eV)
   0   2.0000     -25.322433      -689.0584
   1   2.0000     -19.656694      -534.8858
   2   2.0000     -10.741992      -292.3045
   3   2.0000     -10.578935      -287.8675
   4   2.0000      -1.428810       -38.8799
   5   2.0000      -1.171413       -31.8758
   6   2.0000      -0.858232       -23.3537
   7   2.0000      -0.746571       -20.3152
   8   2.0000      -0.636290       -17.3143
   9   2.0000      -0.633105       -17.2277
  10   2.0000      -0.591783       -16.1032
  11   2.0000      -0.514904       -14.0112
  12   2.0000      -0.507217       -13.8021
  13   2.0000      -0.486536       -13.2393
  14   2.0000      -0.442281       -12.0351
  15   2.0000      -0.379000       -10.3131
  16   0.0000       0.020907         0.5689
  17   0.0000       0.027465         0.7473
  18   0.0000       0.066311         1.8044
  19   0.0000       0.096602         2.6287
  20   0.0000       0.102663         2.7936

MULLIKEN ATOMIC CHARGES
-----------------------
   0 C :    0.332526
   1 C :    0.465782
   2 O :   -0.453045
   3 F :   -0.422878
   4 H :   -0.019394
   5 H :    0.049915
   6 H :    0.047095
Sum of atomic charges:   -0.0000000

LOEWDIN ATOMIC CHARGES
----------------------
   0 C :    0.220821
   1 C :   -0.013348
   2 O :   -0.126188
   3 F :   -0.070687
   4 H :   -0.002466
   5 H :   -0.003421
   6 H :   -0.004711

  Mayer bond orders larger than 0.100000
B(  0-C ,  1-C ) :   1.2270 B(  0-C ,  4-H ) :   0.9123 B(  0-C ,  5-H ) :   0.8272
B(  0-C ,  6-H ) :   0.8240 B(  1-C ,  2-O ) :   1.8429 B(  1-C ,  3-F ) :   0.6808
B(  1-C ,  4-H ) :   0.1936 B(  1-C ,  5-H ) :   0.1155 B(  1-C ,  6-H ) :   0.1179

Dispersion correction           -0.000021559
FINAL SINGLE POINT ENERGY      -252.806791925616

DIPOLE MOMENT
-------------
                                X             Y             Z
Electronic contribution:     -1.89978      -1.52953       4.46193
Nuclear contribution   :      2.88734       1.34891      -4.94049
                        -----------------------------------------
Total Dipole Moment    :      0.98757      -0.18062      -0.47856
                        -----------------------------------------
Magnitude (a.u.)       :      1.11217
Magnitude (Debye)      :      2.82692

Rotational constants in cm-1:     0.375207     0.313199     0.176202
Rotational constants in MHz : 11248.433436  9389.476975  5282.390844

                             ****ORCA TERMINATED NORMALLY****
TOTAL RUN TIME: 0 days 0 hours 0 minutes 8 seconds 990 msec
