                         Program Version 5.0.0 -  RELEASE  -
|  1> !M062X D3Zero RIJCOSX def2-SVPD def2/J TightSCF xyzfile
|  2>
|  3> *xyzfile 0 1 D1.xyz
|  4>
|  5> %MaxCore 64000
|  6>
|  7> %pal nprocs 4
|  8> end
|  9>
| 10> %scf
| 11>   MaxIter 150
| 12> end
| 13>
| 14>
| 15>                          ****END OF INPUT****

CARTESIAN COORDINATES (ANGSTROEM)
---------------------------------
  C      0.648656    1.003595   -3.645601
  C      0.281280    0.676454   -2.240179
  C      0.132968    2.385869   -4.024618
  C     -1.366462    2.479106   -4.313932
  C     -2.357732    2.306858   -3.136753
  H     -1.636802    1.727095   -5.063993
  H     -1.582347    3.445605   -4.768687
  H      0.390790   -0.319253   -2.026495
  H     -0.692686    0.990104   -2.138123
  H      0.854206    1.212214   -1.575279
  F     -3.443763    2.846518   -3.252744
  O     -1.970922    1.583042   -2.151229
  H      0.190993    0.239655   -4.275752
  H      1.731572    0.931729   -3.750751
  H      0.414839    3.102847   -3.245165
  H      0.683167    2.687560   -4.919721

 Total Charge           Charge          ....    0
 Multiplicity           Mult            ....    1
 Number of Electrons    NEL             ....   56
 Basis Dimension        Dim             ....  218

ORBITAL ENERGIES
----------------

  NO   OCC          E(Eh)            E(eV)
   0   2.0000     -25.356190      -689.9770
   1   2.0000     -19.653514      -534.7993
   2   2.0000     -10.759362      -292.7771
   3   2.0000     -10.591231      -288.2021
   4   2.0000     -10.559956      -287.3510
   5   2.0000     -10.531043      -286.5642
   6   2.0000     -10.460090      -284.6335
   7   2.0000      -1.487692       -40.4822
   8   2.0000      -1.151712       -31.3397
   9   2.0000      -0.909758       -24.7558
  10   2.0000      -0.850354       -23.1393
  11   2.0000      -0.787014       -21.4157
  12   2.0000      -0.747555       -20.3420
  13   2.0000      -0.676353       -18.4045
  14   2.0000      -0.661694       -18.0056
  15   2.0000      -0.653533       -17.7835
  16   2.0000      -0.606559       -16.5053
  17   2.0000      -0.558686       -15.2026
  18   2.0000      -0.526324       -14.3220
  19   2.0000      -0.505698       -13.7607
  20   2.0000      -0.482785       -13.1373
  21   2.0000      -0.452321       -12.3083
  22   2.0000      -0.445012       -12.1094
  23   2.0000      -0.423108       -11.5134
  24   2.0000      -0.410307       -11.1650
  25   2.0000      -0.381465       -10.3802
  26   2.0000      -0.373164       -10.1543
  27   2.0000      -0.314326        -8.5532
  28   0.0000      -0.002072        -0.0564
  29   0.0000       0.026371         0.7176
  30   0.0000       0.051608         1.4043
  31   0.0000       0.064902         1.7661
  32   0.0000       0.067082         1.8254

MULLIKEN ATOMIC CHARGES
-----------------------
   0 C :   -0.262751
   1 C :    2.283786
   2 C :    0.098137
   3 C :   -0.047806
   4 C :    0.811778
   5 H :    0.202624
   6 H :    0.045106
   7 H :   -0.085745
   8 H :   -1.766513
   9 H :   -0.001734
  10 F :   -0.401051
  11 O :   -0.519205
  12 H :   -0.004709
  13 H :   -0.221693
  14 H :   -0.018214
  15 H :   -0.112010
Sum of atomic charges:    0.0000000

LOEWDIN ATOMIC CHARGES
----------------------
   0 C :   -0.057300
   1 C :    0.132482
   2 C :   -0.022680
   3 C :    0.065333
   4 C :    0.086987
   5 H :    0.046645
   6 H :    0.025563
   7 H :   -0.028492
   8 H :   -0.202500
   9 H :   -0.021672
  10 F :   -0.007703
  11 O :   -0.117225
  12 H :    0.024229
  13 H :    0.018054
  14 H :    0.036560
  15 H :    0.021718

  Mayer bond orders larger than 0.100000
B(  0-C ,  1-C ) :   0.8417 B(  0-C ,  2-C ) :   1.1514 B(  0-C ,  7-H ) :   0.2127
B(  0-C ,  8-H ) :   0.6894 B(  0-C ,  9-H ) :   0.2676 B(  0-C , 12-H ) :   0.8498
B(  0-C , 13-H ) :   0.9675 B(  0-C , 14-H ) :   0.1078 B(  1-C ,  7-H ) :   0.5340
B(  1-C ,  8-H ) :  -2.0616 B(  1-C ,  9-H ) :   0.2474 B(  1-C , 11-O ) :  -0.1673
B(  1-C , 12-H ) :   0.1059 B(  2-C ,  3-C ) :   1.2451 B(  2-C ,  5-H ) :   0.1211
B(  2-C ,  6-H ) :   0.1366 B(  2-C , 13-H ) :   0.1114 B(  2-C , 14-H ) :   0.8792
B(  2-C , 15-H ) :   0.9077 B(  3-C ,  4-C ) :   1.1095 B(  3-C ,  5-H ) :   0.7748
B(  3-C ,  6-H ) :   0.8733 B(  3-C , 14-H ) :   0.1168 B(  4-C , 10-F ) :   0.7113
B(  4-C , 11-O ) :   1.6287 B(  5-H , 13-H ) :  -0.1048 B(  7-H ,  8-H ) :   0.1651
B(  7-H ,  9-H ) :  -0.1471 B(  8-H ,  9-H ) :   0.5136 B(  8-H , 11-O ) :   0.2517
B(  8-H , 13-H ) :   0.1197 B( 12-H , 13-H ) :  -0.1357

Dispersion correction           -0.000311909
FINAL SINGLE POINT ENERGY      -370.524732089757

DIPOLE MOMENT
-------------
                                X             Y             Z
Electronic contribution:    -12.98331       4.58726       1.40079
Nuclear contribution   :     12.79331      -3.91961      -2.45895
                        -----------------------------------------
Total Dipole Moment    :     -0.19000       0.66765      -1.05816
                        -----------------------------------------
Magnitude (a.u.)       :      1.26552
Magnitude (Debye)      :      3.21670

Rotational constants in cm-1:     0.162888     0.059977     0.046450
Rotational constants in MHz :  4883.250030  1798.063289  1392.548669

                             ****ORCA TERMINATED NORMALLY****
TOTAL RUN TIME: 0 days 0 hours 0 minutes 37 seconds 412 msec
