                         Program Version 5.0.0 -  RELEASE  -
|  1> !LC-BLYP RIJCOSX def2-SVPD def2/J TightSCF
|  2> *xyz -1 1
|  3> C          4.93020       -7.37532       -2.64962
|  4> C          3.84189       -6.95161       -3.63283
|  5> H          3.45814       -5.95442       -3.40712
|  6> H          2.98848       -7.64361       -3.56708
|  7> S          4.31812       -6.91593       -5.36869
|  8> O          5.40615       -5.89948       -5.51297
|  9> O          3.11191       -6.44508       -6.04379
| 10> C          6.17399       -6.48552       -2.60631
| 11> H          4.46961       -7.40617       -1.65588
| 12> H          5.23013       -8.39868       -2.88591
| 13> O          4.76340       -8.23942       -5.69863
| 14> H          6.62449       -6.45478       -3.57637
| 15> H          6.87304       -6.88376       -1.90088
| 16> H          5.89434       -5.49571       -2.31140
| 17> *
| 18>
| 19> %MaxCore 64000
| 20>
| 21> %pal nprocs 8
| 22> end
| 23>
| 24> %scf
| 25>   MaxIter 150
| 26> end
| 27>
| 28>
| 29>                          ****END OF INPUT****

CARTESIAN COORDINATES (ANGSTROEM)
---------------------------------
  C      4.930200   -7.375320   -2.649620
  C      3.841890   -6.951610   -3.632830
  H      3.458140   -5.954420   -3.407120
  H      2.988480   -7.643610   -3.567080
  S      4.318120   -6.915930   -5.368690
  O      5.406150   -5.899480   -5.512970
  O      3.111910   -6.445080   -6.043790
  C      6.173990   -6.485520   -2.606310
  H      4.469610   -7.406170   -1.655880
  H      5.230130   -8.398680   -2.885910
  O      4.763400   -8.239420   -5.698630
  H      6.624490   -6.454780   -3.576370
  H      6.873040   -6.883760   -1.900880
  H      5.894340   -5.495710   -2.311400

 Total Charge           Charge          ....   -1
 Multiplicity           Mult            ....    1
 Number of Electrons    NEL             ....   66
 Basis Dimension        Dim             ....  212

ORBITAL ENERGIES
----------------

  NO   OCC          E(Eh)            E(eV)
   0   2.0000     -88.313599     -2403.1352
   1   2.0000     -18.747451      -510.1441
   2   2.0000     -18.737336      -509.8688
   3   2.0000     -18.730436      -509.6811
   4   2.0000      -9.959792      -271.0197
   5   2.0000      -9.955334      -270.8984
   6   2.0000      -9.937826      -270.4220
   7   2.0000      -7.862128      -213.9394
   8   2.0000      -5.896537      -160.4529
   9   2.0000      -5.896351      -160.4479
  10   2.0000      -5.895886      -160.4352
  11   2.0000      -1.033287       -28.1172
  12   2.0000      -0.889936       -24.2164
  13   2.0000      -0.861147       -23.4330
  14   2.0000      -0.766304       -20.8522
  15   2.0000      -0.675185       -18.3727
  16   2.0000      -0.579662       -15.7734
  17   2.0000      -0.492370       -13.3981
  18   2.0000      -0.442590       -12.0435
  19   2.0000      -0.429518       -11.6878
  20   2.0000      -0.403057       -10.9677
  21   2.0000      -0.387080       -10.5330
  22   2.0000      -0.369811       -10.0631
  23   2.0000      -0.359758        -9.7895
  24   2.0000      -0.326300        -8.8791
  25   2.0000      -0.318320        -8.6619
  26   2.0000      -0.304689        -8.2910
  27   2.0000      -0.258463        -7.0331
  28   2.0000      -0.257210        -6.9990
  29   2.0000      -0.221225        -6.0198
  30   2.0000      -0.209376        -5.6974
  31   2.0000      -0.202078        -5.4988
  32   2.0000      -0.166207        -4.5227
  33   0.0000       0.184213         5.0127
  34   0.0000       0.205733         5.5983
  35   0.0000       0.210745         5.7347
  36   0.0000       0.218659         5.9500
  37   0.0000       0.236086         6.4242

MULLIKEN ATOMIC CHARGES
-----------------------
   0 C :   -0.094888
   1 C :    0.132427
   2 H :   -0.088534
   3 H :   -0.082745
   4 S :    1.106397
   5 O :   -0.776416
   6 O :   -0.742404
   7 C :    1.076143
   8 H :   -0.200773
   9 H :   -0.120980
  10 O :   -0.702848
  11 H :   -0.227761
  12 H :   -0.171675
  13 H :   -0.105943
Sum of atomic charges:   -1.0000000

LOEWDIN ATOMIC CHARGES
----------------------
   0 C :   -0.104414
   1 C :   -0.111098
   2 H :    0.014357
   3 H :    0.018335
   4 S :    0.811045
   5 O :   -0.569907
   6 O :   -0.567989
   7 C :    0.108280
   8 H :    0.012009
   9 H :    0.021383
  10 O :   -0.550071
  11 H :   -0.039027
  12 H :   -0.028742
  13 H :   -0.014162

  Mayer bond orders larger than 0.100000
B(  0-C ,  1-C ) :   1.2427 B(  0-C ,  2-H ) :   0.1635 B(  0-C ,  3-H ) :   0.1568
B(  0-C ,  7-C ) :   1.2424 B(  0-C ,  8-H ) :   0.8114 B(  0-C ,  9-H ) :   0.8751
B(  0-C , 11-H ) :   0.2761 B(  0-C , 12-H ) :   0.2495 B(  0-C , 13-H ) :   0.2561
B(  1-C ,  2-H ) :   0.9098 B(  1-C ,  3-H ) :   0.8806 B(  1-C ,  4-S ) :   0.9161
B(  1-C ,  8-H ) :   0.1874 B(  1-C ,  9-H ) :   0.1523 B(  4-S ,  5-O ) :   1.2937
B(  4-S ,  6-O ) :   1.4020 B(  4-S , 10-O ) :   1.3472 B(  7-C ,  9-H ) :   0.1089
B(  7-C , 11-H ) :   0.7198 B(  7-C , 12-H ) :   0.6785 B(  7-C , 13-H ) :   0.6653
B( 11-H , 13-H ) :   0.1365

FINAL SINGLE POINT ENERGY      -741.113257177384

DIPOLE MOMENT
-------------
                                X             Y             Z
Electronic contribution:     -3.09880      -0.31279     -10.08304
Nuclear contribution   :      3.14317       0.05805      12.49367
                        -----------------------------------------
Total Dipole Moment    :      0.04437      -0.25474       2.41063
                        -----------------------------------------
Magnitude (a.u.)       :      2.42446
Magnitude (Debye)      :      6.16249

Rotational constants in cm-1:     0.133431     0.055055     0.052069
Rotational constants in MHz :  4000.170974  1650.506165  1561.001383

                             ****ORCA TERMINATED NORMALLY****
TOTAL RUN TIME: 0 days 0 hours 0 minutes 17 seconds 894 msec
