                         Program Version 5.0.0 -  RELEASE  -
|  1> !LC-BLYP RIJCOSX def2-SVPD def2/J TightSCF
|  2> *xyz 1 1
|  3> C          5.55821       -1.99291       -6.21505
|  4> C          4.18188       -2.58967       -6.29891
|  5> N          3.14587       -1.76843       -6.48675
|  6> N          4.01910       -3.86431       -6.22743
|  7> H          4.76849       -4.59115       -5.99077
|  8> H          3.12241       -4.33339       -6.31462
|  9> H          3.28164       -0.77779       -6.56655
| 10> H          2.21255       -2.13419       -6.56225
| 11> C          6.41926       -2.54294       -5.07763
| 12> C          5.89651       -2.16931       -3.69455
| 13> H          7.42888       -2.14367       -5.20808
| 14> H          6.50589       -3.62754       -5.17550
| 15> H          6.03683       -2.19819       -7.17685
| 16> H          5.46761       -0.90737       -6.12797
| 17> H          5.81870       -1.10488       -3.61824
| 18> H          6.57185       -2.53200       -2.94804
| 19> H          4.93221       -2.60892       -3.54698
| 20> *
| 21>
| 22> %MaxCore 64000
| 23>
| 24> %pal nprocs 8
| 25> end
| 26>
| 27> %scf
| 28>   MaxIter 150
| 29> end
| 30>
| 31>
| 32>                          ****END OF INPUT****

CARTESIAN COORDINATES (ANGSTROEM)
---------------------------------
  C      5.558210   -1.992910   -6.215050
  C      4.181880   -2.589670   -6.298910
  N      3.145870   -1.768430   -6.486750
  N      4.019100   -3.864310   -6.227430
  H      4.768490   -4.591150   -5.990770
  H      3.122410   -4.333390   -6.314620
  H      3.281640   -0.777790   -6.566550
  H      2.212550   -2.134190   -6.562250
  C      6.419260   -2.542940   -5.077630
  C      5.896510   -2.169310   -3.694550
  H      7.428880   -2.143670   -5.208080
  H      6.505890   -3.627540   -5.175500
  H      6.036830   -2.198190   -7.176850
  H      5.467610   -0.907370   -6.127970
  H      5.818700   -1.104880   -3.618240
  H      6.571850   -2.532000   -2.948040
  H      4.932210   -2.608920   -3.546980

 Total Charge           Charge          ....    1
 Multiplicity           Mult            ....    1
 Number of Electrons    NEL             ....   48
 Basis Dimension        Dim             ....  208

ORBITAL ENERGIES
----------------

  NO   OCC          E(Eh)            E(eV)
   0   2.0000     -14.438140      -392.8818
   1   2.0000     -14.426986      -392.5782
   2   2.0000     -10.409448      -283.2555
   3   2.0000     -10.277437      -279.6633
   4   2.0000     -10.245253      -278.7875
   5   2.0000     -10.208667      -277.7920
   6   2.0000      -1.295774       -35.2598
   7   2.0000      -1.196553       -32.5599
   8   2.0000      -1.077523       -29.3209
   9   2.0000      -0.991586       -26.9824
  10   2.0000      -0.940068       -25.5806
  11   2.0000      -0.886441       -24.1213
  12   2.0000      -0.874371       -23.7929
  13   2.0000      -0.832418       -22.6512
  14   2.0000      -0.797417       -21.6988
  15   2.0000      -0.764986       -20.8163
  16   2.0000      -0.731188       -19.8967
  17   2.0000      -0.692363       -18.8401
  18   2.0000      -0.677250       -18.4289
  19   2.0000      -0.661862       -18.0102
  20   2.0000      -0.599573       -16.3152
  21   2.0000      -0.597490       -16.2585
  22   2.0000      -0.590968       -16.0811
  23   2.0000      -0.588634       -16.0175
  24   0.0000      -0.127026        -3.4566
  25   0.0000      -0.096479        -2.6253
  26   0.0000      -0.063418        -1.7257
  27   0.0000      -0.051564        -1.4031
  28   0.0000      -0.028740        -0.7821

MULLIKEN ATOMIC CHARGES
-----------------------
   0 C :    0.207716
   1 C :    0.534056
   2 N :    0.245933
   3 N :    0.264387
   4 H :    0.060808
   5 H :   -0.187853
   6 H :   -0.028635
   7 H :   -0.167744
   8 C :   -0.100706
   9 C :    0.965761
  10 H :   -0.188188
  11 H :   -0.199024
  12 H :   -0.138823
  13 H :    0.053190
  14 H :   -0.036859
  15 H :   -0.143082
  16 H :   -0.140937
Sum of atomic charges:    1.0000000

LOEWDIN ATOMIC CHARGES
----------------------
   0 C :    0.031014
   1 C :   -0.067277
   2 N :    0.298510
   3 N :    0.275959
   4 H :    0.098667
   5 H :    0.052600
   6 H :    0.040674
   7 H :    0.040696
   8 C :   -0.066660
   9 C :    0.134624
  10 H :    0.047627
  11 H :    0.018058
  12 H :    0.061117
  13 H :    0.045650
  14 H :   -0.000343
  15 H :    0.004579
  16 H :   -0.015496

  Mayer bond orders larger than 0.100000
B(  0-C ,  1-C ) :   1.0784 B(  0-C ,  2-N ) :   0.1193 B(  0-C ,  8-C ) :   1.2271
B(  0-C , 10-H ) :   0.1573 B(  0-C , 11-H ) :   0.1570 B(  0-C , 12-H ) :   0.8341
B(  0-C , 13-H ) :   0.7672 B(  1-C ,  2-N ) :   1.0707 B(  1-C ,  3-N ) :   1.2344
B(  1-C ,  4-H ) :  -0.1006 B(  1-C ,  5-H ) :  -0.2371 B(  1-C ,  6-H ) :  -0.1023
B(  1-C ,  7-H ) :  -0.2103 B(  1-C , 12-H ) :   0.1772 B(  1-C , 13-H ) :   0.1646
B(  2-N ,  3-N ) :   0.1542 B(  2-N ,  6-H ) :   1.1400 B(  2-N ,  7-H ) :   1.3116
B(  3-N ,  4-H ) :   1.1196 B(  3-N ,  5-H ) :   1.3116 B(  4-H ,  5-H ) :  -0.2018
B(  6-H ,  7-H ) :  -0.1949 B(  8-C ,  9-C ) :   1.3321 B(  8-C , 10-H ) :   0.9067
B(  8-C , 11-H ) :   0.8525 B(  8-C , 12-H ) :   0.1126 B(  8-C , 13-H ) :   0.1715
B(  8-C , 14-H ) :   0.2426 B(  8-C , 15-H ) :   0.2513 B(  8-C , 16-H ) :   0.2420
B(  9-C , 11-H ) :   0.1041 B(  9-C , 14-H ) :   0.7074 B(  9-C , 15-H ) :   0.7016
B(  9-C , 16-H ) :   0.7633 B( 14-H , 16-H ) :   0.1009

FINAL SINGLE POINT ENERGY      -267.432374219620

DIPOLE MOMENT
-------------
                                X             Y             Z
Electronic contribution:     -4.02390      -0.94826      -3.73317
Nuclear contribution   :      2.70373       0.48594       2.85544
                        -----------------------------------------
Total Dipole Moment    :     -1.32017      -0.46232      -0.87773
                        -----------------------------------------
Magnitude (a.u.)       :      1.65136
Magnitude (Debye)      :      4.19743

Rotational constants in cm-1:     0.185545     0.074107     0.068805
Rotational constants in MHz :  5562.487769  2221.680591  2062.713441

                             ****ORCA TERMINATED NORMALLY****
TOTAL RUN TIME: 0 days 0 hours 0 minutes 15 seconds 287 msec
