                         Program Version 5.0.0 -  RELEASE  -
|  1> !LC-BLYP RIJCOSX def2-SVPD def2/J TightSCF
|  2> *xyz 0 1
|  3> C          4.93020       -7.37532       -2.64962
|  4> C          3.84189       -6.95161       -3.63283
|  5> H          3.45814       -5.95442       -3.40712
|  6> H          2.98848       -7.64361       -3.56708
|  7> S          4.31812       -6.91593       -5.36869
|  8> F          5.40615       -5.89948       -5.51297
|  9> O          3.11191       -6.44508       -6.04379
| 10> C          6.17399       -6.48552       -2.60631
| 11> H          4.46961       -7.40617       -1.65588
| 12> H          5.23013       -8.39868       -2.88591
| 13> O          4.76340       -8.23942       -5.69863
| 14> H          6.62449       -6.45478       -3.57637
| 15> H          6.87304       -6.88376       -1.90088
| 16> H          5.89434       -5.49571       -2.31140
| 17> *
| 18>
| 19> %MaxCore 64000
| 20>
| 21> %pal nprocs 8
| 22> end
| 23>
| 24> %scf
| 25>   MaxIter 150
| 26> end
| 27>
| 28>
| 29>                          ****END OF INPUT****

CARTESIAN COORDINATES (ANGSTROEM)
---------------------------------
  C      4.930200   -7.375320   -2.649620
  C      3.841890   -6.951610   -3.632830
  H      3.458140   -5.954420   -3.407120
  H      2.988480   -7.643610   -3.567080
  S      4.318120   -6.915930   -5.368690
  F      5.406150   -5.899480   -5.512970
  O      3.111910   -6.445080   -6.043790
  C      6.173990   -6.485520   -2.606310
  H      4.469610   -7.406170   -1.655880
  H      5.230130   -8.398680   -2.885910
  O      4.763400   -8.239420   -5.698630
  H      6.624490   -6.454780   -3.576370
  H      6.873040   -6.883760   -1.900880
  H      5.894340   -5.495710   -2.311400

 Total Charge           Charge          ....    0
 Multiplicity           Mult            ....    1
 Number of Electrons    NEL             ....   66
 Basis Dimension        Dim             ....  212

ORBITAL ENERGIES
----------------

  NO   OCC          E(Eh)            E(eV)
   0   2.0000     -88.564987     -2409.9758
   1   2.0000     -24.572495      -668.6516
   2   2.0000     -18.977214      -516.3963
   3   2.0000     -18.966953      -516.1170
   4   2.0000     -10.152107      -276.2529
   5   2.0000     -10.119155      -275.3562
   6   2.0000     -10.094033      -274.6726
   7   2.0000      -8.114364      -220.8031
   8   2.0000      -6.153048      -167.4330
   9   2.0000      -6.146550      -167.2561
  10   2.0000      -6.145124      -167.2173
  11   2.0000      -1.420014       -38.6405
  12   2.0000      -1.214004       -33.0347
  13   2.0000      -1.115214       -30.3465
  14   2.0000      -0.944908       -25.7123
  15   2.0000      -0.859999       -23.4018
  16   2.0000      -0.804721       -21.8976
  17   2.0000      -0.749026       -20.3820
  18   2.0000      -0.680195       -18.5091
  19   2.0000      -0.666324       -18.1316
  20   2.0000      -0.653627       -17.7861
  21   2.0000      -0.603027       -16.4092
  22   2.0000      -0.588258       -16.0073
  23   2.0000      -0.572038       -15.5660
  24   2.0000      -0.558949       -15.2098
  25   2.0000      -0.541393       -14.7320
  26   2.0000      -0.503788       -13.7088
  27   2.0000      -0.489442       -13.3184
  28   2.0000      -0.476070       -12.9545
  29   2.0000      -0.466046       -12.6818
  30   2.0000      -0.442959       -12.0535
  31   2.0000      -0.428204       -11.6520
  32   2.0000      -0.420204       -11.4343
  33   0.0000       0.048272         1.3135
  34   0.0000       0.072754         1.9797
  35   0.0000       0.078614         2.1392
  36   0.0000       0.079439         2.1616
  37   0.0000       0.102229         2.7818

MULLIKEN ATOMIC CHARGES
-----------------------
   0 C :   -0.038095
   1 C :    0.102417
   2 H :   -0.038814
   3 H :   -0.034762
   4 S :    1.253675
   5 F :   -0.376491
   6 O :   -0.595790
   7 C :    1.078862
   8 H :   -0.165592
   9 H :   -0.109024
  10 O :   -0.570896
  11 H :   -0.267399
  12 H :   -0.146529
  13 H :   -0.091564
Sum of atomic charges:   -0.0000000

LOEWDIN ATOMIC CHARGES
----------------------
   0 C :   -0.086970
   1 C :   -0.065342
   2 H :    0.032496
   3 H :    0.049473
   4 S :    1.063382
   5 F :   -0.259520
   6 O :   -0.454740
   7 C :    0.126950
   8 H :    0.036964
   9 H :    0.034237
  10 O :   -0.438392
  11 H :   -0.030568
  12 H :   -0.004638
  13 H :   -0.003333

  Mayer bond orders larger than 0.100000
B(  0-C ,  1-C ) :   1.2636 B(  0-C ,  2-H ) :   0.1568 B(  0-C ,  3-H ) :   0.1478
B(  0-C ,  7-C ) :   1.2602 B(  0-C ,  8-H ) :   0.8011 B(  0-C ,  9-H ) :   0.8805
B(  0-C , 11-H ) :   0.2547 B(  0-C , 12-H ) :   0.2381 B(  0-C , 13-H ) :   0.2462
B(  1-C ,  2-H ) :   0.9176 B(  1-C ,  3-H ) :   0.8674 B(  1-C ,  4-S ) :   0.9767
B(  1-C ,  8-H ) :   0.1844 B(  1-C ,  9-H ) :   0.1534 B(  4-S ,  5-F ) :   0.6734
B(  4-S ,  6-O ) :   1.6099 B(  4-S , 10-O ) :   1.5732 B(  7-C ,  9-H ) :   0.1054
B(  7-C , 11-H ) :   0.7178 B(  7-C , 12-H ) :   0.6941 B(  7-C , 13-H ) :   0.6756
B( 11-H , 13-H ) :   0.1255

FINAL SINGLE POINT ENERGY      -765.600715822653

DIPOLE MOMENT
-------------
                                X             Y             Z
Electronic contribution:     -1.89655       1.39952     -11.68508
Nuclear contribution   :      2.27444      -1.01744      13.40618
                        -----------------------------------------
Total Dipole Moment    :      0.37789       0.38207       1.72111
                        -----------------------------------------
Magnitude (a.u.)       :      1.80305
Magnitude (Debye)      :      4.58298

Rotational constants in cm-1:     0.126966     0.054929     0.051005
Rotational constants in MHz :  3806.345018  1646.729702  1529.089209

                             ****ORCA TERMINATED NORMALLY****
TOTAL RUN TIME: 0 days 0 hours 0 minutes 16 seconds 490 msec
