                         Program Version 5.0.0 -  RELEASE  -
|  1> !LC-BLYP RIJCOSX def2-SVPD def2/J TightSCF
|  2> *xyz 0 1
|  3> C          5.55821       -1.99291       -6.21505
|  4> C          4.18188       -2.58967       -6.29891
|  5> C          3.14587       -1.76843       -6.48675
|  6> N          4.01910       -3.86431       -6.22743
|  7> H          4.76849       -4.59115       -5.99077
|  8> H          3.12241       -4.33339       -6.31462
|  9> H          3.28164       -0.77779       -6.56655
| 10> H          2.21255       -2.13419       -6.56225
| 11> C          6.41926       -2.54294       -5.07763
| 12> C          5.89651       -2.16931       -3.69455
| 13> H          7.42888       -2.14367       -5.20808
| 14> H          6.50589       -3.62754       -5.17550
| 15> H          6.03683       -2.19819       -7.17685
| 16> H          5.46761       -0.90737       -6.12797
| 17> H          5.81870       -1.10488       -3.61824
| 18> H          6.57185       -2.53200       -2.94804
| 19> H          4.93221       -2.60892       -3.54698
| 20> *
| 21>
| 22> %MaxCore 64000
| 23>
| 24> %pal nprocs 8
| 25> end
| 26>
| 27> %scf
| 28>   MaxIter 150
| 29> end
| 30>
| 31>
| 32>                          ****END OF INPUT****

CARTESIAN COORDINATES (ANGSTROEM)
---------------------------------
  C      5.558210   -1.992910   -6.215050
  C      4.181880   -2.589670   -6.298910
  C      3.145870   -1.768430   -6.486750
  N      4.019100   -3.864310   -6.227430
  H      4.768490   -4.591150   -5.990770
  H      3.122410   -4.333390   -6.314620
  H      3.281640   -0.777790   -6.566550
  H      2.212550   -2.134190   -6.562250
  C      6.419260   -2.542940   -5.077630
  C      5.896510   -2.169310   -3.694550
  H      7.428880   -2.143670   -5.208080
  H      6.505890   -3.627540   -5.175500
  H      6.036830   -2.198190   -7.176850
  H      5.467610   -0.907370   -6.127970
  H      5.818700   -1.104880   -3.618240
  H      6.571850   -2.532000   -2.948040
  H      4.932210   -2.608920   -3.546980

 Total Charge           Charge          ....    0
 Multiplicity           Mult            ....    1
 Number of Electrons    NEL             ....   48
 Basis Dimension        Dim             ....  208

ORBITAL ENERGIES
----------------

  NO   OCC          E(Eh)            E(eV)
   0   2.0000     -14.197160      -386.3244
   1   2.0000     -10.109589      -275.0959
   2   2.0000     -10.084002      -274.3996
   3   2.0000     -10.081517      -274.3320
   4   2.0000     -10.065334      -273.8917
   5   2.0000     -10.014806      -272.5167
   6   2.0000      -1.029139       -28.0043
   7   2.0000      -0.897589       -24.4247
   8   2.0000      -0.835668       -22.7397
   9   2.0000      -0.783229       -21.3127
  10   2.0000      -0.704601       -19.1732
  11   2.0000      -0.682574       -18.5738
  12   2.0000      -0.625188       -17.0122
  13   2.0000      -0.570571       -15.5260
  14   2.0000      -0.562068       -15.2946
  15   2.0000      -0.551698       -15.0125
  16   2.0000      -0.496566       -13.5123
  17   2.0000      -0.490569       -13.3491
  18   2.0000      -0.475279       -12.9330
  19   2.0000      -0.470856       -12.8126
  20   2.0000      -0.435215       -11.8428
  21   2.0000      -0.426175       -11.5968
  22   2.0000      -0.419285       -11.4093
  23   2.0000      -0.281499        -7.6600
  24   0.0000       0.068138         1.8541
  25   0.0000       0.096546         2.6271
  26   0.0000       0.097020         2.6401
  27   0.0000       0.100449         2.7334
  28   0.0000       0.129112         3.5133

MULLIKEN ATOMIC CHARGES
-----------------------
   0 C :    0.436285
   1 C :   -0.259743
   2 C :    0.727485
   3 N :    0.352572
   4 H :   -0.074906
   5 H :   -0.258642
   6 H :   -0.324841
   7 H :   -0.573884
   8 C :   -0.145155
   9 C :    0.960184
  10 H :   -0.209103
  11 H :   -0.207027
  12 H :   -0.209037
  13 H :    0.133299
  14 H :   -0.055845
  15 H :   -0.152161
  16 H :   -0.139481
Sum of atomic charges:   -0.0000000

LOEWDIN ATOMIC CHARGES
----------------------
   0 C :   -0.007616
   1 C :   -0.281933
   2 C :    0.175855
   3 N :    0.164172
   4 H :    0.041441
   5 H :    0.010870
   6 H :   -0.091383
   7 H :   -0.089578
   8 C :   -0.090327
   9 C :    0.116027
  10 H :    0.024964
  11 H :    0.005240
  12 H :    0.033352
  13 H :    0.031937
  14 H :   -0.010340
  15 H :   -0.016098
  16 H :   -0.016584

  Mayer bond orders larger than 0.100000
B(  0-C ,  1-C ) :   1.1217 B(  0-C ,  2-C ) :   0.1945 B(  0-C ,  6-H ) :  -0.1379
B(  0-C ,  8-C ) :   1.1872 B(  0-C , 10-H ) :   0.1844 B(  0-C , 11-H ) :   0.1765
B(  0-C , 12-H ) :   0.7571 B(  0-C , 13-H ) :   0.7324 B(  1-C ,  2-C ) :   1.5313
B(  1-C ,  3-N ) :   1.3378 B(  1-C ,  5-H ) :  -0.1182 B(  1-C ,  7-H ) :   0.2827
B(  1-C ,  8-C ) :   0.1054 B(  1-C , 12-H ) :   0.2825 B(  2-C ,  3-N ) :   0.2970
B(  2-C ,  6-H ) :   1.0387 B(  2-C ,  7-H ) :   0.4375 B(  3-N ,  4-H ) :   1.1721
B(  3-N ,  5-H ) :   1.2458 B(  4-H ,  5-H ) :  -0.1875 B(  8-C ,  9-C ) :   1.3086
B(  8-C , 10-H ) :   0.8767 B(  8-C , 11-H ) :   0.8512 B(  8-C , 13-H ) :   0.2015
B(  8-C , 14-H ) :   0.2589 B(  8-C , 15-H ) :   0.2549 B(  8-C , 16-H ) :   0.2518
B(  9-C , 11-H ) :   0.1078 B(  9-C , 14-H ) :   0.7113 B(  9-C , 15-H ) :   0.6850
B(  9-C , 16-H ) :   0.7676 B( 14-H , 16-H ) :   0.1005

FINAL SINGLE POINT ENERGY      -250.974177836167

DIPOLE MOMENT
-------------
                                X             Y             Z
Electronic contribution:     -1.92535      -1.41131      -2.52215
Nuclear contribution   :      2.30279       0.65856       2.66048
                        -----------------------------------------
Total Dipole Moment    :      0.37745      -0.75274       0.13832
                        -----------------------------------------
Magnitude (a.u.)       :      0.85336
Magnitude (Debye)      :      2.16907

Rotational constants in cm-1:     0.189707     0.076319     0.071159
Rotational constants in MHz :  5687.269526  2287.988194  2133.283230

                             ****ORCA TERMINATED NORMALLY****
TOTAL RUN TIME: 0 days 0 hours 0 minutes 16 seconds 499 msec
