                         Program Version 5.0.0 -  RELEASE  -
|  1> !LC-BLYP RIJCOSX def2-SVPD def2/J TightSCF
|  2> *xyz 0 1
|  3> C          4.93020       -7.37532       -2.64962
|  4> C          3.84189       -6.95161       -3.63283
|  5> H          3.45814       -5.95442       -3.40712
|  6> H          2.98848       -7.64361       -3.56708
|  7> S          4.31812       -6.91593       -5.36869
|  8> O          5.40615       -5.89948       -5.51297
|  9> F          3.11191       -6.44508       -6.04379
| 10> C          6.17399       -6.48552       -2.60631
| 11> H          4.46961       -7.40617       -1.65588
| 12> H          5.23013       -8.39868       -2.88591
| 13> O          4.76340       -8.23942       -5.69863
| 14> H          6.62449       -6.45478       -3.57637
| 15> H          6.87304       -6.88376       -1.90088
| 16> H          5.89434       -5.49571       -2.31140
| 17> *
| 18>
| 19> %MaxCore 64000
| 20>
| 21> %pal nprocs 8
| 22> end
| 23>
| 24> %scf
| 25>   MaxIter 150
| 26> end
| 27>
| 28>
| 29>                          ****END OF INPUT****

CARTESIAN COORDINATES (ANGSTROEM)
---------------------------------
  C      4.930200   -7.375320   -2.649620
  C      3.841890   -6.951610   -3.632830
  H      3.458140   -5.954420   -3.407120
  H      2.988480   -7.643610   -3.567080
  S      4.318120   -6.915930   -5.368690
  O      5.406150   -5.899480   -5.512970
  F      3.111910   -6.445080   -6.043790
  C      6.173990   -6.485520   -2.606310
  H      4.469610   -7.406170   -1.655880
  H      5.230130   -8.398680   -2.885910
  O      4.763400   -8.239420   -5.698630
  H      6.624490   -6.454780   -3.576370
  H      6.873040   -6.883760   -1.900880
  H      5.894340   -5.495710   -2.311400

 Total Charge           Charge          ....    0
 Multiplicity           Mult            ....    1
 Number of Electrons    NEL             ....   66
 Basis Dimension        Dim             ....  212

ORBITAL ENERGIES
----------------

  NO   OCC          E(Eh)            E(eV)
   0   2.0000     -88.567356     -2410.0403
   1   2.0000     -24.587452      -669.0586
   2   2.0000     -18.977395      -516.4012
   3   2.0000     -18.959974      -515.9271
   4   2.0000     -10.153371      -276.2873
   5   2.0000     -10.117157      -275.3018
   6   2.0000     -10.077018      -274.2096
   7   2.0000      -8.116824      -220.8700
   8   2.0000      -6.155589      -167.5021
   9   2.0000      -6.148964      -167.3218
  10   2.0000      -6.147403      -167.2794
  11   2.0000      -1.446898       -39.3721
  12   2.0000      -1.209223       -32.9046
  13   2.0000      -1.098197       -29.8835
  14   2.0000      -0.941666       -25.6240
  15   2.0000      -0.863754       -23.5040
  16   2.0000      -0.808401       -21.9977
  17   2.0000      -0.743892       -20.2423
  18   2.0000      -0.685834       -18.6625
  19   2.0000      -0.680292       -18.5117
  20   2.0000      -0.662555       -18.0290
  21   2.0000      -0.603265       -16.4157
  22   2.0000      -0.593858       -16.1597
  23   2.0000      -0.558657       -15.2018
  24   2.0000      -0.552142       -15.0246
  25   2.0000      -0.535087       -14.5605
  26   2.0000      -0.496178       -13.5017
  27   2.0000      -0.477583       -12.9957
  28   2.0000      -0.475198       -12.9308
  29   2.0000      -0.459508       -12.5038
  30   2.0000      -0.440234       -11.9794
  31   2.0000      -0.417232       -11.3535
  32   2.0000      -0.408729       -11.1221
  33   0.0000       0.046993         1.2787
  34   0.0000       0.069469         1.8904
  35   0.0000       0.078184         2.1275
  36   0.0000       0.082538         2.2460
  37   0.0000       0.105036         2.8582

MULLIKEN ATOMIC CHARGES
-----------------------
   0 C :   -0.085110
   1 C :    0.091764
   2 H :   -0.038271
   3 H :   -0.025694
   4 S :    1.306206
   5 O :   -0.642316
   6 F :   -0.379572
   7 C :    1.101701
   8 H :   -0.174991
   9 H :   -0.108589
  10 O :   -0.560389
  11 H :   -0.243072
  12 H :   -0.150182
  13 H :   -0.091485
Sum of atomic charges:    0.0000000

LOEWDIN ATOMIC CHARGES
----------------------
   0 C :   -0.074591
   1 C :   -0.076483
   2 H :    0.031090
   3 H :    0.035783
   4 S :    1.074640
   5 O :   -0.464440
   6 F :   -0.247912
   7 C :    0.130324
   8 H :    0.038120
   9 H :    0.035550
  10 O :   -0.439854
  11 H :   -0.032241
  12 H :   -0.007362
  13 H :   -0.002626

  Mayer bond orders larger than 0.100000
B(  0-C ,  1-C ) :   1.2865 B(  0-C ,  2-H ) :   0.1533 B(  0-C ,  3-H ) :   0.1613
B(  0-C ,  7-C ) :   1.2575 B(  0-C ,  8-H ) :   0.8149 B(  0-C ,  9-H ) :   0.8726
B(  0-C , 11-H ) :   0.2635 B(  0-C , 12-H ) :   0.2420 B(  0-C , 13-H ) :   0.2528
B(  1-C ,  2-H ) :   0.9057 B(  1-C ,  3-H ) :   0.8531 B(  1-C ,  4-S ) :   0.9404
B(  1-C ,  8-H ) :   0.1847 B(  1-C ,  9-H ) :   0.1504 B(  4-S ,  5-O ) :   1.4851
B(  4-S ,  6-F ) :   0.7494 B(  4-S , 10-O ) :   1.5589 B(  7-C ,  9-H ) :   0.1062
B(  7-C , 11-H ) :   0.7228 B(  7-C , 12-H ) :   0.6808 B(  7-C , 13-H ) :   0.6617
B( 11-H , 13-H ) :   0.1345

FINAL SINGLE POINT ENERGY      -765.589132400608

DIPOLE MOMENT
-------------
                                X             Y             Z
Electronic contribution:     -5.87832       0.46784     -12.68813
Nuclear contribution   :      4.74176      -0.43068      13.97705
                        -----------------------------------------
Total Dipole Moment    :     -1.13656       0.03715       1.28892
                        -----------------------------------------
Magnitude (a.u.)       :      1.71885
Magnitude (Debye)      :      4.36897

Rotational constants in cm-1:     0.131248     0.052952     0.050354
Rotational constants in MHz :  3934.713341  1587.473971  1509.583923

                             ****ORCA TERMINATED NORMALLY****
TOTAL RUN TIME: 0 days 0 hours 0 minutes 16 seconds 632 msec
