                         Program Version 5.0.0 -  RELEASE  -
|  1> !LC-BLYP RIJCOSX def2-SVPD def2/J TightSCF
|  2> *xyz 0 1
|  3> C          5.55821       -1.99291       -6.21505
|  4> C          4.18188       -2.58967       -6.29891
|  5> N          3.14587       -1.76843       -6.48675
|  6> C          4.01910       -3.86431       -6.22743
|  7> H          4.76849       -4.59115       -5.99077
|  8> H          3.12241       -4.33339       -6.31462
|  9> H          3.28164       -0.77779       -6.56655
| 10> H          2.21255       -2.13419       -6.56225
| 11> C          6.41926       -2.54294       -5.07763
| 12> C          5.89651       -2.16931       -3.69455
| 13> H          7.42888       -2.14367       -5.20808
| 14> H          6.50589       -3.62754       -5.17550
| 15> H          6.03683       -2.19819       -7.17685
| 16> H          5.46761       -0.90737       -6.12797
| 17> H          5.81870       -1.10488       -3.61824
| 18> H          6.57185       -2.53200       -2.94804
| 19> H          4.93221       -2.60892       -3.54698
| 20> *
| 21>
| 22> %MaxCore 64000
| 23>
| 24> %pal nprocs 8
| 25> end
| 26>
| 27> %scf
| 28>   MaxIter 150
| 29> end
| 30>
| 31>
| 32>                          ****END OF INPUT****

CARTESIAN COORDINATES (ANGSTROEM)
---------------------------------
  C      5.558210   -1.992910   -6.215050
  C      4.181880   -2.589670   -6.298910
  N      3.145870   -1.768430   -6.486750
  C      4.019100   -3.864310   -6.227430
  H      4.768490   -4.591150   -5.990770
  H      3.122410   -4.333390   -6.314620
  H      3.281640   -0.777790   -6.566550
  H      2.212550   -2.134190   -6.562250
  C      6.419260   -2.542940   -5.077630
  C      5.896510   -2.169310   -3.694550
  H      7.428880   -2.143670   -5.208080
  H      6.505890   -3.627540   -5.175500
  H      6.036830   -2.198190   -7.176850
  H      5.467610   -0.907370   -6.127970
  H      5.818700   -1.104880   -3.618240
  H      6.571850   -2.532000   -2.948040
  H      4.932210   -2.608920   -3.546980

 Total Charge           Charge          ....    0
 Multiplicity           Mult            ....    1
 Number of Electrons    NEL             ....   48
 Basis Dimension        Dim             ....  208

ORBITAL ENERGIES
----------------

  NO   OCC          E(Eh)            E(eV)
   0   2.0000     -14.186494      -386.0341
   1   2.0000     -10.107475      -275.0384
   2   2.0000     -10.082865      -274.3687
   3   2.0000     -10.078204      -274.2419
   4   2.0000     -10.061419      -273.7851
   5   2.0000     -10.022327      -272.7214
   6   2.0000      -1.019204       -27.7340
   7   2.0000      -0.898807       -24.4578
   8   2.0000      -0.832631       -22.6570
   9   2.0000      -0.787197       -21.4207
  10   2.0000      -0.710882       -19.3441
  11   2.0000      -0.655510       -17.8373
  12   2.0000      -0.625362       -17.0170
  13   2.0000      -0.596423       -16.2295
  14   2.0000      -0.560507       -15.2522
  15   2.0000      -0.541106       -14.7242
  16   2.0000      -0.502118       -13.6633
  17   2.0000      -0.491203       -13.3663
  18   2.0000      -0.470352       -12.7989
  19   2.0000      -0.450517       -12.2592
  20   2.0000      -0.431269       -11.7354
  21   2.0000      -0.424390       -11.5482
  22   2.0000      -0.420248       -11.4355
  23   2.0000      -0.290271        -7.8987
  24   0.0000       0.075019         2.0414
  25   0.0000       0.094777         2.5790
  26   0.0000       0.098522         2.6809
  27   0.0000       0.103711         2.8221
  28   0.0000       0.129981         3.5370

MULLIKEN ATOMIC CHARGES
-----------------------
   0 C :    0.549990
   1 C :    0.179582
   2 N :    0.369863
   3 C :    0.300159
   4 H :   -0.070612
   5 H :   -0.690952
   6 H :   -0.198960
   7 H :   -0.211858
   8 C :   -0.166159
   9 C :    0.970171
  10 H :   -0.208936
  11 H :   -0.157784
  12 H :   -0.198142
  13 H :   -0.111486
  14 H :   -0.047103
  15 H :   -0.187190
  16 H :   -0.120584
Sum of atomic charges:    0.0000000

LOEWDIN ATOMIC CHARGES
----------------------
   0 C :   -0.009380
   1 C :   -0.267795
   2 N :    0.190644
   3 C :    0.148635
   4 H :   -0.041345
   5 H :   -0.081130
   6 H :   -0.015337
   7 H :    0.000177
   8 C :   -0.083302
   9 C :    0.115388
  10 H :    0.024456
  11 H :    0.012144
  12 H :    0.035205
  13 H :    0.019537
  14 H :   -0.014962
  15 H :   -0.015892
  16 H :   -0.017043

  Mayer bond orders larger than 0.100000
B(  0-C ,  1-C ) :   0.9433 B(  0-C ,  2-N ) :   0.1181 B(  0-C ,  3-C ) :   0.1037
B(  0-C ,  8-C ) :   1.2086 B(  0-C , 10-H ) :   0.1548 B(  0-C , 11-H ) :   0.1726
B(  0-C , 12-H ) :   0.8226 B(  0-C , 13-H ) :   0.6339 B(  1-C ,  2-N ) :   1.0942
B(  1-C ,  3-C ) :   1.4881 B(  1-C ,  5-H ) :   0.1348 B(  1-C ,  7-H ) :  -0.1341
B(  1-C , 12-H ) :   0.1754 B(  1-C , 13-H ) :   0.2010 B(  2-N ,  3-C ) :   0.3312
B(  2-N ,  6-H ) :   1.1317 B(  2-N ,  7-H ) :   1.2738 B(  3-C ,  4-H ) :   0.8452
B(  3-C ,  5-H ) :   0.6536 B(  4-H ,  5-H ) :  -0.1982 B(  6-H ,  7-H ) :  -0.1743
B(  8-C ,  9-C ) :   1.3106 B(  8-C , 10-H ) :   0.8783 B(  8-C , 11-H ) :   0.8498
B(  8-C , 12-H ) :   0.1305 B(  8-C , 13-H ) :   0.2019 B(  8-C , 14-H ) :   0.2598
B(  8-C , 15-H ) :   0.2587 B(  8-C , 16-H ) :   0.2556 B(  9-C , 11-H ) :   0.1117
B(  9-C , 14-H ) :   0.7206 B(  9-C , 15-H ) :   0.6975 B(  9-C , 16-H ) :   0.7664

FINAL SINGLE POINT ENERGY      -250.984028641088

DIPOLE MOMENT
-------------
                                X             Y             Z
Electronic contribution:     -2.68739       0.41822      -2.79089
Nuclear contribution   :      2.50934       0.16282       2.72182
                        -----------------------------------------
Total Dipole Moment    :     -0.17805       0.58104      -0.06908
                        -----------------------------------------
Magnitude (a.u.)       :      0.61162
Magnitude (Debye)      :      1.55462

Rotational constants in cm-1:     0.192764     0.074934     0.070466
Rotational constants in MHz :  5778.908020  2246.454937  2112.518546

                             ****ORCA TERMINATED NORMALLY****
TOTAL RUN TIME: 0 days 0 hours 0 minutes 15 seconds 530 msec
