                         Program Version 5.0.0 -  RELEASE  -
|  1> !LC-BLYP RIJCOSX def2-SVPD def2/J TightSCF
|  2> *xyz 0 1
|  3> C          4.93020       -7.37532       -2.64962
|  4> C          3.84189       -6.95161       -3.63283
|  5> H          3.45814       -5.95442       -3.40712
|  6> H          2.98848       -7.64361       -3.56708
|  7> S          4.31812       -6.91593       -5.36869
|  8> O          5.40615       -5.89948       -5.51297
|  9> O          3.11191       -6.44508       -6.04379
| 10> C          6.17399       -6.48552       -2.60631
| 11> H          4.46961       -7.40617       -1.65588
| 12> H          5.23013       -8.39868       -2.88591
| 13> F          4.76340       -8.23942       -5.69863
| 14> H          6.62449       -6.45478       -3.57637
| 15> H          6.87304       -6.88376       -1.90088
| 16> H          5.89434       -5.49571       -2.31140
| 17> *
| 18>
| 19> %MaxCore 64000
| 20>
| 21> %pal nprocs 8
| 22> end
| 23>
| 24> %scf
| 25>   MaxIter 150
| 26> end
| 27>
| 28>
| 29>                          ****END OF INPUT****

CARTESIAN COORDINATES (ANGSTROEM)
---------------------------------
  C      4.930200   -7.375320   -2.649620
  C      3.841890   -6.951610   -3.632830
  H      3.458140   -5.954420   -3.407120
  H      2.988480   -7.643610   -3.567080
  S      4.318120   -6.915930   -5.368690
  O      5.406150   -5.899480   -5.512970
  O      3.111910   -6.445080   -6.043790
  C      6.173990   -6.485520   -2.606310
  H      4.469610   -7.406170   -1.655880
  H      5.230130   -8.398680   -2.885910
  F      4.763400   -8.239420   -5.698630
  H      6.624490   -6.454780   -3.576370
  H      6.873040   -6.883760   -1.900880
  H      5.894340   -5.495710   -2.311400

 Total Charge           Charge          ....    0
 Multiplicity           Mult            ....    1
 Number of Electrons    NEL             ....   66
 Basis Dimension        Dim             ....  212

ORBITAL ENERGIES
----------------

  NO   OCC          E(Eh)            E(eV)
   0   2.0000     -88.568667     -2410.0760
   1   2.0000     -24.601137      -669.4310
   2   2.0000     -18.967700      -516.1374
   3   2.0000     -18.960414      -515.9391
   4   2.0000     -10.153532      -276.2917
   5   2.0000     -10.120023      -275.3798
   6   2.0000     -10.081228      -274.3242
   7   2.0000      -8.118128      -220.9055
   8   2.0000      -6.157193      -167.5457
   9   2.0000      -6.150002      -167.3501
  10   2.0000      -6.148546      -167.3104
  11   2.0000      -1.469061       -39.9752
  12   2.0000      -1.198419       -32.6106
  13   2.0000      -1.090317       -29.6690
  14   2.0000      -0.944969       -25.7139
  15   2.0000      -0.863587       -23.4994
  16   2.0000      -0.820727       -22.3331
  17   2.0000      -0.748166       -20.3586
  18   2.0000      -0.706570       -19.2268
  19   2.0000      -0.699021       -19.0213
  20   2.0000      -0.652381       -17.7522
  21   2.0000      -0.601545       -16.3689
  22   2.0000      -0.595596       -16.2070
  23   2.0000      -0.564483       -15.3604
  24   2.0000      -0.543579       -14.7915
  25   2.0000      -0.537859       -14.6359
  26   2.0000      -0.491535       -13.3754
  27   2.0000      -0.485199       -13.2029
  28   2.0000      -0.479488       -13.0475
  29   2.0000      -0.460829       -12.5398
  30   2.0000      -0.429272       -11.6811
  31   2.0000      -0.418832       -11.3970
  32   2.0000      -0.400543       -10.8993
  33   0.0000       0.043003         1.1702
  34   0.0000       0.071974         1.9585
  35   0.0000       0.078199         2.1279
  36   0.0000       0.079338         2.1589
  37   0.0000       0.102286         2.7833

MULLIKEN ATOMIC CHARGES
-----------------------
   0 C :   -0.051707
   1 C :    0.106737
   2 H :   -0.045996
   3 H :   -0.043164
   4 S :    1.269944
   5 O :   -0.630063
   6 O :   -0.581924
   7 C :    1.113332
   8 H :   -0.179829
   9 H :   -0.132334
  10 F :   -0.337479
  11 H :   -0.249180
  12 H :   -0.149234
  13 H :   -0.089103
Sum of atomic charges:   -0.0000000

LOEWDIN ATOMIC CHARGES
----------------------
   0 C :   -0.089360
   1 C :   -0.065786
   2 H :    0.044713
   3 H :    0.036811
   4 S :    1.074600
   5 O :   -0.459796
   6 O :   -0.454352
   7 C :    0.127180
   8 H :    0.036057
   9 H :    0.028592
  10 F :   -0.232542
  11 H :   -0.037715
  12 H :   -0.008109
  13 H :   -0.000293

  Mayer bond orders larger than 0.100000
B(  0-C ,  1-C ) :   1.2406 B(  0-C ,  2-H ) :   0.1541 B(  0-C ,  3-H ) :   0.1499
B(  0-C ,  7-C ) :   1.2661 B(  0-C ,  8-H ) :   0.8114 B(  0-C ,  9-H ) :   0.8604
B(  0-C , 11-H ) :   0.2709 B(  0-C , 12-H ) :   0.2410 B(  0-C , 13-H ) :   0.2560
B(  1-C ,  2-H ) :   0.9116 B(  1-C ,  3-H ) :   0.8839 B(  1-C ,  4-S ) :   0.9702
B(  1-C ,  8-H ) :   0.1791 B(  1-C ,  9-H ) :   0.1450 B(  4-S ,  5-O ) :   1.5159
B(  4-S ,  6-O ) :   1.6167 B(  4-S , 10-F ) :   0.7383 B(  7-C ,  9-H ) :   0.1051
B(  7-C , 11-H ) :   0.7132 B(  7-C , 12-H ) :   0.6850 B(  7-C , 13-H ) :   0.6640
B( 11-H , 13-H ) :   0.1363

FINAL SINGLE POINT ENERGY      -765.576896112677

DIPOLE MOMENT
-------------
                                X             Y             Z
Electronic contribution:     -3.02085      -2.60184     -12.06719
Nuclear contribution   :      2.96568       1.49902      13.60585
                        -----------------------------------------
Total Dipole Moment    :     -0.05518      -1.10282       1.53866
                        -----------------------------------------
Magnitude (a.u.)       :      1.89386
Magnitude (Debye)      :      4.81381

Rotational constants in cm-1:     0.127173     0.053596     0.051689
Rotational constants in MHz :  3812.547794  1606.772866  1549.597841

                             ****ORCA TERMINATED NORMALLY****
TOTAL RUN TIME: 0 days 0 hours 0 minutes 16 seconds 752 msec
