                         Program Version 5.0.0 -  RELEASE  -
|  1> !LC-BLYP RIJCOSX def2-SVPD def2/J TightSCF xyzfile
|  2>
|  3> *xyzfile 0 1 D2.xyz
|  4>
|  5> %MaxCore 64000
|  6>
|  7> %pal nprocs 4
|  8> end
|  9>
| 10> %scf
| 11>   MaxIter 150
| 12> end
| 13>
| 14>
| 15>                          ****END OF INPUT****

CARTESIAN COORDINATES (ANGSTROEM)
---------------------------------
  C      5.558206   -1.992914   -6.215054
  C      4.930199   -7.375319   -2.649623
  C      3.841892   -6.951611   -3.632829
  H      3.458144   -5.954425   -3.407121
  H      2.988484   -7.643606   -3.567078
  S      4.318115   -6.915930   -5.368692
  C      4.181880   -2.589671   -6.298911
  N      3.145873   -1.768431   -6.486753
  C      4.019102   -3.864307   -6.227427
  H      4.768490   -4.591153   -5.990773
  H      3.122405   -4.333392   -6.314620
  H      3.281635   -0.777786   -6.566549
  H      2.212549   -2.134193   -6.562246
  F      5.406154   -5.899480   -5.512972
  O      3.111910   -6.445079   -6.043792
  C      6.419260   -2.542944   -5.077630
  C      5.872267   -5.002756   -2.427819
  C      6.173994   -6.485522   -2.606315
  H      6.734852   -6.613767   -3.534015
  H      6.821463   -6.831018   -1.793617
  H      4.469612   -7.406168   -1.655876
  H      5.230134   -8.398678   -2.885906
  C      5.896512   -2.169314   -3.694552
  H      7.428880   -2.143665   -5.208078
  H      6.505894   -3.627541   -5.175502
  C      6.807804   -2.623428   -2.551019
  H      4.894708   -2.589732   -3.557501
  H      5.778823   -1.081255   -3.635790
  C      7.111544   -4.122463   -2.520363
  H      7.751615   -2.071393   -2.614406
  H      6.345837   -2.326401   -1.604086
  H      5.362882   -4.828697   -1.471335
  H      5.174429   -4.702577   -3.211298
  H      7.778329   -4.329347   -1.677651
  H      7.673189   -4.402845   -3.417586
  O      4.763396   -8.239424   -5.698629
  H      6.036826   -2.198189   -7.176852
  H      5.467610   -0.907371   -6.127968

 Total Charge           Charge          ....    0
 Multiplicity           Mult            ....    1
 Number of Electrons    NEL             ....  136
 Basis Dimension        Dim             ....  512

ORBITAL ENERGIES
----------------

  NO   OCC          E(Eh)            E(eV)
   0   2.0000     -88.564608     -2409.9655
   1   2.0000     -24.573327      -668.6742
   2   2.0000     -18.975021      -516.3366
   3   2.0000     -18.962381      -515.9926
   4   2.0000     -14.179757      -385.8508
   5   2.0000     -10.146767      -276.1076
   6   2.0000     -10.112538      -275.1761
   7   2.0000     -10.097535      -274.7679
   8   2.0000     -10.096676      -274.7445
   9   2.0000     -10.088718      -274.5280
  10   2.0000     -10.083782      -274.3936
  11   2.0000     -10.080687      -274.3094
  12   2.0000     -10.080422      -274.3022
  13   2.0000     -10.079767      -274.2844
  14   2.0000     -10.076158      -274.1862
  15   2.0000      -9.999831      -272.1092
  16   2.0000      -8.112542      -220.7535
  17   2.0000      -6.151497      -167.3907
  18   2.0000      -6.144690      -167.2055
  19   2.0000      -6.143266      -167.1668
  20   2.0000      -1.426003       -38.8035
  21   2.0000      -1.212246       -32.9869
  22   2.0000      -1.112765       -30.2799
  23   2.0000      -1.011899       -27.5352
  24   2.0000      -0.950033       -25.8517
  25   2.0000      -0.922388       -25.0994
  26   2.0000      -0.892479       -24.2856
  27   2.0000      -0.864575       -23.5263
  28   2.0000      -0.826850       -22.4997
  29   2.0000      -0.817336       -22.2408
  30   2.0000      -0.790798       -21.5187
  31   2.0000      -0.766068       -20.8458
  32   2.0000      -0.729768       -19.8580
  33   2.0000      -0.714740       -19.4491
  34   2.0000      -0.697904       -18.9909
  35   2.0000      -0.673345       -18.3226
  36   2.0000      -0.668795       -18.1988
  37   2.0000      -0.651721       -17.7342
  38   2.0000      -0.643841       -17.5198
  39   2.0000      -0.620390       -16.8817
  40   2.0000      -0.604965       -16.4619
  41   2.0000      -0.599715       -16.3191
  42   2.0000      -0.593130       -16.1399
  43   2.0000      -0.578369       -15.7382
  44   2.0000      -0.564903       -15.3718
  45   2.0000      -0.561960       -15.2917
  46   2.0000      -0.554533       -15.0896
  47   2.0000      -0.541341       -14.7306
  48   2.0000      -0.523244       -14.2382
  49   2.0000      -0.518013       -14.0959
  50   2.0000      -0.512932       -13.9576
  51   2.0000      -0.504344       -13.7239
  52   2.0000      -0.481636       -13.1060
  53   2.0000      -0.476330       -12.9616
  54   2.0000      -0.468730       -12.7548
  55   2.0000      -0.462376       -12.5819
  56   2.0000      -0.452528       -12.3139
  57   2.0000      -0.449986       -12.2447
  58   2.0000      -0.443643       -12.0721
  59   2.0000      -0.437509       -11.9052
  60   2.0000      -0.429934       -11.6991
  61   2.0000      -0.428685       -11.6651
  62   2.0000      -0.421348       -11.4655
  63   2.0000      -0.415604       -11.3092
  64   2.0000      -0.410358       -11.1664
  65   2.0000      -0.406178       -11.0527
  66   2.0000      -0.402013       -10.9393
  67   2.0000      -0.280837        -7.6420
  68   0.0000       0.055871         1.5203
  69   0.0000       0.067786         1.8445
  70   0.0000       0.074795         2.0353
  71   0.0000       0.077240         2.1018
  72   0.0000       0.090359         2.4588

MULLIKEN ATOMIC CHARGES
-----------------------
   0 C :    1.045342
   1 C :    0.678082
   2 C :    0.203111
   3 H :    0.164070
   4 H :   -0.354164
   5 S :    1.257038
   6 C :   -0.081156
   7 N :    0.390802
   8 C :    1.711053
   9 H :   -0.617033
  10 H :   -1.251024
  11 H :   -0.173479
  12 H :   -0.216013
  13 F :   -0.612659
  14 O :   -0.603707
  15 C :    0.603904
  16 C :    0.257509
  17 C :    0.434461
  18 H :   -0.050249
  19 H :   -0.399841
  20 H :    0.008150
  21 H :   -0.107617
  22 C :    0.072295
  23 H :   -0.217818
  24 H :   -0.782526
  25 C :    0.796155
  26 H :    0.072157
  27 H :   -0.425272
  28 C :    0.319737
  29 H :   -0.043463
  30 H :   -0.128478
  31 H :   -0.040588
  32 H :   -0.607331
  33 H :   -0.410914
  34 H :    0.009577
  35 O :   -0.637879
  36 H :   -0.213097
  37 H :   -0.049133
Sum of atomic charges:    0.0000000

LOEWDIN ATOMIC CHARGES
----------------------
   0 C :    0.004748
   1 C :   -0.039273
   2 C :   -0.048204
   3 H :    0.024747
   4 H :    0.049593
   5 S :    1.085951
   6 C :   -0.247093
   7 N :    0.192142
   8 C :    0.175085
   9 H :   -0.127765
  10 H :   -0.094855
  11 H :   -0.017395
  12 H :    0.001619
  13 F :   -0.273072
  14 O :   -0.434439
  15 C :   -0.032675
  16 C :   -0.044559
  17 C :   -0.039781
  18 H :    0.020654
  19 H :    0.038249
  20 H :    0.041536
  21 H :    0.035842
  22 C :   -0.042163
  23 H :    0.035233
  24 H :   -0.002584
  25 C :   -0.041821
  26 H :    0.018417
  27 H :    0.029489
  28 C :   -0.043519
  29 H :    0.027830
  30 H :    0.027412
  31 H :    0.046759
  32 H :   -0.013267
  33 H :    0.030828
  34 H :    0.022775
  35 O :   -0.423823
  36 H :    0.037862
  37 H :    0.019518

  Mayer bond orders larger than 0.100000
B(  0-C ,  6-C ) :   0.9990 B(  0-C ,  8-C ) :   0.1978 B(  0-C ,  9-H ) :  -0.2082
B(  0-C , 15-C ) :   1.1805 B(  0-C , 24-H ) :   0.1275 B(  0-C , 36-H ) :   0.4616
B(  0-C , 37-H ) :   0.5895 B(  1-C ,  2-C ) :   1.2259 B(  1-C ,  4-H ) :   0.1761
B(  1-C , 17-C ) :   1.1833 B(  1-C , 20-H ) :   0.6458 B(  1-C , 21-H ) :   0.5899
B(  2-C ,  3-H ) :   0.8449 B(  2-C ,  4-H ) :   0.7182 B(  2-C ,  5-S ) :   0.9763
B(  2-C , 17-C ) :   0.1129 B(  2-C , 20-H ) :   0.2182 B(  2-C , 21-H ) :   0.1308
B(  4-H ,  5-S ) :   0.1595 B(  5-S , 13-F ) :   0.6637 B(  5-S , 14-O ) :   1.5755
B(  5-S , 35-O ) :   1.6156 B(  6-C ,  7-N ) :   0.9606 B(  6-C ,  8-C ) :   2.0302
B(  6-C ,  9-H ) :  -0.1937 B(  6-C , 10-H ) :   0.2139 B(  6-C , 12-H ) :  -0.1423
B(  6-C , 36-H ) :   0.2954 B(  6-C , 37-H ) :   0.1583 B(  7-N ,  8-C ) :   0.4935
B(  7-N ,  9-H ) :   0.1399 B(  7-N , 10-H ) :  -0.1233 B(  7-N , 11-H ) :   1.1121
B(  7-N , 12-H ) :   1.2748 B(  8-C ,  9-H ) :  -0.1326 B(  8-C , 10-H ) :  -0.6797
B(  8-C , 14-O ) :  -0.2961 B(  8-C , 24-H ) :   0.1652 B(  9-H , 10-H ) :  -0.2538
B(  9-H , 13-F ) :   0.1173 B(  9-H , 15-C ) :   0.1104 B(  9-H , 24-H ) :   0.1855
B( 10-H , 14-O ) :   0.3682 B( 10-H , 24-H ) :  -0.1810 B( 11-H , 12-H ) :  -0.1707
B( 13-F , 14-O ) :   0.1377 B( 13-F , 24-H ) :   0.1538 B( 15-C , 22-C ) :   1.1570
B( 15-C , 23-H ) :   0.6843 B( 15-C , 24-H ) :   0.4580 B( 15-C , 26-H ) :   0.1519
B( 15-C , 27-H ) :   0.1835 B( 15-C , 36-H ) :   0.3638 B( 15-C , 37-H ) :   0.1913
B( 16-C , 17-C ) :   1.1812 B( 16-C , 18-H ) :   0.1508 B( 16-C , 19-H ) :   0.2006
B( 16-C , 28-C ) :   1.1931 B( 16-C , 31-H ) :   0.7117 B( 16-C , 32-H ) :   0.8437
B( 16-C , 33-H ) :   0.2340 B( 16-C , 34-H ) :   0.1554 B( 17-C , 18-H ) :   0.8174
B( 17-C , 19-H ) :   0.7699 B( 17-C , 21-H ) :   0.2947 B( 17-C , 28-C ) :   0.1840
B( 17-C , 31-H ) :   0.1048 B( 17-C , 32-H ) :   0.1028 B( 18-H , 19-H ) :  -0.1057
B( 20-H , 21-H ) :  -0.1342 B( 22-C , 23-H ) :   0.1655 B( 22-C , 24-H ) :   0.2475
B( 22-C , 25-C ) :   1.0680 B( 22-C , 26-H ) :   0.8355 B( 22-C , 27-H ) :   0.9952
B( 22-C , 28-C ) :   0.2023 B( 22-C , 29-H ) :   0.1619 B( 22-C , 30-H ) :   0.3044
B( 22-C , 34-H ) :  -0.1045 B( 25-C , 28-C ) :   1.0950 B( 25-C , 29-H ) :   0.5865
B( 25-C , 30-H ) :   0.6160 B( 26-H , 32-H ) :   0.1973 B( 28-C , 29-H ) :   0.2738
B( 28-C , 30-H ) :   0.1071 B( 28-C , 31-H ) :   0.1252 B( 28-C , 32-H ) :   0.1020
B( 28-C , 33-H ) :   0.8784 B( 28-C , 34-H ) :   0.7861 B( 29-H , 30-H ) :  -0.1417
B( 36-H , 37-H ) :  -0.1538

FINAL SINGLE POINT ENERGY     -1132.899385389260

DIPOLE MOMENT
-------------
                                X             Y             Z
Electronic contribution:     -7.72942     -16.94026     -13.54238
Nuclear contribution   :      7.91684      17.85507      15.13212
                        -----------------------------------------
Total Dipole Moment    :      0.18742       0.91481       1.58974
                        -----------------------------------------
Magnitude (a.u.)       :      1.84371
Magnitude (Debye)      :      4.68634

Rotational constants in cm-1:     0.018015     0.012410     0.008313
Rotational constants in MHz :   540.084467   372.038374   249.228144

                             ****ORCA TERMINATED NORMALLY****
TOTAL RUN TIME: 0 days 0 hours 4 minutes 57 seconds 63 msec
