                         Program Version 5.0.0 -  RELEASE  -
|  1> !LC-BLYP RIJCOSX def2-SVPD def2/J TightSCF xyzfile
|  2>
|  3> *xyzfile 0 1 D6.xyz
|  4>
|  5> %MaxCore 64000
|  6>
|  7> %pal nprocs 4
|  8> end
|  9>
| 10> %scf
| 11>   MaxIter 150
| 12> end
| 13>
| 14>
| 15>                          ****END OF INPUT****

CARTESIAN COORDINATES (ANGSTROEM)
---------------------------------
  C      5.558206   -1.992914   -6.215054
  C      4.930199   -7.375319   -2.649623
  C      3.841892   -6.951611   -3.632829
  H      3.458144   -5.954425   -3.407121
  H      2.988484   -7.643606   -3.567078
  S      4.318115   -6.915930   -5.368692
  C      4.181880   -2.589671   -6.298911
  N      3.145873   -1.768431   -6.486753
  C      4.019102   -3.864307   -6.227427
  H      4.768490   -4.591153   -5.990773
  H      3.122405   -4.333392   -6.314620
  H      3.281635   -0.777786   -6.566549
  H      2.212549   -2.134193   -6.562246
  O      5.406154   -5.899480   -5.512972
  O      3.111910   -6.445079   -6.043792
  C      6.419260   -2.542944   -5.077630
  C      5.872267   -5.002756   -2.427819
  C      6.173994   -6.485522   -2.606315
  H      6.734852   -6.613767   -3.534015
  H      6.821463   -6.831018   -1.793617
  H      4.469612   -7.406168   -1.655876
  H      5.230134   -8.398678   -2.885906
  C      5.896512   -2.169314   -3.694552
  H      7.428880   -2.143665   -5.208078
  H      6.505894   -3.627541   -5.175502
  C      6.807804   -2.623428   -2.551019
  H      4.894708   -2.589732   -3.557501
  H      5.778823   -1.081255   -3.635790
  C      7.111544   -4.122463   -2.520363
  H      7.751615   -2.071393   -2.614406
  H      6.345837   -2.326401   -1.604086
  H      5.362882   -4.828697   -1.471335
  H      5.174429   -4.702577   -3.211298
  H      7.778329   -4.329347   -1.677651
  H      7.673189   -4.402845   -3.417586
  F      4.763396   -8.239424   -5.698629
  H      6.036826   -2.198189   -7.176852
  H      5.467610   -0.907371   -6.127968

 Total Charge           Charge          ....    0
 Multiplicity           Mult            ....    1
 Number of Electrons    NEL             ....  136
 Basis Dimension        Dim             ....  512

ORBITAL ENERGIES
----------------

  NO   OCC          E(Eh)            E(eV)
   0   2.0000     -88.574614     -2410.2378
   1   2.0000     -24.603079      -669.4838
   2   2.0000     -18.970421      -516.2114
   3   2.0000     -18.965273      -516.0713
   4   2.0000     -14.163177      -385.3996
   5   2.0000     -10.152309      -276.2584
   6   2.0000     -10.116528      -275.2847
   7   2.0000     -10.087951      -274.5071
   8   2.0000     -10.077083      -274.2114
   9   2.0000     -10.076540      -274.1966
  10   2.0000     -10.072427      -274.0847
  11   2.0000     -10.069561      -274.0067
  12   2.0000     -10.063843      -273.8511
  13   2.0000     -10.062610      -273.8175
  14   2.0000     -10.061697      -273.7927
  15   2.0000      -9.973626      -271.3962
  16   2.0000      -8.122462      -221.0234
  17   2.0000      -6.161527      -167.6637
  18   2.0000      -6.154548      -167.4738
  19   2.0000      -6.152975      -167.4310
  20   2.0000      -1.470444       -40.0128
  21   2.0000      -1.205566       -32.8051
  22   2.0000      -1.099303       -29.9136
  23   2.0000      -0.994744       -27.0684
  24   2.0000      -0.950470       -25.8636
  25   2.0000      -0.912515       -24.8308
  26   2.0000      -0.883587       -24.0436
  27   2.0000      -0.859704       -23.3937
  28   2.0000      -0.831006       -22.6128
  29   2.0000      -0.808608       -22.0033
  30   2.0000      -0.782721       -21.2989
  31   2.0000      -0.754273       -20.5248
  32   2.0000      -0.726208       -19.7611
  33   2.0000      -0.711260       -19.3544
  34   2.0000      -0.705221       -19.1900
  35   2.0000      -0.688641       -18.7389
  36   2.0000      -0.662456       -18.0264
  37   2.0000      -0.653316       -17.7776
  38   2.0000      -0.633498       -17.2384
  39   2.0000      -0.611798       -16.6479
  40   2.0000      -0.605790       -16.4844
  41   2.0000      -0.598052       -16.2738
  42   2.0000      -0.580667       -15.8008
  43   2.0000      -0.574298       -15.6274
  44   2.0000      -0.565564       -15.3898
  45   2.0000      -0.555642       -15.1198
  46   2.0000      -0.551010       -14.9937
  47   2.0000      -0.527268       -14.3477
  48   2.0000      -0.520660       -14.1679
  49   2.0000      -0.515919       -14.0389
  50   2.0000      -0.514454       -13.9990
  51   2.0000      -0.494448       -13.4546
  52   2.0000      -0.475073       -12.9274
  53   2.0000      -0.469323       -12.7709
  54   2.0000      -0.457323       -12.4444
  55   2.0000      -0.449589       -12.2339
  56   2.0000      -0.446959       -12.1624
  57   2.0000      -0.440909       -11.9977
  58   2.0000      -0.431810       -11.7502
  59   2.0000      -0.426608       -11.6086
  60   2.0000      -0.420216       -11.4347
  61   2.0000      -0.417303       -11.3554
  62   2.0000      -0.414023       -11.2662
  63   2.0000      -0.402903       -10.9635
  64   2.0000      -0.395999       -10.7757
  65   2.0000      -0.391381       -10.6500
  66   2.0000      -0.364166        -9.9095
  67   2.0000      -0.260800        -7.0967
  68   0.0000       0.044023         1.1979
  69   0.0000       0.067403         1.8341
  70   0.0000       0.075573         2.0564
  71   0.0000       0.081177         2.2089
  72   0.0000       0.088335         2.4037

MULLIKEN ATOMIC CHARGES
-----------------------
   0 C :    1.048951
   1 C :    0.676043
   2 C :    0.154854
   3 H :    0.157092
   4 H :   -0.317881
   5 S :    1.377193
   6 C :   -0.105555
   7 N :    0.393127
   8 C :    1.611518
   9 H :   -0.528270
  10 H :   -1.322617
  11 H :   -0.178109
  12 H :   -0.220989
  13 O :   -0.826649
  14 O :   -0.624781
  15 C :    0.649719
  16 C :    0.211120
  17 C :    0.502610
  18 H :   -0.000676
  19 H :   -0.420097
  20 H :   -0.013240
  21 H :   -0.117640
  22 C :    0.082403
  23 H :   -0.193872
  24 H :   -0.825835
  25 C :    0.794711
  26 H :    0.080873
  27 H :   -0.427273
  28 C :    0.298129
  29 H :   -0.044673
  30 H :   -0.132200
  31 H :   -0.032217
  32 H :   -0.559659
  33 H :   -0.410214
  34 H :    0.023906
  35 F :   -0.483108
  36 H :   -0.226674
  37 H :   -0.050020
Sum of atomic charges:    0.0000000

LOEWDIN ATOMIC CHARGES
----------------------
   0 C :    0.003154
   1 C :   -0.041240
   2 C :   -0.047439
   3 H :    0.037230
   4 H :    0.037923
   5 S :    1.132396
   6 C :   -0.251952
   7 N :    0.184092
   8 C :    0.177017
   9 H :   -0.161714
  10 H :   -0.095653
  11 H :   -0.022622
  12 H :   -0.003338
  13 O :   -0.445739
  14 O :   -0.432804
  15 C :   -0.028893
  16 C :   -0.041655
  17 C :   -0.041360
  18 H :    0.015099
  19 H :    0.035457
  20 H :    0.041560
  21 H :    0.030607
  22 C :   -0.042544
  23 H :    0.033005
  24 H :   -0.000595
  25 C :   -0.043467
  26 H :    0.018212
  27 H :    0.027467
  28 C :   -0.041645
  29 H :    0.026491
  30 H :    0.025403
  31 H :    0.043830
  32 H :   -0.010100
  33 H :    0.028524
  34 H :    0.025646
  35 F :   -0.222803
  36 H :    0.036097
  37 H :    0.016354

  Mayer bond orders larger than 0.100000
B(  0-C ,  6-C ) :   0.9996 B(  0-C ,  8-C ) :   0.2014 B(  0-C ,  9-H ) :  -0.1928
B(  0-C , 15-C ) :   1.1716 B(  0-C , 24-H ) :   0.1277 B(  0-C , 36-H ) :   0.4461
B(  0-C , 37-H ) :   0.5956 B(  1-C ,  2-C ) :   1.2175 B(  1-C ,  4-H ) :   0.1726
B(  1-C , 16-C ) :   0.1211 B(  1-C , 17-C ) :   1.1696 B(  1-C , 20-H ) :   0.6589
B(  1-C , 21-H ) :   0.5687 B(  2-C ,  3-H ) :   0.8286 B(  2-C ,  4-H ) :   0.7664
B(  2-C ,  5-S ) :   0.9763 B(  2-C , 20-H ) :   0.2123 B(  2-C , 21-H ) :   0.1156
B(  2-C , 35-F ) :   0.1099 B(  3-H , 17-C ) :  -0.1137 B(  4-H ,  5-S ) :   0.1330
B(  5-S , 13-O ) :   1.3641 B(  5-S , 14-O ) :   1.5435 B(  5-S , 35-F ) :   0.6565
B(  6-C ,  7-N ) :   0.9477 B(  6-C ,  8-C ) :   2.1098 B(  6-C ,  9-H ) :  -0.2962
B(  6-C , 10-H ) :   0.2523 B(  6-C , 12-H ) :  -0.1374 B(  6-C , 36-H ) :   0.3197
B(  6-C , 37-H ) :   0.1505 B(  7-N ,  8-C ) :   0.5024 B(  7-N ,  9-H ) :   0.1505
B(  7-N , 10-H ) :  -0.1276 B(  7-N , 11-H ) :   1.1157 B(  7-N , 12-H ) :   1.2749
B(  8-C ,  9-H ) :   0.1226 B(  8-C , 10-H ) :  -0.7987 B(  8-C , 14-O ) :  -0.2415
B(  8-C , 24-H ) :   0.1943 B(  9-H , 10-H ) :  -0.3064 B(  9-H , 13-O ) :   0.1091
B(  9-H , 15-C ) :   0.1005 B(  9-H , 24-H ) :   0.1600 B( 10-H , 14-O ) :   0.4008
B( 10-H , 24-H ) :  -0.1885 B( 11-H , 12-H ) :  -0.1696 B( 13-O , 14-O ) :   0.1731
B( 13-O , 24-H ) :   0.2024 B( 15-C , 22-C ) :   1.1516 B( 15-C , 23-H ) :   0.6650
B( 15-C , 24-H ) :   0.3586 B( 15-C , 26-H ) :   0.1545 B( 15-C , 27-H ) :   0.2029
B( 15-C , 36-H ) :   0.3659 B( 15-C , 37-H ) :   0.2086 B( 16-C , 17-C ) :   1.1793
B( 16-C , 18-H ) :   0.1536 B( 16-C , 19-H ) :   0.1766 B( 16-C , 28-C ) :   1.2092
B( 16-C , 31-H ) :   0.7068 B( 16-C , 32-H ) :   0.8504 B( 16-C , 33-H ) :   0.2352
B( 16-C , 34-H ) :   0.1607 B( 17-C , 18-H ) :   0.7976 B( 17-C , 19-H ) :   0.7545
B( 17-C , 21-H ) :   0.3027 B( 17-C , 28-C ) :   0.1968 B( 17-C , 31-H ) :   0.1026
B( 20-H , 21-H ) :  -0.1430 B( 22-C , 23-H ) :   0.1644 B( 22-C , 24-H ) :   0.2542
B( 22-C , 25-C ) :   1.0641 B( 22-C , 26-H ) :   0.8296 B( 22-C , 27-H ) :   0.9975
B( 22-C , 28-C ) :   0.2006 B( 22-C , 29-H ) :   0.1646 B( 22-C , 30-H ) :   0.3027
B( 22-C , 34-H ) :  -0.1032 B( 23-H , 27-H ) :   0.1048 B( 24-H , 34-H ) :   0.1141
B( 25-C , 28-C ) :   1.0937 B( 25-C , 29-H ) :   0.5853 B( 25-C , 30-H ) :   0.6131
B( 26-H , 27-H ) :  -0.1016 B( 26-H , 32-H ) :   0.1994 B( 28-C , 29-H ) :   0.2714
B( 28-C , 30-H ) :   0.1099 B( 28-C , 31-H ) :   0.1258 B( 28-C , 33-H ) :   0.8805
B( 28-C , 34-H ) :   0.7804 B( 29-H , 30-H ) :  -0.1417 B( 31-H , 32-H ) :   0.1191
B( 36-H , 37-H ) :  -0.1565

FINAL SINGLE POINT ENERGY     -1132.877322964196

DIPOLE MOMENT
-------------
                                X             Y             Z
Electronic contribution:     -8.83767     -21.51731     -13.97236
Nuclear contribution   :      8.67311      20.60825      15.35056
                        -----------------------------------------
Total Dipole Moment    :     -0.16456      -0.90907       1.37820
                        -----------------------------------------
Magnitude (a.u.)       :      1.65919
Magnitude (Debye)      :      4.21733

Rotational constants in cm-1:     0.017976     0.012151     0.008188
Rotational constants in MHz :   538.898457   364.286417   245.482451

                             ****ORCA TERMINATED NORMALLY****
TOTAL RUN TIME: 0 days 0 hours 5 minutes 0 seconds 100 msec
