                         Program Version 5.0.0 -  RELEASE  -
|  1> !BLYP D3BJ RIJCOSX def2-SVPD def2/J TightSCF xyzfile
|  2>
|  3> *xyzfile 0 1 B.xyz
|  4>
|  5> %MaxCore 64000
|  6>
|  7> %pal nprocs 4
|  8> end
|  9>
| 10> %scf
| 11>   MaxIter 150
| 12> end
| 13>
| 14>
| 15>                          ****END OF INPUT****

CARTESIAN COORDINATES (ANGSTROEM)
---------------------------------
  C      3.913853   -1.658291    3.015134
  N      5.039266   -0.901154    2.492821
  C      4.084215    1.742081   -2.114724
  C      4.265245    2.500518   -0.795890
  H      4.868534    3.392674   -0.981134
  H      3.307640    2.824571   -0.387809
  C      4.982240    1.650257    0.247422
  C      6.210384   -1.417261    2.178244
  N      6.535913   -2.677122    2.556078
  N      7.076754   -0.700820    1.478906
  H      7.954643   -1.121554    1.207554
  H      6.756161    0.106637    0.960278
  H      4.842168    0.017609    2.115191
  H      5.993876   -3.126918    3.282784
  H      7.498441   -2.975482    2.468776
  O      4.368065    1.389270    1.313706
  O      6.128919    1.233512   -0.045620
  C      3.139159   -2.376572    1.910609
  H      3.267235   -0.939401    3.520693
  H      4.247195   -2.355095    3.790065
  C      1.997274    0.430918   -1.399218
  C      3.412746    0.376886   -1.965497
  H      4.047407   -0.246590   -1.326706
  H      3.390774   -0.118719   -2.942839
  H      5.068475    1.598504   -2.565728
  H      3.503356    2.363939   -2.804565
  C      2.399946   -1.389579    1.009490
  H      2.440750   -3.087118    2.362976
  H      3.844475   -2.970462    1.318677
  C      2.070177   -1.936705   -0.372401
  H      1.481611   -1.061542    1.509912
  H      3.008628   -0.490001    0.897451
  C      1.322238   -0.935775   -1.256413
  H      1.472747   -2.850902   -0.283997
  H      3.003539   -2.234041   -0.862535
  H      1.376444    1.058920   -2.047420
  H      2.015341    0.929780   -0.426535
  H      0.316648   -0.787213   -0.848278
  H      1.185611   -1.379252   -2.248613

 Total Charge           Charge          ....    0
 Multiplicity           Mult            ....    1
 Number of Electrons    NEL             ....  126
 Basis Dimension        Dim             ....  510

ORBITAL ENERGIES
----------------

  NO   OCC          E(Eh)            E(eV)
   0   2.0000     -18.714700      -509.2529
   1   2.0000     -18.713730      -509.2265
   2   2.0000     -14.088728      -383.3738
   3   2.0000     -14.052707      -382.3936
   4   2.0000     -14.048547      -382.2804
   5   2.0000     -10.071267      -274.0531
   6   2.0000      -9.978098      -271.5178
   7   2.0000      -9.977927      -271.5132
   8   2.0000      -9.929327      -270.1907
   9   2.0000      -9.907461      -269.5957
  10   2.0000      -9.907094      -269.5857
  11   2.0000      -9.903127      -269.4778
  12   2.0000      -9.894304      -269.2377
  13   2.0000      -9.892816      -269.1972
  14   2.0000      -9.891635      -269.1651
  15   2.0000      -9.882704      -268.9220
  16   2.0000      -0.941062       -25.6076
  17   2.0000      -0.905203       -24.6318
  18   2.0000      -0.841615       -22.9015
  19   2.0000      -0.827372       -22.5139
  20   2.0000      -0.814231       -22.1564
  21   2.0000      -0.724571       -19.7166
  22   2.0000      -0.701473       -19.0881
  23   2.0000      -0.674567       -18.3559
  24   2.0000      -0.639046       -17.3893
  25   2.0000      -0.604202       -16.4412
  26   2.0000      -0.592211       -16.1149
  27   2.0000      -0.561978       -15.2922
  28   2.0000      -0.554416       -15.0864
  29   2.0000      -0.536640       -14.6027
  30   2.0000      -0.512990       -13.9592
  31   2.0000      -0.504044       -13.7157
  32   2.0000      -0.473889       -12.8952
  33   2.0000      -0.471252       -12.8234
  34   2.0000      -0.462219       -12.5776
  35   2.0000      -0.444480       -12.0949
  36   2.0000      -0.417167       -11.3517
  37   2.0000      -0.408295       -11.1103
  38   2.0000      -0.405795       -11.0422
  39   2.0000      -0.399862       -10.8808
  40   2.0000      -0.387635       -10.5481
  41   2.0000      -0.371528       -10.1098
  42   2.0000      -0.367209        -9.9923
  43   2.0000      -0.365018        -9.9326
  44   2.0000      -0.358399        -9.7525
  45   2.0000      -0.344700        -9.3798
  46   2.0000      -0.332445        -9.0463
  47   2.0000      -0.323261        -8.7964
  48   2.0000      -0.318786        -8.6746
  49   2.0000      -0.309056        -8.4098
  50   2.0000      -0.302608        -8.2344
  51   2.0000      -0.295285        -8.0351
  52   2.0000      -0.283553        -7.7159
  53   2.0000      -0.276569        -7.5258
  54   2.0000      -0.270155        -7.3513
  55   2.0000      -0.265590        -7.2271
  56   2.0000      -0.257809        -7.0153
  57   2.0000      -0.253740        -6.9046
  58   2.0000      -0.246903        -6.7186
  59   2.0000      -0.235602        -6.4111
  60   2.0000      -0.193263        -5.2590
  61   2.0000      -0.179035        -4.8718
  62   2.0000      -0.168812        -4.5936
  63   0.0000      -0.037981        -1.0335
  64   0.0000      -0.030424        -0.8279
  65   0.0000      -0.007962        -0.2167
  66   0.0000       0.013157         0.3580
  67   0.0000       0.021459         0.5839

MULLIKEN ATOMIC CHARGES
-----------------------
   0 C :    1.570173
   1 N :    0.371380
   2 C :    0.705896
   3 C :    0.646430
   4 H :   -0.299570
   5 H :   -0.002168
   6 C :    0.046730
   7 C :    0.809152
   8 N :    0.364119
   9 N :    0.750086
  10 H :   -0.178174
  11 H :   -0.525495
  12 H :   -1.067457
  13 H :   -0.119696
  14 H :   -0.274031
  15 O :   -0.611599
  16 O :   -0.508846
  17 C :    0.626722
  18 H :   -0.477821
  19 H :   -0.449158
  20 C :    0.169859
  21 C :    0.148253
  22 H :   -0.155143
  23 H :   -0.318736
  24 H :   -0.134707
  25 H :   -0.298507
  26 C :    1.039711
  27 H :   -0.273440
  28 H :   -0.163741
  29 C :    0.310202
  30 H :   -0.146925
  31 H :   -1.195131
  32 C :    1.017385
  33 H :   -0.607595
  34 H :    0.025915
  35 H :   -0.586102
  36 H :    0.087058
  37 H :   -0.129395
  38 H :   -0.165633
Sum of atomic charges:    0.0000000

LOEWDIN ATOMIC CHARGES
----------------------
   0 C :    0.077518
   1 N :    0.096454
   2 C :   -0.014742
   3 C :    0.041420
   4 H :    0.022171
   5 H :    0.008055
   6 C :   -0.212493
   7 C :   -0.061779
   8 N :    0.265978
   9 N :    0.302632
  10 H :    0.015122
  11 H :   -0.117690
  12 H :   -0.086929
  13 H :   -0.015260
  14 H :    0.004915
  15 O :   -0.216777
  16 O :   -0.205246
  17 C :   -0.005555
  18 H :    0.035044
  19 H :    0.000313
  20 C :   -0.022209
  21 C :   -0.022083
  22 H :    0.006679
  23 H :    0.020168
  24 H :    0.016108
  25 H :    0.013478
  26 C :   -0.017826
  27 H :    0.020522
  28 H :    0.012255
  29 C :   -0.031030
  30 H :    0.034838
  31 H :   -0.024321
  32 C :   -0.022711
  33 H :    0.015739
  34 H :    0.012380
  35 H :    0.019274
  36 H :    0.005555
  37 H :    0.015489
  38 H :    0.014544

  Mayer bond orders larger than 0.100000
B(  0-C ,  1-N ) :   0.9483 B(  0-C , 12-H ) :  -0.5187 B(  0-C , 17-C ) :   1.0052
B(  0-C , 18-H ) :   0.3918 B(  0-C , 19-H ) :   0.5895 B(  0-C , 26-C ) :   0.2145
B(  1-N ,  7-C ) :   1.2146 B(  1-N ,  8-N ) :   0.2345 B(  1-N , 12-H ) :   0.9893
B(  1-N , 18-H ) :   0.2910 B(  1-N , 19-H ) :   0.1301 B(  2-C ,  3-C ) :   1.1346
B(  2-C ,  4-H ) :   0.2130 B(  2-C ,  5-H ) :   0.1228 B(  2-C ,  6-C ) :   0.1530
B(  2-C , 21-C ) :   1.1908 B(  2-C , 22-H ) :   0.1512 B(  2-C , 23-H ) :   0.1017
B(  2-C , 24-H ) :   0.5085 B(  2-C , 25-H ) :   0.6609 B(  3-C ,  4-H ) :   0.4855
B(  3-C ,  5-H ) :   0.6556 B(  3-C ,  6-C ) :   1.0757 B(  3-C , 16-O ) :   0.1129
B(  3-C , 21-C ) :   0.2002 B(  3-C , 24-H ) :   0.1466 B(  3-C , 25-H ) :   0.2031
B(  4-H ,  6-C ) :   0.3181 B(  5-H ,  6-C ) :   0.3307 B(  6-C , 15-O ) :   1.5537
B(  6-C , 16-O ) :   1.4521 B(  7-C ,  8-N ) :   0.9441 B(  7-C ,  9-N ) :   1.0365
B(  7-C , 11-H ) :  -0.2831 B(  7-C , 12-H ) :  -0.7077 B(  7-C , 13-H ) :  -0.1137
B(  8-N ,  9-N ) :   0.1489 B(  8-N , 13-H ) :   1.0740 B(  8-N , 14-H ) :   1.1992
B(  8-N , 19-H ) :   0.1030 B(  9-N , 10-H ) :   1.1173 B(  9-N , 11-H ) :   1.0608
B( 10-H , 11-H ) :  -0.2663 B( 11-H , 16-O ) :   0.1431 B( 12-H , 15-O ) :   0.2610
B( 12-H , 18-H ) :   0.1961 B( 13-H , 14-H ) :  -0.2190 B( 15-O , 31-H ) :   0.1135
B( 17-C , 19-H ) :   0.2434 B( 17-C , 26-C ) :   1.0913 B( 17-C , 27-H ) :   0.7536
B( 17-C , 28-H ) :   0.7912 B( 17-C , 29-C ) :   0.1440 B( 17-C , 30-H ) :   0.1810
B( 18-H , 19-H ) :  -0.3141 B( 20-C , 21-C ) :   1.2233 B( 20-C , 22-H ) :   0.1565
B( 20-C , 23-H ) :   0.1755 B( 20-C , 29-C ) :   0.2101 B( 20-C , 32-C ) :   1.0895
B( 20-C , 35-H ) :   0.8115 B( 20-C , 36-H ) :   0.7801 B( 20-C , 37-H ) :   0.3789
B( 20-C , 38-H ) :   0.1713 B( 21-C , 22-H ) :   0.8394 B( 21-C , 23-H ) :   0.7233
B( 21-C , 24-H ) :   0.3314 B( 21-C , 25-H ) :   0.2171 B( 21-C , 35-H ) :   0.1327
B( 21-C , 36-H ) :   0.1504 B( 22-H , 33-H ) :  -0.1044 B( 22-H , 34-H ) :   0.1058
B( 24-H , 25-H ) :  -0.1890 B( 26-C , 27-H ) :   0.1962 B( 26-C , 28-H ) :   0.1341
B( 26-C , 29-C ) :   1.2147 B( 26-C , 30-H ) :   0.4626 B( 26-C , 31-H ) :  -0.5001
B( 26-C , 32-C ) :   0.1224 B( 26-C , 34-H ) :   0.2219 B( 27-H , 31-H ) :   0.1517
B( 28-H , 33-H ) :  -0.1230 B( 29-C , 30-H ) :   0.1150 B( 29-C , 31-H ) :   0.2067
B( 29-C , 32-C ) :   1.0597 B( 29-C , 33-H ) :   0.8241 B( 29-C , 34-H ) :   0.7455
B( 29-C , 37-H ) :   0.1357 B( 29-C , 38-H ) :   0.3158 B( 30-H , 31-H ) :   0.2856
B( 31-H , 33-H ) :   0.1006 B( 31-H , 36-H ) :   0.1266 B( 32-C , 37-H ) :   0.4950
B( 32-C , 38-H ) :   0.5296 B( 33-H , 34-H ) :  -0.1361 B( 37-H , 38-H ) :  -0.1745

Dispersion correction           -0.088675652
FINAL SINGLE POINT ENERGY      -747.040547531283

DIPOLE MOMENT
-------------
                                X             Y             Z
Electronic contribution:     12.27149       3.36443       7.67054
Nuclear contribution   :    -11.44764      -6.21818      -6.18483
                        -----------------------------------------
Total Dipole Moment    :      0.82385      -2.85375       1.48571
                        -----------------------------------------
Magnitude (a.u.)       :      3.32114
Magnitude (Debye)      :      8.44166

Rotational constants in cm-1:     0.020281     0.013510     0.009451
Rotational constants in MHz :   608.005987   405.034308   283.324538

                             ****ORCA TERMINATED NORMALLY****
TOTAL RUN TIME: 0 days 0 hours 1 minutes 5 seconds 398 msec
