                         Program Version 5.0.0 -  RELEASE  -
|  1> !BLYP D3BJ RIJCOSX def2-SVPD def2/J TightSCF xyzfile
|  2>
|  3> *xyzfile 0 1 D5.xyz
|  4>
|  5> %MaxCore 64000
|  6>
|  7> %pal nprocs 4
|  8> end
|  9>
| 10> %scf
| 11>   MaxIter 150
| 12> end
| 13>
| 14>
| 15>                          ****END OF INPUT****

CARTESIAN COORDINATES (ANGSTROEM)
---------------------------------
  C      3.913853   -1.658291    3.015134
  N      5.039266   -0.901154    2.492821
  C      4.084215    1.742081   -2.114724
  C      4.265245    2.500518   -0.795890
  H      4.868534    3.392674   -0.981134
  H      3.307640    2.824571   -0.387809
  C      4.982240    1.650257    0.247422
  C      6.210384   -1.417261    2.178244
  C      6.535913   -2.677122    2.556078
  N      7.076754   -0.700820    1.478906
  H      7.954643   -1.121554    1.207554
  H      6.756161    0.106637    0.960278
  H      4.842168    0.017609    2.115191
  H      5.993876   -3.126918    3.282784
  H      7.498441   -2.975482    2.468776
  O      4.368065    1.389270    1.313706
  F      6.128919    1.233512   -0.045620
  C      3.139159   -2.376572    1.910609
  H      3.267235   -0.939401    3.520693
  H      4.247195   -2.355095    3.790065
  C      1.997274    0.430918   -1.399218
  C      3.412746    0.376886   -1.965497
  H      4.047407   -0.246590   -1.326706
  H      3.390774   -0.118719   -2.942839
  H      5.068475    1.598504   -2.565728
  H      3.503356    2.363939   -2.804565
  C      2.399946   -1.389579    1.009490
  H      2.440750   -3.087118    2.362976
  H      3.844475   -2.970462    1.318677
  C      2.070177   -1.936705   -0.372401
  H      1.481611   -1.061542    1.509912
  H      3.008628   -0.490001    0.897451
  C      1.322238   -0.935775   -1.256413
  H      1.472747   -2.850902   -0.283997
  H      3.003539   -2.234041   -0.862535
  H      1.376444    1.058920   -2.047420
  H      2.015341    0.929780   -0.426535
  H      0.316648   -0.787213   -0.848278
  H      1.185611   -1.379252   -2.248613

 Total Charge           Charge          ....    0
 Multiplicity           Mult            ....    1
 Number of Electrons    NEL             ....  126
 Basis Dimension        Dim             ....  510

ORBITAL ENERGIES
----------------

  NO   OCC          E(Eh)            E(eV)
   0   2.0000     -24.411524      -664.2713
   1   2.0000     -18.828168      -512.3405
   2   2.0000     -14.004102      -381.0710
   3   2.0000     -13.993377      -380.7791
   4   2.0000     -10.119425      -275.3636
   5   2.0000      -9.965806      -271.1834
   6   2.0000      -9.949317      -270.7347
   7   2.0000      -9.946710      -270.6637
   8   2.0000      -9.934168      -270.3225
   9   2.0000      -9.933329      -270.2996
  10   2.0000      -9.923475      -270.0315
  11   2.0000      -9.917605      -269.8718
  12   2.0000      -9.910873      -269.6886
  13   2.0000      -9.904371      -269.5116
  14   2.0000      -9.900839      -269.4155
  15   2.0000      -9.823823      -267.3198
  16   2.0000      -1.235783       -33.6274
  17   2.0000      -0.964977       -26.2584
  18   2.0000      -0.854359       -23.2483
  19   2.0000      -0.778747       -21.1908
  20   2.0000      -0.754035       -20.5183
  21   2.0000      -0.721228       -19.6256
  22   2.0000      -0.688180       -18.7263
  23   2.0000      -0.661398       -17.9976
  24   2.0000      -0.630691       -17.1620
  25   2.0000      -0.617611       -16.8061
  26   2.0000      -0.605767       -16.4838
  27   2.0000      -0.577246       -15.7077
  28   2.0000      -0.548409       -14.9230
  29   2.0000      -0.526742       -14.3334
  30   2.0000      -0.522020       -14.2049
  31   2.0000      -0.519944       -14.1484
  32   2.0000      -0.490613       -13.3502
  33   2.0000      -0.487602       -13.2683
  34   2.0000      -0.476397       -12.9634
  35   2.0000      -0.448526       -12.2050
  36   2.0000      -0.445785       -12.1304
  37   2.0000      -0.434156       -11.8140
  38   2.0000      -0.430806       -11.7228
  39   2.0000      -0.413274       -11.2457
  40   2.0000      -0.396554       -10.7908
  41   2.0000      -0.393225       -10.7002
  42   2.0000      -0.379691       -10.3319
  43   2.0000      -0.371851       -10.1186
  44   2.0000      -0.365688        -9.9509
  45   2.0000      -0.363243        -9.8843
  46   2.0000      -0.352217        -9.5843
  47   2.0000      -0.343683        -9.3521
  48   2.0000      -0.339040        -9.2257
  49   2.0000      -0.330215        -8.9856
  50   2.0000      -0.321506        -8.7486
  51   2.0000      -0.315612        -8.5882
  52   2.0000      -0.310895        -8.4599
  53   2.0000      -0.305504        -8.3132
  54   2.0000      -0.297817        -8.1040
  55   2.0000      -0.294008        -8.0004
  56   2.0000      -0.282887        -7.6977
  57   2.0000      -0.273472        -7.4415
  58   2.0000      -0.270805        -7.3690
  59   2.0000      -0.267135        -7.2691
  60   2.0000      -0.258030        -7.0213
  61   2.0000      -0.187787        -5.1099
  62   2.0000      -0.116207        -3.1622
  63   0.0000      -0.093616        -2.5474
  64   0.0000      -0.015948        -0.4340
  65   0.0000       0.006719         0.1828
  66   0.0000       0.008174         0.2224
  67   0.0000       0.013986         0.3806

MULLIKEN ATOMIC CHARGES
-----------------------
   0 C :    1.512935
   1 N :    0.595127
   2 C :    0.718075
   3 C :    0.606775
   4 H :   -0.281074
   5 H :   -0.005941
   6 C :    0.456653
   7 C :    0.414535
   8 C :    0.837925
   9 N :    0.884038
  10 H :   -0.169937
  11 H :   -0.665871
  12 H :   -1.326435
  13 H :   -0.181378
  14 H :   -0.827592
  15 O :   -0.524718
  16 F :   -0.396531
  17 C :    0.639524
  18 H :   -0.549569
  19 H :   -0.317001
  20 C :    0.170894
  21 C :    0.187622
  22 H :   -0.170490
  23 H :   -0.312596
  24 H :   -0.164807
  25 H :   -0.270956
  26 C :    1.034038
  27 H :   -0.298038
  28 H :   -0.171106
  29 C :    0.330508
  30 H :   -0.163062
  31 H :   -1.208866
  32 C :    1.027183
  33 H :   -0.614066
  34 H :    0.016907
  35 H :   -0.590737
  36 H :    0.067961
  37 H :   -0.124117
  38 H :   -0.165812
Sum of atomic charges:    0.0000000

LOEWDIN ATOMIC CHARGES
----------------------
   0 C :    0.070393
   1 N :    0.036694
   2 C :   -0.009574
   3 C :    0.069930
   4 H :    0.033528
   5 H :    0.028551
   6 C :    0.010329
   7 C :   -0.226655
   8 C :    0.173848
   9 N :    0.233554
  10 H :    0.003818
  11 H :   -0.098892
  12 H :   -0.102266
  13 H :   -0.127478
  14 H :   -0.116130
  15 O :   -0.092691
  16 F :   -0.001926
  17 C :   -0.002557
  18 H :    0.020460
  19 H :    0.005248
  20 C :   -0.022283
  21 C :   -0.018851
  22 H :    0.009518
  23 H :    0.028811
  24 H :    0.019956
  25 H :    0.025375
  26 C :   -0.026144
  27 H :    0.018011
  28 H :    0.012863
  29 C :   -0.028633
  30 H :    0.030691
  31 H :   -0.031430
  32 C :   -0.020268
  33 H :    0.020584
  34 H :    0.013998
  35 H :    0.021059
  36 H :    0.003971
  37 H :    0.018574
  38 H :    0.016014

  Mayer bond orders larger than 0.100000
B(  0-C ,  1-N ) :   0.9888 B(  0-C ,  8-C ) :   0.1117 B(  0-C , 12-H ) :  -0.5675
B(  0-C , 17-C ) :   0.9862 B(  0-C , 18-H ) :   0.4466 B(  0-C , 19-H ) :   0.5797
B(  0-C , 26-C ) :   0.2106 B(  1-N ,  7-C ) :   0.9212 B(  1-N ,  8-C ) :   0.4894
B(  1-N , 12-H ) :   0.4749 B(  1-N , 18-H ) :   0.2634 B(  2-C ,  3-C ) :   1.1295
B(  2-C ,  4-H ) :   0.2196 B(  2-C ,  5-H ) :   0.1075 B(  2-C ,  6-C ) :   0.1613
B(  2-C , 21-C ) :   1.1802 B(  2-C , 22-H ) :   0.1388 B(  2-C , 24-H ) :   0.5170
B(  2-C , 25-H ) :   0.6809 B(  3-C ,  4-H ) :   0.4950 B(  3-C ,  5-H ) :   0.6890
B(  3-C ,  6-C ) :   1.1561 B(  3-C , 21-C ) :   0.1754 B(  3-C , 24-H ) :   0.1312
B(  3-C , 25-H ) :   0.2017 B(  4-H ,  6-C ) :   0.3091 B(  5-H ,  6-C ) :   0.2575
B(  6-C , 15-O ) :   1.7662 B(  6-C , 16-F ) :   0.6080 B(  7-C ,  8-C ) :   1.3726
B(  7-C ,  9-N ) :   0.9770 B(  7-C , 11-H ) :  -0.1131 B(  7-C , 12-H ) :  -0.6093
B(  7-C , 13-H ) :   0.4286 B(  7-C , 14-H ) :   0.4576 B(  8-C ,  9-N ) :   0.2818
B(  8-C , 12-H ) :  -0.1285 B(  8-C , 13-H ) :   0.4816 B(  8-C , 14-H ) :   0.3160
B(  9-N , 10-H ) :   1.1125 B(  9-N , 11-H ) :   0.8426 B(  9-N , 12-H ) :  -0.1202
B( 10-H , 11-H ) :  -0.2522 B( 11-H , 12-H ) :   0.1342 B( 11-H , 16-F ) :   0.1557
B( 12-H , 15-O ) :   0.2608 B( 12-H , 18-H ) :   0.1686 B( 13-H , 18-H ) :  -0.1244
B( 13-H , 19-H ) :   0.1620 B( 15-O , 16-F ) :   0.1377 B( 15-O , 31-H ) :   0.1009
B( 17-C , 19-H ) :   0.2096 B( 17-C , 26-C ) :   1.1062 B( 17-C , 27-H ) :   0.7666
B( 17-C , 28-H ) :   0.8148 B( 17-C , 29-C ) :   0.1367 B( 17-C , 30-H ) :   0.1755
B( 18-H , 19-H ) :  -0.3668 B( 20-C , 21-C ) :   1.2296 B( 20-C , 22-H ) :   0.1612
B( 20-C , 23-H ) :   0.1767 B( 20-C , 29-C ) :   0.2136 B( 20-C , 32-C ) :   1.0930
B( 20-C , 35-H ) :   0.8068 B( 20-C , 36-H ) :   0.7789 B( 20-C , 37-H ) :   0.3806
B( 20-C , 38-H ) :   0.1714 B( 21-C , 22-H ) :   0.8204 B( 21-C , 23-H ) :   0.7383
B( 21-C , 24-H ) :   0.3324 B( 21-C , 25-H ) :   0.2001 B( 21-C , 35-H ) :   0.1338
B( 21-C , 36-H ) :   0.1537 B( 22-H , 33-H ) :  -0.1041 B( 22-H , 34-H ) :   0.1089
B( 24-H , 25-H ) :  -0.1862 B( 26-C , 27-H ) :   0.2203 B( 26-C , 28-H ) :   0.1279
B( 26-C , 29-C ) :   1.2176 B( 26-C , 30-H ) :   0.4297 B( 26-C , 31-H ) :  -0.4728
B( 26-C , 32-C ) :   0.1251 B( 26-C , 34-H ) :   0.2101 B( 27-H , 31-H ) :   0.1310
B( 28-H , 33-H ) :  -0.1230 B( 29-C , 30-H ) :   0.1145 B( 29-C , 31-H ) :   0.1975
B( 29-C , 32-C ) :   1.0559 B( 29-C , 33-H ) :   0.8246 B( 29-C , 34-H ) :   0.7547
B( 29-C , 37-H ) :   0.1374 B( 29-C , 38-H ) :   0.3172 B( 30-H , 31-H ) :   0.3324
B( 31-H , 33-H ) :   0.1112 B( 31-H , 36-H ) :   0.1236 B( 32-C , 37-H ) :   0.4952
B( 32-C , 38-H ) :   0.5248 B( 33-H , 34-H ) :  -0.1500 B( 37-H , 38-H ) :  -0.1772

Dispersion correction           -0.088271157
FINAL SINGLE POINT ENERGY      -754.887543076367

DIPOLE MOMENT
-------------
                                X             Y             Z
Electronic contribution:     12.87899      10.11487       3.44074
Nuclear contribution   :    -13.35170      -8.48261      -5.12969
                        -----------------------------------------
Total Dipole Moment    :     -0.47271       1.63226      -1.68895
                        -----------------------------------------
Magnitude (a.u.)       :      2.39588
Magnitude (Debye)      :      6.08985

Rotational constants in cm-1:     0.019886     0.013843     0.009504
Rotational constants in MHz :   596.157485   415.004628   284.931121

                             ****ORCA TERMINATED NORMALLY****
TOTAL RUN TIME: 0 days 0 hours 1 minutes 9 seconds 162 msec
