                         Program Version 5.0.0 -  RELEASE  -
|  1> !BLYP D3BJ RIJCOSX def2-SVPD def2/J TightSCF
|  2> *xyz -1 1
|  3> C          1.44442        5.26658       -0.97546
|  4> O          1.56525        4.23349       -1.86489
|  5> C          0.14812        5.21087       -0.13809
|  6> H          1.47425        6.26464       -1.47692
|  7> H          2.28962        5.30327       -0.26445
|  8> H         -0.69779        5.17417       -0.79230
|  9> H          0.08430        6.08276        0.47887
| 10> H          0.15965        4.33708        0.47938
| 11> *
| 12> %MaxCore 64000
| 13>
| 14> %pal nprocs 4
| 15> end
| 16>
| 17> %scf
| 18>   MaxIter 150
| 19> end
| 20>
| 21>
| 22>                          ****END OF INPUT****

CARTESIAN COORDINATES (ANGSTROEM)
---------------------------------
  C      1.444420    5.266580   -0.975460
  O      1.565250    4.233490   -1.864890
  C      0.148120    5.210870   -0.138090
  H      1.474250    6.264640   -1.476920
  H      2.289620    5.303270   -0.264450
  H     -0.697790    5.174170   -0.792300
  H      0.084300    6.082760    0.478870
  H      0.159650    4.337080    0.479380

 Total Charge           Charge          ....   -1
 Multiplicity           Mult            ....    1
 Number of Electrons    NEL             ....   26
 Basis Dimension        Dim             ....  103

ORBITAL ENERGIES
----------------

  NO   OCC          E(Eh)            E(eV)
   0   2.0000     -18.471018      -502.6219
   1   2.0000      -9.740262      -265.0460
   2   2.0000      -9.717182      -264.4180
   3   2.0000      -0.587521       -15.9873
   4   2.0000      -0.446100       -12.1390
   5   2.0000      -0.305466        -8.3122
   6   2.0000      -0.199156        -5.4193
   7   2.0000      -0.178678        -4.8621
   8   2.0000      -0.129346        -3.5197
   9   2.0000      -0.112678        -3.0661
  10   2.0000      -0.069903        -1.9021
  11   2.0000       0.066850         1.8191
  12   2.0000       0.071145         1.9360
  13   0.0000       0.162543         4.4230
  14   0.0000       0.191896         5.2218
  15   0.0000       0.222853         6.0642
  16   0.0000       0.235391         6.4053
  17   0.0000       0.254775         6.9328

MULLIKEN ATOMIC CHARGES
-----------------------
   0 C :    0.316075
   1 O :   -0.808641
   2 C :    0.600712
   3 H :   -0.259719
   4 H :   -0.296764
   5 H :   -0.200224
   6 H :   -0.159311
   7 H :   -0.192129
Sum of atomic charges:   -1.0000000

LOEWDIN ATOMIC CHARGES
----------------------
   0 C :   -0.261624
   1 O :   -0.542415
   2 C :    0.076030
   3 H :   -0.043975
   4 H :   -0.048222
   5 H :   -0.052355
   6 H :   -0.073792
   7 H :   -0.053647

  Mayer bond orders larger than 0.100000
B(  0-C ,  1-O ) :   1.1628 B(  0-C ,  2-C ) :   1.1508 B(  0-C ,  3-H ) :   0.9255
B(  0-C ,  4-H ) :   0.9238 B(  0-C ,  5-H ) :   0.2323 B(  0-C ,  6-H ) :   0.1750
B(  0-C ,  7-H ) :   0.2199 B(  1-O ,  2-C ) :   0.3010 B(  2-C ,  3-H ) :   0.1814
B(  2-C ,  4-H ) :   0.1859 B(  2-C ,  5-H ) :   0.8507 B(  2-C ,  6-H ) :   0.8789
B(  2-C ,  7-H ) :   0.8494 B(  3-H ,  4-H ) :   0.1207

Dispersion correction           -0.007729509
FINAL SINGLE POINT ENERGY      -154.268597963365

DIPOLE MOMENT
-------------
                                X             Y             Z
Electronic contribution:      1.24629      -1.68600      -2.14649
Nuclear contribution   :     -1.83256       2.47114       3.17273
                        -----------------------------------------
Total Dipole Moment    :     -0.58627       0.78515       1.02624
                        -----------------------------------------
Magnitude (a.u.)       :      1.41892
Magnitude (Debye)      :      3.60661

Rotational constants in cm-1:     1.286062     0.322579     0.284728
Rotational constants in MHz : 38555.180127  9670.683110  8535.939140

                             ****ORCA TERMINATED NORMALLY****
TOTAL RUN TIME: 0 days 0 hours 0 minutes 8 seconds 759 msec
