                         Program Version 5.0.0 -  RELEASE  -
|  1> !BLYP D3BJ RIJCOSX def2-SVPD def2/J TightSCF
|  2> *xyz 1 1
|  3> C         -0.70169        4.07250       -4.00392
|  4> N          0.68053        4.61482       -4.04800
|  5> H          0.69993        5.58489       -4.38827
|  6> H          1.27804        4.05598       -4.66824
|  7> H          1.08573        4.53358       -3.10652
|  8> C         -1.70347        5.09320       -3.47740
|  9> H         -0.99590        3.74039       -5.00065
| 10> H         -0.64358        3.20191       -3.35153
| 11> H         -1.73704        5.93384       -4.13853
| 12> H         -1.40338        5.41759       -2.50291
| 13> H         -2.67335        4.64479       -3.42108
| 14> *
| 15> %MaxCore 64000
| 16>
| 17> %pal nprocs 4
| 18> end
| 19>
| 20> %scf
| 21>   MaxIter 150
| 22> end
| 23>
| 24>
| 25>                          ****END OF INPUT****

CARTESIAN COORDINATES (ANGSTROEM)
---------------------------------
  C     -0.701690    4.072500   -4.003920
  N      0.680530    4.614820   -4.048000
  H      0.699930    5.584890   -4.388270
  H      1.278040    4.055980   -4.668240
  H      1.085730    4.533580   -3.106520
  C     -1.703470    5.093200   -3.477400
  H     -0.995900    3.740390   -5.000650
  H     -0.643580    3.201910   -3.351530
  H     -1.737040    5.933840   -4.138530
  H     -1.403380    5.417590   -2.502910
  H     -2.673350    4.644790   -3.421080

 Total Charge           Charge          ....    1
 Multiplicity           Mult            ....    1
 Number of Electrons    NEL             ....   26
 Basis Dimension        Dim             ....  124

ORBITAL ENERGIES
----------------

  NO   OCC          E(Eh)            E(eV)
   0   2.0000     -14.358949      -390.7269
   1   2.0000     -10.176363      -276.9129
   2   2.0000     -10.100548      -274.8499
   3   2.0000      -1.123626       -30.5754
   4   2.0000      -0.885328       -24.0910
   5   2.0000      -0.777387       -21.1538
   6   2.0000      -0.749971       -20.4077
   7   2.0000      -0.731897       -19.9159
   8   2.0000      -0.646143       -17.5824
   9   2.0000      -0.592997       -16.1363
  10   2.0000      -0.537938       -14.6380
  11   2.0000      -0.523321       -14.2403
  12   2.0000      -0.506970       -13.7954
  13   0.0000      -0.221250        -6.0205
  14   0.0000      -0.166225        -4.5232
  15   0.0000      -0.160528        -4.3682
  16   0.0000      -0.146488        -3.9861
  17   0.0000      -0.115028        -3.1301

MULLIKEN ATOMIC CHARGES
-----------------------
   0 C :    0.461749
   1 N :   -0.661683
   2 H :    0.360437
   3 H :    0.309726
   4 H :    0.376195
   5 C :    1.019788
   6 H :   -0.218165
   7 H :   -0.217646
   8 H :   -0.149582
   9 H :   -0.117953
  10 H :   -0.162867
Sum of atomic charges:    1.0000000

LOEWDIN ATOMIC CHARGES
----------------------
   0 C :    0.053549
   1 N :    0.342537
   2 H :    0.103485
   3 H :    0.102758
   4 H :    0.105516
   5 C :    0.189245
   6 H :    0.049806
   7 H :    0.048655
   8 H :   -0.003662
   9 H :   -0.003640
  10 H :    0.011750

  Mayer bond orders larger than 0.100000
B(  0-C ,  1-N ) :   0.8220 B(  0-C ,  5-C ) :   1.3290 B(  0-C ,  6-H ) :   0.8471
B(  0-C ,  7-H ) :   0.8159 B(  0-C ,  8-H ) :   0.2173 B(  0-C ,  9-H ) :   0.1986
B(  0-C , 10-H ) :   0.2466 B(  1-N ,  2-H ) :   0.7268 B(  1-N ,  3-H ) :   0.7933
B(  1-N ,  4-H ) :   0.7184 B(  1-N ,  7-H ) :   0.1568 B(  5-C ,  8-H ) :   0.7515
B(  5-C ,  9-H ) :   0.7444 B(  5-C , 10-H ) :   0.7237

Dispersion correction           -0.012438099
FINAL SINGLE POINT ENERGY      -135.370372262127

DIPOLE MOMENT
-------------
                                X             Y             Z
Electronic contribution:      1.74454      -0.32862      -0.45100
Nuclear contribution   :     -0.23930       0.27560       0.19485
                        -----------------------------------------
Total Dipole Moment    :      1.50524      -0.05302      -0.25615
                        -----------------------------------------
Magnitude (a.u.)       :      1.52780
Magnitude (Debye)      :      3.88335

Rotational constants in cm-1:     1.018556     0.279088     0.248454
Rotational constants in MHz : 30535.536069  8366.847891  7448.451392

                             ****ORCA TERMINATED NORMALLY****
TOTAL RUN TIME: 0 days 0 hours 0 minutes 9 seconds 617 msec
