                         Program Version 5.0.0 -  RELEASE  -
|  1> !BLYP D3BJ RIJCOSX def2-SVPD def2/J TightSCF
|  2> *xyz 0 1
|  3> C          1.44442        5.26658       -0.97546
|  4> F          1.56525        4.23349       -1.86489
|  5> C          0.14812        5.21087       -0.13809
|  6> H          1.47425        6.26464       -1.47692
|  7> H          2.28962        5.30327       -0.26445
|  8> H         -0.69779        5.17417       -0.79230
|  9> H          0.08430        6.08276        0.47887
| 10> H          0.15965        4.33708        0.47938
| 11> *
| 12> %MaxCore 64000
| 13>
| 14> %pal nprocs 4
| 15> end
| 16>
| 17> %scf
| 18>   MaxIter 150
| 19> end
| 20>
| 21>
| 22>                          ****END OF INPUT****

CARTESIAN COORDINATES (ANGSTROEM)
---------------------------------
  C      1.444420    5.266580   -0.975460
  F      1.565250    4.233490   -1.864890
  C      0.148120    5.210870   -0.138090
  H      1.474250    6.264640   -1.476920
  H      2.289620    5.303270   -0.264450
  H     -0.697790    5.174170   -0.792300
  H      0.084300    6.082760    0.478870
  H      0.159650    4.337080    0.479380

 Total Charge           Charge          ....    0
 Multiplicity           Mult            ....    1
 Number of Electrons    NEL             ....   26
 Basis Dimension        Dim             ....  103

ORBITAL ENERGIES
----------------

  NO   OCC          E(Eh)            E(eV)
   0   2.0000     -24.295675      -661.1189
   1   2.0000     -10.002805      -272.1902
   2   2.0000      -9.921817      -269.9864
   3   2.0000      -1.079543       -29.3759
   4   2.0000      -0.681002       -18.5310
   5   2.0000      -0.560432       -15.2501
   6   2.0000      -0.454380       -12.3643
   7   2.0000      -0.437063       -11.8931
   8   2.0000      -0.401948       -10.9376
   9   2.0000      -0.354883        -9.6569
  10   2.0000      -0.353518        -9.6197
  11   2.0000      -0.288175        -7.8416
  12   2.0000      -0.282623        -7.6906
  13   0.0000       0.003464         0.0943
  14   0.0000       0.034811         0.9473
  15   0.0000       0.049251         1.3402
  16   0.0000       0.058861         1.6017
  17   0.0000       0.082741         2.2515

MULLIKEN ATOMIC CHARGES
-----------------------
   0 C :    0.605891
   1 F :   -0.390343
   2 C :    0.740127
   3 H :   -0.178677
   4 H :   -0.215486
   5 H :   -0.200872
   6 H :   -0.169906
   7 H :   -0.190734
Sum of atomic charges:    0.0000000

LOEWDIN ATOMIC CHARGES
----------------------
   0 C :    0.055026
   1 F :   -0.193333
   2 C :    0.153841
   3 H :    0.026755
   4 H :    0.020369
   5 H :   -0.021146
   6 H :   -0.019561
   7 H :   -0.021951

  Mayer bond orders larger than 0.100000
B(  0-C ,  1-F ) :   0.8231 B(  0-C ,  2-C ) :   1.3257 B(  0-C ,  3-H ) :   0.8759
B(  0-C ,  4-H ) :   0.8740 B(  0-C ,  5-H ) :   0.1890 B(  0-C ,  6-H ) :   0.1620
B(  0-C ,  7-H ) :   0.1804 B(  2-C ,  3-H ) :   0.1149 B(  2-C ,  4-H ) :   0.1170
B(  2-C ,  5-H ) :   0.8099 B(  2-C ,  6-H ) :   0.7829 B(  2-C ,  7-H ) :   0.8119

Dispersion correction           -0.007122732
FINAL SINGLE POINT ENERGY      -178.880147556690

DIPOLE MOMENT
-------------
                                X             Y             Z
Electronic contribution:      2.29963      -2.75609      -3.70995
Nuclear contribution   :     -2.43357       3.25919       4.19687
                        -----------------------------------------
Total Dipole Moment    :     -0.13394       0.50311       0.48692
                        -----------------------------------------
Magnitude (a.u.)       :      0.71284
Magnitude (Debye)      :      1.81190

Rotational constants in cm-1:     1.264662     0.300144     0.266170
Rotational constants in MHz : 37913.611527  8998.095216  7979.576054

                             ****ORCA TERMINATED NORMALLY****
TOTAL RUN TIME: 0 days 0 hours 0 minutes 8 seconds 113 msec
