                         Program Version 5.0.0 -  RELEASE  -
|  1> !BLYP D3BJ RIJCOSX def2-SVPD def2/J TightSCF
|  2> *xyz 0 1
|  3> C         -0.70169        4.07250       -4.00392
|  4> C          0.68053        4.61482       -4.04800
|  5> H          0.69993        5.58489       -4.38827
|  6> H          1.27804        4.05598       -4.66824
|  7> H          1.08573        4.53358       -3.10652
|  8> C         -1.70347        5.09320       -3.47740
|  9> H         -0.99590        3.74039       -5.00065
| 10> H         -0.64358        3.20191       -3.35153
| 11> H         -1.73704        5.93384       -4.13853
| 12> H         -1.40338        5.41759       -2.50291
| 13> H         -2.67335        4.64479       -3.42108
| 14> *
| 15> %MaxCore 64000
| 16>
| 17> %pal nprocs 4
| 18> end
| 19>
| 20> %scf
| 21>   MaxIter 150
| 22> end
| 23>
| 24>
| 25>                          ****END OF INPUT****

CARTESIAN COORDINATES (ANGSTROEM)
---------------------------------
  C     -0.701690    4.072500   -4.003920
  C      0.680530    4.614820   -4.048000
  H      0.699930    5.584890   -4.388270
  H      1.278040    4.055980   -4.668240
  H      1.085730    4.533580   -3.106520
  C     -1.703470    5.093200   -3.477400
  H     -0.995900    3.740390   -5.000650
  H     -0.643580    3.201910   -3.351530
  H     -1.737040    5.933840   -4.138530
  H     -1.403380    5.417590   -2.502910
  H     -2.673350    4.644790   -3.421080

 Total Charge           Charge          ....    0
 Multiplicity           Mult            ....    1
 Number of Electrons    NEL             ....   26
 Basis Dimension        Dim             ....  124

ORBITAL ENERGIES
----------------

  NO   OCC          E(Eh)            E(eV)
   0   2.0000      -9.909262      -269.6447
   1   2.0000      -9.902441      -269.4591
   2   2.0000      -9.886171      -269.0164
   3   2.0000      -0.705998       -19.2112
   4   2.0000      -0.612128       -16.6568
   5   2.0000      -0.515151       -14.0180
   6   2.0000      -0.416098       -11.3226
   7   2.0000      -0.392835       -10.6896
   8   2.0000      -0.353588        -9.6216
   9   2.0000      -0.343369        -9.3435
  10   2.0000      -0.293343        -7.9823
  11   2.0000      -0.290502        -7.9050
  12   2.0000      -0.282495        -7.6871
  13   0.0000       0.008180         0.2226
  14   0.0000       0.037846         1.0299
  15   0.0000       0.044480         1.2104
  16   0.0000       0.061108         1.6628
  17   0.0000       0.082005         2.2315

MULLIKEN ATOMIC CHARGES
-----------------------
   0 C :   -0.324233
   1 C :    1.341036
   2 H :   -0.362703
   3 H :   -0.342766
   4 H :   -0.272997
   5 C :    1.016385
   6 H :   -0.258215
   7 H :   -0.223109
   8 H :   -0.154340
   9 H :   -0.179448
  10 H :   -0.239608
Sum of atomic charges:    0.0000000

LOEWDIN ATOMIC CHARGES
----------------------
   0 C :   -0.109872
   1 C :    0.127312
   2 H :   -0.035537
   3 H :   -0.039271
   4 H :   -0.033379
   5 C :    0.131123
   6 H :    0.015447
   7 H :    0.015623
   8 H :   -0.022551
   9 H :   -0.021214
  10 H :   -0.027682

  Mayer bond orders larger than 0.100000
B(  0-C ,  1-C ) :   1.2942 B(  0-C ,  2-H ) :   0.2412 B(  0-C ,  3-H ) :   0.2797
B(  0-C ,  4-H ) :   0.3475 B(  0-C ,  5-C ) :   1.2890 B(  0-C ,  6-H ) :   0.8439
B(  0-C ,  7-H ) :   0.8267 B(  0-C ,  8-H ) :   0.2138 B(  0-C ,  9-H ) :   0.2366
B(  0-C , 10-H ) :   0.2512 B(  1-C ,  2-H ) :   0.5854 B(  1-C ,  3-H ) :   0.5393
B(  1-C ,  4-H ) :   0.5323 B(  1-C ,  7-H ) :   0.1680 B(  5-C ,  8-H ) :   0.7430
B(  5-C ,  9-H ) :   0.7385 B(  5-C , 10-H ) :   0.7094

Dispersion correction           -0.012522075
FINAL SINGLE POINT ENERGY      -118.962369656044

DIPOLE MOMENT
-------------
                                X             Y             Z
Electronic contribution:     -0.13641      -0.31169      -0.13811
Nuclear contribution   :      0.16058       0.27975       0.12812
                        -----------------------------------------
Total Dipole Moment    :      0.02417      -0.03194      -0.00999
                        -----------------------------------------
Magnitude (a.u.)       :      0.04129
Magnitude (Debye)      :      0.10494

Rotational constants in cm-1:     1.027122     0.293327     0.260229
Rotational constants in MHz : 30792.337141  8793.723318  7801.458329

                             ****ORCA TERMINATED NORMALLY****
TOTAL RUN TIME: 0 days 0 hours 0 minutes 8 seconds 935 msec
