                         Program Version 5.0.0 -  RELEASE  -
|  1> !PBE D3BJ RIJCOSX def2-TZVPD def2/J TightSCF
|  2> *xyz -1 1
|  3> C          0.96805        1.63064       -3.71575
|  4> C         -0.50835        1.72268       -4.12430
|  5> S         -1.32861        0.14674       -4.43578
|  6> H         -0.59151        2.29496       -5.04722
|  7> H         -1.11411        2.23561       -3.37436
|  8> O         -2.57135        0.47573       -5.06834
|  9> O         -1.51496       -0.40051       -3.06342
| 10> O         -0.37793       -0.62756       -5.20114
| 11> H          1.51840        1.12197       -4.47946
| 12> H          1.05062        1.08971       -2.79625
| 13> H          1.36450        2.61606       -3.58668
| 14> *
| 15> %MaxCore 64000
| 16>
| 17> %pal nprocs 4
| 18> end
| 19>
| 20> %scf
| 21>   MaxIter 150
| 22> end
| 23>
| 24>
| 25>                          ****END OF INPUT****

CARTESIAN COORDINATES (ANGSTROEM)
---------------------------------
  C      0.968050    1.630640   -3.715750
  C     -0.508350    1.722680   -4.124300
  S     -1.328610    0.146740   -4.435780
  H     -0.591510    2.294960   -5.047220
  H     -1.114110    2.235610   -3.374360
  O     -2.571350    0.475730   -5.068340
  O     -1.514960   -0.400510   -3.063420
  O     -0.377930   -0.627560   -5.201140
  H      1.518400    1.121970   -4.479460
  H      1.050620    1.089710   -2.796250
  H      1.364500    2.616060   -3.586680

 Total Charge           Charge          ....   -1
 Multiplicity           Mult            ....    1
 Number of Electrons    NEL             ....   58
 Basis Dimension        Dim             ....  285

ORBITAL ENERGIES
----------------

  NO   OCC          E(Eh)            E(eV)
   0   2.0000     -88.010003     -2394.8739
   1   2.0000     -18.534739      -504.3559
   2   2.0000     -18.531574      -504.2698
   3   2.0000     -18.517000      -503.8732
   4   2.0000      -9.737436      -264.9691
   5   2.0000      -9.732263      -264.8283
   6   2.0000      -7.605367      -206.9526
   7   2.0000      -5.626339      -153.1005
   8   2.0000      -5.625219      -153.0700
   9   2.0000      -5.624940      -153.0624
  10   2.0000      -0.835342       -22.7308
  11   2.0000      -0.713578       -19.4174
  12   2.0000      -0.684575       -18.6282
  13   2.0000      -0.554298       -15.0832
  14   2.0000      -0.438117       -11.9218
  15   2.0000      -0.320872        -8.7314
  16   2.0000      -0.263568        -7.1721
  17   2.0000      -0.260306        -7.0833
  18   2.0000      -0.223867        -6.0917
  19   2.0000      -0.209278        -5.6947
  20   2.0000      -0.204313        -5.5596
  21   2.0000      -0.181592        -4.9414
  22   2.0000      -0.166733        -4.5370
  23   2.0000      -0.105764        -2.8780
  24   2.0000      -0.104121        -2.8333
  25   2.0000      -0.074970        -2.0400
  26   2.0000      -0.067763        -1.8439
  27   2.0000      -0.053197        -1.4476
  28   2.0000      -0.020257        -0.5512
  29   0.0000       0.111122         3.0238
  30   0.0000       0.134417         3.6577
  31   0.0000       0.141018         3.8373
  32   0.0000       0.148310         4.0357
  33   0.0000       0.166137         4.5208

MULLIKEN ATOMIC CHARGES
-----------------------
   0 C :   -0.890440
   1 C :   -0.232257
   2 S :    1.019737
   3 H :    0.199335
   4 H :    0.181603
   5 O :   -0.623332
   6 O :   -0.696515
   7 O :   -0.649045
   8 H :    0.233018
   9 H :    0.236607
  10 H :    0.221289
Sum of atomic charges:   -1.0000000

LOEWDIN ATOMIC CHARGES
----------------------
   0 C :   -0.148351
   1 C :   -0.335226
   2 S :    0.289575
   3 H :    0.074895
   4 H :    0.080170
   5 O :   -0.358166
   6 O :   -0.399738
   7 O :   -0.361369
   8 H :    0.053869
   9 H :    0.059013
  10 H :    0.045327

  Mayer bond orders larger than 0.100000
B(  0-C ,  1-C ) :   0.8526 B(  0-C ,  8-H ) :   0.9854 B(  0-C ,  9-H ) :   0.9836
B(  0-C , 10-H ) :   0.9626 B(  1-C ,  2-S ) :   0.8406 B(  1-C ,  3-H ) :   0.9572
B(  1-C ,  4-H ) :   0.9676 B(  1-C ,  5-O ) :   0.1492 B(  1-C ,  6-O ) :   0.1300
B(  1-C ,  7-O ) :   0.1062 B(  2-S ,  5-O ) :   1.5685 B(  2-S ,  6-O ) :   1.5012
B(  2-S ,  7-O ) :   1.5519

Dispersion correction           -0.009650386
FINAL SINGLE POINT ENERGY      -702.814733311853

DIPOLE MOMENT
-------------
                                X             Y             Z
Electronic contribution:     -5.64951      -5.38791      -1.94587
Nuclear contribution   :      6.64523       6.80157       2.07300
                        -----------------------------------------
Total Dipole Moment    :      0.99572       1.41367       0.12713
                        -----------------------------------------
Magnitude (a.u.)       :      1.73380
Magnitude (Debye)      :      4.40697

Rotational constants in cm-1:     0.163070     0.082807     0.081541
Rotational constants in MHz :  4888.719902  2482.497026  2444.541148

                             ****ORCA TERMINATED NORMALLY****
TOTAL RUN TIME: 0 days 0 hours 0 minutes 17 seconds 111 msec
