                         Program Version 5.0.0 -  RELEASE  -
|  1> !PBE D3BJ RIJCOSX def2-TZVPD def2/J TightSCF
|  2> *xyz 1 1
|  3> C          1.36401        0.46874       -2.81376
|  4> N          0.42884        0.32140       -1.65531
|  5> C          0.96805        1.63064       -3.71575
|  6> H          0.74858       -0.40054       -1.00134
|  7> H         -0.46105        0.02333       -2.07773
|  8> H          0.31026        1.20137       -1.13495
|  9> H          1.29485       -0.46874       -3.36468
| 10> H          2.37622        0.59740       -2.43149
| 11> H          1.65923        1.70213       -4.52942
| 12> H          0.98421        2.54058       -3.15304
| 13> H         -0.01744        1.46536       -4.09838
| 14> *
| 15> %MaxCore 64000
| 16>
| 17> %pal nprocs 4
| 18> end
| 19>
| 20> %scf
| 21>   MaxIter 150
| 22> end
| 23>
| 24>
| 25>                          ****END OF INPUT****

CARTESIAN COORDINATES (ANGSTROEM)
---------------------------------
  C      1.364010    0.468740   -2.813760
  N      0.428840    0.321400   -1.655310
  C      0.968050    1.630640   -3.715750
  H      0.748580   -0.400540   -1.001340
  H     -0.461050    0.023330   -2.077730
  H      0.310260    1.201370   -1.134950
  H      1.294850   -0.468740   -3.364680
  H      2.376220    0.597400   -2.431490
  H      1.659230    1.702130   -4.529420
  H      0.984210    2.540580   -3.153040
  H     -0.017440    1.465360   -4.098380

 Total Charge           Charge          ....    1
 Multiplicity           Mult            ....    1
 Number of Electrons    NEL             ....   26
 Basis Dimension        Dim             ....  183

ORBITAL ENERGIES
----------------

  NO   OCC          E(Eh)            E(eV)
   0   2.0000     -14.317693      -389.6042
   1   2.0000     -10.135237      -275.7938
   2   2.0000     -10.056943      -273.6633
   3   2.0000      -1.135980       -30.9116
   4   2.0000      -0.897198       -24.4140
   5   2.0000      -0.783654       -21.3243
   6   2.0000      -0.752206       -20.4686
   7   2.0000      -0.736431       -20.0393
   8   2.0000      -0.647397       -17.6166
   9   2.0000      -0.597443       -16.2573
  10   2.0000      -0.542033       -14.7495
  11   2.0000      -0.525901       -14.3105
  12   2.0000      -0.510584       -13.8937
  13   0.0000      -0.223333        -6.0772
  14   0.0000      -0.165211        -4.4956
  15   0.0000      -0.160793        -4.3754
  16   0.0000      -0.151376        -4.1192
  17   0.0000      -0.120021        -3.2659

MULLIKEN ATOMIC CHARGES
-----------------------
   0 C :   -0.206732
   1 N :   -0.165676
   2 C :   -0.819153
   3 H :    0.306652
   4 H :    0.320275
   5 H :    0.298235
   6 H :    0.224753
   7 H :    0.219429
   8 H :    0.226378
   9 H :    0.294083
  10 H :    0.301756
Sum of atomic charges:    1.0000000

LOEWDIN ATOMIC CHARGES
----------------------
   0 C :   -0.203182
   1 N :    0.189301
   2 C :   -0.052110
   3 H :    0.177308
   4 H :    0.178150
   5 H :    0.179441
   6 H :    0.135442
   7 H :    0.135079
   8 H :    0.094388
   9 H :    0.083179
  10 H :    0.083004

  Mayer bond orders larger than 0.100000
B(  0-C ,  1-N ) :   0.9924 B(  0-C ,  2-C ) :   0.8205 B(  0-C ,  6-H ) :   0.9419
B(  0-C ,  7-H ) :   0.9545 B(  1-N ,  3-H ) :   0.8878 B(  1-N ,  4-H ) :   0.8714
B(  1-N ,  5-H ) :   0.8878 B(  2-C ,  8-H ) :   1.0069 B(  2-C ,  9-H ) :   0.9323
B(  2-C , 10-H ) :   0.9249

Dispersion correction           -0.006168329
FINAL SINGLE POINT ENERGY      -135.400327390258

DIPOLE MOMENT
-------------
                                X             Y             Z
Electronic contribution:     -0.33598      -0.93057       1.54190
Nuclear contribution   :     -0.20470       0.31427      -0.31587
                        -----------------------------------------
Total Dipole Moment    :     -0.54068      -0.61630       1.22603
                        -----------------------------------------
Magnitude (a.u.)       :      1.47490
Magnitude (Debye)      :      3.74889

Rotational constants in cm-1:     1.011480     0.279280     0.248378
Rotational constants in MHz : 30323.408050  8372.602834  7446.185305

                             ****ORCA TERMINATED NORMALLY****
TOTAL RUN TIME: 0 days 0 hours 0 minutes 9 seconds 156 msec
