                         Program Version 5.0.0 -  RELEASE  -
|  1> !PBE D3BJ RIJCOSX def2-TZVPD def2/J TightSCF xyzfile
|  2>
|  3> *xyzfile 0 1 B.xyz
|  4>
|  5> %MaxCore 64000
|  6>
|  7> %pal nprocs 4
|  8> end
|  9>
| 10> %scf
| 11>   MaxIter 150
| 12> end
| 13>
| 14>
| 15>                          ****END OF INPUT****

CARTESIAN COORDINATES (ANGSTROEM)
---------------------------------
  C      1.364014    0.468742   -2.813764
  N      0.428844    0.321402   -1.655312
  C      0.968045    1.630639   -3.715749
  C     -0.508347    1.722679   -4.124300
  S     -1.328608    0.146737   -4.435781
  H     -0.591511    2.294958   -5.047219
  H     -1.114114    2.235610   -3.374362
  H      0.748578   -0.400542   -1.001345
  H     -0.461053    0.023332   -2.077731
  H      0.310258    1.201375   -1.134948
  O     -2.571347    0.475733   -5.068341
  O     -1.514963   -0.400512   -3.063420
  H      1.294847   -0.468742   -3.364684
  H      2.376216    0.597400   -2.431495
  H      1.578688    1.520652   -4.612733
  H      1.266653    2.575988   -3.250448
  O     -0.377928   -0.627558   -5.201141

 Total Charge           Charge          ....    0
 Multiplicity           Mult            ....    1
 Number of Electrons    NEL             ....   74
 Basis Dimension        Dim             ....  395

ORBITAL ENERGIES
----------------

  NO   OCC          E(Eh)            E(eV)
   0   2.0000     -88.177768     -2399.4390
   1   2.0000     -18.707114      -509.0464
   2   2.0000     -18.691279      -508.6156
   3   2.0000     -18.689444      -508.5656
   4   2.0000     -14.115826      -384.1112
   5   2.0000      -9.970897      -271.3219
   6   2.0000      -9.923529      -270.0329
   7   2.0000      -9.901171      -269.4246
   8   2.0000      -7.773341      -211.5234
   9   2.0000      -5.794658      -157.6807
  10   2.0000      -5.793551      -157.6505
  11   2.0000      -5.792143      -157.6122
  12   2.0000      -1.004256       -27.3272
  13   2.0000      -0.949764       -25.8444
  14   2.0000      -0.872017       -23.7288
  15   2.0000      -0.870222       -23.6799
  16   2.0000      -0.753163       -20.4946
  17   2.0000      -0.671485       -18.2720
  18   2.0000      -0.593305       -16.1447
  19   2.0000      -0.568136       -15.4598
  20   2.0000      -0.559954       -15.2371
  21   2.0000      -0.490972       -13.3600
  22   2.0000      -0.473758       -12.8916
  23   2.0000      -0.439196       -11.9511
  24   2.0000      -0.422302       -11.4914
  25   2.0000      -0.409626       -11.1465
  26   2.0000      -0.379584       -10.3290
  27   2.0000      -0.370898       -10.0926
  28   2.0000      -0.357924        -9.7396
  29   2.0000      -0.347396        -9.4531
  30   2.0000      -0.332693        -9.0530
  31   2.0000      -0.276150        -7.5144
  32   2.0000      -0.267854        -7.2887
  33   2.0000      -0.242607        -6.6017
  34   2.0000      -0.231296        -6.2939
  35   2.0000      -0.227283        -6.1847
  36   2.0000      -0.192050        -5.2259
  37   0.0000      -0.070227        -1.9110
  38   0.0000      -0.026136        -0.7112
  39   0.0000      -0.020508        -0.5581
  40   0.0000       0.004821         0.1312
  41   0.0000       0.015891         0.4324

MULLIKEN ATOMIC CHARGES
-----------------------
   0 C :   -0.559038
   1 N :   -0.004455
   2 C :   -0.035193
   3 C :   -0.517505
   4 S :    1.103361
   5 H :    0.145396
   6 H :    0.246375
   7 H :    0.310466
   8 H :    0.177805
   9 H :    0.297844
  10 O :   -0.572150
  11 O :   -0.772230
  12 H :    0.324458
  13 H :    0.181859
  14 H :    0.139087
  15 H :    0.148219
  16 O :   -0.614298
Sum of atomic charges:   -0.0000000

LOEWDIN ATOMIC CHARGES
----------------------
   0 C :   -0.174379
   1 N :    0.157936
   2 C :   -0.208057
   3 C :   -0.249348
   4 S :    0.379139
   5 H :    0.101038
   6 H :    0.096179
   7 H :    0.164664
   8 H :    0.022919
   9 H :    0.167382
  10 O :   -0.287134
  11 O :   -0.345261
  12 H :    0.121480
  13 H :    0.123387
  14 H :    0.122053
  15 H :    0.112342
  16 O :   -0.304339

  Mayer bond orders larger than 0.100000
B(  0-C ,  1-N ) :   1.0313 B(  0-C ,  2-C ) :   0.9317 B(  0-C , 12-H ) :   0.8995
B(  0-C , 13-H ) :   0.9404 B(  1-N ,  7-H ) :   0.8566 B(  1-N ,  8-H ) :   0.8421
B(  1-N ,  9-H ) :   0.8533 B(  2-C ,  3-C ) :   1.0403 B(  2-C , 14-H ) :   0.9037
B(  2-C , 15-H ) :   0.9277 B(  3-C ,  4-S ) :   0.8440 B(  3-C ,  5-H ) :   1.0082
B(  3-C ,  6-H ) :   0.9108 B(  3-C , 10-O ) :   0.1758 B(  3-C , 11-O ) :   0.1386
B(  4-S , 10-O ) :   1.5985 B(  4-S , 11-O ) :   1.3222 B(  4-S , 16-O ) :   1.5558
B(  8-H , 11-O ) :   0.2089

Dispersion correction           -0.018213013
FINAL SINGLE POINT ENERGY      -797.920367573236

DIPOLE MOMENT
-------------
                                X             Y             Z
Electronic contribution:     -7.01689      -4.22201      -4.38784
Nuclear contribution   :      9.95459       5.57517       7.68169
                        -----------------------------------------
Total Dipole Moment    :      2.93770       1.35316       3.29385
                        -----------------------------------------
Magnitude (a.u.)       :      4.61633
Magnitude (Debye)      :     11.73379

Rotational constants in cm-1:     0.102119     0.045768     0.041299
Rotational constants in MHz :  3061.441288  1372.093000  1238.124534

                             ****ORCA TERMINATED NORMALLY****
TOTAL RUN TIME: 0 days 0 hours 0 minutes 27 seconds 120 msec
