                         Program Version 5.0.0 -  RELEASE  -
|  1> !PBE D3BJ RIJCOSX def2-TZVPD def2/J TightSCF
|  2> *xyz 0 1
|  3> C          0.96805        1.63064       -3.71575
|  4> C         -0.50835        1.72268       -4.12430
|  5> S         -1.32861        0.14674       -4.43578
|  6> H         -0.59151        2.29496       -5.04722
|  7> H         -1.11411        2.23561       -3.37436
|  8> F         -2.57135        0.47573       -5.06834
|  9> O         -1.51496       -0.40051       -3.06342
| 10> O         -0.37793       -0.62756       -5.20114
| 11> H          1.51840        1.12197       -4.47946
| 12> H          1.05062        1.08971       -2.79625
| 13> H          1.36450        2.61606       -3.58668
| 14> *
| 15> %MaxCore 64000
| 16>
| 17> %pal nprocs 4
| 18> end
| 19>
| 20> %scf
| 21>   MaxIter 150
| 22> end
| 23>
| 24>
| 25>                          ****END OF INPUT****

CARTESIAN COORDINATES (ANGSTROEM)
---------------------------------
  C      0.968050    1.630640   -3.715750
  C     -0.508350    1.722680   -4.124300
  S     -1.328610    0.146740   -4.435780
  H     -0.591510    2.294960   -5.047220
  H     -1.114110    2.235610   -3.374360
  F     -2.571350    0.475730   -5.068340
  O     -1.514960   -0.400510   -3.063420
  O     -0.377930   -0.627560   -5.201140
  H      1.518400    1.121970   -4.479460
  H      1.050620    1.089710   -2.796250
  H      1.364500    2.616060   -3.586680

 Total Charge           Charge          ....    0
 Multiplicity           Mult            ....    1
 Number of Electrons    NEL             ....   58
 Basis Dimension        Dim             ....  285

ORBITAL ENERGIES
----------------

  NO   OCC          E(Eh)            E(eV)
   0   2.0000     -88.269375     -2401.9318
   1   2.0000     -24.379876      -663.4101
   2   2.0000     -18.763937      -510.5927
   3   2.0000     -18.749289      -510.1941
   4   2.0000      -9.938066      -270.4285
   5   2.0000      -9.896309      -269.2923
   6   2.0000      -7.865197      -214.0229
   7   2.0000      -5.889460      -160.2604
   8   2.0000      -5.883019      -160.0851
   9   2.0000      -5.882791      -160.0789
  10   2.0000      -1.286115       -34.9970
  11   2.0000      -1.013378       -27.5754
  12   2.0000      -0.916814       -24.9478
  13   2.0000      -0.743825       -20.2405
  14   2.0000      -0.671360       -18.2686
  15   2.0000      -0.611762       -16.6469
  16   2.0000      -0.527689       -14.3591
  17   2.0000      -0.526789       -14.3346
  18   2.0000      -0.497908       -13.5488
  19   2.0000      -0.440626       -11.9900
  20   2.0000      -0.429570       -11.6892
  21   2.0000      -0.392596       -10.6831
  22   2.0000      -0.383255       -10.4289
  23   2.0000      -0.362028        -9.8513
  24   2.0000      -0.343135        -9.3372
  25   2.0000      -0.336263        -9.1502
  26   2.0000      -0.290266        -7.8985
  27   2.0000      -0.274893        -7.4802
  28   2.0000      -0.259025        -7.0484
  29   0.0000      -0.031986        -0.8704
  30   0.0000      -0.010678        -0.2906
  31   0.0000       0.006523         0.1775
  32   0.0000       0.014141         0.3848
  33   0.0000       0.019448         0.5292

MULLIKEN ATOMIC CHARGES
-----------------------
   0 C :   -0.902909
   1 C :   -0.215730
   2 S :    0.971274
   3 H :    0.246508
   4 H :    0.236382
   5 F :   -0.063242
   6 O :   -0.532701
   7 O :   -0.499608
   8 H :    0.269410
   9 H :    0.269413
  10 H :    0.221203
Sum of atomic charges:   -0.0000000

LOEWDIN ATOMIC CHARGES
----------------------
   0 C :   -0.100021
   1 C :   -0.292483
   2 S :    0.537048
   3 H :    0.092833
   4 H :    0.098953
   5 F :   -0.028091
   6 O :   -0.280427
   7 O :   -0.247932
   8 H :    0.070633
   9 H :    0.076037
  10 H :    0.073450

  Mayer bond orders larger than 0.100000
B(  0-C ,  1-C ) :   0.9166 B(  0-C ,  8-H ) :   0.9529 B(  0-C ,  9-H ) :   0.9538
B(  0-C , 10-H ) :   0.9621 B(  1-C ,  2-S ) :   0.8393 B(  1-C ,  3-H ) :   0.8988
B(  1-C ,  4-H ) :   0.9242 B(  1-C ,  6-O ) :   0.1010 B(  2-S ,  5-F ) :   1.0910
B(  2-S ,  6-O ) :   1.7018 B(  2-S ,  7-O ) :   1.7544 B(  6-O ,  7-O ) :   0.1233

Dispersion correction           -0.009242084
FINAL SINGLE POINT ENERGY      -727.315353240797

DIPOLE MOMENT
-------------
                                X             Y             Z
Electronic contribution:     -8.31567      -5.22637      -3.21356
Nuclear contribution   :      8.31000       6.74109       2.87442
                        -----------------------------------------
Total Dipole Moment    :     -0.00567       1.51472      -0.33914
                        -----------------------------------------
Magnitude (a.u.)       :      1.55223
Magnitude (Debye)      :      3.94545

Rotational constants in cm-1:     0.158705     0.080192     0.078179
Rotational constants in MHz :  4757.865601  2404.095079  2343.752507

                             ****ORCA TERMINATED NORMALLY****
TOTAL RUN TIME: 0 days 0 hours 0 minutes 16 seconds 529 msec
