                         Program Version 5.0.0 -  RELEASE  -
|  1> !PBE D3BJ RIJCOSX def2-TZVPD def2/J TightSCF
|  2> *xyz 0 1
|  3> C          1.36401        0.46874       -2.81376
|  4> C          0.42884        0.32140       -1.65531
|  5> C          0.96805        1.63064       -3.71575
|  6> H          0.74858       -0.40054       -1.00134
|  7> H         -0.46105        0.02333       -2.07773
|  8> H          0.31026        1.20137       -1.13495
|  9> H          1.29485       -0.46874       -3.36468
| 10> H          2.37622        0.59740       -2.43149
| 11> H          1.65923        1.70213       -4.52942
| 12> H          0.98421        2.54058       -3.15304
| 13> H         -0.01744        1.46536       -4.09838
| 14> *
| 15> %MaxCore 64000
| 16>
| 17> %pal nprocs 4
| 18> end
| 19>
| 20> %scf
| 21>   MaxIter 150
| 22> end
| 23>
| 24>
| 25>                          ****END OF INPUT****

CARTESIAN COORDINATES (ANGSTROEM)
---------------------------------
  C      1.364010    0.468740   -2.813760
  C      0.428840    0.321400   -1.655310
  C      0.968050    1.630640   -3.715750
  H      0.748580   -0.400540   -1.001340
  H     -0.461050    0.023330   -2.077730
  H      0.310260    1.201370   -1.134950
  H      1.294850   -0.468740   -3.364680
  H      2.376220    0.597400   -2.431490
  H      1.659230    1.702130   -4.529420
  H      0.984210    2.540580   -3.153040
  H     -0.017440    1.465360   -4.098380

 Total Charge           Charge          ....    0
 Multiplicity           Mult            ....    1
 Number of Electrons    NEL             ....   26
 Basis Dimension        Dim             ....  183

ORBITAL ENERGIES
----------------

  NO   OCC          E(Eh)            E(eV)
   0   2.0000      -9.868247      -268.5287
   1   2.0000      -9.858002      -268.2499
   2   2.0000      -9.840717      -267.7795
   3   2.0000      -0.718439       -19.5497
   4   2.0000      -0.622835       -16.9482
   5   2.0000      -0.524027       -14.2595
   6   2.0000      -0.421347       -11.4654
   7   2.0000      -0.396803       -10.7976
   8   2.0000      -0.357011        -9.7147
   9   2.0000      -0.345074        -9.3899
  10   2.0000      -0.295770        -8.0483
  11   2.0000      -0.291128        -7.9220
  12   2.0000      -0.286622        -7.7994
  13   0.0000      -0.002179        -0.0593
  14   0.0000       0.024658         0.6710
  15   0.0000       0.027917         0.7597
  16   0.0000       0.042959         1.1690
  17   0.0000       0.063822         1.7367

MULLIKEN ATOMIC CHARGES
-----------------------
   0 C :    0.163471
   1 C :   -1.008022
   2 C :   -0.862079
   3 H :    0.231911
   4 H :    0.261961
   5 H :    0.271977
   6 H :    0.128820
   7 H :    0.140933
   8 H :    0.190744
   9 H :    0.239453
  10 H :    0.240831
Sum of atomic charges:    0.0000000

LOEWDIN ATOMIC CHARGES
----------------------
   0 C :   -0.319171
   1 C :   -0.122866
   2 C :   -0.116179
   3 H :    0.050069
   4 H :    0.055590
   5 H :    0.055027
   6 H :    0.103163
   7 H :    0.101783
   8 H :    0.060729
   9 H :    0.065683
  10 H :    0.066171

  Mayer bond orders larger than 0.100000
B(  0-C ,  1-C ) :   0.7189 B(  0-C ,  2-C ) :   0.7420 B(  0-C ,  6-H ) :   0.9789
B(  0-C ,  7-H ) :   0.9749 B(  1-C ,  2-C ) :   0.1852 B(  1-C ,  3-H ) :   1.0125
B(  1-C ,  4-H ) :   0.9907 B(  1-C ,  5-H ) :   0.9577 B(  2-C ,  8-H ) :   1.0197
B(  2-C ,  9-H ) :   0.9869 B(  2-C , 10-H ) :   0.9819

Dispersion correction           -0.006166229
FINAL SINGLE POINT ENERGY      -118.991693473821

DIPOLE MOMENT
-------------
                                X             Y             Z
Electronic contribution:      0.36886      -0.18658      -0.01708
Nuclear contribution   :     -0.35842       0.15752       0.02695
                        -----------------------------------------
Total Dipole Moment    :      0.01044      -0.02906       0.00987
                        -----------------------------------------
Magnitude (a.u.)       :      0.03242
Magnitude (Debye)      :      0.08240

Rotational constants in cm-1:     1.019891     0.293671     0.260247
Rotational constants in MHz : 30575.551403  8804.039097  7802.009261

                             ****ORCA TERMINATED NORMALLY****
TOTAL RUN TIME: 0 days 0 hours 0 minutes 9 seconds 466 msec
