                         Program Version 5.0.0 -  RELEASE  -
|  1> !PBE D3BJ RIJCOSX def2-TZVPD def2/J TightSCF
|  2> *xyz 0 1
|  3> C          0.96805        1.63064       -3.71575
|  4> C         -0.50835        1.72268       -4.12430
|  5> S         -1.32861        0.14674       -4.43578
|  6> H         -0.59151        2.29496       -5.04722
|  7> H         -1.11411        2.23561       -3.37436
|  8> O         -2.57135        0.47573       -5.06834
|  9> F         -1.51496       -0.40051       -3.06342
| 10> O         -0.37793       -0.62756       -5.20114
| 11> H          1.51840        1.12197       -4.47946
| 12> H          1.05062        1.08971       -2.79625
| 13> H          1.36450        2.61606       -3.58668
| 14> *
| 15> %MaxCore 64000
| 16>
| 17> %pal nprocs 4
| 18> end
| 19>
| 20> %scf
| 21>   MaxIter 150
| 22> end
| 23>
| 24>
| 25>                          ****END OF INPUT****

CARTESIAN COORDINATES (ANGSTROEM)
---------------------------------
  C      0.968050    1.630640   -3.715750
  C     -0.508350    1.722680   -4.124300
  S     -1.328610    0.146740   -4.435780
  H     -0.591510    2.294960   -5.047220
  H     -1.114110    2.235610   -3.374360
  O     -2.571350    0.475730   -5.068340
  F     -1.514960   -0.400510   -3.063420
  O     -0.377930   -0.627560   -5.201140
  H      1.518400    1.121970   -4.479460
  H      1.050620    1.089710   -2.796250
  H      1.364500    2.616060   -3.586680

 Total Charge           Charge          ....    0
 Multiplicity           Mult            ....    1
 Number of Electrons    NEL             ....   58
 Basis Dimension        Dim             ....  285

ORBITAL ENERGIES
----------------

  NO   OCC          E(Eh)            E(eV)
   0   2.0000     -88.265959     -2401.8388
   1   2.0000     -24.351652      -662.6421
   2   2.0000     -18.766860      -510.6722
   3   2.0000     -18.763724      -510.5869
   4   2.0000      -9.937128      -270.4030
   5   2.0000      -9.897258      -269.3181
   6   2.0000      -7.861990      -213.9356
   7   2.0000      -5.886403      -160.1772
   8   2.0000      -5.879949      -160.0015
   9   2.0000      -5.879431      -159.9874
  10   2.0000      -1.240610       -33.7587
  11   2.0000      -1.027842       -27.9690
  12   2.0000      -0.941723       -25.6256
  13   2.0000      -0.745253       -20.2794
  14   2.0000      -0.652795       -17.7635
  15   2.0000      -0.604968       -16.4620
  16   2.0000      -0.514383       -13.9971
  17   2.0000      -0.495062       -13.4713
  18   2.0000      -0.488692       -13.2980
  19   2.0000      -0.441251       -12.0070
  20   2.0000      -0.423724       -11.5301
  21   2.0000      -0.405539       -11.0353
  22   2.0000      -0.386741       -10.5238
  23   2.0000      -0.359644        -9.7864
  24   2.0000      -0.357005        -9.7146
  25   2.0000      -0.336887        -9.1672
  26   2.0000      -0.298299        -8.1171
  27   2.0000      -0.290817        -7.9135
  28   2.0000      -0.278193        -7.5700
  29   0.0000      -0.032269        -0.8781
  30   0.0000      -0.003709        -0.1009
  31   0.0000       0.008429         0.2294
  32   0.0000       0.010868         0.2957
  33   0.0000       0.020408         0.5553

MULLIKEN ATOMIC CHARGES
-----------------------
   0 C :   -0.883519
   1 C :   -0.202734
   2 S :    0.970910
   3 H :    0.229103
   4 H :    0.242514
   5 O :   -0.482364
   6 F :   -0.128704
   7 O :   -0.502257
   8 H :    0.267185
   9 H :    0.270020
  10 H :    0.219847
Sum of atomic charges:    0.0000000

LOEWDIN ATOMIC CHARGES
----------------------
   0 C :   -0.110878
   1 C :   -0.282721
   2 S :    0.537589
   3 H :    0.104824
   4 H :    0.098461
   5 O :   -0.241569
   6 F :   -0.070954
   7 O :   -0.245699
   8 H :    0.069333
   9 H :    0.070292
  10 H :    0.071322

  Mayer bond orders larger than 0.100000
B(  0-C ,  1-C ) :   0.8794 B(  0-C ,  8-H ) :   0.9765 B(  0-C ,  9-H ) :   0.9365
B(  0-C , 10-H ) :   0.9736 B(  1-C ,  2-S ) :   0.8353 B(  1-C ,  3-H ) :   0.9315
B(  1-C ,  4-H ) :   0.9187 B(  1-C ,  5-O ) :   0.1213 B(  2-S ,  5-O ) :   1.7675
B(  2-S ,  6-F ) :   1.0236 B(  2-S ,  7-O ) :   1.7532 B(  5-O ,  7-O ) :   0.1184

Dispersion correction           -0.009203297
FINAL SINGLE POINT ENERGY      -727.338509857461

DIPOLE MOMENT
-------------
                                X             Y             Z
Electronic contribution:     -6.57414      -6.68344       0.12672
Nuclear contribution   :      7.20921       7.65416       0.78523
                        -----------------------------------------
Total Dipole Moment    :      0.63508       0.97072       0.91195
                        -----------------------------------------
Magnitude (a.u.)       :      1.47556
Magnitude (Debye)      :      3.75058

Rotational constants in cm-1:     0.153780     0.081282     0.079816
Rotational constants in MHz :  4610.199589  2436.778679  2392.820729

                             ****ORCA TERMINATED NORMALLY****
TOTAL RUN TIME: 0 days 0 hours 0 minutes 17 seconds 50 msec
