                         Program Version 5.0.0 -  RELEASE  -
|  1> !PBE D3BJ RIJCOSX def2-TZVPD def2/J TightSCF
|  2> *xyz 0 1
|  3> C          0.96805        1.63064       -3.71575
|  4> C         -0.50835        1.72268       -4.12430
|  5> S         -1.32861        0.14674       -4.43578
|  6> H         -0.59151        2.29496       -5.04722
|  7> H         -1.11411        2.23561       -3.37436
|  8> O         -2.57135        0.47573       -5.06834
|  9> O         -1.51496       -0.40051       -3.06342
| 10> F         -0.37793       -0.62756       -5.20114
| 11> H          1.51840        1.12197       -4.47946
| 12> H          1.05062        1.08971       -2.79625
| 13> H          1.36450        2.61606       -3.58668
| 14> *
| 15> %MaxCore 64000
| 16>
| 17> %pal nprocs 4
| 18> end
| 19>
| 20> %scf
| 21>   MaxIter 150
| 22> end
| 23>
| 24>
| 25>                          ****END OF INPUT****

CARTESIAN COORDINATES (ANGSTROEM)
---------------------------------
  C      0.968050    1.630640   -3.715750
  C     -0.508350    1.722680   -4.124300
  S     -1.328610    0.146740   -4.435780
  H     -0.591510    2.294960   -5.047220
  H     -1.114110    2.235610   -3.374360
  O     -2.571350    0.475730   -5.068340
  O     -1.514960   -0.400510   -3.063420
  F     -0.377930   -0.627560   -5.201140
  H      1.518400    1.121970   -4.479460
  H      1.050620    1.089710   -2.796250
  H      1.364500    2.616060   -3.586680

 Total Charge           Charge          ....    0
 Multiplicity           Mult            ....    1
 Number of Electrons    NEL             ....   58
 Basis Dimension        Dim             ....  285

ORBITAL ENERGIES
----------------

  NO   OCC          E(Eh)            E(eV)
   0   2.0000     -88.268618     -2401.9112
   1   2.0000     -24.373972      -663.2495
   2   2.0000     -18.767370      -510.6861
   3   2.0000     -18.749460      -510.1988
   4   2.0000      -9.937884      -270.4236
   5   2.0000      -9.900649      -269.4104
   6   2.0000      -7.864495      -214.0038
   7   2.0000      -5.888916      -160.2455
   8   2.0000      -5.882254      -160.0643
   9   2.0000      -5.882035      -160.0583
  10   2.0000      -1.276024       -34.7224
  11   2.0000      -1.019098       -27.7311
  12   2.0000      -0.919581       -25.0231
  13   2.0000      -0.747393       -20.3376
  14   2.0000      -0.664830       -18.0909
  15   2.0000      -0.614013       -16.7082
  16   2.0000      -0.533116       -14.5068
  17   2.0000      -0.519273       -14.1301
  18   2.0000      -0.489792       -13.3279
  19   2.0000      -0.442200       -12.0329
  20   2.0000      -0.424199       -11.5430
  21   2.0000      -0.401884       -10.9358
  22   2.0000      -0.389874       -10.6090
  23   2.0000      -0.364920        -9.9300
  24   2.0000      -0.351251        -9.5580
  25   2.0000      -0.336106        -9.1459
  26   2.0000      -0.293813        -7.9951
  27   2.0000      -0.275174        -7.4879
  28   2.0000      -0.261853        -7.1254
  29   0.0000      -0.036533        -0.9941
  30   0.0000      -0.004595        -0.1250
  31   0.0000       0.008536         0.2323
  32   0.0000       0.011227         0.3055
  33   0.0000       0.017780         0.4838

MULLIKEN ATOMIC CHARGES
-----------------------
   0 C :   -0.915260
   1 C :   -0.168579
   2 S :    0.961552
   3 H :    0.242932
   4 H :    0.214195
   5 O :   -0.475237
   6 O :   -0.535479
   7 F :   -0.091737
   8 H :    0.275433
   9 H :    0.274791
  10 H :    0.217389
Sum of atomic charges:   -0.0000000

LOEWDIN ATOMIC CHARGES
----------------------
   0 C :   -0.111796
   1 C :   -0.283003
   2 S :    0.535288
   3 H :    0.095696
   4 H :    0.109421
   5 O :   -0.240687
   6 O :   -0.279126
   7 F :   -0.036064
   8 H :    0.065616
   9 H :    0.072828
  10 H :    0.071827

  Mayer bond orders larger than 0.100000
B(  0-C ,  1-C ) :   0.8525 B(  0-C ,  8-H ) :   0.9324 B(  0-C ,  9-H ) :   0.9728
B(  0-C , 10-H ) :   0.9771 B(  1-C ,  2-S ) :   0.8288 B(  1-C ,  3-H ) :   0.9305
B(  1-C ,  4-H ) :   0.9402 B(  1-C ,  5-O ) :   0.1171 B(  2-S ,  5-O ) :   1.7754
B(  2-S ,  6-O ) :   1.7056 B(  2-S ,  7-F ) :   1.0825 B(  5-O ,  6-O ) :   0.1158

Dispersion correction           -0.009186893
FINAL SINGLE POINT ENERGY      -727.319901579198

DIPOLE MOMENT
-------------
                                X             Y             Z
Electronic contribution:     -4.68928      -7.03563      -3.42093
Nuclear contribution   :      6.02439       7.89075       3.01280
                        -----------------------------------------
Total Dipole Moment    :      1.33511       0.85512      -0.40812
                        -----------------------------------------
Magnitude (a.u.)       :      1.63717
Magnitude (Debye)      :      4.16134

Rotational constants in cm-1:     0.153652     0.082400     0.079295
Rotational constants in MHz :  4606.361242  2470.285703  2377.214112

                             ****ORCA TERMINATED NORMALLY****
TOTAL RUN TIME: 0 days 0 hours 0 minutes 17 seconds 771 msec
