                         Program Version 5.0.0 -  RELEASE  -
|  1> !PBE D3BJ RIJCOSX def2-TZVPD def2/J TightSCF xyzfile
|  2>
|  3> *xyzfile 0 1 D1.xyz
|  4>
|  5> %MaxCore 64000
|  6>
|  7> %pal nprocs 4
|  8> end
|  9>
| 10> %scf
| 11>   MaxIter 150
| 12> end
| 13>
| 14>
| 15>                          ****END OF INPUT****

CARTESIAN COORDINATES (ANGSTROEM)
---------------------------------
  C      1.364014    0.468742   -2.813764
  C      0.428844    0.321402   -1.655312
  C      0.968045    1.630639   -3.715749
  C     -0.508347    1.722679   -4.124300
  S     -1.328608    0.146737   -4.435781
  H     -0.591511    2.294958   -5.047219
  H     -1.114114    2.235610   -3.374362
  H      0.748578   -0.400542   -1.001345
  H     -0.461053    0.023332   -2.077731
  H      0.310258    1.201375   -1.134948
  F     -2.571347    0.475733   -5.068341
  O     -1.514963   -0.400512   -3.063420
  H      1.294847   -0.468742   -3.364684
  H      2.376216    0.597400   -2.431495
  H      1.578688    1.520652   -4.612733
  H      1.266653    2.575988   -3.250448
  O     -0.377928   -0.627558   -5.201141

 Total Charge           Charge          ....    0
 Multiplicity           Mult            ....    1
 Number of Electrons    NEL             ....   74
 Basis Dimension        Dim             ....  395

ORBITAL ENERGIES
----------------

  NO   OCC          E(Eh)            E(eV)
   0   2.0000     -88.274616     -2402.0744
   1   2.0000     -24.382470      -663.4807
   2   2.0000     -18.768219      -510.7092
   3   2.0000     -18.757356      -510.4136
   4   2.0000      -9.938592      -270.4428
   5   2.0000      -9.902405      -269.4581
   6   2.0000      -9.867996      -268.5218
   7   2.0000      -9.811421      -266.9823
   8   2.0000      -7.870697      -214.1726
   9   2.0000      -5.894954      -160.4099
  10   2.0000      -5.888567      -160.2361
  11   2.0000      -5.888243      -160.2272
  12   2.0000      -1.289138       -35.0792
  13   2.0000      -1.021864       -27.8063
  14   2.0000      -0.929881       -25.3033
  15   2.0000      -0.755993       -20.5716
  16   2.0000      -0.703893       -19.1539
  17   2.0000      -0.656163       -17.8551
  18   2.0000      -0.612498       -16.6669
  19   2.0000      -0.546993       -14.8844
  20   2.0000      -0.532150       -14.4805
  21   2.0000      -0.516778       -14.0623
  22   2.0000      -0.490901       -13.3581
  23   2.0000      -0.453875       -12.3506
  24   2.0000      -0.443807       -12.0766
  25   2.0000      -0.410265       -11.1639
  26   2.0000      -0.407552       -11.0900
  27   2.0000      -0.377298       -10.2668
  28   2.0000      -0.360436        -9.8080
  29   2.0000      -0.354580        -9.6486
  30   2.0000      -0.339493        -9.2381
  31   2.0000      -0.312406        -8.5010
  32   2.0000      -0.304143        -8.2762
  33   2.0000      -0.283287        -7.7086
  34   2.0000      -0.279550        -7.6069
  35   2.0000      -0.269659        -7.3378
  36   2.0000      -0.238315        -6.4849
  37   0.0000      -0.032744        -0.8910
  38   0.0000      -0.015933        -0.4336
  39   0.0000       0.004155         0.1131
  40   0.0000       0.010263         0.2793
  41   0.0000       0.018297         0.4979

MULLIKEN ATOMIC CHARGES
-----------------------
   0 C :   -0.180806
   1 C :   -1.000422
   2 C :   -0.119890
   3 C :   -0.469905
   4 S :    0.968637
   5 H :    0.189219
   6 H :    0.280368
   7 H :    0.251139
   8 H :    0.326157
   9 H :    0.269064
  10 F :   -0.052151
  11 O :   -0.541855
  12 H :    0.228869
  13 H :    0.096401
  14 H :    0.119716
  15 H :    0.156142
  16 O :   -0.520682
Sum of atomic charges:    0.0000000

LOEWDIN ATOMIC CHARGES
----------------------
   0 C :   -0.251586
   1 C :   -0.113838
   2 C :   -0.214744
   3 C :   -0.223019
   4 S :    0.582960
   5 H :    0.098787
   6 H :    0.108218
   7 H :    0.062121
   8 H :   -0.033515
   9 H :    0.064819
  10 F :   -0.021198
  11 O :   -0.275407
  12 H :    0.104228
  13 H :    0.110891
  14 H :    0.111578
  15 H :    0.121953
  16 O :   -0.232246

  Mayer bond orders larger than 0.100000
B(  0-C ,  1-C ) :   0.7672 B(  0-C ,  2-C ) :   1.0113 B(  0-C , 12-H ) :   0.9130
B(  0-C , 13-H ) :   0.9603 B(  1-C ,  3-C ) :   0.1185 B(  1-C ,  7-H ) :   0.9371
B(  1-C ,  8-H ) :   1.0939 B(  1-C ,  9-H ) :   0.9524 B(  2-C ,  3-C ) :   1.1404
B(  2-C , 14-H ) :   0.8920 B(  2-C , 15-H ) :   0.9088 B(  3-C ,  4-S ) :   0.8450
B(  3-C ,  5-H ) :   0.9251 B(  3-C ,  6-H ) :   0.8507 B(  3-C , 11-O ) :   0.1457
B(  4-S , 10-F ) :   1.0785 B(  4-S , 11-O ) :   1.6873 B(  4-S , 16-O ) :   1.7357
B(  7-H ,  8-H ) :   0.1253 B(  8-H , 11-O ) :  -0.1754 B( 11-O , 16-O ) :   0.1233

Dispersion correction           -0.017785274
FINAL SINGLE POINT ENERGY      -805.816990511195

DIPOLE MOMENT
-------------
                                X             Y             Z
Electronic contribution:    -12.45484      -4.15668      -9.68998
Nuclear contribution   :     12.25227       5.48563       9.26621
                        -----------------------------------------
Total Dipole Moment    :     -0.20257       1.32895      -0.42377
                        -----------------------------------------
Magnitude (a.u.)       :      1.40951
Magnitude (Debye)      :      3.58270

Rotational constants in cm-1:     0.103176     0.044975     0.040960
Rotational constants in MHz :  3093.138469  1348.317425  1227.945122

                             ****ORCA TERMINATED NORMALLY****
TOTAL RUN TIME: 0 days 0 hours 0 minutes 24 seconds 467 msec
