                         Program Version 5.0.0 -  RELEASE  -
|  1> !PBE D3BJ RIJCOSX def2-TZVPD def2/J TightSCF xyzfile
|  2>
|  3> *xyzfile 0 1 D2.xyz
|  4>
|  5> %MaxCore 64000
|  6>
|  7> %pal nprocs 4
|  8> end
|  9>
| 10> %scf
| 11>   MaxIter 150
| 12> end
| 13>
| 14>
| 15>                          ****END OF INPUT****

CARTESIAN COORDINATES (ANGSTROEM)
---------------------------------
  C      1.364014    0.468742   -2.813764
  C      0.428844    0.321402   -1.655312
  C      0.968045    1.630639   -3.715749
  C     -0.508347    1.722679   -4.124300
  S     -1.328608    0.146737   -4.435781
  H     -0.591511    2.294958   -5.047219
  H     -1.114114    2.235610   -3.374362
  H      0.748578   -0.400542   -1.001345
  H     -0.461053    0.023332   -2.077731
  H      0.310258    1.201375   -1.134948
  O     -2.571347    0.475733   -5.068341
  F     -1.514963   -0.400512   -3.063420
  H      1.294847   -0.468742   -3.364684
  H      2.376216    0.597400   -2.431495
  H      1.578688    1.520652   -4.612733
  H      1.266653    2.575988   -3.250448
  O     -0.377928   -0.627558   -5.201141

 Total Charge           Charge          ....    0
 Multiplicity           Mult            ....    1
 Number of Electrons    NEL             ....   74
 Basis Dimension        Dim             ....  395

ORBITAL ENERGIES
----------------

  NO   OCC          E(Eh)            E(eV)
   0   2.0000     -88.269344     -2401.9310
   1   2.0000     -24.358329      -662.8238
   2   2.0000     -18.769435      -510.7423
   3   2.0000     -18.766603      -510.6652
   4   2.0000      -9.936613      -270.3890
   5   2.0000      -9.903202      -269.4798
   6   2.0000      -9.881126      -268.8791
   7   2.0000      -9.839415      -267.7441
   8   2.0000      -7.865679      -214.0360
   9   2.0000      -5.890236      -160.2815
  10   2.0000      -5.883488      -160.0978
  11   2.0000      -5.883021      -160.0851
  12   2.0000      -1.254406       -34.1341
  13   2.0000      -1.032017       -28.0826
  14   2.0000      -0.944929       -25.7128
  15   2.0000      -0.762709       -20.7544
  16   2.0000      -0.708091       -19.2681
  17   2.0000      -0.648350       -17.6425
  18   2.0000      -0.628177       -17.0936
  19   2.0000      -0.539696       -14.6859
  20   2.0000      -0.524968       -14.2851
  21   2.0000      -0.506034       -13.7699
  22   2.0000      -0.492045       -13.3892
  23   2.0000      -0.446990       -12.1632
  24   2.0000      -0.431124       -11.7315
  25   2.0000      -0.424970       -11.5640
  26   2.0000      -0.408400       -11.1131
  27   2.0000      -0.384111       -10.4522
  28   2.0000      -0.368876       -10.0376
  29   2.0000      -0.357701        -9.7335
  30   2.0000      -0.348088        -9.4719
  31   2.0000      -0.313329        -8.5261
  32   2.0000      -0.305984        -8.3262
  33   2.0000      -0.299591        -8.1523
  34   2.0000      -0.291608        -7.9351
  35   2.0000      -0.285288        -7.7631
  36   2.0000      -0.274766        -7.4768
  37   0.0000      -0.028676        -0.7803
  38   0.0000      -0.010202        -0.2776
  39   0.0000       0.001296         0.0353
  40   0.0000       0.004485         0.1220
  41   0.0000       0.014974         0.4075

MULLIKEN ATOMIC CHARGES
-----------------------
   0 C :   -0.202325
   1 C :   -1.056172
   2 C :   -0.053913
   3 C :   -0.450789
   4 S :    0.956014
   5 H :    0.158710
   6 H :    0.268842
   7 H :    0.259575
   8 H :    0.371799
   9 H :    0.286873
  10 O :   -0.499566
  11 F :   -0.142245
  12 H :    0.239222
  13 H :    0.094873
  14 H :    0.115259
  15 H :    0.165589
  16 O :   -0.511747
Sum of atomic charges:   -0.0000000

LOEWDIN ATOMIC CHARGES
----------------------
   0 C :   -0.255140
   1 C :   -0.103493
   2 C :   -0.222367
   3 C :   -0.217717
   4 S :    0.562812
   5 H :    0.110294
   6 H :    0.107557
   7 H :    0.063898
   8 H :   -0.005504
   9 H :    0.068467
  10 O :   -0.232096
  11 F :   -0.093930
  12 H :    0.102086
  13 H :    0.113196
  14 H :    0.112358
  15 H :    0.119210
  16 O :   -0.229630

  Mayer bond orders larger than 0.100000
B(  0-C ,  1-C ) :   0.7695 B(  0-C ,  2-C ) :   0.9739 B(  0-C , 12-H ) :   0.9316
B(  0-C , 13-H ) :   0.9617 B(  1-C ,  3-C ) :   0.1435 B(  1-C ,  7-H ) :   0.9238
B(  1-C ,  8-H ) :   1.0679 B(  1-C ,  9-H ) :   0.9090 B(  1-C , 11-F ) :   0.1208
B(  2-C ,  3-C ) :   1.0507 B(  2-C , 14-H ) :   0.9091 B(  2-C , 15-H ) :   0.9242
B(  3-C ,  4-S ) :   0.8443 B(  3-C ,  5-H ) :   0.9547 B(  3-C ,  6-H ) :   0.8766
B(  3-C , 10-O ) :   0.1266 B(  4-S , 10-O ) :   1.7129 B(  4-S , 11-F ) :   1.0628
B(  4-S , 16-O ) :   1.7397 B(  7-H ,  8-H ) :   0.1207 B(  8-H , 11-F ) :  -0.1493
B( 10-O , 16-O ) :   0.1159

Dispersion correction           -0.017587837
FINAL SINGLE POINT ENERGY      -805.836705590085

DIPOLE MOMENT
-------------
                                X             Y             Z
Electronic contribution:    -10.53267      -5.61613      -6.20858
Nuclear contribution   :     11.08796       6.45140       7.05645
                        -----------------------------------------
Total Dipole Moment    :      0.55529       0.83527       0.84787
                        -----------------------------------------
Magnitude (a.u.)       :      1.31336
Magnitude (Debye)      :      3.33829

Rotational constants in cm-1:     0.100113     0.046890     0.041843
Rotational constants in MHz :  3001.313402  1405.711946  1254.411771

                             ****ORCA TERMINATED NORMALLY****
TOTAL RUN TIME: 0 days 0 hours 0 minutes 24 seconds 409 msec
