                         Program Version 5.0.0 -  RELEASE  -
|  1> !PBE D3BJ RIJCOSX def2-TZVPD def2/J TightSCF xyzfile
|  2>
|  3> *xyzfile 0 1 D3.xyz
|  4>
|  5> %MaxCore 64000
|  6>
|  7> %pal nprocs 4
|  8> end
|  9>
| 10> %scf
| 11>   MaxIter 150
| 12> end
| 13>
| 14>
| 15>                          ****END OF INPUT****

CARTESIAN COORDINATES (ANGSTROEM)
---------------------------------
  C      1.364014    0.468742   -2.813764
  C      0.428844    0.321402   -1.655312
  C      0.968045    1.630639   -3.715749
  C     -0.508347    1.722679   -4.124300
  S     -1.328608    0.146737   -4.435781
  H     -0.591511    2.294958   -5.047219
  H     -1.114114    2.235610   -3.374362
  H      0.748578   -0.400542   -1.001345
  H     -0.461053    0.023332   -2.077731
  H      0.310258    1.201375   -1.134948
  O     -2.571347    0.475733   -5.068341
  O     -1.514963   -0.400512   -3.063420
  H      1.294847   -0.468742   -3.364684
  H      2.376216    0.597400   -2.431495
  H      1.578688    1.520652   -4.612733
  H      1.266653    2.575988   -3.250448
  F     -0.377928   -0.627558   -5.201141

 Total Charge           Charge          ....    0
 Multiplicity           Mult            ....    1
 Number of Electrons    NEL             ....   74
 Basis Dimension        Dim             ....  395

ORBITAL ENERGIES
----------------

  NO   OCC          E(Eh)            E(eV)
   0   2.0000     -88.274711     -2402.0770
   1   2.0000     -24.378112      -663.3622
   2   2.0000     -18.771213      -510.7907
   3   2.0000     -18.756544      -510.3915
   4   2.0000      -9.938313      -270.4352
   5   2.0000      -9.905700      -269.5478
   6   2.0000      -9.879051      -268.8226
   7   2.0000      -9.814965      -267.0788
   8   2.0000      -7.870759      -214.1743
   9   2.0000      -5.895194      -160.4164
  10   2.0000      -5.888669      -160.2388
  11   2.0000      -5.888118      -160.2238
  12   2.0000      -1.280670       -34.8488
  13   2.0000      -1.026330       -27.9279
  14   2.0000      -0.933389       -25.3988
  15   2.0000      -0.761613       -20.7246
  16   2.0000      -0.702962       -19.1286
  17   2.0000      -0.656307       -17.8590
  18   2.0000      -0.614583       -16.7236
  19   2.0000      -0.551469       -15.0062
  20   2.0000      -0.527655       -14.3582
  21   2.0000      -0.521724       -14.1968
  22   2.0000      -0.488567       -13.2946
  23   2.0000      -0.448531       -12.2051
  24   2.0000      -0.445185       -12.1141
  25   2.0000      -0.420160       -11.4331
  26   2.0000      -0.408365       -11.1122
  27   2.0000      -0.381955       -10.3935
  28   2.0000      -0.365666        -9.9503
  29   2.0000      -0.354061        -9.6345
  30   2.0000      -0.344561        -9.3760
  31   2.0000      -0.321602        -8.7512
  32   2.0000      -0.303933        -8.2704
  33   2.0000      -0.292849        -7.9688
  34   2.0000      -0.287949        -7.8355
  35   2.0000      -0.279770        -7.6129
  36   2.0000      -0.232482        -6.3262
  37   0.0000      -0.036411        -0.9908
  38   0.0000      -0.010437        -0.2840
  39   0.0000      -0.000044        -0.0012
  40   0.0000       0.010268         0.2794
  41   0.0000       0.014054         0.3824

MULLIKEN ATOMIC CHARGES
-----------------------
   0 C :   -0.113103
   1 C :   -0.985623
   2 C :   -0.146103
   3 C :   -0.401164
   4 S :    0.959364
   5 H :    0.168742
   6 H :    0.251758
   7 H :    0.253700
   8 H :    0.327776
   9 H :    0.274210
  10 O :   -0.487821
  11 O :   -0.533844
  12 H :    0.172243
  13 H :    0.085988
  14 H :    0.121600
  15 H :    0.159245
  16 F :   -0.106969
Sum of atomic charges:    0.0000000

LOEWDIN ATOMIC CHARGES
----------------------
   0 C :   -0.257255
   1 C :   -0.116111
   2 C :   -0.226269
   3 C :   -0.211667
   4 S :    0.580996
   5 H :    0.101517
   6 H :    0.118777
   7 H :    0.061988
   8 H :   -0.035604
   9 H :    0.066233
  10 O :   -0.229854
  11 O :   -0.269106
  12 H :    0.100927
  13 H :    0.111408
  14 H :    0.107487
  15 H :    0.120464
  16 F :   -0.023930

  Mayer bond orders larger than 0.100000
B(  0-C ,  1-C ) :   0.7586 B(  0-C ,  2-C ) :   0.9506 B(  0-C , 12-H ) :   0.9437
B(  0-C , 13-H ) :   0.9668 B(  1-C ,  3-C ) :   0.1142 B(  1-C ,  7-H ) :   0.9460
B(  1-C ,  8-H ) :   1.1204 B(  1-C ,  9-H ) :   0.9505 B(  1-C , 11-O ) :   0.1010
B(  2-C ,  3-C ) :   1.0985 B(  2-C , 14-H ) :   0.9354 B(  2-C , 15-H ) :   0.9090
B(  3-C ,  4-S ) :   0.8223 B(  3-C ,  5-H ) :   0.9800 B(  3-C ,  6-H ) :   0.8771
B(  3-C , 10-O ) :   0.1197 B(  3-C , 11-O ) :   0.1375 B(  4-S , 10-O ) :   1.7467
B(  4-S , 11-O ) :   1.7028 B(  4-S , 16-F ) :   1.0856 B(  7-H ,  8-H ) :   0.1226
B(  8-H , 11-O ) :  -0.2026

Dispersion correction           -0.017648302
FINAL SINGLE POINT ENERGY      -805.820396296816

DIPOLE MOMENT
-------------
                                X             Y             Z
Electronic contribution:     -8.72151      -6.01008      -9.87299
Nuclear contribution   :      9.83476       6.70164       9.41257
                        -----------------------------------------
Total Dipole Moment    :      1.11326       0.69155      -0.46041
                        -----------------------------------------
Magnitude (a.u.)       :      1.38909
Magnitude (Debye)      :      3.53079

Rotational constants in cm-1:     0.099832     0.045916     0.042219
Rotational constants in MHz :  2992.874960  1376.530174  1265.693813

                             ****ORCA TERMINATED NORMALLY****
TOTAL RUN TIME: 0 days 0 hours 0 minutes 26 seconds 475 msec
