                         Program Version 5.0.0 -  RELEASE  -
|  1> !TPSS D3BJ RIJCOSX def2-SVPD def2/J TightSCF
|  2> *xyz -1 1
|  3> C         -0.91495        0.61511        2.50554
|  4> C         -0.05915        1.50352        3.41058
|  5> H          0.36536        2.34431        2.86116
|  6> H         -0.69226        1.92021        4.19898
|  7> C          1.08303        0.74964        4.08571
|  8> O          2.22817        1.26348        4.01983
|  9> O          0.81003       -0.34541        4.63627
| 10> C         -0.13074       -0.19398        1.47076
| 11> H         -1.64796        1.24596        1.99108
| 12> H         -1.47818       -0.08105        3.13042
| 13> H         -0.80952       -0.78099        0.88803
| 14> H          0.55985       -0.83974        1.97175
| 15> H          0.40595        0.47288        0.82877
| 16> *
| 17>
| 18> %MaxCore 64000
| 19>
| 20> %pal nprocs 4
| 21> end
| 22>
| 23> %scf
| 24>   MaxIter 150
| 25> end
| 26>
| 27>
| 28>                          ****END OF INPUT****

CARTESIAN COORDINATES (ANGSTROEM)
---------------------------------
  C     -0.914950    0.615110    2.505540
  C     -0.059150    1.503520    3.410580
  H      0.365360    2.344310    2.861160
  H     -0.692260    1.920210    4.198980
  C      1.083030    0.749640    4.085710
  O      2.228170    1.263480    4.019830
  O      0.810030   -0.345410    4.636270
  C     -0.130740   -0.193980    1.470760
  H     -1.647960    1.245960    1.991080
  H     -1.478180   -0.081050    3.130420
  H     -0.809520   -0.780990    0.888030
  H      0.559850   -0.839740    1.971750
  H      0.405950    0.472880    0.828770

 Total Charge           Charge          ....   -1
 Multiplicity           Mult            ....    1
 Number of Electrons    NEL             ....   48
 Basis Dimension        Dim             ....  182

ORBITAL ENERGIES
----------------

  NO   OCC          E(Eh)            E(eV)
   0   2.0000     -18.641350      -507.2569
   1   2.0000     -18.640403      -507.2311
   2   2.0000      -9.878201      -268.7995
   3   2.0000      -9.851261      -268.0664
   4   2.0000      -9.846239      -267.9298
   5   2.0000      -9.826952      -267.4050
   6   2.0000      -0.742978       -20.2175
   7   2.0000      -0.653536       -17.7836
   8   2.0000      -0.572166       -15.5694
   9   2.0000      -0.483172       -13.1478
  10   2.0000      -0.391700       -10.6587
  11   2.0000      -0.281030        -7.6472
  12   2.0000      -0.262364        -7.1393
  13   2.0000      -0.243748        -6.6327
  14   2.0000      -0.215811        -5.8725
  15   2.0000      -0.187444        -5.1006
  16   2.0000      -0.173873        -4.7313
  17   2.0000      -0.165454        -4.5022
  18   2.0000      -0.155080        -4.2199
  19   2.0000      -0.134099        -3.6490
  20   2.0000      -0.124202        -3.3797
  21   2.0000      -0.016408        -0.4465
  22   2.0000      -0.002986        -0.0813
  23   2.0000       0.012751         0.3470
  24   0.0000       0.137358         3.7377
  25   0.0000       0.161233         4.3874
  26   0.0000       0.178664         4.8617
  27   0.0000       0.188398         5.1266
  28   0.0000       0.203959         5.5500

MULLIKEN ATOMIC CHARGES
-----------------------
   0 C :   -0.447901
   1 C :    0.088572
   2 H :    0.011131
   3 H :   -0.006171
   4 C :    0.416973
   5 O :   -0.689070
   6 O :   -0.739363
   7 C :    0.562854
   8 H :   -0.153627
   9 H :    0.037727
  10 H :   -0.054852
  11 H :   -0.021232
  12 H :   -0.005042
Sum of atomic charges:   -1.0000000

LOEWDIN ATOMIC CHARGES
----------------------
   0 C :   -0.085668
   1 C :    0.001927
   2 H :   -0.004383
   3 H :    0.005606
   4 C :   -0.307431
   5 O :   -0.322895
   6 O :   -0.312394
   7 C :    0.122395
   8 H :   -0.008217
   9 H :    0.005836
  10 H :   -0.041189
  11 H :   -0.025031
  12 H :   -0.028556

  Mayer bond orders larger than 0.100000
B(  0-C ,  1-C ) :   1.1972 B(  0-C ,  2-H ) :   0.1356 B(  0-C ,  3-H ) :   0.1202
B(  0-C ,  7-C ) :   1.3307 B(  0-C ,  8-H ) :   1.0026 B(  0-C ,  9-H ) :   0.8950
B(  0-C , 10-H ) :   0.2122 B(  0-C , 11-H ) :   0.2090 B(  0-C , 12-H ) :   0.1980
B(  1-C ,  2-H ) :   0.8926 B(  1-C ,  3-H ) :   0.8450 B(  1-C ,  4-C ) :   1.0556
B(  1-C ,  8-H ) :   0.1042 B(  1-C ,  9-H ) :   0.1242 B(  2-H ,  4-C ) :   0.2122
B(  3-H ,  4-C ) :   0.1046 B(  4-C ,  5-O ) :   1.3986 B(  4-C ,  6-O ) :   1.4617
B(  7-C , 10-H ) :   0.7772 B(  7-C , 11-H ) :   0.8550 B(  7-C , 12-H ) :   0.8096

Dispersion correction           -0.012220801
FINAL SINGLE POINT ENERGY      -307.002765639949

DIPOLE MOMENT
-------------
                                X             Y             Z
Electronic contribution:      4.66405       0.17569       5.55771
Nuclear contribution   :     -6.45806       0.15825      -7.12052
                        -----------------------------------------
Total Dipole Moment    :     -1.79402       0.33393      -1.56281
                        -----------------------------------------
Magnitude (a.u.)       :      2.40258
Magnitude (Debye)      :      6.10687

Rotational constants in cm-1:     0.199323     0.080770     0.077827
Rotational constants in MHz :  5975.562678  2421.415024  2333.195390

                             ****ORCA TERMINATED NORMALLY****
TOTAL RUN TIME: 0 days 0 hours 0 minutes 9 seconds 592 msec
