                         Program Version 5.0.0 -  RELEASE  -
|  1> !TPSS D3BJ RIJCOSX def2-SVPD def2/J TightSCF
|  2> *xyz 1 1
|  3> C          4.60295       -2.44010        2.63478
|  4> C          3.86085       -1.59157        3.62289
|  5> N          2.75650       -2.04616        4.16633
|  6> N          4.25433       -0.36291        3.86046
|  7> H          3.56526        0.31099        4.16898
|  8> H          5.05429       -0.01606        3.33784
|  9> H          2.43970       -2.97389        3.89740
| 10> H          2.06687       -1.41253        4.54981
| 11> C          3.74469       -2.58056        1.36188
| 12> C          3.20372       -1.25600        0.82621
| 13> H          2.89894       -3.23929        1.58307
| 14> H          4.33496       -3.09552        0.60019
| 15> H          5.56156       -1.97135        2.40708
| 16> H          4.81050       -3.42255        3.06310
| 17> H          2.62184       -1.43789       -0.05313
| 18> H          4.02069       -0.60826        0.58562
| 19> H          2.58975       -0.79418        1.57097
| 20> *
| 21>
| 22> %MaxCore 64000
| 23>
| 24> %pal nprocs 4
| 25> end
| 26>
| 27> %scf
| 28>   MaxIter 150
| 29> end
| 30>
| 31>
| 32>                          ****END OF INPUT****

CARTESIAN COORDINATES (ANGSTROEM)
---------------------------------
  C      4.602950   -2.440100    2.634780
  C      3.860850   -1.591570    3.622890
  N      2.756500   -2.046160    4.166330
  N      4.254330   -0.362910    3.860460
  H      3.565260    0.310990    4.168980
  H      5.054290   -0.016060    3.337840
  H      2.439700   -2.973890    3.897400
  H      2.066870   -1.412530    4.549810
  C      3.744690   -2.580560    1.361880
  C      3.203720   -1.256000    0.826210
  H      2.898940   -3.239290    1.583070
  H      4.334960   -3.095520    0.600190
  H      5.561560   -1.971350    2.407080
  H      4.810500   -3.422550    3.063100
  H      2.621840   -1.437890   -0.053130
  H      4.020690   -0.608260    0.585620
  H      2.589750   -0.794180    1.570970

 Total Charge           Charge          ....    1
 Multiplicity           Mult            ....    1
 Number of Electrons    NEL             ....   48
 Basis Dimension        Dim             ....  208

ORBITAL ENERGIES
----------------

  NO   OCC          E(Eh)            E(eV)
   0   2.0000     -14.361610      -390.7993
   1   2.0000     -14.361308      -390.7911
   2   2.0000     -10.309920      -280.5472
   3   2.0000     -10.198287      -277.5095
   4   2.0000     -10.169501      -276.7262
   5   2.0000     -10.138788      -275.8905
   6   2.0000      -1.131842       -30.7990
   7   2.0000      -1.040157       -28.3041
   8   2.0000      -0.913943       -24.8696
   9   2.0000      -0.831539       -22.6273
  10   2.0000      -0.782438       -21.2912
  11   2.0000      -0.734485       -19.9864
  12   2.0000      -0.724350       -19.7106
  13   2.0000      -0.687910       -18.7190
  14   2.0000      -0.653851       -17.7922
  15   2.0000      -0.622210       -16.9312
  16   2.0000      -0.588246       -16.0070
  17   2.0000      -0.553186       -15.0530
  18   2.0000      -0.535857       -14.5814
  19   2.0000      -0.530411       -14.4332
  20   2.0000      -0.476338       -12.9618
  21   2.0000      -0.473069       -12.8729
  22   2.0000      -0.464330       -12.6351
  23   2.0000      -0.456679       -12.4269
  24   0.0000      -0.242998        -6.6123
  25   0.0000      -0.171266        -4.6604
  26   0.0000      -0.132152        -3.5960
  27   0.0000      -0.128566        -3.4985
  28   0.0000      -0.100445        -2.7333

MULLIKEN ATOMIC CHARGES
-----------------------
   0 C :    0.281622
   1 C :    0.492444
   2 N :    0.007289
   3 N :   -0.019752
   4 H :   -0.059325
   5 H :    0.099627
   6 H :    0.095964
   7 H :   -0.096043
   8 C :   -0.373389
   9 C :    0.722093
  10 H :    0.035907
  11 H :   -0.131028
  12 H :    0.050480
  13 H :    0.018656
  14 H :   -0.093082
  15 H :   -0.000097
  16 H :   -0.031366
Sum of atomic charges:    1.0000000

LOEWDIN ATOMIC CHARGES
----------------------
   0 C :    0.061695
   1 C :   -0.072334
   2 N :    0.293627
   3 N :    0.293039
   4 H :    0.049325
   5 H :    0.052777
   6 H :    0.053174
   7 H :    0.050475
   8 C :   -0.030492
   9 C :    0.152178
  10 H :    0.020578
  11 H :    0.038366
  12 H :    0.035081
  13 H :    0.044835
  14 H :   -0.000840
  15 H :   -0.008732
  16 H :   -0.032752

  Mayer bond orders larger than 0.100000
B(  0-C ,  1-C ) :   1.1646 B(  0-C ,  8-C ) :   1.1530 B(  0-C , 12-H ) :   0.8007
B(  0-C , 13-H ) :   0.8225 B(  1-C ,  2-N ) :   1.0925 B(  1-C ,  3-N ) :   1.0579
B(  1-C ,  4-H ) :  -0.1371 B(  1-C ,  7-H ) :  -0.1235 B(  1-C , 12-H ) :   0.1554
B(  1-C , 13-H ) :   0.1631 B(  2-N ,  3-N ) :   0.1975 B(  2-N ,  6-H ) :   1.0100
B(  2-N ,  7-H ) :   1.2397 B(  3-N ,  4-H ) :   1.2161 B(  3-N ,  5-H ) :   0.9898
B(  4-H ,  5-H ) :  -0.1346 B(  6-H ,  7-H ) :  -0.1521 B(  8-C ,  9-C ) :   1.3488
B(  8-C , 10-H ) :   0.8938 B(  8-C , 11-H ) :   1.0067 B(  8-C , 12-H ) :   0.1300
B(  8-C , 14-H ) :   0.2126 B(  8-C , 15-H ) :   0.1889 B(  8-C , 16-H ) :   0.2203
B(  9-C , 14-H ) :   0.7814 B(  9-C , 15-H ) :   0.7823 B(  9-C , 16-H ) :   0.8093

Dispersion correction           -0.017558887
FINAL SINGLE POINT ENERGY      -268.222810827717

DIPOLE MOMENT
-------------
                                X             Y             Z
Electronic contribution:      0.49239       0.57544       5.20855
Nuclear contribution   :     -0.82989      -0.08664      -4.26094
                        -----------------------------------------
Total Dipole Moment    :     -0.33750       0.48880       0.94761
                        -----------------------------------------
Magnitude (a.u.)       :      1.11839
Magnitude (Debye)      :      2.84273

Rotational constants in cm-1:     0.166042     0.084809     0.078793
Rotational constants in MHz :  4977.819890  2542.513379  2362.161076

                             ****ORCA TERMINATED NORMALLY****
TOTAL RUN TIME: 0 days 0 hours 0 minutes 13 seconds 591 msec
