                         Program Version 5.0.0 -  RELEASE  -
|  1> !TPSS D3BJ RIJCOSX def2-SVPD def2/J TightSCF xyzfile
|  2>
|  3> *xyzfile 0 1 B.xyz
|  4>
|  5> %MaxCore 64000
|  6>
|  7> %pal nprocs 4
|  8> end
|  9>
| 10> %scf
| 11>   MaxIter 150
| 12> end
| 13>
| 14>
| 15>                          ****END OF INPUT****

CARTESIAN COORDINATES (ANGSTROEM)
---------------------------------
  C      4.602954   -2.440100    2.634780
  C     -0.914947    0.615112    2.505538
  C     -0.059146    1.503524    3.410578
  H      0.365364    2.344315    2.861161
  H     -0.692261    1.920207    4.198985
  C      1.083027    0.749640    4.085705
  C      3.860851   -1.591565    3.622893
  N      2.756502   -2.046159    4.166333
  N      4.254325   -0.362905    3.860455
  H      3.565256    0.310994    4.168983
  H      5.054292   -0.016059    3.337838
  H      2.439696   -2.973894    3.897395
  H      2.066869   -1.412532    4.549813
  O      2.228167    1.263475    4.019826
  O      0.810034   -0.345411    4.636269
  C      3.744685   -2.580557    1.361882
  C      0.772139    0.636882    0.562129
  C     -0.130740   -0.193985    1.470763
  H     -0.840563   -0.760165    0.856377
  H      0.466691   -0.938942    2.006959
  H     -1.647961    1.245963    1.991076
  H     -1.478180   -0.081046    3.130424
  C      3.203721   -1.256004    0.826211
  H      2.898939   -3.239289    1.583074
  H      4.334962   -3.095523    0.600188
  C      2.107815   -1.442385   -0.216865
  H      2.786775   -0.672760    1.650711
  H      4.021008   -0.652993    0.414046
  C      1.390662   -0.145912   -0.602422
  H      1.372179   -2.152184    0.176151
  H      2.523302   -1.906787   -1.117115
  H      1.561361    1.100094    1.161831
  H      0.195516    1.468325    0.142758
  H      0.602893   -0.398214   -1.319716
  H      2.087247    0.508272   -1.137335
  H      5.561557   -1.971347    2.407084
  H      4.810498   -3.422552    3.063099

 Total Charge           Charge          ....    0
 Multiplicity           Mult            ....    1
 Number of Electrons    NEL             ....  118
 Basis Dimension        Dim             ....  482

ORBITAL ENERGIES
----------------

  NO   OCC          E(Eh)            E(eV)
   0   2.0000     -18.827145      -512.3127
   1   2.0000     -18.825424      -512.2658
   2   2.0000     -14.159806      -385.3079
   3   2.0000     -14.159629      -385.3031
   4   2.0000     -10.126873      -275.5662
   5   2.0000     -10.057096      -273.6675
   6   2.0000     -10.051167      -273.5061
   7   2.0000     -10.033504      -273.0255
   8   2.0000     -10.010503      -272.3996
   9   2.0000     -10.001685      -272.1597
  10   2.0000      -9.993671      -271.9416
  11   2.0000      -9.983492      -271.6646
  12   2.0000      -9.980240      -271.5762
  13   2.0000      -9.976082      -271.4630
  14   2.0000      -9.967036      -271.2168
  15   2.0000      -0.945402       -25.7257
  16   2.0000      -0.928939       -25.2777
  17   2.0000      -0.854155       -23.2428
  18   2.0000      -0.837623       -22.7929
  19   2.0000      -0.772645       -21.0247
  20   2.0000      -0.739223       -20.1153
  21   2.0000      -0.710447       -19.3323
  22   2.0000      -0.672962       -18.3122
  23   2.0000      -0.637057       -17.3352
  24   2.0000      -0.604322       -16.4444
  25   2.0000      -0.588276       -16.0078
  26   2.0000      -0.567905       -15.4535
  27   2.0000      -0.535793       -14.5797
  28   2.0000      -0.529879       -14.4187
  29   2.0000      -0.522858       -14.2277
  30   2.0000      -0.496803       -13.5187
  31   2.0000      -0.469366       -12.7721
  32   2.0000      -0.465100       -12.6560
  33   2.0000      -0.442989       -12.0543
  34   2.0000      -0.428107       -11.6494
  35   2.0000      -0.420247       -11.4355
  36   2.0000      -0.412779       -11.2323
  37   2.0000      -0.401186       -10.9168
  38   2.0000      -0.390695       -10.6313
  39   2.0000      -0.380292       -10.3483
  40   2.0000      -0.369683       -10.0596
  41   2.0000      -0.365396        -9.9429
  42   2.0000      -0.358461        -9.7542
  43   2.0000      -0.353304        -9.6139
  44   2.0000      -0.336422        -9.1545
  45   2.0000      -0.335354        -9.1255
  46   2.0000      -0.329787        -8.9740
  47   2.0000      -0.323267        -8.7965
  48   2.0000      -0.315012        -8.5719
  49   2.0000      -0.298944        -8.1347
  50   2.0000      -0.296615        -8.0713
  51   2.0000      -0.288125        -7.8403
  52   2.0000      -0.274482        -7.4690
  53   2.0000      -0.269115        -7.3230
  54   2.0000      -0.267447        -7.2776
  55   2.0000      -0.261669        -7.1204
  56   2.0000      -0.201490        -5.4828
  57   2.0000      -0.187675        -5.1069
  58   2.0000      -0.177676        -4.8348
  59   0.0000      -0.062887        -1.7112
  60   0.0000      -0.017411        -0.4738
  61   0.0000       0.002165         0.0589
  62   0.0000       0.014560         0.3962
  63   0.0000       0.021506         0.5852

MULLIKEN ATOMIC CHARGES
-----------------------
   0 C :    0.531989
   1 C :    0.449848
   2 C :    0.123309
   3 H :    0.175185
   4 H :   -0.151339
   5 C :    0.495811
   6 C :    0.330659
   7 N :    0.320674
   8 N :    0.305410
   9 H :   -0.359046
  10 H :    0.094751
  11 H :    0.088810
  12 H :   -0.435372
  13 O :   -0.707321
  14 O :   -0.768710
  15 C :    0.123385
  16 C :   -0.246752
  17 C :   -0.202339
  18 H :   -0.152836
  19 H :   -0.031033
  20 H :   -0.075081
  21 H :    0.081468
  22 C :    0.128947
  23 H :    0.048742
  24 H :   -0.233938
  25 C :   -0.088847
  26 H :   -0.309579
  27 H :    0.016187
  28 C :    0.738765
  29 H :    0.203569
  30 H :   -0.330184
  31 H :    0.207627
  32 H :   -0.470503
  33 H :    0.099016
  34 H :    0.005013
  35 H :    0.019816
  36 H :   -0.026101
Sum of atomic charges:   -0.0000000

LOEWDIN ATOMIC CHARGES
----------------------
   0 C :    0.047165
   1 C :   -0.018097
   2 C :    0.039838
   3 H :    0.010849
   4 H :    0.026142
   5 C :   -0.194041
   6 C :   -0.078150
   7 N :    0.310101
   8 N :    0.299328
   9 H :   -0.092069
  10 H :    0.035400
  11 H :    0.036936
  12 H :   -0.093070
  13 O :   -0.236158
  14 O :   -0.231890
  15 C :   -0.006382
  16 C :   -0.024017
  17 C :   -0.026589
  18 H :    0.020492
  19 H :    0.002023
  20 H :    0.014582
  21 H :    0.017959
  22 C :   -0.019552
  23 H :    0.014924
  24 H :    0.025734
  25 C :   -0.028675
  26 H :   -0.010655
  27 H :    0.033305
  28 C :   -0.021356
  29 H :    0.013354
  30 H :    0.019219
  31 H :    0.008495
  32 H :    0.020557
  33 H :    0.017485
  34 H :    0.017028
  35 H :    0.021342
  36 H :    0.028443

  Mayer bond orders larger than 0.100000
B(  0-C ,  6-C ) :   1.1181 B(  0-C ,  8-N ) :   0.1041 B(  0-C , 15-C ) :   1.1334
B(  0-C , 35-H ) :   0.7415 B(  0-C , 36-H ) :   0.6700 B(  1-C ,  2-C ) :   1.1950
B(  1-C ,  4-H ) :   0.1557 B(  1-C , 17-C ) :   1.2469 B(  1-C , 19-H ) :   0.1055
B(  1-C , 20-H ) :   0.7752 B(  1-C , 21-H ) :   0.6363 B(  2-C ,  3-H ) :   0.8260
B(  2-C ,  4-H ) :   0.7384 B(  2-C ,  5-C ) :   1.1038 B(  2-C , 17-C ) :   0.1285
B(  2-C , 20-H ) :   0.1551 B(  2-C , 21-H ) :   0.1241 B(  3-H ,  5-C ) :   0.1862
B(  4-H ,  5-C ) :   0.2041 B(  5-C , 13-O ) :   1.3133 B(  5-C , 14-O ) :   1.2307
B(  6-C ,  7-N ) :   1.0195 B(  6-C ,  8-N ) :   1.0460 B(  6-C , 12-H ) :  -0.1021
B(  6-C , 35-H ) :   0.1981 B(  6-C , 36-H ) :   0.1986 B(  7-N ,  8-N ) :   0.2109
B(  7-N , 11-H ) :   0.9957 B(  7-N , 12-H ) :   1.1399 B(  8-N ,  9-H ) :   1.1074
B(  8-N , 10-H ) :   0.9960 B(  9-H , 10-H ) :  -0.2266 B(  9-H , 13-O ) :   0.1449
B( 11-H , 12-H ) :  -0.2392 B( 12-H , 14-O ) :   0.1962 B( 13-O , 14-O ) :   0.1486
B( 15-C , 22-C ) :   1.1692 B( 15-C , 23-H ) :   0.8721 B( 15-C , 24-H ) :   0.9170
B( 15-C , 25-C ) :   0.1056 B( 15-C , 26-H ) :   0.1275 B( 15-C , 27-H ) :   0.1042
B( 15-C , 35-H ) :   0.1376 B( 15-C , 36-H ) :   0.1592 B( 16-C , 17-C ) :   1.2868
B( 16-C , 18-H ) :   0.1717 B( 16-C , 19-H ) :   0.1225 B( 16-C , 25-C ) :   0.1731
B( 16-C , 28-C ) :   1.0678 B( 16-C , 31-H ) :   0.8096 B( 16-C , 32-H ) :   1.1526
B( 16-C , 33-H ) :   0.1470 B( 16-C , 34-H ) :   0.2647 B( 17-C , 18-H ) :   0.8851
B( 17-C , 19-H ) :   0.9191 B( 17-C , 20-H ) :   0.1941 B( 17-C , 21-H ) :   0.2346
B( 17-C , 32-H ) :   0.1212 B( 20-H , 21-H ) :  -0.1039 B( 22-C , 23-H ) :   0.1295
B( 22-C , 24-H ) :   0.2237 B( 22-C , 25-C ) :   1.2184 B( 22-C , 26-H ) :   0.9218
B( 22-C , 27-H ) :   0.7319 B( 22-C , 29-H ) :   0.1185 B( 22-C , 30-H ) :   0.2159
B( 25-C , 27-H ) :   0.1042 B( 25-C , 28-C ) :   1.1604 B( 25-C , 29-H ) :   0.8047
B( 25-C , 30-H ) :   0.9854 B( 25-C , 33-H ) :   0.2044 B( 25-C , 34-H ) :   0.1591
B( 26-H , 27-H ) :   0.1864 B( 26-H , 31-H ) :   0.1918 B( 26-H , 32-H ) :  -0.1231
B( 28-C , 29-H ) :   0.1055 B( 28-C , 33-H ) :   0.6498 B( 28-C , 34-H ) :   0.6351

Dispersion correction           -0.053741461
FINAL SINGLE POINT ENERGY      -692.123207057719

DIPOLE MOMENT
-------------
                                X             Y             Z
Electronic contribution:      3.40300       1.65306      13.04770
Nuclear contribution   :     -1.50655      -3.48027     -14.35034
                        -----------------------------------------
Total Dipole Moment    :      1.89644      -1.82721      -1.30264
                        -----------------------------------------
Magnitude (a.u.)       :      2.93804
Magnitude (Debye)      :      7.46790

Rotational constants in cm-1:     0.021781     0.017296     0.011403
Rotational constants in MHz :   652.971749   518.510612   341.853154

                             ****ORCA TERMINATED NORMALLY****
TOTAL RUN TIME: 0 days 0 hours 1 minutes 36 seconds 602 msec
