                         Program Version 5.0.0 -  RELEASE  -
|  1> !TPSS D3BJ RIJCOSX def2-SVPD def2/J TightSCF
|  2> *xyz 0 1
|  3> C         -0.91495        0.61511        2.50554
|  4> C         -0.05915        1.50352        3.41058
|  5> H          0.36536        2.34431        2.86116
|  6> H         -0.69226        1.92021        4.19898
|  7> C          1.08303        0.74964        4.08571
|  8> F          2.22817        1.26348        4.01983
|  9> O          0.81003       -0.34541        4.63627
| 10> C         -0.13074       -0.19398        1.47076
| 11> H         -1.64796        1.24596        1.99108
| 12> H         -1.47818       -0.08105        3.13042
| 13> H         -0.80952       -0.78099        0.88803
| 14> H          0.55985       -0.83974        1.97175
| 15> H          0.40595        0.47288        0.82877
| 16> *
| 17>
| 18> %MaxCore 64000
| 19>
| 20> %pal nprocs 4
| 21> end
| 22>
| 23> %scf
| 24>   MaxIter 150
| 25> end
| 26>
| 27>
| 28>                          ****END OF INPUT****

CARTESIAN COORDINATES (ANGSTROEM)
---------------------------------
  C     -0.914950    0.615110    2.505540
  C     -0.059150    1.503520    3.410580
  H      0.365360    2.344310    2.861160
  H     -0.692260    1.920210    4.198980
  C      1.083030    0.749640    4.085710
  F      2.228170    1.263480    4.019830
  O      0.810030   -0.345410    4.636270
  C     -0.130740   -0.193980    1.470760
  H     -1.647960    1.245960    1.991080
  H     -1.478180   -0.081050    3.130420
  H     -0.809520   -0.780990    0.888030
  H      0.559850   -0.839740    1.971750
  H      0.405950    0.472880    0.828770

 Total Charge           Charge          ....    0
 Multiplicity           Mult            ....    1
 Number of Electrons    NEL             ....   48
 Basis Dimension        Dim             ....  182

ORBITAL ENERGIES
----------------

  NO   OCC          E(Eh)            E(eV)
   0   2.0000     -24.496225      -666.5762
   1   2.0000     -18.906854      -514.4817
   2   2.0000     -10.170711      -276.7591
   3   2.0000     -10.031741      -272.9776
   4   2.0000     -10.015143      -272.5259
   5   2.0000      -9.994630      -271.9677
   6   2.0000      -1.224404       -33.3177
   7   2.0000      -0.955242       -25.9935
   8   2.0000      -0.749038       -20.3824
   9   2.0000      -0.670244       -18.2383
  10   2.0000      -0.603974       -16.4350
  11   2.0000      -0.557417       -15.1681
  12   2.0000      -0.495122       -13.4729
  13   2.0000      -0.479041       -13.0354
  14   2.0000      -0.458303       -12.4710
  15   2.0000      -0.424031       -11.5385
  16   2.0000      -0.412396       -11.2219
  17   2.0000      -0.380372       -10.3504
  18   2.0000      -0.357701        -9.7335
  19   2.0000      -0.334228        -9.0948
  20   2.0000      -0.319839        -8.7033
  21   2.0000      -0.313375        -8.5274
  22   2.0000      -0.309464        -8.4209
  23   2.0000      -0.250741        -6.8230
  24   0.0000      -0.066070        -1.7979
  25   0.0000       0.004264         0.1160
  26   0.0000       0.031701         0.8626
  27   0.0000       0.037031         1.0077
  28   0.0000       0.047418         1.2903

MULLIKEN ATOMIC CHARGES
-----------------------
   0 C :   -0.397616
   1 C :    0.011529
   2 H :    0.049962
   3 H :    0.054676
   4 C :    0.783721
   5 F :   -0.373249
   6 O :   -0.559089
   7 C :    0.582124
   8 H :   -0.119210
   9 H :    0.043397
  10 H :   -0.033810
  11 H :   -0.043681
  12 H :    0.001246
Sum of atomic charges:   -0.0000000

LOEWDIN ATOMIC CHARGES
----------------------
   0 C :   -0.055058
   1 C :    0.045240
   2 H :    0.019305
   3 H :    0.037571
   4 C :   -0.015680
   5 F :   -0.028580
   6 O :   -0.127284
   7 C :    0.141668
   8 H :    0.020282
   9 H :    0.023080
  10 H :   -0.017833
  11 H :   -0.024196
  12 H :   -0.018513

  Mayer bond orders larger than 0.100000
B(  0-C ,  1-C ) :   1.2337 B(  0-C ,  2-H ) :   0.1325 B(  0-C ,  3-H ) :   0.1233
B(  0-C ,  7-C ) :   1.3611 B(  0-C ,  8-H ) :   0.9797 B(  0-C ,  9-H ) :   0.8917
B(  0-C , 10-H ) :   0.1972 B(  0-C , 11-H ) :   0.1923 B(  0-C , 12-H ) :   0.1886
B(  1-C ,  2-H ) :   0.8874 B(  1-C ,  3-H ) :   0.8322 B(  1-C ,  4-C ) :   1.0926
B(  1-C ,  9-H ) :   0.1103 B(  2-H ,  4-C ) :   0.1070 B(  4-C ,  5-F ) :   0.6917
B(  4-C ,  6-O ) :   1.7383 B(  5-F ,  6-O ) :   0.1026 B(  7-C , 10-H ) :   0.7800
B(  7-C , 11-H ) :   0.8588 B(  7-C , 12-H ) :   0.8094

Dispersion correction           -0.011750245
FINAL SINGLE POINT ENERGY      -331.537436659505

DIPOLE MOMENT
-------------
                                X             Y             Z
Electronic contribution:      7.98813       1.43202       7.23628
Nuclear contribution   :     -8.39104      -0.60591      -7.87060
                        -----------------------------------------
Total Dipole Moment    :     -0.40291       0.82611      -0.63432
                        -----------------------------------------
Magnitude (a.u.)       :      1.11676
Magnitude (Debye)      :      2.83858

Rotational constants in cm-1:     0.194210     0.077092     0.074391
Rotational constants in MHz :  5822.269139  2311.145895  2230.180895

                             ****ORCA TERMINATED NORMALLY****
TOTAL RUN TIME: 0 days 0 hours 0 minutes 9 seconds 602 msec
