                         Program Version 5.0.0 -  RELEASE  -
|  1> !TPSS D3BJ RIJCOSX def2-SVPD def2/J TightSCF
|  2> *xyz 0 1
|  3> C          4.60295       -2.44010        2.63478
|  4> C          3.86085       -1.59157        3.62289
|  5> C          2.75650       -2.04616        4.16633
|  6> N          4.25433       -0.36291        3.86046
|  7> H          3.56526        0.31099        4.16898
|  8> H          5.05429       -0.01606        3.33784
|  9> H          2.43970       -2.97389        3.89740
| 10> H          2.06687       -1.41253        4.54981
| 11> C          3.74469       -2.58056        1.36188
| 12> C          3.20372       -1.25600        0.82621
| 13> H          2.89894       -3.23929        1.58307
| 14> H          4.33496       -3.09552        0.60019
| 15> H          5.56156       -1.97135        2.40708
| 16> H          4.81050       -3.42255        3.06310
| 17> H          2.62184       -1.43789       -0.05313
| 18> H          4.02069       -0.60826        0.58562
| 19> H          2.58975       -0.79418        1.57097
| 20> *
| 21>
| 22> %MaxCore 64000
| 23>
| 24> %pal nprocs 4
| 25> end
| 26>
| 27> %scf
| 28>   MaxIter 150
| 29> end
| 30>
| 31>
| 32>                          ****END OF INPUT****

CARTESIAN COORDINATES (ANGSTROEM)
---------------------------------
  C      4.602950   -2.440100    2.634780
  C      3.860850   -1.591570    3.622890
  C      2.756500   -2.046160    4.166330
  N      4.254330   -0.362910    3.860460
  H      3.565260    0.310990    4.168980
  H      5.054290   -0.016060    3.337840
  H      2.439700   -2.973890    3.897400
  H      2.066870   -1.412530    4.549810
  C      3.744690   -2.580560    1.361880
  C      3.203720   -1.256000    0.826210
  H      2.898940   -3.239290    1.583070
  H      4.334960   -3.095520    0.600190
  H      5.561560   -1.971350    2.407080
  H      4.810500   -3.422550    3.063100
  H      2.621840   -1.437890   -0.053130
  H      4.020690   -0.608260    0.585620
  H      2.589750   -0.794180    1.570970

 Total Charge           Charge          ....    0
 Multiplicity           Mult            ....    1
 Number of Electrons    NEL             ....   48
 Basis Dimension        Dim             ....  208

ORBITAL ENERGIES
----------------

  NO   OCC          E(Eh)            E(eV)
   0   2.0000     -14.121916      -384.2769
   1   2.0000     -10.012576      -272.4561
   2   2.0000     -10.001833      -272.1637
   3   2.0000      -9.997981      -272.0589
   4   2.0000      -9.983297      -271.6593
   5   2.0000      -9.931380      -270.2466
   6   2.0000      -0.862923       -23.4813
   7   2.0000      -0.731461       -19.9041
   8   2.0000      -0.668924       -18.2024
   9   2.0000      -0.626433       -17.0461
  10   2.0000      -0.553809       -15.0699
  11   2.0000      -0.508048       -13.8247
  12   2.0000      -0.478938       -13.0326
  13   2.0000      -0.442681       -12.0460
  14   2.0000      -0.413918       -11.2633
  15   2.0000      -0.394734       -10.7413
  16   2.0000      -0.363680        -9.8962
  17   2.0000      -0.349094        -9.4993
  18   2.0000      -0.329699        -8.9716
  19   2.0000      -0.322958        -8.7881
  20   2.0000      -0.301055        -8.1921
  21   2.0000      -0.295021        -8.0279
  22   2.0000      -0.285211        -7.7610
  23   2.0000      -0.161000        -4.3810
  24   0.0000       0.004389         0.1194
  25   0.0000       0.009778         0.2661
  26   0.0000       0.035442         0.9644
  27   0.0000       0.043499         1.1837
  28   0.0000       0.047769         1.2999

MULLIKEN ATOMIC CHARGES
-----------------------
   0 C :    0.440086
   1 C :   -0.247702
   2 C :    0.236021
   3 N :    0.074751
   4 H :   -0.079370
   5 H :    0.014395
   6 H :   -0.067648
   7 H :   -0.371503
   8 C :   -0.426097
   9 C :    0.704859
  10 H :    0.017128
  11 H :   -0.128953
  12 H :   -0.036619
  13 H :    0.028634
  14 H :   -0.167023
  15 H :   -0.000277
  16 H :    0.009317
Sum of atomic charges:   -0.0000000

LOEWDIN ATOMIC CHARGES
----------------------
   0 C :    0.020355
   1 C :   -0.275836
   2 C :    0.174449
   3 N :    0.179143
   4 H :    0.009835
   5 H :   -0.000113
   6 H :   -0.079167
   7 H :   -0.083711
   8 C :   -0.054703
   9 C :    0.133121
  10 H :    0.013184
  11 H :    0.011069
  12 H :    0.007698
  13 H :    0.022724
  14 H :   -0.023583
  15 H :   -0.023339
  16 H :   -0.031126

  Mayer bond orders larger than 0.100000
B(  0-C ,  1-C ) :   1.1864 B(  0-C ,  8-C ) :   1.1595 B(  0-C , 10-H ) :   0.1190
B(  0-C , 11-H ) :   0.1628 B(  0-C , 12-H ) :   0.6741 B(  0-C , 13-H ) :   0.7894
B(  1-C ,  2-C ) :   1.8603 B(  1-C ,  3-N ) :   0.9424 B(  1-C ,  5-H ) :   0.1158
B(  1-C ,  7-H ) :   0.1917 B(  1-C , 12-H ) :   0.2437 B(  1-C , 13-H ) :   0.1982
B(  2-C ,  3-N ) :   0.3459 B(  2-C ,  6-H ) :   0.7831 B(  2-C ,  7-H ) :   0.8362
B(  3-N ,  4-H ) :   1.0942 B(  3-N ,  5-H ) :   0.9422 B(  4-H ,  5-H ) :  -0.1213
B(  8-C ,  9-C ) :   1.3086 B(  8-C , 10-H ) :   0.9119 B(  8-C , 11-H ) :   0.9538
B(  8-C , 12-H ) :   0.1694 B(  8-C , 14-H ) :   0.2282 B(  8-C , 15-H ) :   0.2000
B(  8-C , 16-H ) :   0.2462 B(  9-C , 10-H ) :   0.1010 B(  9-C , 14-H ) :   0.7958
B(  9-C , 15-H ) :   0.7816 B(  9-C , 16-H ) :   0.8056

Dispersion correction           -0.018158189
FINAL SINGLE POINT ENERGY      -251.759024518677

DIPOLE MOMENT
-------------
                                X             Y             Z
Electronic contribution:      1.35659       0.70611       3.44637
Nuclear contribution   :     -1.05621      -0.17147      -3.92631
                        -----------------------------------------
Total Dipole Moment    :      0.30038       0.53463      -0.47994
                        -----------------------------------------
Magnitude (a.u.)       :      0.77872
Magnitude (Debye)      :      1.97934

Rotational constants in cm-1:     0.171127     0.086782     0.080643
Rotational constants in MHz :  5130.249275  2601.647634  2417.629092

                             ****ORCA TERMINATED NORMALLY****
TOTAL RUN TIME: 0 days 0 hours 0 minutes 13 seconds 849 msec
