                         Program Version 5.0.0 -  RELEASE  -
|  1> !TPSS D3BJ RIJCOSX def2-SVPD def2/J TightSCF
|  2> *xyz 0 1
|  3> C         -0.91495        0.61511        2.50554
|  4> C         -0.05915        1.50352        3.41058
|  5> H          0.36536        2.34431        2.86116
|  6> H         -0.69226        1.92021        4.19898
|  7> C          1.08303        0.74964        4.08571
|  8> O          2.22817        1.26348        4.01983
|  9> F          0.81003       -0.34541        4.63627
| 10> C         -0.13074       -0.19398        1.47076
| 11> H         -1.64796        1.24596        1.99108
| 12> H         -1.47818       -0.08105        3.13042
| 13> H         -0.80952       -0.78099        0.88803
| 14> H          0.55985       -0.83974        1.97175
| 15> H          0.40595        0.47288        0.82877
| 16> *
| 17>
| 18> %MaxCore 64000
| 19>
| 20> %pal nprocs 4
| 21> end
| 22>
| 23> %scf
| 24>   MaxIter 150
| 25> end
| 26>
| 27>
| 28>                          ****END OF INPUT****

CARTESIAN COORDINATES (ANGSTROEM)
---------------------------------
  C     -0.914950    0.615110    2.505540
  C     -0.059150    1.503520    3.410580
  H      0.365360    2.344310    2.861160
  H     -0.692260    1.920210    4.198980
  C      1.083030    0.749640    4.085710
  O      2.228170    1.263480    4.019830
  F      0.810030   -0.345410    4.636270
  C     -0.130740   -0.193980    1.470760
  H     -1.647960    1.245960    1.991080
  H     -1.478180   -0.081050    3.130420
  H     -0.809520   -0.780990    0.888030
  H      0.559850   -0.839740    1.971750
  H      0.405950    0.472880    0.828770

 Total Charge           Charge          ....    0
 Multiplicity           Mult            ....    1
 Number of Electrons    NEL             ....   48
 Basis Dimension        Dim             ....  182

ORBITAL ENERGIES
----------------

  NO   OCC          E(Eh)            E(eV)
   0   2.0000     -24.497291      -666.6052
   1   2.0000     -18.905430      -514.4429
   2   2.0000     -10.169828      -276.7351
   3   2.0000     -10.030984      -272.9570
   4   2.0000     -10.019627      -272.6479
   5   2.0000     -10.000035      -272.1148
   6   2.0000      -1.225835       -33.3567
   7   2.0000      -0.952813       -25.9274
   8   2.0000      -0.753745       -20.5104
   9   2.0000      -0.670762       -18.2524
  10   2.0000      -0.603433       -16.4202
  11   2.0000      -0.563368       -15.3300
  12   2.0000      -0.497976       -13.5506
  13   2.0000      -0.487819       -13.2742
  14   2.0000      -0.442648       -12.0451
  15   2.0000      -0.430857       -11.7242
  16   2.0000      -0.415719       -11.3123
  17   2.0000      -0.381307       -10.3759
  18   2.0000      -0.357834        -9.7371
  19   2.0000      -0.339278        -9.2322
  20   2.0000      -0.327450        -8.9104
  21   2.0000      -0.318644        -8.6708
  22   2.0000      -0.310657        -8.4534
  23   2.0000      -0.245118        -6.6700
  24   0.0000      -0.063166        -1.7188
  25   0.0000       0.000541         0.0147
  26   0.0000       0.033222         0.9040
  27   0.0000       0.036556         0.9947
  28   0.0000       0.044231         1.2036

MULLIKEN ATOMIC CHARGES
-----------------------
   0 C :   -0.405271
   1 C :    0.032530
   2 H :    0.029127
   3 H :    0.044063
   4 C :    0.813258
   5 O :   -0.520479
   6 F :   -0.415980
   7 C :    0.590797
   8 H :   -0.127712
   9 H :    0.023344
  10 H :   -0.033838
  11 H :   -0.041486
  12 H :    0.011648
Sum of atomic charges:   -0.0000000

LOEWDIN ATOMIC CHARGES
----------------------
   0 C :   -0.063711
   1 C :    0.050713
   2 H :    0.031553
   3 H :    0.034356
   4 C :   -0.021107
   5 O :   -0.130612
   6 F :   -0.025226
   7 C :    0.141848
   8 H :    0.020103
   9 H :    0.017653
  10 H :   -0.017967
  11 H :   -0.024195
  12 H :   -0.013407

  Mayer bond orders larger than 0.100000
B(  0-C ,  1-C ) :   1.2091 B(  0-C ,  2-H ) :   0.1251 B(  0-C ,  3-H ) :   0.1151
B(  0-C ,  7-C ) :   1.3611 B(  0-C ,  8-H ) :   0.9863 B(  0-C ,  9-H ) :   0.8954
B(  0-C , 10-H ) :   0.2022 B(  0-C , 11-H ) :   0.1910 B(  0-C , 12-H ) :   0.1935
B(  1-C ,  2-H ) :   0.9187 B(  1-C ,  3-H ) :   0.8383 B(  1-C ,  4-C ) :   1.0509
B(  1-C ,  6-F ) :   0.1003 B(  1-C ,  9-H ) :   0.1031 B(  2-H ,  4-C ) :   0.1349
B(  4-C ,  5-O ) :   1.7183 B(  4-C ,  6-F ) :   0.6628 B(  5-O ,  6-F ) :   0.1179
B(  7-C , 10-H ) :   0.7771 B(  7-C , 11-H ) :   0.8549 B(  7-C , 12-H ) :   0.8105

Dispersion correction           -0.011669394
FINAL SINGLE POINT ENERGY      -331.536340176979

DIPOLE MOMENT
-------------
                                X             Y             Z
Electronic contribution:      5.57774      -1.26253       8.23344
Nuclear contribution   :     -6.78915       1.21145      -8.56691
                        -----------------------------------------
Total Dipole Moment    :     -1.21141      -0.05108      -0.33347
                        -----------------------------------------
Magnitude (a.u.)       :      1.25751
Magnitude (Debye)      :      3.19633

Rotational constants in cm-1:     0.188995     0.079574     0.075294
Rotational constants in MHz :  5665.932233  2385.568994  2257.246443

                             ****ORCA TERMINATED NORMALLY****
TOTAL RUN TIME: 0 days 0 hours 0 minutes 9 seconds 987 msec
