                         Program Version 5.0.0 -  RELEASE  -
|  1> !TPSS D3BJ RIJCOSX def2-SVPD def2/J TightSCF
|  2> *xyz 0 1
|  3> C          4.60295       -2.44010        2.63478
|  4> C          3.86085       -1.59157        3.62289
|  5> N          2.75650       -2.04616        4.16633
|  6> C          4.25433       -0.36291        3.86046
|  7> H          3.56526        0.31099        4.16898
|  8> H          5.05429       -0.01606        3.33784
|  9> H          2.43970       -2.97389        3.89740
| 10> H          2.06687       -1.41253        4.54981
| 11> C          3.74469       -2.58056        1.36188
| 12> C          3.20372       -1.25600        0.82621
| 13> H          2.89894       -3.23929        1.58307
| 14> H          4.33496       -3.09552        0.60019
| 15> H          5.56156       -1.97135        2.40708
| 16> H          4.81050       -3.42255        3.06310
| 17> H          2.62184       -1.43789       -0.05313
| 18> H          4.02069       -0.60826        0.58562
| 19> H          2.58975       -0.79418        1.57097
| 20> *
| 21>
| 22> %MaxCore 64000
| 23>
| 24> %pal nprocs 4
| 25> end
| 26>
| 27> %scf
| 28>   MaxIter 150
| 29> end
| 30>
| 31>
| 32>                          ****END OF INPUT****

CARTESIAN COORDINATES (ANGSTROEM)
---------------------------------
  C      4.602950   -2.440100    2.634780
  C      3.860850   -1.591570    3.622890
  N      2.756500   -2.046160    4.166330
  C      4.254330   -0.362910    3.860460
  H      3.565260    0.310990    4.168980
  H      5.054290   -0.016060    3.337840
  H      2.439700   -2.973890    3.897400
  H      2.066870   -1.412530    4.549810
  C      3.744690   -2.580560    1.361880
  C      3.203720   -1.256000    0.826210
  H      2.898940   -3.239290    1.583070
  H      4.334960   -3.095520    0.600190
  H      5.561560   -1.971350    2.407080
  H      4.810500   -3.422550    3.063100
  H      2.621840   -1.437890   -0.053130
  H      4.020690   -0.608260    0.585620
  H      2.589750   -0.794180    1.570970

 Total Charge           Charge          ....    0
 Multiplicity           Mult            ....    1
 Number of Electrons    NEL             ....   48
 Basis Dimension        Dim             ....  208

ORBITAL ENERGIES
----------------

  NO   OCC          E(Eh)            E(eV)
   0   2.0000     -14.122401      -384.2901
   1   2.0000     -10.012806      -272.4623
   2   2.0000     -10.001372      -272.1512
   3   2.0000     -10.000925      -272.1390
   4   2.0000      -9.982151      -271.6281
   5   2.0000      -9.932183      -270.2684
   6   2.0000      -0.862610       -23.4728
   7   2.0000      -0.730518       -19.8784
   8   2.0000      -0.671671       -18.2771
   9   2.0000      -0.627584       -17.0774
  10   2.0000      -0.547124       -14.8880
  11   2.0000      -0.518002       -14.0955
  12   2.0000      -0.481869       -13.1123
  13   2.0000      -0.428169       -11.6511
  14   2.0000      -0.415845       -11.3157
  15   2.0000      -0.405211       -11.0264
  16   2.0000      -0.352686        -9.5971
  17   2.0000      -0.350674        -9.5423
  18   2.0000      -0.338628        -9.2145
  19   2.0000      -0.323607        -8.8058
  20   2.0000      -0.299711        -8.1556
  21   2.0000      -0.293923        -7.9980
  22   2.0000      -0.283082        -7.7030
  23   2.0000      -0.163077        -4.4376
  24   0.0000       0.002039         0.0555
  25   0.0000       0.011176         0.3041
  26   0.0000       0.036674         0.9980
  27   0.0000       0.042389         1.1535
  28   0.0000       0.049776         1.3545

MULLIKEN ATOMIC CHARGES
-----------------------
   0 C :    0.278233
   1 C :   -0.273359
   2 N :    0.136322
   3 C :    0.298575
   4 H :   -0.340553
   5 H :   -0.017644
   6 H :   -0.020819
   7 H :   -0.147011
   8 C :   -0.381635
   9 C :    0.717287
  10 H :    0.035600
  11 H :   -0.195041
  12 H :    0.112761
  13 H :   -0.046180
  14 H :   -0.086721
  15 H :   -0.017281
  16 H :   -0.052535
Sum of atomic charges:   -0.0000000

LOEWDIN ATOMIC CHARGES
----------------------
   0 C :    0.019489
   1 C :   -0.280038
   2 N :    0.182692
   3 C :    0.173401
   4 H :   -0.082930
   5 H :   -0.081236
   6 H :    0.001575
   7 H :    0.010139
   8 C :   -0.057782
   9 C :    0.135021
  10 H :    0.004672
  11 H :    0.012371
  12 H :    0.020264
  13 H :    0.013969
  14 H :   -0.024233
  15 H :   -0.016401
  16 H :   -0.030974

  Mayer bond orders larger than 0.100000
B(  0-C ,  1-C ) :   1.2580 B(  0-C ,  3-C ) :   0.1059 B(  0-C ,  8-C ) :   1.1590
B(  0-C , 10-H ) :   0.1241 B(  0-C , 11-H ) :   0.1800 B(  0-C , 12-H ) :   0.7958
B(  0-C , 13-H ) :   0.7963 B(  1-C ,  2-N ) :   1.0282 B(  1-C ,  3-C ) :   1.9724
B(  1-C ,  4-H ) :   0.2634 B(  1-C ,  5-H ) :   0.1630 B(  1-C , 12-H ) :   0.1662
B(  1-C , 13-H ) :   0.2176 B(  2-N ,  3-C ) :   0.3058 B(  2-N ,  6-H ) :   1.0302
B(  2-N ,  7-H ) :   1.1414 B(  3-C ,  4-H ) :   0.7761 B(  3-C ,  5-H ) :   0.8388
B(  6-H ,  7-H ) :  -0.1304 B(  8-C ,  9-C ) :   1.3162 B(  8-C , 10-H ) :   0.8773
B(  8-C , 11-H ) :   1.0049 B(  8-C , 12-H ) :   0.1493 B(  8-C , 14-H ) :   0.2204
B(  8-C , 15-H ) :   0.1934 B(  8-C , 16-H ) :   0.2498 B(  9-C , 14-H ) :   0.7711
B(  9-C , 15-H ) :   0.7974 B(  9-C , 16-H ) :   0.8218 B( 15-H , 16-H ) :   0.1189

Dispersion correction           -0.018151537
FINAL SINGLE POINT ENERGY      -251.759040787251

DIPOLE MOMENT
-------------
                                X             Y             Z
Electronic contribution:      0.08361      -0.71765       3.71583
Nuclear contribution   :     -0.70193       0.22667      -3.99866
                        -----------------------------------------
Total Dipole Moment    :     -0.61832      -0.49098      -0.28283
                        -----------------------------------------
Magnitude (a.u.)       :      0.83868
Magnitude (Debye)      :      2.13175

Rotational constants in cm-1:     0.170665     0.086587     0.081284
Rotational constants in MHz :  5116.404877  2595.819690  2436.831753

                             ****ORCA TERMINATED NORMALLY****
TOTAL RUN TIME: 0 days 0 hours 0 minutes 14 seconds 272 msec
