                         Program Version 5.0.0 -  RELEASE  -
|  1> !TPSS D3BJ RIJCOSX def2-SVPD def2/J TightSCF xyzfile
|  2>
|  3> *xyzfile 0 1 D3.xyz
|  4>
|  5> %MaxCore 64000
|  6>
|  7> %pal nprocs 4
|  8> end
|  9>
| 10> %scf
| 11>   MaxIter 150
| 12> end
| 13>
| 14>
| 15>                          ****END OF INPUT****

CARTESIAN COORDINATES (ANGSTROEM)
---------------------------------
  C      4.602954   -2.440100    2.634780
  C     -0.914947    0.615112    2.505538
  C     -0.059146    1.503524    3.410578
  H      0.365364    2.344315    2.861161
  H     -0.692261    1.920207    4.198985
  C      1.083027    0.749640    4.085705
  C      3.860851   -1.591565    3.622893
  C      2.756502   -2.046159    4.166333
  N      4.254325   -0.362905    3.860455
  H      3.565256    0.310994    4.168983
  H      5.054292   -0.016059    3.337838
  H      2.439696   -2.973894    3.897395
  H      2.066869   -1.412532    4.549813
  O      2.228167    1.263475    4.019826
  F      0.810034   -0.345411    4.636269
  C      3.744685   -2.580557    1.361882
  C      0.772139    0.636882    0.562129
  C     -0.130740   -0.193985    1.470763
  H     -0.840563   -0.760165    0.856377
  H      0.466691   -0.938942    2.006959
  H     -1.647961    1.245963    1.991076
  H     -1.478180   -0.081046    3.130424
  C      3.203721   -1.256004    0.826211
  H      2.898939   -3.239289    1.583074
  H      4.334962   -3.095523    0.600188
  C      2.107815   -1.442385   -0.216865
  H      2.786775   -0.672760    1.650711
  H      4.021008   -0.652993    0.414046
  C      1.390662   -0.145912   -0.602422
  H      1.372179   -2.152184    0.176151
  H      2.523302   -1.906787   -1.117115
  H      1.561361    1.100094    1.161831
  H      0.195516    1.468325    0.142758
  H      0.602893   -0.398214   -1.319716
  H      2.087247    0.508272   -1.137335
  H      5.561557   -1.971347    2.407084
  H      4.810498   -3.422552    3.063099

 Total Charge           Charge          ....    0
 Multiplicity           Mult            ....    1
 Number of Electrons    NEL             ....  118
 Basis Dimension        Dim             ....  482

ORBITAL ENERGIES
----------------

  NO   OCC          E(Eh)            E(eV)
   0   2.0000     -24.511095      -666.9808
   1   2.0000     -18.928447      -515.0692
   2   2.0000     -14.085276      -383.2798
   3   2.0000     -10.189467      -277.2695
   4   2.0000     -10.039218      -273.1810
   5   2.0000     -10.021830      -272.7079
   6   2.0000     -10.006299      -272.2852
   7   2.0000     -10.000275      -272.1213
   8   2.0000      -9.995884      -272.0018
   9   2.0000      -9.994460      -271.9631
  10   2.0000      -9.990177      -271.8465
  11   2.0000      -9.988827      -271.8098
  12   2.0000      -9.988108      -271.7902
  13   2.0000      -9.984918      -271.7034
  14   2.0000      -9.908814      -269.6325
  15   2.0000      -1.243382       -33.8341
  16   2.0000      -0.980075       -26.6692
  17   2.0000      -0.836718       -22.7683
  18   2.0000      -0.769109       -20.9285
  19   2.0000      -0.741449       -20.1758
  20   2.0000      -0.716306       -19.4917
  21   2.0000      -0.683101       -18.5881
  22   2.0000      -0.652060       -17.7435
  23   2.0000      -0.635488       -17.2925
  24   2.0000      -0.611241       -16.6327
  25   2.0000      -0.593197       -16.1417
  26   2.0000      -0.560889       -15.2626
  27   2.0000      -0.537943       -14.6382
  28   2.0000      -0.515306       -14.0222
  29   2.0000      -0.513286       -13.9672
  30   2.0000      -0.502021       -13.6607
  31   2.0000      -0.493393       -13.4259
  32   2.0000      -0.474202       -12.9037
  33   2.0000      -0.448507       -12.2045
  34   2.0000      -0.441307       -12.0086
  35   2.0000      -0.436348       -11.8736
  36   2.0000      -0.424645       -11.5552
  37   2.0000      -0.406932       -11.0732
  38   2.0000      -0.402488       -10.9522
  39   2.0000      -0.388212       -10.5638
  40   2.0000      -0.383076       -10.4240
  41   2.0000      -0.370232       -10.0745
  42   2.0000      -0.366467        -9.9721
  43   2.0000      -0.353383        -9.6160
  44   2.0000      -0.347306        -9.4507
  45   2.0000      -0.338803        -9.2193
  46   2.0000      -0.334181        -9.0935
  47   2.0000      -0.328884        -8.9494
  48   2.0000      -0.317396        -8.6368
  49   2.0000      -0.307999        -8.3811
  50   2.0000      -0.303741        -8.2652
  51   2.0000      -0.297033        -8.0827
  52   2.0000      -0.287531        -7.8241
  53   2.0000      -0.284849        -7.7511
  54   2.0000      -0.279111        -7.5950
  55   2.0000      -0.274353        -7.4655
  56   2.0000      -0.263876        -7.1804
  57   2.0000      -0.256019        -6.9666
  58   2.0000      -0.141358        -3.8465
  59   0.0000      -0.081953        -2.2301
  60   0.0000      -0.001695        -0.0461
  61   0.0000       0.017694         0.4815
  62   0.0000       0.018989         0.5167
  63   0.0000       0.021278         0.5790

MULLIKEN ATOMIC CHARGES
-----------------------
   0 C :    0.789376
   1 C :    0.462467
   2 C :    0.082945
   3 H :    0.204134
   4 H :   -0.133978
   5 C :    0.766109
   6 C :   -0.397033
   7 C :    0.772898
   8 N :    0.342641
   9 H :   -0.384117
  10 H :    0.076271
  11 H :   -0.139818
  12 H :   -0.763515
  13 O :   -0.592520
  14 F :   -0.503229
  15 C :   -0.008713
  16 C :   -0.251749
  17 C :   -0.184260
  18 H :   -0.142496
  19 H :   -0.023857
  20 H :   -0.054468
  21 H :    0.050515
  22 C :    0.138002
  23 H :    0.095170
  24 H :   -0.237757
  25 C :   -0.074092
  26 H :   -0.323852
  27 H :    0.026862
  28 C :    0.739316
  29 H :    0.200664
  30 H :   -0.321965
  31 H :    0.205695
  32 H :   -0.485699
  33 H :    0.086714
  34 H :    0.009652
  35 H :   -0.045276
  36 H :    0.018966
Sum of atomic charges:   -0.0000000

LOEWDIN ATOMIC CHARGES
----------------------
   0 C :    0.026243
   1 C :   -0.013864
   2 C :    0.068393
   3 H :    0.030101
   4 H :    0.037633
   5 C :    0.045876
   6 C :   -0.252902
   7 C :    0.196126
   8 N :    0.207655
   9 H :   -0.104222
  10 H :    0.003423
  11 H :   -0.076497
  12 H :   -0.144008
  13 O :   -0.108151
  14 F :   -0.027398
  15 C :   -0.012670
  16 C :   -0.025789
  17 C :   -0.021743
  18 H :    0.027680
  19 H :    0.008458
  20 H :    0.024322
  21 H :    0.021226
  22 C :   -0.023015
  23 H :    0.013481
  24 H :    0.015402
  25 C :   -0.030502
  26 H :   -0.017511
  27 H :    0.029181
  28 C :   -0.020788
  29 H :    0.012381
  30 H :    0.019583
  31 H :    0.007602
  32 H :    0.019169
  33 H :    0.016454
  34 H :    0.018733
  35 H :    0.008186
  36 H :    0.021749

  Mayer bond orders larger than 0.100000
B(  0-C ,  6-C ) :   1.1736 B(  0-C ,  8-N ) :   0.1160 B(  0-C , 15-C ) :   1.1033
B(  0-C , 35-H ) :   0.5350 B(  0-C , 36-H ) :   0.6576 B(  1-C ,  2-C ) :   1.1797
B(  1-C ,  4-H ) :   0.1724 B(  1-C , 17-C ) :   1.2421 B(  1-C , 19-H ) :   0.1045
B(  1-C , 20-H ) :   0.7859 B(  1-C , 21-H ) :   0.6509 B(  2-C ,  3-H ) :   0.8351
B(  2-C ,  4-H ) :   0.7291 B(  2-C ,  5-C ) :   1.1685 B(  2-C , 17-C ) :   0.1072
B(  2-C , 20-H ) :   0.1388 B(  2-C , 21-H ) :   0.1051 B(  3-H ,  5-C ) :   0.1334
B(  4-H ,  5-C ) :   0.2233 B(  5-C , 13-O ) :   1.5706 B(  5-C , 14-F ) :   0.5806
B(  6-C ,  7-C ) :   1.8985 B(  6-C ,  8-N ) :   0.8728 B(  6-C , 10-H ) :   0.1381
B(  6-C , 12-H ) :   0.3037 B(  6-C , 15-C ) :   0.1384 B(  6-C , 35-H ) :   0.3290
B(  6-C , 36-H ) :   0.2362 B(  7-C ,  8-N ) :   0.4499 B(  7-C , 11-H ) :   0.6958
B(  7-C , 15-C ) :   0.1008 B(  8-N ,  9-H ) :   1.0195 B(  8-N , 10-H ) :   0.9079
B(  8-N , 11-H ) :   0.2260 B(  8-N , 12-H ) :  -0.1833 B(  9-H , 10-H ) :  -0.2282
B(  9-H , 13-O ) :   0.1128 B( 12-H , 14-F ) :   0.2306 B( 13-O , 14-F ) :   0.1147
B( 15-C , 22-C ) :   1.1461 B( 15-C , 23-H ) :   0.8613 B( 15-C , 24-H ) :   0.9551
B( 15-C , 25-C ) :   0.1059 B( 15-C , 26-H ) :   0.1798 B( 15-C , 27-H ) :   0.1025
B( 15-C , 35-H ) :   0.2122 B( 15-C , 36-H ) :   0.1516 B( 16-C , 17-C ) :   1.2956
B( 16-C , 18-H ) :   0.1692 B( 16-C , 19-H ) :   0.1244 B( 16-C , 25-C ) :   0.1671
B( 16-C , 28-C ) :   1.0738 B( 16-C , 31-H ) :   0.8015 B( 16-C , 32-H ) :   1.1650
B( 16-C , 33-H ) :   0.1470 B( 16-C , 34-H ) :   0.2591 B( 17-C , 18-H ) :   0.8925
B( 17-C , 19-H ) :   0.9046 B( 17-C , 20-H ) :   0.1932 B( 17-C , 21-H ) :   0.2354
B( 17-C , 32-H ) :   0.1175 B( 20-H , 21-H ) :  -0.1090 B( 22-C , 23-H ) :   0.1295
B( 22-C , 24-H ) :   0.2335 B( 22-C , 25-C ) :   1.2130 B( 22-C , 26-H ) :   0.9797
B( 22-C , 27-H ) :   0.7224 B( 22-C , 29-H ) :   0.1117 B( 22-C , 30-H ) :   0.2288
B( 25-C , 28-C ) :   1.1508 B( 25-C , 29-H ) :   0.8092 B( 25-C , 30-H ) :   0.9820
B( 25-C , 33-H ) :   0.2061 B( 25-C , 34-H ) :   0.1639 B( 26-H , 27-H ) :   0.1744
B( 26-H , 31-H ) :   0.1781 B( 26-H , 32-H ) :  -0.1200 B( 28-C , 29-H ) :   0.1028
B( 28-C , 33-H ) :   0.6517 B( 28-C , 34-H ) :   0.6386 B( 33-H , 34-H ) :  -0.1003

Dispersion correction           -0.053664287
FINAL SINGLE POINT ENERGY      -699.981359970847

DIPOLE MOMENT
-------------
                                X             Y             Z
Electronic contribution:     -1.17214       4.73798      16.00454
Nuclear contribution   :      0.05905      -3.94566     -16.70013
                        -----------------------------------------
Total Dipole Moment    :     -1.11309       0.79232      -0.69560
                        -----------------------------------------
Magnitude (a.u.)       :      1.53316
Magnitude (Debye)      :      3.89699

Rotational constants in cm-1:     0.021602     0.017295     0.011353
Rotational constants in MHz :   647.614981   518.478934   340.359556

                             ****ORCA TERMINATED NORMALLY****
TOTAL RUN TIME: 0 days 0 hours 1 minutes 37 seconds 936 msec
