                         Program Version 5.0.0 -  RELEASE  -
|  1> !PBE0 D3BJ RIJCOSX def2-TZVP def2/J TightSCF
|  2> *xyz -1 1
|  3> C          2.49556        1.81615       -2.13636
|  4> C          1.87218        0.42790       -2.07750
|  5> H          2.61427       -0.36583       -2.19889
|  6> H          1.38995        0.27309       -1.11236
|  7> S          0.57902        0.14047       -3.29794
|  8> O          0.22886       -1.24687       -3.12787
|  9> O         -0.43927        1.11897       -3.01455
| 10> O          1.24788        0.40347       -4.59565
| 11> H          2.96535        1.95613       -3.08747
| 12> H          3.22581        1.91242       -1.36024
| 13> H          1.73350        2.55528       -2.00274
| 14> *
| 15>
| 16> %MaxCore 64000
| 17>
| 18> %pal nprocs 4
| 19> end
| 20>
| 21> %scf
| 22>   MaxIter 150
| 23> end
| 24>
| 25>
| 26>                          ****END OF INPUT****

CARTESIAN COORDINATES (ANGSTROEM)
---------------------------------
  C      2.495560    1.816150   -2.136360
  C      1.872180    0.427900   -2.077500
  H      2.614270   -0.365830   -2.198890
  H      1.389950    0.273090   -1.112360
  S      0.579020    0.140470   -3.297940
  O      0.228860   -1.246870   -3.127870
  O     -0.439270    1.118970   -3.014550
  O      1.247880    0.403470   -4.595650
  H      2.965350    1.956130   -3.087470
  H      3.225810    1.912420   -1.360240
  H      1.733500    2.555280   -2.002740

 Total Charge           Charge          ....   -1
 Multiplicity           Mult            ....    1
 Number of Electrons    NEL             ....   58
 Basis Dimension        Dim             ....  222

ORBITAL ENERGIES
----------------

  NO   OCC          E(Eh)            E(eV)
   0   2.0000     -88.992169     -2421.6000
   1   2.0000     -18.978605      -516.4341
   2   2.0000     -18.978429      -516.4293
   3   2.0000     -18.963435      -516.0213
   4   2.0000     -10.074768      -274.1484
   5   2.0000     -10.068197      -273.9696
   6   2.0000      -7.937823      -215.9992
   7   2.0000      -5.875199      -159.8723
   8   2.0000      -5.873890      -159.8367
   9   2.0000      -5.873653      -159.8302
  10   2.0000      -0.946371       -25.7521
  11   2.0000      -0.818457       -22.2713
  12   2.0000      -0.791632       -21.5414
  13   2.0000      -0.648696       -17.6519
  14   2.0000      -0.518165       -14.1000
  15   2.0000      -0.391947       -10.6654
  16   2.0000      -0.325384        -8.8542
  17   2.0000      -0.323858        -8.8126
  18   2.0000      -0.283666        -7.7190
  19   2.0000      -0.271325        -7.3831
  20   2.0000      -0.262183        -7.1343
  21   2.0000      -0.237225        -6.4552
  22   2.0000      -0.218309        -5.9405
  23   2.0000      -0.160298        -4.3619
  24   2.0000      -0.159523        -4.3409
  25   2.0000      -0.125576        -3.4171
  26   2.0000      -0.114886        -3.1262
  27   2.0000      -0.105244        -2.8638
  28   2.0000      -0.071437        -1.9439
  29   0.0000       0.185528         5.0485
  30   0.0000       0.227627         6.1940
  31   0.0000       0.243791         6.6339
  32   0.0000       0.248530         6.7628
  33   0.0000       0.277007         7.5377

MULLIKEN ATOMIC CHARGES
-----------------------
   0 C :   -0.344369
   1 C :   -0.240182
   2 H :    0.082561
   3 H :    0.072541
   4 S :    0.803638
   5 O :   -0.541086
   6 O :   -0.542943
   7 O :   -0.591507
   8 H :    0.116276
   9 H :    0.069611
  10 H :    0.115458
Sum of atomic charges:   -1.0000000

LOEWDIN ATOMIC CHARGES
----------------------
   0 C :   -0.348733
   1 C :   -0.436542
   2 H :    0.117771
   3 H :    0.116619
   4 S :    0.391029
   5 O :   -0.372135
   6 O :   -0.371448
   7 O :   -0.427028
   8 H :    0.115427
   9 H :    0.099547
  10 H :    0.115495

  Mayer bond orders larger than 0.100000
B(  0-C ,  1-C ) :   0.9868 B(  0-C ,  8-H ) :   0.9689 B(  0-C ,  9-H ) :   0.9615
B(  0-C , 10-H ) :   0.9718 B(  1-C ,  2-H ) :   0.9553 B(  1-C ,  3-H ) :   0.9536
B(  1-C ,  4-S ) :   0.8763 B(  4-S ,  5-O ) :   1.8353 B(  4-S ,  6-O ) :   1.7971
B(  4-S ,  7-O ) :   1.7397

Dispersion correction           -0.008288434
FINAL SINGLE POINT ENERGY      -702.843080648358

DIPOLE MOMENT
-------------
                                X             Y             Z
Electronic contribution:     -5.73785      -3.61892      -4.13404
Nuclear contribution   :      6.89220       4.11756       5.35566
                        -----------------------------------------
Total Dipole Moment    :      1.15435       0.49864       1.22162
                        -----------------------------------------
Magnitude (a.u.)       :      1.75314
Magnitude (Debye)      :      4.45614

Rotational constants in cm-1:     0.162183     0.084017     0.082390
Rotational constants in MHz :  4862.117324  2518.774315  2469.980309

                             ****ORCA TERMINATED NORMALLY****
TOTAL RUN TIME: 0 days 0 hours 0 minutes 18 seconds 6 msec
