                         Program Version 5.0.0 -  RELEASE  -
|  1> !PBE0 D3BJ RIJCOSX def2-TZVP def2/J TightSCF
|  2> *xyz 1 1
|  3> C          3.38093        2.08304       -3.35013
|  4> N          4.53592        1.18245       -3.42852
|  5> C          2.49556        1.81615       -2.13636
|  6> C          4.67196        0.12227       -4.22060
|  7> N          5.86602       -0.50785       -4.22428
|  8> N          3.69888       -0.31284       -4.98699
|  9> H          2.73141       -0.05009       -4.84900
| 10> H          3.89005       -1.05517       -5.64373
| 11> H          5.25193        1.30346       -2.72101
| 12> H          6.69516       -0.06232       -3.85160
| 13> H          5.97538       -1.39688       -4.69141
| 14> H          2.80646        1.98651       -4.26848
| 15> H          3.77871        3.09828       -3.30738
| 16> H          2.11090        0.81901       -2.18783
| 17> H          1.68276        2.51198       -2.12786
| 18> H          3.07216        1.93031       -1.24227
| 19> *
| 20>
| 21> %MaxCore 64000
| 22>
| 23> %pal nprocs 4
| 24> end
| 25>
| 26> %scf
| 27>   MaxIter 150
| 28> end
| 29>
| 30>
| 31>                          ****END OF INPUT****

CARTESIAN COORDINATES (ANGSTROEM)
---------------------------------
  C      3.380930    2.083040   -3.350130
  N      4.535920    1.182450   -3.428520
  C      2.495560    1.816150   -2.136360
  C      4.671960    0.122270   -4.220600
  N      5.866020   -0.507850   -4.224280
  N      3.698880   -0.312840   -4.986990
  H      2.731410   -0.050090   -4.849000
  H      3.890050   -1.055170   -5.643730
  H      5.251930    1.303460   -2.721010
  H      6.695160   -0.062320   -3.851600
  H      5.975380   -1.396880   -4.691410
  H      2.806460    1.986510   -4.268480
  H      3.778710    3.098280   -3.307380
  H      2.110900    0.819010   -2.187830
  H      1.682760    2.511980   -2.127860
  H      3.072160    1.930310   -1.242270

 Total Charge           Charge          ....    1
 Multiplicity           Mult            ....    1
 Number of Electrons    NEL             ....   48
 Basis Dimension        Dim             ....  246

ORBITAL ENERGIES
----------------

  NO   OCC          E(Eh)            E(eV)
   0   2.0000     -14.608315      -397.5124
   1   2.0000     -14.605698      -397.4412
   2   2.0000     -14.600549      -397.3011
   3   2.0000     -10.554318      -287.1976
   4   2.0000     -10.426399      -283.7167
   5   2.0000     -10.353201      -281.7249
   6   2.0000      -1.240241       -33.7487
   7   2.0000      -1.129315       -30.7302
   8   2.0000      -1.113931       -30.3116
   9   2.0000      -0.952017       -25.9057
  10   2.0000      -0.860720       -23.4214
  11   2.0000      -0.820347       -22.3228
  12   2.0000      -0.801645       -21.8139
  13   2.0000      -0.757550       -20.6140
  14   2.0000      -0.709871       -19.3166
  15   2.0000      -0.705906       -19.2087
  16   2.0000      -0.655386       -17.8340
  17   2.0000      -0.644386       -17.5346
  18   2.0000      -0.616218       -16.7681
  19   2.0000      -0.570420       -15.5219
  20   2.0000      -0.541716       -14.7408
  21   2.0000      -0.524967       -14.2851
  22   2.0000      -0.489829       -13.3289
  23   2.0000      -0.457840       -12.4584
  24   0.0000      -0.157475        -4.2851
  25   0.0000      -0.141301        -3.8450
  26   0.0000      -0.108583        -2.9547
  27   0.0000      -0.098771        -2.6877
  28   0.0000      -0.081160        -2.2085

MULLIKEN ATOMIC CHARGES
-----------------------
   0 C :   -0.192821
   1 N :   -0.254368
   2 C :   -0.321233
   3 C :    0.465559
   4 N :   -0.444991
   5 N :   -0.421863
   6 H :    0.299435
   7 H :    0.286025
   8 H :    0.261773
   9 H :    0.294031
  10 H :    0.287620
  11 H :    0.138393
  12 H :    0.171284
  13 H :    0.123921
  14 H :    0.165685
  15 H :    0.141549
Sum of atomic charges:    1.0000000

LOEWDIN ATOMIC CHARGES
----------------------
   0 C :   -0.281535
   1 N :    0.169892
   2 C :   -0.287151
   3 C :   -0.413320
   4 N :    0.048522
   5 N :    0.083663
   6 H :    0.200170
   7 H :    0.200928
   8 H :    0.211073
   9 H :    0.196506
  10 H :    0.193519
  11 H :    0.139573
  12 H :    0.151148
  13 H :    0.121746
  14 H :    0.137673
  15 H :    0.127594

  Mayer bond orders larger than 0.100000
B(  0-C ,  1-N ) :   0.8919 B(  0-C ,  2-C ) :   1.0127 B(  0-C , 11-H ) :   0.9629
B(  0-C , 12-H ) :   0.9497 B(  1-N ,  3-C ) :   1.3908 B(  1-N ,  8-H ) :   0.8970
B(  2-C , 13-H ) :   0.9554 B(  2-C , 14-H ) :   0.9623 B(  2-C , 15-H ) :   0.9666
B(  3-C ,  4-N ) :   1.3105 B(  3-C ,  5-N ) :   1.3644 B(  4-N ,  9-H ) :   0.8907
B(  4-N , 10-H ) :   0.8929 B(  5-N ,  6-H ) :   0.8846 B(  5-N ,  7-H ) :   0.8914

Dispersion correction           -0.010226723
FINAL SINGLE POINT ENERGY      -284.183060569234

DIPOLE MOMENT
-------------
                                X             Y             Z
Electronic contribution:      3.57748      -2.66565      -2.82545
Nuclear contribution   :     -2.93277       1.85779       2.25966
                        -----------------------------------------
Total Dipole Moment    :      0.64471      -0.80786      -0.56579
                        -----------------------------------------
Magnitude (a.u.)       :      1.17831
Magnitude (Debye)      :      2.99502

Rotational constants in cm-1:     0.245511     0.068839     0.059711
Rotational constants in MHz :  7360.233487  2063.743353  1790.088408

                             ****ORCA TERMINATED NORMALLY****
TOTAL RUN TIME: 0 days 0 hours 0 minutes 26 seconds 702 msec
