                         Program Version 5.0.0 -  RELEASE  -
|  1> !PBE0 D3BJ RIJCOSX def2-TZVP def2/J TightSCF xyzfile
|  2>
|  3> *xyzfile 0 1 B.xyz
|  4>
|  5> %MaxCore 64000
|  6>
|  7> %pal nprocs 18
|  8> end
|  9>
| 10> %scf
| 11>   MaxIter 150
| 12> end
| 13>
| 14>
| 15>                          ****END OF INPUT****

CARTESIAN COORDINATES (ANGSTROEM)
---------------------------------
  C      3.380928    2.083045   -3.350127
  N      4.535924    1.182447   -3.428518
  C      2.495557    1.816150   -2.136364
  C      1.872181    0.427903   -2.077497
  H      2.614270   -0.365825   -2.198894
  H      1.389953    0.273087   -1.112360
  S      0.579024    0.140472   -3.297943
  C      4.671956    0.122273   -4.220598
  N      5.866023   -0.507849   -4.224284
  N      3.698881   -0.312844   -4.986988
  H      2.731405   -0.050091   -4.849000
  H      3.890046   -1.055172   -5.643730
  H      5.251933    1.303459   -2.721014
  H      6.695165   -0.062322   -3.851596
  H      5.975383   -1.396884   -4.691414
  O      0.228860   -1.246868   -3.127871
  O     -0.439269    1.118966   -3.014550
  O      1.247881    0.403474   -4.595647
  H      1.697003    2.561969   -2.141109
  H      3.080787    1.987436   -1.225838
  H      2.806463    1.986511   -4.268484
  H      3.778714    3.098282   -3.307383

 Total Charge           Charge          ....    0
 Multiplicity           Mult            ....    1
 Number of Electrons    NEL             ....   96
 Basis Dimension        Dim             ....  413

ORBITAL ENERGIES
----------------

  NO   OCC          E(Eh)            E(eV)
   0   2.0000     -89.142418     -2425.6885
   1   2.0000     -19.136420      -520.7285
   2   2.0000     -19.119351      -520.2640
   3   2.0000     -19.119150      -520.2585
   4   2.0000     -14.476262      -393.9191
   5   2.0000     -14.472265      -393.8104
   6   2.0000     -14.440474      -392.9453
   7   2.0000     -10.414384      -283.3898
   8   2.0000     -10.284191      -279.8471
   9   2.0000     -10.234875      -278.5051
  10   2.0000     -10.219818      -278.0954
  11   2.0000      -8.088230      -220.0919
  12   2.0000      -6.025814      -163.9707
  13   2.0000      -6.024667      -163.9395
  14   2.0000      -6.023431      -163.9059
  15   2.0000      -1.102808       -30.0089
  16   2.0000      -1.096243       -29.8303
  17   2.0000      -0.992165       -26.9982
  18   2.0000      -0.977118       -26.5887
  19   2.0000      -0.958312       -26.0770
  20   2.0000      -0.957492       -26.0547
  21   2.0000      -0.831155       -22.6169
  22   2.0000      -0.757988       -20.6259
  23   2.0000      -0.704208       -19.1625
  24   2.0000      -0.665607       -18.1121
  25   2.0000      -0.656811       -17.8727
  26   2.0000      -0.620491       -16.8844
  27   2.0000      -0.578714       -15.7476
  28   2.0000      -0.564059       -15.3488
  29   2.0000      -0.543512       -14.7897
  30   2.0000      -0.521349       -14.1866
  31   2.0000      -0.501879       -13.6568
  32   2.0000      -0.485228       -13.2037
  33   2.0000      -0.463462       -12.6114
  34   2.0000      -0.447260       -12.1706
  35   2.0000      -0.431356       -11.7378
  36   2.0000      -0.411757       -11.2045
  37   2.0000      -0.391640       -10.6571
  38   2.0000      -0.385292       -10.4843
  39   2.0000      -0.372992       -10.1496
  40   2.0000      -0.351418        -9.5626
  41   2.0000      -0.322514        -8.7761
  42   2.0000      -0.313416        -8.5285
  43   2.0000      -0.305410        -8.3106
  44   2.0000      -0.274830        -7.4785
  45   2.0000      -0.264524        -7.1981
  46   2.0000      -0.256317        -6.9747
  47   2.0000      -0.225311        -6.1310
  48   0.0000      -0.027863        -0.7582
  49   0.0000      -0.020344        -0.5536
  50   0.0000       0.008832         0.2403
  51   0.0000       0.027250         0.7415
  52   0.0000       0.062742         1.7073

MULLIKEN ATOMIC CHARGES
-----------------------
   0 C :   -0.229044
   1 N :   -0.276186
   2 C :   -0.162886
   3 C :   -0.322290
   4 H :    0.110981
   5 H :    0.136019
   6 S :    0.827856
   7 C :    0.430333
   8 N :   -0.474447
   9 N :   -0.380882
  10 H :    0.295068
  11 H :    0.244846
  12 H :    0.232803
  13 H :    0.267302
  14 H :    0.271049
  15 O :   -0.495901
  16 O :   -0.490630
  17 O :   -0.573917
  18 H :    0.145326
  19 H :    0.097041
  20 H :    0.211736
  21 H :    0.135824
Sum of atomic charges:   -0.0000000

LOEWDIN ATOMIC CHARGES
----------------------
   0 C :   -0.267957
   1 N :    0.159057
   2 C :   -0.294021
   3 C :   -0.400244
   4 H :    0.124329
   5 H :    0.139986
   6 S :    0.419698
   7 C :   -0.435263
   8 N :    0.015577
   9 N :    0.094862
  10 H :    0.140429
  11 H :    0.185219
  12 H :    0.197585
  13 H :    0.181975
  14 H :    0.183894
  15 O :   -0.330780
  16 O :   -0.324383
  17 O :   -0.373788
  18 H :    0.158044
  19 H :    0.134991
  20 H :    0.152774
  21 H :    0.138016

  Mayer bond orders larger than 0.100000
B(  0-C ,  1-N ) :   0.8603 B(  0-C ,  2-C ) :   1.0011 B(  0-C , 20-H ) :   0.9451
B(  0-C , 21-H ) :   0.9572 B(  1-N ,  7-C ) :   1.3650 B(  1-N , 12-H ) :   0.9098
B(  2-C ,  3-C ) :   0.9846 B(  2-C , 18-H ) :   0.9364 B(  2-C , 19-H ) :   0.9514
B(  3-C ,  4-H ) :   0.9506 B(  3-C ,  5-H ) :   0.9492 B(  3-C ,  6-S ) :   0.8987
B(  6-S , 15-O ) :   1.8751 B(  6-S , 16-O ) :   1.8551 B(  6-S , 17-O ) :   1.4843
B(  7-C ,  8-N ) :   1.2405 B(  7-C ,  9-N ) :   1.4716 B(  8-N , 13-H ) :   0.9026
B(  8-N , 14-H ) :   0.9021 B(  9-N , 10-H ) :   0.7367 B(  9-N , 11-H ) :   0.9102
B( 10-H , 17-O ) :   0.2241

Dispersion correction           -0.021968678
FINAL SINGLE POINT ENERGY      -946.699246638406

DIPOLE MOMENT
-------------
                                X             Y             Z
Electronic contribution:     -7.09595      -3.23592      -2.45823
Nuclear contribution   :     13.40759       3.44219       2.21042
                        -----------------------------------------
Total Dipole Moment    :      6.31165       0.20627      -0.24780
                        -----------------------------------------
Magnitude (a.u.)       :      6.31988
Magnitude (Debye)      :     16.06385

Rotational constants in cm-1:     0.059860     0.020817     0.017914
Rotational constants in MHz :  1794.564877   624.092098   537.039275

                             ****ORCA TERMINATED NORMALLY****
TOTAL RUN TIME: 0 days 0 hours 0 minutes 34 seconds 96 msec
