                         Program Version 5.0.0 -  RELEASE  -
|  1> !PBE0 D3BJ RIJCOSX def2-TZVP def2/J TightSCF
|  2> *xyz 0 1
|  3> C          2.49556        1.81615       -2.13636
|  4> C          1.87218        0.42790       -2.07750
|  5> H          2.61427       -0.36583       -2.19889
|  6> H          1.38995        0.27309       -1.11236
|  7> S          0.57902        0.14047       -3.29794
|  8> F          0.22886       -1.24687       -3.12787
|  9> O         -0.43927        1.11897       -3.01455
| 10> O          1.24788        0.40347       -4.59565
| 11> H          2.96535        1.95613       -3.08747
| 12> H          3.22581        1.91242       -1.36024
| 13> H          1.73350        2.55528       -2.00274
| 14> *
| 15>
| 16> %MaxCore 64000
| 17>
| 18> %pal nprocs 4
| 19> end
| 20>
| 21> %scf
| 22>   MaxIter 150
| 23> end
| 24>
| 25>
| 26>                          ****END OF INPUT****

CARTESIAN COORDINATES (ANGSTROEM)
---------------------------------
  C      2.495560    1.816150   -2.136360
  C      1.872180    0.427900   -2.077500
  H      2.614270   -0.365830   -2.198890
  H      1.389950    0.273090   -1.112360
  S      0.579020    0.140470   -3.297940
  F      0.228860   -1.246870   -3.127870
  O     -0.439270    1.118970   -3.014550
  O      1.247880    0.403470   -4.595650
  H      2.965350    1.956130   -3.087470
  H      3.225810    1.912420   -1.360240
  H      1.733500    2.555280   -2.002740

 Total Charge           Charge          ....    0
 Multiplicity           Mult            ....    1
 Number of Electrons    NEL             ....   58
 Basis Dimension        Dim             ....  222

ORBITAL ENERGIES
----------------

  NO   OCC          E(Eh)            E(eV)
   0   2.0000     -89.260235     -2428.8945
   1   2.0000     -24.894073      -677.4022
   2   2.0000     -19.218927      -522.9736
   3   2.0000     -19.203978      -522.5668
   4   2.0000     -10.280393      -279.7437
   5   2.0000     -10.234801      -278.5031
   6   2.0000      -8.206476      -223.3096
   7   2.0000      -6.146725      -167.2609
   8   2.0000      -6.140614      -167.0946
   9   2.0000      -6.140231      -167.0842
  10   2.0000      -1.418358       -38.5955
  11   2.0000      -1.133354       -30.8401
  12   2.0000      -1.031291       -28.0628
  13   2.0000      -0.842522       -22.9262
  14   2.0000      -0.758694       -20.6451
  15   2.0000      -0.692984       -18.8570
  16   2.0000      -0.606898       -16.5145
  17   2.0000      -0.604781       -16.4569
  18   2.0000      -0.572426       -15.5765
  19   2.0000      -0.506703       -13.7881
  20   2.0000      -0.497303       -13.5323
  21   2.0000      -0.458247       -12.4695
  22   2.0000      -0.442363       -12.0373
  23   2.0000      -0.420776       -11.4499
  24   2.0000      -0.399180       -10.8622
  25   2.0000      -0.398104       -10.8330
  26   2.0000      -0.347790        -9.4639
  27   2.0000      -0.333243        -9.0680
  28   2.0000      -0.318275        -8.6607
  29   0.0000       0.029015         0.7895
  30   0.0000       0.042906         1.1675
  31   0.0000       0.070633         1.9220
  32   0.0000       0.078173         2.1272
  33   0.0000       0.082392         2.2420

MULLIKEN ATOMIC CHARGES
-----------------------
   0 C :   -0.369006
   1 C :   -0.246457
   2 H :    0.141597
   3 H :    0.136554
   4 S :    0.831287
   5 F :   -0.087008
   6 O :   -0.397231
   7 O :   -0.443774
   8 H :    0.151456
   9 H :    0.133235
  10 H :    0.149345
Sum of atomic charges:    0.0000000

LOEWDIN ATOMIC CHARGES
----------------------
   0 C :   -0.306945
   1 C :   -0.403060
   2 H :    0.136969
   3 H :    0.136970
   4 S :    0.515991
   5 F :    0.101794
   6 O :   -0.256233
   7 O :   -0.309349
   8 H :    0.128904
   9 H :    0.126245
  10 H :    0.128715

  Mayer bond orders larger than 0.100000
B(  0-C ,  1-C ) :   1.0081 B(  0-C ,  8-H ) :   0.9643 B(  0-C ,  9-H ) :   0.9550
B(  0-C , 10-H ) :   0.9652 B(  1-C ,  2-H ) :   0.9327 B(  1-C ,  3-H ) :   0.9328
B(  1-C ,  4-S ) :   0.9207 B(  4-S ,  5-F ) :   1.1539 B(  4-S ,  6-O ) :   1.9415
B(  4-S ,  7-O ) :   1.8865

Dispersion correction           -0.007925029
FINAL SINGLE POINT ENERGY      -727.350371441661

DIPOLE MOMENT
-------------
                                X             Y             Z
Electronic contribution:     -6.83955      -6.41572      -4.11128
Nuclear contribution   :      7.60530       5.82028       5.38743
                        -----------------------------------------
Total Dipole Moment    :      0.76575      -0.59544       1.27615
                        -----------------------------------------
Magnitude (a.u.)       :      1.60296
Magnitude (Debye)      :      4.07440

Rotational constants in cm-1:     0.157861     0.081452     0.078859
Rotational constants in MHz :  4732.562506  2441.865430  2364.129821

                             ****ORCA TERMINATED NORMALLY****
TOTAL RUN TIME: 0 days 0 hours 0 minutes 21 seconds 925 msec
