                         Program Version 5.0.0 -  RELEASE  -
|  1> !PBE0 D3BJ RIJCOSX def2-TZVP def2/J TightSCF
|  2> *xyz 0 1
|  3> C          3.38093        2.08304       -3.35013
|  4> C          4.53592        1.18245       -3.42852
|  5> C          2.49556        1.81615       -2.13636
|  6> C          4.67196        0.12227       -4.22060
|  7> N          5.86602       -0.50785       -4.22428
|  8> N          3.69888       -0.31284       -4.98699
|  9> H          2.73141       -0.05009       -4.84900
| 10> H          3.89005       -1.05517       -5.64373
| 11> H          5.25193        1.30346       -2.72101
| 12> H          6.69516       -0.06232       -3.85160
| 13> H          5.97538       -1.39688       -4.69141
| 14> H          2.80646        1.98651       -4.26848
| 15> H          3.77871        3.09828       -3.30738
| 16> H          2.11090        0.81901       -2.18783
| 17> H          1.68276        2.51198       -2.12786
| 18> H          3.07216        1.93031       -1.24227
| 19> *
| 20>
| 21> %MaxCore 64000
| 22>
| 23> %pal nprocs 4
| 24> end
| 25>
| 26> %scf
| 27>   MaxIter 150
| 28> end
| 29>
| 30>
| 31>                          ****END OF INPUT****

CARTESIAN COORDINATES (ANGSTROEM)
---------------------------------
  C      3.380930    2.083040   -3.350130
  C      4.535920    1.182450   -3.428520
  C      2.495560    1.816150   -2.136360
  C      4.671960    0.122270   -4.220600
  N      5.866020   -0.507850   -4.224280
  N      3.698880   -0.312840   -4.986990
  H      2.731410   -0.050090   -4.849000
  H      3.890050   -1.055170   -5.643730
  H      5.251930    1.303460   -2.721010
  H      6.695160   -0.062320   -3.851600
  H      5.975380   -1.396880   -4.691410
  H      2.806460    1.986510   -4.268480
  H      3.778710    3.098280   -3.307380
  H      2.110900    0.819010   -2.187830
  H      1.682760    2.511980   -2.127860
  H      3.072160    1.930310   -1.242270

 Total Charge           Charge          ....    0
 Multiplicity           Mult            ....    1
 Number of Electrons    NEL             ....   48
 Basis Dimension        Dim             ....  246

ORBITAL ENERGIES
----------------

  NO   OCC          E(Eh)            E(eV)
   0   2.0000     -14.383747      -391.4016
   1   2.0000     -14.376158      -391.1951
   2   2.0000     -10.261201      -279.2215
   3   2.0000     -10.191354      -277.3209
   4   2.0000     -10.180845      -277.0349
   5   2.0000     -10.138885      -275.8931
   6   2.0000      -0.986128       -26.8339
   7   2.0000      -0.892602       -24.2889
   8   2.0000      -0.791451       -21.5365
   9   2.0000      -0.713164       -19.4062
  10   2.0000      -0.633474       -17.2377
  11   2.0000      -0.592538       -16.1238
  12   2.0000      -0.557726       -15.1765
  13   2.0000      -0.519710       -14.1420
  14   2.0000      -0.492229       -13.3942
  15   2.0000      -0.452771       -12.3205
  16   2.0000      -0.425860       -11.5882
  17   2.0000      -0.403977       -10.9928
  18   2.0000      -0.387945       -10.5565
  19   2.0000      -0.360259        -9.8031
  20   2.0000      -0.335313        -9.1243
  21   2.0000      -0.328522        -8.9395
  22   2.0000      -0.274804        -7.4778
  23   2.0000      -0.164579        -4.4784
  24   0.0000       0.029268         0.7964
  25   0.0000       0.056567         1.5393
  26   0.0000       0.076255         2.0750
  27   0.0000       0.086388         2.3507
  28   0.0000       0.099620         2.7108

MULLIKEN ATOMIC CHARGES
-----------------------
   0 C :   -0.187667
   1 C :   -0.352585
   2 C :   -0.301657
   3 C :    0.348902
   4 N :   -0.500975
   5 N :   -0.497242
   6 H :    0.253217
   7 H :    0.221121
   8 H :    0.088729
   9 H :    0.249144
  10 H :    0.216073
  11 H :    0.068145
  12 H :    0.093279
  13 H :    0.095090
  14 H :    0.103356
  15 H :    0.103070
Sum of atomic charges:   -0.0000000

LOEWDIN ATOMIC CHARGES
----------------------
   0 C :   -0.309845
   1 C :   -0.278557
   2 C :   -0.309844
   3 C :   -0.470031
   4 N :   -0.028448
   5 N :    0.002333
   6 H :    0.177522
   7 H :    0.164469
   8 H :    0.120159
   9 H :    0.175276
  10 H :    0.155672
  11 H :    0.128557
  12 H :    0.137736
  13 H :    0.111426
  14 H :    0.108775
  15 H :    0.114799

  Mayer bond orders larger than 0.100000
B(  0-C ,  1-C ) :   1.0639 B(  0-C ,  2-C ) :   0.9823 B(  0-C , 11-H ) :   0.9661
B(  0-C , 12-H ) :   0.9673 B(  1-C ,  3-C ) :   1.6858 B(  1-C ,  8-H ) :   0.9845
B(  2-C , 13-H ) :   0.9743 B(  2-C , 14-H ) :   0.9698 B(  2-C , 15-H ) :   0.9775
B(  3-C ,  4-N ) :   1.1248 B(  3-C ,  5-N ) :   1.1485 B(  4-N ,  9-H ) :   0.9137
B(  4-N , 10-H ) :   0.9209 B(  5-N ,  6-H ) :   0.9126 B(  5-N ,  7-H ) :   0.9186

Dispersion correction           -0.010650433
FINAL SINGLE POINT ENERGY      -267.706639842754

DIPOLE MOMENT
-------------
                                X             Y             Z
Electronic contribution:      3.02473      -2.86726      -2.94682
Nuclear contribution   :     -2.84307       1.95814       2.32378
                        -----------------------------------------
Total Dipole Moment    :      0.18166      -0.90912      -0.62304
                        -----------------------------------------
Magnitude (a.u.)       :      1.11700
Magnitude (Debye)      :      2.83919

Rotational constants in cm-1:     0.248902     0.068887     0.059904
Rotational constants in MHz :  7461.898926  2065.183281  1795.882140

                             ****ORCA TERMINATED NORMALLY****
TOTAL RUN TIME: 0 days 0 hours 0 minutes 27 seconds 493 msec
