                         Program Version 5.0.0 -  RELEASE  -
|  1> !PBE0 D3BJ RIJCOSX def2-TZVP def2/J TightSCF
|  2> *xyz 0 1
|  3> C          2.49556        1.81615       -2.13636
|  4> C          1.87218        0.42790       -2.07750
|  5> H          2.61427       -0.36583       -2.19889
|  6> H          1.38995        0.27309       -1.11236
|  7> S          0.57902        0.14047       -3.29794
|  8> O          0.22886       -1.24687       -3.12787
|  9> F         -0.43927        1.11897       -3.01455
| 10> O          1.24788        0.40347       -4.59565
| 11> H          2.96535        1.95613       -3.08747
| 12> H          3.22581        1.91242       -1.36024
| 13> H          1.73350        2.55528       -2.00274
| 14> *
| 15>
| 16> %MaxCore 64000
| 17>
| 18> %pal nprocs 4
| 19> end
| 20>
| 21> %scf
| 22>   MaxIter 150
| 23> end
| 24>
| 25>
| 26>                          ****END OF INPUT****

CARTESIAN COORDINATES (ANGSTROEM)
---------------------------------
  C      2.495560    1.816150   -2.136360
  C      1.872180    0.427900   -2.077500
  H      2.614270   -0.365830   -2.198890
  H      1.389950    0.273090   -1.112360
  S      0.579020    0.140470   -3.297940
  O      0.228860   -1.246870   -3.127870
  F     -0.439270    1.118970   -3.014550
  O      1.247880    0.403470   -4.595650
  H      2.965350    1.956130   -3.087470
  H      3.225810    1.912420   -1.360240
  H      1.733500    2.555280   -2.002740

 Total Charge           Charge          ....    0
 Multiplicity           Mult            ....    1
 Number of Electrons    NEL             ....   58
 Basis Dimension        Dim             ....  222

ORBITAL ENERGIES
----------------

  NO   OCC          E(Eh)            E(eV)
   0   2.0000     -89.260478     -2428.9011
   1   2.0000     -24.894168      -677.4048
   2   2.0000     -19.219459      -522.9881
   3   2.0000     -19.204785      -522.5888
   4   2.0000     -10.280364      -279.7429
   5   2.0000     -10.237691      -278.5817
   6   2.0000      -8.206686      -223.3153
   7   2.0000      -6.147063      -167.2701
   8   2.0000      -6.140818      -167.1001
   9   2.0000      -6.140338      -167.0871
  10   2.0000      -1.418832       -38.6084
  11   2.0000      -1.132963       -30.8295
  12   2.0000      -1.032405       -28.0932
  13   2.0000      -0.845517       -23.0077
  14   2.0000      -0.755259       -20.5517
  15   2.0000      -0.697026       -18.9670
  16   2.0000      -0.614963       -16.7340
  17   2.0000      -0.605721       -16.4825
  18   2.0000      -0.565885       -15.3985
  19   2.0000      -0.506609       -13.7855
  20   2.0000      -0.494011       -13.4427
  21   2.0000      -0.467550       -12.7227
  22   2.0000      -0.446636       -12.1536
  23   2.0000      -0.420375       -11.4390
  24   2.0000      -0.410032       -11.1575
  25   2.0000      -0.391319       -10.6483
  26   2.0000      -0.347324        -9.4512
  27   2.0000      -0.333305        -9.0697
  28   2.0000      -0.320438        -8.7196
  29   0.0000       0.020194         0.5495
  30   0.0000       0.051283         1.3955
  31   0.0000       0.063517         1.7284
  32   0.0000       0.077586         2.1112
  33   0.0000       0.087423         2.3789

MULLIKEN ATOMIC CHARGES
-----------------------
   0 C :   -0.365872
   1 C :   -0.256513
   2 H :    0.164908
   3 H :    0.138399
   4 S :    0.831788
   5 O :   -0.393913
   6 F :   -0.089517
   7 O :   -0.444791
   8 H :    0.156316
   9 H :    0.133964
  10 H :    0.125230
Sum of atomic charges:    0.0000000

LOEWDIN ATOMIC CHARGES
----------------------
   0 C :   -0.320667
   1 C :   -0.397301
   2 H :    0.151059
   3 H :    0.137045
   4 S :    0.517144
   5 O :   -0.255965
   6 F :    0.103048
   7 O :   -0.308655
   8 H :    0.128299
   9 H :    0.125640
  10 H :    0.120355

  Mayer bond orders larger than 0.100000
B(  0-C ,  1-C ) :   0.9925 B(  0-C ,  8-H ) :   0.9625 B(  0-C ,  9-H ) :   0.9573
B(  0-C , 10-H ) :   0.9682 B(  1-C ,  2-H ) :   0.9379 B(  1-C ,  3-H ) :   0.9398
B(  1-C ,  4-S ) :   0.9137 B(  4-S ,  5-O ) :   1.9640 B(  4-S ,  6-F ) :   1.1443
B(  4-S ,  7-O ) :   1.8827

Dispersion correction           -0.007884603
FINAL SINGLE POINT ENERGY      -727.350447944954

DIPOLE MOMENT
-------------
                                X             Y             Z
Electronic contribution:     -7.95929      -2.42156      -3.91392
Nuclear contribution   :      8.30151       3.35500       5.26935
                        -----------------------------------------
Total Dipole Moment    :      0.34222       0.93344       1.35543
                        -----------------------------------------
Magnitude (a.u.)       :      1.68096
Magnitude (Debye)      :      4.27265

Rotational constants in cm-1:     0.152913     0.083043     0.080351
Rotational constants in MHz :  4584.227971  2489.580280  2408.872860

                             ****ORCA TERMINATED NORMALLY****
TOTAL RUN TIME: 0 days 0 hours 0 minutes 19 seconds 542 msec
