                         Program Version 5.0.0 -  RELEASE  -
|  1> !PBE0 D3BJ RIJCOSX def2-TZVP def2/J TightSCF
|  2> *xyz 0 1
|  3> C          3.38093        2.08304       -3.35013
|  4> N          4.53592        1.18245       -3.42852
|  5> C          2.49556        1.81615       -2.13636
|  6> C          4.67196        0.12227       -4.22060
|  7> C          5.86602       -0.50785       -4.22428
|  8> N          3.69888       -0.31284       -4.98699
|  9> H          2.73141       -0.05009       -4.84900
| 10> H          3.89005       -1.05517       -5.64373
| 11> H          5.25193        1.30346       -2.72101
| 12> H          6.69516       -0.06232       -3.85160
| 13> H          5.97538       -1.39688       -4.69141
| 14> H          2.80646        1.98651       -4.26848
| 15> H          3.77871        3.09828       -3.30738
| 16> H          2.11090        0.81901       -2.18783
| 17> H          1.68276        2.51198       -2.12786
| 18> H          3.07216        1.93031       -1.24227
| 19> *
| 20>
| 21> %MaxCore 64000
| 22>
| 23> %pal nprocs 4
| 24> end
| 25>
| 26> %scf
| 27>   MaxIter 150
| 28> end
| 29>
| 30>
| 31>                          ****END OF INPUT****

CARTESIAN COORDINATES (ANGSTROEM)
---------------------------------
  C      3.380930    2.083040   -3.350130
  N      4.535920    1.182450   -3.428520
  C      2.495560    1.816150   -2.136360
  C      4.671960    0.122270   -4.220600
  C      5.866020   -0.507850   -4.224280
  N      3.698880   -0.312840   -4.986990
  H      2.731410   -0.050090   -4.849000
  H      3.890050   -1.055170   -5.643730
  H      5.251930    1.303460   -2.721010
  H      6.695160   -0.062320   -3.851600
  H      5.975380   -1.396880   -4.691410
  H      2.806460    1.986510   -4.268480
  H      3.778710    3.098280   -3.307380
  H      2.110900    0.819010   -2.187830
  H      1.682760    2.511980   -2.127860
  H      3.072160    1.930310   -1.242270

 Total Charge           Charge          ....    0
 Multiplicity           Mult            ....    1
 Number of Electrons    NEL             ....   48
 Basis Dimension        Dim             ....  246

ORBITAL ENERGIES
----------------

  NO   OCC          E(Eh)            E(eV)
   0   2.0000     -14.384107      -391.4114
   1   2.0000     -14.383181      -391.3863
   2   2.0000     -10.265964      -279.3511
   3   2.0000     -10.260130      -279.1923
   4   2.0000     -10.211215      -277.8613
   5   2.0000     -10.125893      -275.5396
   6   2.0000      -0.994220       -27.0541
   7   2.0000      -0.912177       -24.8216
   8   2.0000      -0.793428       -21.5903
   9   2.0000      -0.717226       -19.5167
  10   2.0000      -0.645754       -17.5719
  11   2.0000      -0.619221       -16.8499
  12   2.0000      -0.558580       -15.1997
  13   2.0000      -0.512054       -13.9337
  14   2.0000      -0.494233       -13.4488
  15   2.0000      -0.458701       -12.4819
  16   2.0000      -0.441438       -12.0121
  17   2.0000      -0.414149       -11.2696
  18   2.0000      -0.399827       -10.8798
  19   2.0000      -0.379615       -10.3299
  20   2.0000      -0.373670       -10.1681
  21   2.0000      -0.363841        -9.9006
  22   2.0000      -0.264378        -7.1941
  23   2.0000      -0.165498        -4.5034
  24   0.0000       0.028051         0.7633
  25   0.0000       0.059609         1.6220
  26   0.0000       0.069082         1.8798
  27   0.0000       0.087931         2.3927
  28   0.0000       0.093950         2.5565

MULLIKEN ATOMIC CHARGES
-----------------------
   0 C :   -0.164436
   1 N :   -0.303484
   2 C :   -0.303868
   3 C :    0.405106
   4 C :   -0.603590
   5 N :   -0.499238
   6 H :    0.227841
   7 H :    0.248905
   8 H :    0.226512
   9 H :    0.107230
  10 H :    0.095086
  11 H :    0.109430
  12 H :    0.117846
  13 H :    0.112792
  14 H :    0.113242
  15 H :    0.110627
Sum of atomic charges:   -0.0000000

LOEWDIN ATOMIC CHARGES
----------------------
   0 C :   -0.313255
   1 N :    0.121879
   2 C :   -0.311847
   3 C :   -0.474655
   4 C :   -0.362741
   5 N :    0.006625
   6 H :    0.161718
   7 H :    0.181598
   8 H :    0.195268
   9 H :    0.094409
  10 H :    0.092347
  11 H :    0.129327
  12 H :    0.130176
  13 H :    0.115704
  14 H :    0.117191
  15 H :    0.116257

  Mayer bond orders larger than 0.100000
B(  0-C ,  1-N ) :   0.9496 B(  0-C ,  2-C ) :   0.9915 B(  0-C , 11-H ) :   0.9701
B(  0-C , 12-H ) :   0.9680 B(  1-N ,  3-C ) :   1.2043 B(  1-N ,  8-H ) :   0.9178
B(  2-C , 13-H ) :   0.9682 B(  2-C , 14-H ) :   0.9664 B(  2-C , 15-H ) :   0.9718
B(  3-C ,  4-C ) :   1.5705 B(  3-C ,  5-N ) :   1.1678 B(  4-C ,  9-H ) :   0.9979
B(  4-C , 10-H ) :   0.9976 B(  5-N ,  6-H ) :   0.9138 B(  5-N ,  7-H ) :   0.9136

Dispersion correction           -0.010548447
FINAL SINGLE POINT ENERGY      -267.696049096720

DIPOLE MOMENT
-------------
                                X             Y             Z
Electronic contribution:      1.48489      -1.10601      -2.05450
Nuclear contribution   :     -2.56090       1.59955       2.15496
                        -----------------------------------------
Total Dipole Moment    :     -1.07601       0.49354       0.10046
                        -----------------------------------------
Magnitude (a.u.)       :      1.18806
Magnitude (Debye)      :      3.01980

Rotational constants in cm-1:     0.249834     0.071381     0.061833
Rotational constants in MHz :  7489.842787  2139.945635  1853.706310

                             ****ORCA TERMINATED NORMALLY****
TOTAL RUN TIME: 0 days 0 hours 0 minutes 25 seconds 368 msec
