                         Program Version 5.0.0 -  RELEASE  -
|  1> !PBE0 D3BJ RIJCOSX def2-TZVP def2/J TightSCF
|  2> *xyz 0 1
|  3> C          2.49556        1.81615       -2.13636
|  4> C          1.87218        0.42790       -2.07750
|  5> H          2.61427       -0.36583       -2.19889
|  6> H          1.38995        0.27309       -1.11236
|  7> S          0.57902        0.14047       -3.29794
|  8> O          0.22886       -1.24687       -3.12787
|  9> O         -0.43927        1.11897       -3.01455
| 10> F          1.24788        0.40347       -4.59565
| 11> H          2.96535        1.95613       -3.08747
| 12> H          3.22581        1.91242       -1.36024
| 13> H          1.73350        2.55528       -2.00274
| 14> *
| 15>
| 16> %MaxCore 64000
| 17>
| 18> %pal nprocs 4
| 19> end
| 20>
| 21> %scf
| 22>   MaxIter 150
| 23> end
| 24>
| 25>
| 26>                          ****END OF INPUT****

CARTESIAN COORDINATES (ANGSTROEM)
---------------------------------
  C      2.495560    1.816150   -2.136360
  C      1.872180    0.427900   -2.077500
  H      2.614270   -0.365830   -2.198890
  H      1.389950    0.273090   -1.112360
  S      0.579020    0.140470   -3.297940
  O      0.228860   -1.246870   -3.127870
  O     -0.439270    1.118970   -3.014550
  F      1.247880    0.403470   -4.595650
  H      2.965350    1.956130   -3.087470
  H      3.225810    1.912420   -1.360240
  H      1.733500    2.555280   -2.002740

 Total Charge           Charge          ....    0
 Multiplicity           Mult            ....    1
 Number of Electrons    NEL             ....   58
 Basis Dimension        Dim             ....  222

ORBITAL ENERGIES
----------------

  NO   OCC          E(Eh)            E(eV)
   0   2.0000     -89.258084     -2428.8359
   1   2.0000     -24.871510      -676.7882
   2   2.0000     -19.219223      -522.9817
   3   2.0000     -19.218988      -522.9752
   4   2.0000     -10.279354      -279.7154
   5   2.0000     -10.238268      -278.5974
   6   2.0000      -8.204351      -223.2517
   7   2.0000      -6.144757      -167.2073
   8   2.0000      -6.138616      -167.0402
   9   2.0000      -6.137981      -167.0230
  10   2.0000      -1.382345       -37.6155
  11   2.0000      -1.144045       -31.1310
  12   2.0000      -1.053790       -28.6751
  13   2.0000      -0.844860       -22.9898
  14   2.0000      -0.740865       -20.1599
  15   2.0000      -0.690063       -18.7776
  16   2.0000      -0.596428       -16.2296
  17   2.0000      -0.580573       -15.7982
  18   2.0000      -0.563813       -15.3421
  19   2.0000      -0.508230       -13.8297
  20   2.0000      -0.491121       -13.3641
  21   2.0000      -0.471747       -12.8369
  22   2.0000      -0.450586       -12.2611
  23   2.0000      -0.421780       -11.4772
  24   2.0000      -0.415503       -11.3064
  25   2.0000      -0.393561       -10.7093
  26   2.0000      -0.356122        -9.6906
  27   2.0000      -0.343571        -9.3491
  28   2.0000      -0.335996        -9.1429
  29   0.0000       0.021539         0.5861
  30   0.0000       0.057217         1.5569
  31   0.0000       0.066501         1.8096
  32   0.0000       0.079857         2.1730
  33   0.0000       0.087240         2.3739

MULLIKEN ATOMIC CHARGES
-----------------------
   0 C :   -0.370738
   1 C :   -0.258256
   2 H :    0.148605
   3 H :    0.156714
   4 S :    0.838880
   5 O :   -0.402307
   6 O :   -0.407617
   7 F :   -0.122746
   8 H :    0.129773
   9 H :    0.134682
  10 H :    0.153010
Sum of atomic charges:    0.0000000

LOEWDIN ATOMIC CHARGES
----------------------
   0 C :   -0.321423
   1 C :   -0.396770
   2 H :    0.139203
   3 H :    0.150052
   4 S :    0.523480
   5 O :   -0.259806
   6 O :   -0.259702
   7 F :    0.050698
   8 H :    0.120798
   9 H :    0.125966
  10 H :    0.127504

  Mayer bond orders larger than 0.100000
B(  0-C ,  1-C ) :   0.9924 B(  0-C ,  8-H ) :   0.9681 B(  0-C ,  9-H ) :   0.9580
B(  0-C , 10-H ) :   0.9635 B(  1-C ,  2-H ) :   0.9392 B(  1-C ,  3-H ) :   0.9389
B(  1-C ,  4-S ) :   0.9143 B(  4-S ,  5-O ) :   1.9628 B(  4-S ,  6-O ) :   1.9367
B(  4-S ,  7-F ) :   1.1025

Dispersion correction           -0.007882547
FINAL SINGLE POINT ENERGY      -727.368944157919

DIPOLE MOMENT
-------------
                                X             Y             Z
Electronic contribution:     -5.09957      -3.62182      -6.59401
Nuclear contribution   :      6.54345       4.10057       6.91691
                        -----------------------------------------
Total Dipole Moment    :      1.44387       0.47876       0.32289
                        -----------------------------------------
Magnitude (a.u.)       :      1.55507
Magnitude (Debye)      :      3.95267

Rotational constants in cm-1:     0.152835     0.082826     0.080611
Rotational constants in MHz :  4581.878371  2483.049050  2416.647141

                             ****ORCA TERMINATED NORMALLY****
TOTAL RUN TIME: 0 days 0 hours 0 minutes 19 seconds 268 msec
