                         Program Version 5.0.0 -  RELEASE  -
|  1> !PBE0 D3BJ RIJCOSX def2-TZVP def2/J TightSCF
|  2> *xyz 0 1
|  3> C          3.38093        2.08304       -3.35013
|  4> N          4.53592        1.18245       -3.42852
|  5> C          2.49556        1.81615       -2.13636
|  6> C          4.67196        0.12227       -4.22060
|  7> N          5.86602       -0.50785       -4.22428
|  8> C          3.69888       -0.31284       -4.98699
|  9> H          2.73141       -0.05009       -4.84900
| 10> H          3.89005       -1.05517       -5.64373
| 11> H          5.25193        1.30346       -2.72101
| 12> H          6.69516       -0.06232       -3.85160
| 13> H          5.97538       -1.39688       -4.69141
| 14> H          2.80646        1.98651       -4.26848
| 15> H          3.77871        3.09828       -3.30738
| 16> H          2.11090        0.81901       -2.18783
| 17> H          1.68276        2.51198       -2.12786
| 18> H          3.07216        1.93031       -1.24227
| 19> *
| 20>
| 21> %MaxCore 64000
| 22>
| 23> %pal nprocs 4
| 24> end
| 25>
| 26> %scf
| 27>   MaxIter 150
| 28> end
| 29>
| 30>
| 31>                          ****END OF INPUT****

CARTESIAN COORDINATES (ANGSTROEM)
---------------------------------
  C      3.380930    2.083040   -3.350130
  N      4.535920    1.182450   -3.428520
  C      2.495560    1.816150   -2.136360
  C      4.671960    0.122270   -4.220600
  N      5.866020   -0.507850   -4.224280
  C      3.698880   -0.312840   -4.986990
  H      2.731410   -0.050090   -4.849000
  H      3.890050   -1.055170   -5.643730
  H      5.251930    1.303460   -2.721010
  H      6.695160   -0.062320   -3.851600
  H      5.975380   -1.396880   -4.691410
  H      2.806460    1.986510   -4.268480
  H      3.778710    3.098280   -3.307380
  H      2.110900    0.819010   -2.187830
  H      1.682760    2.511980   -2.127860
  H      3.072160    1.930310   -1.242270

 Total Charge           Charge          ....    0
 Multiplicity           Mult            ....    1
 Number of Electrons    NEL             ....   48
 Basis Dimension        Dim             ....  246

ORBITAL ENERGIES
----------------

  NO   OCC          E(Eh)            E(eV)
   0   2.0000     -14.382961      -391.3803
   1   2.0000     -14.377174      -391.2228
   2   2.0000     -10.262763      -279.2640
   3   2.0000     -10.251746      -278.9642
   4   2.0000     -10.203473      -277.6506
   5   2.0000     -10.128842      -275.6198
   6   2.0000      -0.987400       -26.8685
   7   2.0000      -0.902516       -24.5587
   8   2.0000      -0.778330       -21.1794
   9   2.0000      -0.731606       -19.9080
  10   2.0000      -0.656979       -17.8773
  11   2.0000      -0.580637       -15.7999
  12   2.0000      -0.558086       -15.1863
  13   2.0000      -0.528320       -14.3763
  14   2.0000      -0.470689       -12.8081
  15   2.0000      -0.460877       -12.5411
  16   2.0000      -0.432680       -11.7738
  17   2.0000      -0.413731       -11.2582
  18   2.0000      -0.390620       -10.6293
  19   2.0000      -0.386412       -10.5148
  20   2.0000      -0.364256        -9.9119
  21   2.0000      -0.359431        -9.7806
  22   2.0000      -0.256609        -6.9827
  23   2.0000      -0.177322        -4.8252
  24   0.0000       0.034409         0.9363
  25   0.0000       0.057526         1.5654
  26   0.0000       0.076224         2.0742
  27   0.0000       0.089053         2.4233
  28   0.0000       0.100804         2.7430

MULLIKEN ATOMIC CHARGES
-----------------------
   0 C :   -0.115395
   1 N :   -0.325172
   2 C :   -0.333646
   3 C :    0.401890
   4 N :   -0.518380
   5 C :   -0.567747
   6 H :    0.113328
   7 H :    0.089076
   8 H :    0.195418
   9 H :    0.222211
  10 H :    0.247625
  11 H :    0.131777
  12 H :    0.109700
  13 H :    0.133269
  14 H :    0.114057
  15 H :    0.101989
Sum of atomic charges:    0.0000000

LOEWDIN ATOMIC CHARGES
----------------------
   0 C :   -0.296305
   1 N :    0.115260
   2 C :   -0.310251
   3 C :   -0.470513
   4 N :   -0.026216
   5 C :   -0.338678
   6 H :    0.099475
   7 H :    0.099185
   8 H :    0.176913
   9 H :    0.157619
  10 H :    0.173659
  11 H :    0.139622
  12 H :    0.128155
  13 H :    0.121205
  14 H :    0.117839
  15 H :    0.113030

  Mayer bond orders larger than 0.100000
B(  0-C ,  1-N ) :   0.9253 B(  0-C ,  2-C ) :   0.9966 B(  0-C , 11-H ) :   0.9589
B(  0-C , 12-H ) :   0.9692 B(  1-N ,  3-C ) :   1.1732 B(  1-N ,  8-H ) :   0.9224
B(  2-C , 13-H ) :   0.9724 B(  2-C , 14-H ) :   0.9680 B(  2-C , 15-H ) :   0.9722
B(  3-C ,  4-N ) :   1.1129 B(  3-C ,  5-C ) :   1.6455 B(  4-N ,  9-H ) :   0.9181
B(  4-N , 10-H ) :   0.9166 B(  5-C ,  6-H ) :   0.9881 B(  5-C ,  7-H ) :   0.9980

Dispersion correction           -0.010605433
FINAL SINGLE POINT ENERGY      -267.700410603425

DIPOLE MOMENT
-------------
                                X             Y             Z
Electronic contribution:      3.73050      -1.32494      -1.32647
Nuclear contribution   :     -3.02065       1.64092       1.99316
                        -----------------------------------------
Total Dipole Moment    :      0.70986       0.31598       0.66669
                        -----------------------------------------
Magnitude (a.u.)       :      1.02383
Magnitude (Debye)      :      2.60236

Rotational constants in cm-1:     0.259304     0.069422     0.060943
Rotational constants in MHz :  7773.747720  2081.225169  1827.013389

                             ****ORCA TERMINATED NORMALLY****
TOTAL RUN TIME: 0 days 0 hours 0 minutes 26 seconds 666 msec
