                         Program Version 5.0.0 -  RELEASE  -
|  1> !PBE0 D3BJ RIJCOSX def2-TZVP def2/J TightSCF xyzfile
|  2>
|  3> *xyzfile 0 1 D2.xyz
|  4>
|  5> %MaxCore 64000
|  6>
|  7> %pal nprocs 18
|  8> end
|  9>
| 10> %scf
| 11>   MaxIter 150
| 12> end
| 13>
| 14>
| 15>                          ****END OF INPUT****

CARTESIAN COORDINATES (ANGSTROEM)
---------------------------------
  C      3.380928    2.083045   -3.350127
  N      4.535924    1.182447   -3.428518
  C      2.495557    1.816150   -2.136364
  C      1.872181    0.427903   -2.077497
  H      2.614270   -0.365825   -2.198894
  H      1.389953    0.273087   -1.112360
  S      0.579024    0.140472   -3.297943
  C      4.671956    0.122273   -4.220598
  C      5.866023   -0.507849   -4.224284
  N      3.698881   -0.312844   -4.986988
  H      2.731405   -0.050091   -4.849000
  H      3.890046   -1.055172   -5.643730
  H      5.251933    1.303459   -2.721014
  H      6.695165   -0.062322   -3.851596
  H      5.975383   -1.396884   -4.691414
  F      0.228860   -1.246868   -3.127871
  O     -0.439269    1.118966   -3.014550
  O      1.247881    0.403474   -4.595647
  H      1.697003    2.561969   -2.141109
  H      3.080787    1.987436   -1.225838
  H      2.806463    1.986511   -4.268484
  H      3.778714    3.098282   -3.307383

 Total Charge           Charge          ....    0
 Multiplicity           Mult            ....    1
 Number of Electrons    NEL             ....   96
 Basis Dimension        Dim             ....  413

ORBITAL ENERGIES
----------------

  NO   OCC          E(Eh)            E(eV)
   0   2.0000     -89.284531     -2429.5556
   1   2.0000     -24.913044      -677.9184
   2   2.0000     -19.240234      -523.5534
   3   2.0000     -19.235093      -523.4135
   4   2.0000     -14.384549      -391.4235
   5   2.0000     -14.355056      -390.6209
   6   2.0000     -10.291641      -280.0498
   7   2.0000     -10.263376      -279.2806
   8   2.0000     -10.258416      -279.1457
   9   2.0000     -10.257728      -279.1270
  10   2.0000     -10.119612      -275.3686
  11   2.0000      -8.230860      -223.9731
  12   2.0000      -6.171011      -167.9217
  13   2.0000      -6.165136      -167.7619
  14   2.0000      -6.164577      -167.7467
  15   2.0000      -1.437312       -39.1113
  16   2.0000      -1.159510       -31.5519
  17   2.0000      -1.064529       -28.9673
  18   2.0000      -0.987926       -26.8828
  19   2.0000      -0.905107       -24.6292
  20   2.0000      -0.858589       -23.3634
  21   2.0000      -0.793472       -21.5915
  22   2.0000      -0.748145       -20.3581
  23   2.0000      -0.707561       -19.2537
  24   2.0000      -0.656077       -17.8528
  25   2.0000      -0.627627       -17.0786
  26   2.0000      -0.615781       -16.7563
  27   2.0000      -0.613298       -16.6887
  28   2.0000      -0.599009       -16.2999
  29   2.0000      -0.559834       -15.2339
  30   2.0000      -0.522495       -14.2178
  31   2.0000      -0.507826       -13.8187
  32   2.0000      -0.502504       -13.6738
  33   2.0000      -0.494750       -13.4628
  34   2.0000      -0.479935       -13.0597
  35   2.0000      -0.460079       -12.5194
  36   2.0000      -0.429733       -11.6936
  37   2.0000      -0.422408       -11.4943
  38   2.0000      -0.419574       -11.4172
  39   2.0000      -0.399762       -10.8781
  40   2.0000      -0.395357       -10.7582
  41   2.0000      -0.380947       -10.3661
  42   2.0000      -0.369540       -10.0557
  43   2.0000      -0.358794        -9.7633
  44   2.0000      -0.351858        -9.5745
  45   2.0000      -0.339358        -9.2344
  46   2.0000      -0.258134        -7.0242
  47   2.0000      -0.160063        -4.3555
  48   0.0000       0.011204         0.3049
  49   0.0000       0.023748         0.6462
  50   0.0000       0.052590         1.4311
  51   0.0000       0.058318         1.5869
  52   0.0000       0.063524         1.7286

MULLIKEN ATOMIC CHARGES
-----------------------
   0 C :   -0.228317
   1 N :   -0.315439
   2 C :   -0.179087
   3 C :   -0.312844
   4 H :    0.184351
   5 H :    0.159115
   6 S :    0.852772
   7 C :    0.377453
   8 C :   -0.619908
   9 N :   -0.492750
  10 H :    0.247796
  11 H :    0.235133
  12 H :    0.222759
  13 H :    0.103657
  14 H :    0.093863
  15 F :   -0.077898
  16 O :   -0.383719
  17 O :   -0.443360
  18 H :    0.135219
  19 H :    0.123044
  20 H :    0.188600
  21 H :    0.129562
Sum of atomic charges:    0.0000000

LOEWDIN ATOMIC CHARGES
----------------------
   0 C :   -0.288437
   1 N :    0.120283
   2 C :   -0.284496
   3 C :   -0.372707
   4 H :    0.150478
   5 H :    0.143997
   6 S :    0.541967
   7 C :   -0.488112
   8 C :   -0.374575
   9 N :    0.004140
  10 H :    0.124306
  11 H :    0.176480
  12 H :    0.193104
  13 H :    0.091857
  14 H :    0.091685
  15 F :    0.111019
  16 O :   -0.242631
  17 O :   -0.279022
  18 H :    0.151231
  19 H :    0.148559
  20 H :    0.145156
  21 H :    0.135718

  Mayer bond orders larger than 0.100000
B(  0-C ,  1-N ) :   0.9272 B(  0-C ,  2-C ) :   0.9925 B(  0-C , 20-H ) :   0.9626
B(  0-C , 21-H ) :   0.9658 B(  1-N ,  7-C ) :   1.1782 B(  1-N , 12-H ) :   0.9187
B(  2-C ,  3-C ) :   0.9976 B(  2-C , 18-H ) :   0.9436 B(  2-C , 19-H ) :   0.9425
B(  3-C ,  4-H ) :   0.9214 B(  3-C ,  5-H ) :   0.9307 B(  3-C ,  6-S ) :   0.9370
B(  6-S , 15-F ) :   1.1677 B(  6-S , 16-O ) :   1.9638 B(  6-S , 17-O ) :   1.7427
B(  7-C ,  8-C ) :   1.5663 B(  7-C ,  9-N ) :   1.2145 B(  8-C , 13-H ) :   0.9972
B(  8-C , 14-H ) :   0.9984 B(  9-N , 10-H ) :   0.8405 B(  9-N , 11-H ) :   0.9211
B( 10-H , 17-O ) :   0.1221

Dispersion correction           -0.021893949
FINAL SINGLE POINT ENERGY      -954.575035975102

DIPOLE MOMENT
-------------
                                X             Y             Z
Electronic contribution:    -16.80332      -5.25580      -0.39074
Nuclear contribution   :     16.05479       5.17692       1.74190
                        -----------------------------------------
Total Dipole Moment    :     -0.74853      -0.07888       1.35116
                        -----------------------------------------
Magnitude (a.u.)       :      1.54666
Magnitude (Debye)      :      3.93129

Rotational constants in cm-1:     0.058652     0.021107     0.018077
Rotational constants in MHz :  1758.344290   632.763813   541.920558

                             ****ORCA TERMINATED NORMALLY****
TOTAL RUN TIME: 0 days 0 hours 0 minutes 35 seconds 723 msec
