                         Program Version 5.0.0 -  RELEASE  -
|  1> !PBE0 D3BJ RIJCOSX def2-TZVP def2/J TightSCF xyzfile
|  2>
|  3> *xyzfile 0 1 D4.xyz
|  4>
|  5> %MaxCore 64000
|  6>
|  7> %pal nprocs 18
|  8> end
|  9>
| 10> %scf
| 11>   MaxIter 150
| 12> end
| 13>
| 14>
| 15>                          ****END OF INPUT****

CARTESIAN COORDINATES (ANGSTROEM)
---------------------------------
  C      3.380928    2.083045   -3.350127
  C      4.535924    1.182447   -3.428518
  C      2.495557    1.816150   -2.136364
  C      1.872181    0.427903   -2.077497
  H      2.614270   -0.365825   -2.198894
  H      1.389953    0.273087   -1.112360
  S      0.579024    0.140472   -3.297943
  C      4.671956    0.122273   -4.220598
  N      5.866023   -0.507849   -4.224284
  N      3.698881   -0.312844   -4.986988
  H      2.731405   -0.050091   -4.849000
  H      3.890046   -1.055172   -5.643730
  H      5.251933    1.303459   -2.721014
  H      6.695165   -0.062322   -3.851596
  H      5.975383   -1.396884   -4.691414
  O      0.228860   -1.246868   -3.127871
  F     -0.439269    1.118966   -3.014550
  O      1.247881    0.403474   -4.595647
  H      1.697003    2.561969   -2.141109
  H      3.080787    1.987436   -1.225838
  H      2.806463    1.986511   -4.268484
  H      3.778714    3.098282   -3.307383

 Total Charge           Charge          ....    0
 Multiplicity           Mult            ....    1
 Number of Electrons    NEL             ....   96
 Basis Dimension        Dim             ....  413

ORBITAL ENERGIES
----------------

  NO   OCC          E(Eh)            E(eV)
   0   2.0000     -89.270320     -2429.1689
   1   2.0000     -24.900475      -677.5764
   2   2.0000     -19.227052      -523.1947
   3   2.0000     -19.221646      -523.0476
   4   2.0000     -14.373217      -391.1151
   5   2.0000     -14.356730      -390.6665
   6   2.0000     -10.271248      -279.4949
   7   2.0000     -10.258829      -279.1569
   8   2.0000     -10.230967      -278.3988
   9   2.0000     -10.197273      -277.4819
  10   2.0000     -10.138971      -275.8954
  11   2.0000      -8.216680      -223.5872
  12   2.0000      -6.156957      -167.5393
  13   2.0000      -6.150937      -167.3755
  14   2.0000      -6.150249      -167.3568
  15   2.0000      -1.424956       -38.7750
  16   2.0000      -1.145663       -31.1751
  17   2.0000      -1.051489       -28.6125
  18   2.0000      -0.976383       -26.5687
  19   2.0000      -0.882673       -24.0188
  20   2.0000      -0.848755       -23.0958
  21   2.0000      -0.783787       -21.3279
  22   2.0000      -0.746909       -20.3244
  23   2.0000      -0.702218       -19.1083
  24   2.0000      -0.643546       -17.5118
  25   2.0000      -0.619545       -16.8587
  26   2.0000      -0.610164       -16.6034
  27   2.0000      -0.596994       -16.2450
  28   2.0000      -0.565300       -15.3826
  29   2.0000      -0.546954       -14.8834
  30   2.0000      -0.528428       -14.3793
  31   2.0000      -0.500733       -13.6256
  32   2.0000      -0.495000       -13.4696
  33   2.0000      -0.488069       -13.2810
  34   2.0000      -0.465875       -12.6771
  35   2.0000      -0.453833       -12.3494
  36   2.0000      -0.422457       -11.4956
  37   2.0000      -0.412881       -11.2351
  38   2.0000      -0.411346       -11.1933
  39   2.0000      -0.390477       -10.6254
  40   2.0000      -0.369961       -10.0671
  41   2.0000      -0.359414        -9.7801
  42   2.0000      -0.353412        -9.6168
  43   2.0000      -0.344989        -9.3876
  44   2.0000      -0.337260        -9.1773
  45   2.0000      -0.318851        -8.6764
  46   2.0000      -0.263948        -7.1824
  47   2.0000      -0.165550        -4.5048
  48   0.0000       0.019247         0.5237
  49   0.0000       0.043853         1.1933
  50   0.0000       0.048901         1.3307
  51   0.0000       0.058750         1.5987
  52   0.0000       0.080014         2.1773

MULLIKEN ATOMIC CHARGES
-----------------------
   0 C :   -0.219904
   1 C :   -0.412948
   2 C :   -0.150807
   3 C :   -0.328510
   4 H :    0.197507
   5 H :    0.152493
   6 S :    0.847513
   7 C :    0.325694
   8 N :   -0.498660
   9 N :   -0.480920
  10 H :    0.272414
  11 H :    0.210942
  12 H :    0.086667
  13 H :    0.245723
  14 H :    0.218787
  15 O :   -0.386404
  16 F :   -0.081998
  17 O :   -0.456102
  18 H :    0.102286
  19 H :    0.107817
  20 H :    0.147614
  21 H :    0.100794
Sum of atomic charges:    0.0000000

LOEWDIN ATOMIC CHARGES
----------------------
   0 C :   -0.290237
   1 C :   -0.294249
   2 C :   -0.289719
   3 C :   -0.367641
   4 H :    0.159705
   5 H :    0.140678
   6 S :    0.541975
   7 C :   -0.473995
   8 N :   -0.026671
   9 N :    0.011503
  10 H :    0.138424
  11 H :    0.161720
  12 H :    0.118280
  13 H :    0.173074
  14 H :    0.156862
  15 O :   -0.249094
  16 F :    0.110082
  17 O :   -0.286849
  18 H :    0.133561
  19 H :    0.145900
  20 H :    0.144707
  21 H :    0.141985

  Mayer bond orders larger than 0.100000
B(  0-C ,  1-C ) :   1.0321 B(  0-C ,  2-C ) :   0.9665 B(  0-C , 20-H ) :   0.9686
B(  0-C , 21-H ) :   0.9616 B(  1-C ,  7-C ) :   1.6398 B(  1-C , 12-H ) :   0.9867
B(  2-C ,  3-C ) :   0.9808 B(  2-C , 18-H ) :   0.9534 B(  2-C , 19-H ) :   0.9433
B(  3-C ,  4-H ) :   0.9253 B(  3-C ,  5-H ) :   0.9407 B(  3-C ,  6-S ) :   0.9378
B(  6-S , 15-O ) :   1.9706 B(  6-S , 16-F ) :   1.1611 B(  6-S , 17-O ) :   1.7387
B(  7-C ,  8-N ) :   1.1352 B(  7-C ,  9-N ) :   1.2166 B(  8-N , 13-H ) :   0.9140
B(  8-N , 14-H ) :   0.9193 B(  9-N , 10-H ) :   0.8400 B(  9-N , 11-H ) :   0.9223
B( 10-H , 17-O ) :   0.1146

Dispersion correction           -0.022063420
FINAL SINGLE POINT ENERGY      -954.591062240168

DIPOLE MOMENT
-------------
                                X             Y             Z
Electronic contribution:    -16.39461      -2.74522      -1.03667
Nuclear contribution   :     16.65743       2.74852       1.69529
                        -----------------------------------------
Total Dipole Moment    :      0.26282       0.00329       0.65862
                        -----------------------------------------
Magnitude (a.u.)       :      0.70913
Magnitude (Debye)      :      1.80246

Rotational constants in cm-1:     0.059907     0.020458     0.017675
Rotational constants in MHz :  1795.978106   613.328205   529.885290

                             ****ORCA TERMINATED NORMALLY****
TOTAL RUN TIME: 0 days 0 hours 0 minutes 33 seconds 699 msec
