                         Program Version 5.0.0 -  RELEASE  -
|  1> !PBE0 D3BJ RIJCOSX def2-TZVP def2/J TightSCF xyzfile
|  2>
|  3> *xyzfile 0 1 D5.xyz
|  4>
|  5> %MaxCore 64000
|  6>
|  7> %pal nprocs 18
|  8> end
|  9>
| 10> %scf
| 11>   MaxIter 150
| 12> end
| 13>
| 14>
| 15>                          ****END OF INPUT****

CARTESIAN COORDINATES (ANGSTROEM)
---------------------------------
  C      3.380928    2.083045   -3.350127
  N      4.535924    1.182447   -3.428518
  C      2.495557    1.816150   -2.136364
  C      1.872181    0.427903   -2.077497
  H      2.614270   -0.365825   -2.198894
  H      1.389953    0.273087   -1.112360
  S      0.579024    0.140472   -3.297943
  C      4.671956    0.122273   -4.220598
  C      5.866023   -0.507849   -4.224284
  N      3.698881   -0.312844   -4.986988
  H      2.731405   -0.050091   -4.849000
  H      3.890046   -1.055172   -5.643730
  H      5.251933    1.303459   -2.721014
  H      6.695165   -0.062322   -3.851596
  H      5.975383   -1.396884   -4.691414
  O      0.228860   -1.246868   -3.127871
  F     -0.439269    1.118966   -3.014550
  O      1.247881    0.403474   -4.595647
  H      1.697003    2.561969   -2.141109
  H      3.080787    1.987436   -1.225838
  H      2.806463    1.986511   -4.268484
  H      3.778714    3.098282   -3.307383

 Total Charge           Charge          ....    0
 Multiplicity           Mult            ....    1
 Number of Electrons    NEL             ....   96
 Basis Dimension        Dim             ....  413

ORBITAL ENERGIES
----------------

  NO   OCC          E(Eh)            E(eV)
   0   2.0000     -89.284130     -2429.5447
   1   2.0000     -24.913806      -677.9391
   2   2.0000     -19.239396      -523.5306
   3   2.0000     -19.234736      -523.4038
   4   2.0000     -14.385452      -391.4480
   5   2.0000     -14.353875      -390.5888
   6   2.0000     -10.291343      -280.0417
   7   2.0000     -10.265555      -279.3400
   8   2.0000     -10.259948      -279.1874
   9   2.0000     -10.257559      -279.1224
  10   2.0000     -10.118617      -275.3416
  11   2.0000      -8.230394      -223.9604
  12   2.0000      -6.170644      -167.9117
  13   2.0000      -6.164667      -167.7491
  14   2.0000      -6.164028      -167.7317
  15   2.0000      -1.438325       -39.1388
  16   2.0000      -1.158208       -31.5164
  17   2.0000      -1.064070       -28.9548
  18   2.0000      -0.987789       -26.8791
  19   2.0000      -0.904933       -24.6245
  20   2.0000      -0.860790       -23.4233
  21   2.0000      -0.791284       -21.5319
  22   2.0000      -0.749507       -20.3951
  23   2.0000      -0.708628       -19.2828
  24   2.0000      -0.655055       -17.8250
  25   2.0000      -0.629986       -17.1428
  26   2.0000      -0.627612       -17.0782
  27   2.0000      -0.611997       -16.6533
  28   2.0000      -0.591177       -16.0867
  29   2.0000      -0.555563       -15.1176
  30   2.0000      -0.522177       -14.2092
  31   2.0000      -0.512666       -13.9503
  32   2.0000      -0.502223       -13.6662
  33   2.0000      -0.494202       -13.4479
  34   2.0000      -0.476369       -12.9627
  35   2.0000      -0.464810       -12.6481
  36   2.0000      -0.433215       -11.7884
  37   2.0000      -0.425857       -11.5882
  38   2.0000      -0.419430       -11.4133
  39   2.0000      -0.403294       -10.9742
  40   2.0000      -0.393838       -10.7169
  41   2.0000      -0.377715       -10.2781
  42   2.0000      -0.365782        -9.9534
  43   2.0000      -0.354645        -9.6504
  44   2.0000      -0.351290        -9.5591
  45   2.0000      -0.345237        -9.3944
  46   2.0000      -0.257673        -7.0116
  47   2.0000      -0.159097        -4.3293
  48   0.0000       0.006301         0.1715
  49   0.0000       0.027448         0.7469
  50   0.0000       0.043098         1.1728
  51   0.0000       0.058102         1.5810
  52   0.0000       0.063686         1.7330

MULLIKEN ATOMIC CHARGES
-----------------------
   0 C :   -0.215040
   1 N :   -0.315998
   2 C :   -0.186485
   3 C :   -0.315216
   4 H :    0.202428
   5 H :    0.160036
   6 S :    0.846257
   7 C :    0.372265
   8 C :   -0.617728
   9 N :   -0.486034
  10 H :    0.257249
  11 H :    0.237172
  12 H :    0.223225
  13 H :    0.102829
  14 H :    0.096016
  15 O :   -0.376042
  16 F :   -0.080756
  17 O :   -0.449982
  18 H :    0.111960
  19 H :    0.123540
  20 H :    0.181553
  21 H :    0.128751
Sum of atomic charges:    0.0000000

LOEWDIN ATOMIC CHARGES
----------------------
   0 C :   -0.292282
   1 N :    0.120273
   2 C :   -0.297112
   3 C :   -0.366787
   4 H :    0.162969
   5 H :    0.143987
   6 S :    0.540399
   7 C :   -0.487244
   8 C :   -0.372265
   9 N :    0.010433
  10 H :    0.129126
  11 H :    0.178174
  12 H :    0.193305
  13 H :    0.091708
  14 H :    0.092453
  15 O :   -0.239999
  16 F :    0.110970
  17 O :   -0.284171
  18 H :    0.141078
  19 H :    0.147043
  20 H :    0.143080
  21 H :    0.134860

  Mayer bond orders larger than 0.100000
B(  0-C ,  1-N ) :   0.9322 B(  0-C ,  2-C ) :   0.9773 B(  0-C , 20-H ) :   0.9625
B(  0-C , 21-H ) :   0.9661 B(  1-N ,  7-C ) :   1.1740 B(  1-N , 12-H ) :   0.9185
B(  2-C ,  3-C ) :   0.9829 B(  2-C , 18-H ) :   0.9532 B(  2-C , 19-H ) :   0.9426
B(  3-C ,  4-H ) :   0.9234 B(  3-C ,  5-H ) :   0.9392 B(  3-C ,  6-S ) :   0.9326
B(  6-S , 15-O ) :   1.9799 B(  6-S , 16-F ) :   1.1610 B(  6-S , 17-O ) :   1.7432
B(  7-C ,  8-C ) :   1.5668 B(  7-C ,  9-N ) :   1.2217 B(  8-C , 13-H ) :   0.9964
B(  8-C , 14-H ) :   0.9980 B(  9-N , 10-H ) :   0.8475 B(  9-N , 11-H ) :   0.9205
B( 10-H , 17-O ) :   0.1024

Dispersion correction           -0.021870601
FINAL SINGLE POINT ENERGY      -954.574016531302

DIPOLE MOMENT
-------------
                                X             Y             Z
Electronic contribution:    -17.91485      -1.21785      -0.20599
Nuclear contribution   :     16.78714       2.58368       1.61768
                        -----------------------------------------
Total Dipole Moment    :     -1.12771       1.36583       1.41169
                        -----------------------------------------
Magnitude (a.u.)       :      2.26498
Magnitude (Debye)      :      5.75711

Rotational constants in cm-1:     0.059928     0.020911     0.017993
Rotational constants in MHz :  1796.610847   626.896941   539.414615

                             ****ORCA TERMINATED NORMALLY****
TOTAL RUN TIME: 0 days 0 hours 0 minutes 32 seconds 244 msec
