                         Program Version 5.0.0 -  RELEASE  -
|  1> !PBE0 D3BJ RIJCOSX def2-TZVP def2/J TightSCF xyzfile
|  2>
|  3> *xyzfile 0 1 D7.xyz
|  4>
|  5> %MaxCore 64000
|  6>
|  7> %pal nprocs 18
|  8> end
|  9>
| 10> %scf
| 11>   MaxIter 150
| 12> end
| 13>
| 14>
| 15>                          ****END OF INPUT****

CARTESIAN COORDINATES (ANGSTROEM)
---------------------------------
  C      3.380928    2.083045   -3.350127
  C      4.535924    1.182447   -3.428518
  C      2.495557    1.816150   -2.136364
  C      1.872181    0.427903   -2.077497
  H      2.614270   -0.365825   -2.198894
  H      1.389953    0.273087   -1.112360
  S      0.579024    0.140472   -3.297943
  C      4.671956    0.122273   -4.220598
  N      5.866023   -0.507849   -4.224284
  N      3.698881   -0.312844   -4.986988
  H      2.731405   -0.050091   -4.849000
  H      3.890046   -1.055172   -5.643730
  H      5.251933    1.303459   -2.721014
  H      6.695165   -0.062322   -3.851596
  H      5.975383   -1.396884   -4.691414
  O      0.228860   -1.246868   -3.127871
  O     -0.439269    1.118966   -3.014550
  F      1.247881    0.403474   -4.595647
  H      1.697003    2.561969   -2.141109
  H      3.080787    1.987436   -1.225838
  H      2.806463    1.986511   -4.268484
  H      3.778714    3.098282   -3.307383

 Total Charge           Charge          ....    0
 Multiplicity           Mult            ....    1
 Number of Electrons    NEL             ....   96
 Basis Dimension        Dim             ....  413

ORBITAL ENERGIES
----------------

  NO   OCC          E(Eh)            E(eV)
   0   2.0000     -89.259566     -2428.8763
   1   2.0000     -24.888528      -677.2513
   2   2.0000     -19.221551      -523.0450
   3   2.0000     -19.220824      -523.0252
   4   2.0000     -14.386725      -391.4827
   5   2.0000     -14.386568      -391.4784
   6   2.0000     -10.274954      -279.5957
   7   2.0000     -10.267867      -279.4029
   8   2.0000     -10.230628      -278.3896
   9   2.0000     -10.211986      -277.8823
  10   2.0000     -10.153870      -276.3008
  11   2.0000      -8.206455      -223.3090
  12   2.0000      -6.147250      -167.2752
  13   2.0000      -6.140218      -167.0838
  14   2.0000      -6.139906      -167.0753
  15   2.0000      -1.403671       -38.1958
  16   2.0000      -1.147507       -31.2252
  17   2.0000      -1.055664       -28.7261
  18   2.0000      -0.996654       -27.1203
  19   2.0000      -0.903244       -24.5785
  20   2.0000      -0.849824       -23.1249
  21   2.0000      -0.787567       -21.4308
  22   2.0000      -0.751411       -20.4469
  23   2.0000      -0.706967       -19.2375
  24   2.0000      -0.661892       -18.0110
  25   2.0000      -0.614490       -16.7211
  26   2.0000      -0.604778       -16.4568
  27   2.0000      -0.590693       -16.0736
  28   2.0000      -0.568398       -15.4669
  29   2.0000      -0.563163       -15.3245
  30   2.0000      -0.529193       -14.4001
  31   2.0000      -0.506014       -13.7694
  32   2.0000      -0.492664       -13.4061
  33   2.0000      -0.485074       -13.1995
  34   2.0000      -0.473969       -12.8974
  35   2.0000      -0.467528       -12.7221
  36   2.0000      -0.425800       -11.5866
  37   2.0000      -0.420021       -11.4294
  38   2.0000      -0.418912       -11.3992
  39   2.0000      -0.399378       -10.8676
  40   2.0000      -0.375357       -10.2140
  41   2.0000      -0.363599        -9.8940
  42   2.0000      -0.355123        -9.6634
  43   2.0000      -0.348918        -9.4945
  44   2.0000      -0.339759        -9.2453
  45   2.0000      -0.333025        -9.0621
  46   2.0000      -0.283946        -7.7266
  47   2.0000      -0.180433        -4.9098
  48   0.0000       0.020383         0.5547
  49   0.0000       0.033980         0.9246
  50   0.0000       0.053174         1.4469
  51   0.0000       0.067752         1.8436
  52   0.0000       0.068440         1.8623

MULLIKEN ATOMIC CHARGES
-----------------------
   0 C :   -0.245513
   1 C :   -0.386848
   2 C :   -0.147331
   3 C :   -0.330945
   4 H :    0.186076
   5 H :    0.166294
   6 S :    0.830367
   7 C :    0.336018
   8 N :   -0.496971
   9 N :   -0.491976
  10 H :    0.248152
  11 H :    0.223422
  12 H :    0.093778
  13 H :    0.250776
  14 H :    0.221259
  15 O :   -0.399745
  16 O :   -0.397674
  17 F :   -0.128206
  18 H :    0.132261
  19 H :    0.106068
  20 H :    0.119613
  21 H :    0.111125
Sum of atomic charges:   -0.0000000

LOEWDIN ATOMIC CHARGES
----------------------
   0 C :   -0.288749
   1 C :   -0.283256
   2 C :   -0.288143
   3 C :   -0.367435
   4 H :    0.148616
   5 H :    0.152536
   6 S :    0.531281
   7 C :   -0.473806
   8 N :   -0.023028
   9 N :    0.002668
  10 H :    0.141773
  11 H :    0.166353
  12 H :    0.121403
  13 H :    0.175931
  14 H :    0.158261
  15 O :   -0.256566
  16 O :   -0.251980
  17 F :    0.064130
  18 H :    0.143033
  19 H :    0.145881
  20 H :    0.135227
  21 H :    0.145869

  Mayer bond orders larger than 0.100000
B(  0-C ,  1-C ) :   1.0288 B(  0-C ,  2-C ) :   0.9808 B(  0-C , 20-H ) :   0.9752
B(  0-C , 21-H ) :   0.9625 B(  1-C ,  7-C ) :   1.6642 B(  1-C , 12-H ) :   0.9856
B(  2-C ,  3-C ) :   0.9803 B(  2-C , 18-H ) :   0.9488 B(  2-C , 19-H ) :   0.9411
B(  3-C ,  4-H ) :   0.9309 B(  3-C ,  5-H ) :   0.9356 B(  3-C ,  6-S ) :   0.9285
B(  6-S , 15-O ) :   1.9575 B(  6-S , 16-O ) :   1.9547 B(  6-S , 17-F ) :   1.0254
B(  7-C ,  8-N ) :   1.1387 B(  7-C ,  9-N ) :   1.1709 B(  8-N , 13-H ) :   0.9122
B(  8-N , 14-H ) :   0.9188 B(  9-N , 10-H ) :   0.8874 B(  9-N , 11-H ) :   0.9170

Dispersion correction           -0.021866888
FINAL SINGLE POINT ENERGY      -954.595957624201

DIPOLE MOMENT
-------------
                                X             Y             Z
Electronic contribution:    -13.20549      -3.92588      -3.71862
Nuclear contribution   :     14.80811       3.53278       3.42836
                        -----------------------------------------
Total Dipole Moment    :      1.60262      -0.39310      -0.29026
                        -----------------------------------------
Magnitude (a.u.)       :      1.67546
Magnitude (Debye)      :      4.25868

Rotational constants in cm-1:     0.059173     0.020923     0.018056
Rotational constants in MHz :  1773.956621   627.264018   541.303397

                             ****ORCA TERMINATED NORMALLY****
TOTAL RUN TIME: 0 days 0 hours 0 minutes 34 seconds 726 msec
