                         Program Version 5.0.0 -  RELEASE  -
|  1> !PBE0 D3BJ RIJCOSX def2-TZVP def2/J TightSCF xyzfile
|  2>
|  3> *xyzfile 0 1 D8.xyz
|  4>
|  5> %MaxCore 64000
|  6>
|  7> %pal nprocs 18
|  8> end
|  9>
| 10> %scf
| 11>   MaxIter 150
| 12> end
| 13>
| 14>
| 15>                          ****END OF INPUT****

CARTESIAN COORDINATES (ANGSTROEM)
---------------------------------
  C      3.380928    2.083045   -3.350127
  N      4.535924    1.182447   -3.428518
  C      2.495557    1.816150   -2.136364
  C      1.872181    0.427903   -2.077497
  H      2.614270   -0.365825   -2.198894
  H      1.389953    0.273087   -1.112360
  S      0.579024    0.140472   -3.297943
  C      4.671956    0.122273   -4.220598
  C      5.866023   -0.507849   -4.224284
  N      3.698881   -0.312844   -4.986988
  H      2.731405   -0.050091   -4.849000
  H      3.890046   -1.055172   -5.643730
  H      5.251933    1.303459   -2.721014
  H      6.695165   -0.062322   -3.851596
  H      5.975383   -1.396884   -4.691414
  O      0.228860   -1.246868   -3.127871
  O     -0.439269    1.118966   -3.014550
  F      1.247881    0.403474   -4.595647
  H      1.697003    2.561969   -2.141109
  H      3.080787    1.987436   -1.225838
  H      2.806463    1.986511   -4.268484
  H      3.778714    3.098282   -3.307383

 Total Charge           Charge          ....    0
 Multiplicity           Mult            ....    1
 Number of Electrons    NEL             ....   96
 Basis Dimension        Dim             ....  413

ORBITAL ENERGIES
----------------

  NO   OCC          E(Eh)            E(eV)
   0   2.0000     -89.273264     -2429.2490
   1   2.0000     -24.900628      -677.5805
   2   2.0000     -19.234216      -523.3896
   3   2.0000     -19.233426      -523.3681
   4   2.0000     -14.398174      -391.7942
   5   2.0000     -14.384547      -391.4234
   6   2.0000     -10.287224      -279.9296
   7   2.0000     -10.279200      -279.7112
   8   2.0000     -10.274940      -279.5953
   9   2.0000     -10.258543      -279.1492
  10   2.0000     -10.134746      -275.7805
  11   2.0000      -8.220024      -223.6782
  12   2.0000      -6.160784      -167.6435
  13   2.0000      -6.153949      -167.4575
  14   2.0000      -6.153409      -167.4428
  15   2.0000      -1.415935       -38.5295
  16   2.0000      -1.160052       -31.5666
  17   2.0000      -1.068064       -29.0635
  18   2.0000      -1.006446       -27.3868
  19   2.0000      -0.925048       -25.1718
  20   2.0000      -0.861337       -23.4382
  21   2.0000      -0.794363       -21.6157
  22   2.0000      -0.747578       -20.3426
  23   2.0000      -0.723568       -19.6893
  24   2.0000      -0.662485       -18.0271
  25   2.0000      -0.633183       -17.2298
  26   2.0000      -0.627261       -17.0686
  27   2.0000      -0.612151       -16.6575
  28   2.0000      -0.581167       -15.8144
  29   2.0000      -0.553411       -15.0591
  30   2.0000      -0.531635       -14.4665
  31   2.0000      -0.512323       -13.9410
  32   2.0000      -0.506394       -13.7797
  33   2.0000      -0.499794       -13.6001
  34   2.0000      -0.485729       -13.2173
  35   2.0000      -0.473344       -12.8804
  36   2.0000      -0.441839       -12.0231
  37   2.0000      -0.422824       -11.5056
  38   2.0000      -0.420942       -11.4544
  39   2.0000      -0.406665       -11.0659
  40   2.0000      -0.399904       -10.8819
  41   2.0000      -0.391882       -10.6636
  42   2.0000      -0.374569       -10.1925
  43   2.0000      -0.368174       -10.0185
  44   2.0000      -0.354871        -9.6565
  45   2.0000      -0.348950        -9.4954
  46   2.0000      -0.276541        -7.5251
  47   2.0000      -0.175466        -4.7747
  48   0.0000       0.009781         0.2662
  49   0.0000       0.029810         0.8112
  50   0.0000       0.046699         1.2707
  51   0.0000       0.059006         1.6056
  52   0.0000       0.066417         1.8073

MULLIKEN ATOMIC CHARGES
-----------------------
   0 C :   -0.243323
   1 N :   -0.303481
   2 C :   -0.177016
   3 C :   -0.317333
   4 H :    0.189474
   5 H :    0.173330
   6 S :    0.832056
   7 C :    0.379342
   8 C :   -0.603838
   9 N :   -0.492793
  10 H :    0.229124
  11 H :    0.249014
  12 H :    0.229181
  13 H :    0.109392
  14 H :    0.100423
  15 O :   -0.389575
  16 O :   -0.396051
  17 F :   -0.124415
  18 H :    0.139249
  19 H :    0.120623
  20 H :    0.158565
  21 H :    0.138050
Sum of atomic charges:    0.0000000

LOEWDIN ATOMIC CHARGES
----------------------
   0 C :   -0.292197
   1 N :    0.122659
   2 C :   -0.296294
   3 C :   -0.367379
   4 H :    0.151536
   5 H :    0.155557
   6 S :    0.530650
   7 C :   -0.486336
   8 C :   -0.356546
   9 N :    0.002866
  10 H :    0.131135
  11 H :    0.182632
  12 H :    0.196365
  13 H :    0.094652
  14 H :    0.094030
  15 O :   -0.247727
  16 O :   -0.250077
  17 F :    0.064961
  18 H :    0.149816
  19 H :    0.146855
  20 H :    0.134535
  21 H :    0.138306

  Mayer bond orders larger than 0.100000
B(  0-C ,  1-N ) :   0.9276 B(  0-C ,  2-C ) :   0.9890 B(  0-C , 20-H ) :   0.9709
B(  0-C , 21-H ) :   0.9660 B(  1-N ,  7-C ) :   1.1837 B(  1-N , 12-H ) :   0.9167
B(  2-C ,  3-C ) :   0.9782 B(  2-C , 18-H ) :   0.9465 B(  2-C , 19-H ) :   0.9410
B(  3-C ,  4-H ) :   0.9281 B(  3-C ,  5-H ) :   0.9336 B(  3-C ,  6-S ) :   0.9237
B(  6-S , 15-O ) :   1.9666 B(  6-S , 16-O ) :   1.9510 B(  6-S , 17-F ) :   1.0301
B(  7-C ,  8-C ) :   1.5814 B(  7-C ,  9-N ) :   1.1874 B(  8-C , 13-H ) :   0.9961
B(  8-C , 14-H ) :   0.9971 B(  9-N , 10-H ) :   0.8908 B(  9-N , 11-H ) :   0.9144

Dispersion correction           -0.021677976
FINAL SINGLE POINT ENERGY      -954.579903400208

DIPOLE MOMENT
-------------
                                X             Y             Z
Electronic contribution:    -14.68121      -2.44193      -2.91643
Nuclear contribution   :     14.93782       3.36795       3.35075
                        -----------------------------------------
Total Dipole Moment    :      0.25661       0.92602       0.43432
                        -----------------------------------------
Magnitude (a.u.)       :      1.05451
Magnitude (Debye)      :      2.68036

Rotational constants in cm-1:     0.059219     0.021387     0.018380
Rotational constants in MHz :  1775.354399   641.172207   551.019443

                             ****ORCA TERMINATED NORMALLY****
TOTAL RUN TIME: 0 days 0 hours 0 minutes 26 seconds 405 msec
