                         Program Version 5.0.0 -  RELEASE  -
|  1> !PBE0 D3BJ RIJCOSX def2-TZVP def2/J TightSCF xyzfile
|  2>
|  3> *xyzfile 0 1 D9.xyz
|  4>
|  5> %MaxCore 64000
|  6>
|  7> %pal nprocs 18
|  8> end
|  9>
| 10> %scf
| 11>   MaxIter 150
| 12> end
| 13>
| 14>
| 15>                          ****END OF INPUT****

CARTESIAN COORDINATES (ANGSTROEM)
---------------------------------
  C      3.380928    2.083045   -3.350127
  N      4.535924    1.182447   -3.428518
  C      2.495557    1.816150   -2.136364
  C      1.872181    0.427903   -2.077497
  H      2.614270   -0.365825   -2.198894
  H      1.389953    0.273087   -1.112360
  S      0.579024    0.140472   -3.297943
  C      4.671956    0.122273   -4.220598
  N      5.866023   -0.507849   -4.224284
  C      3.698881   -0.312844   -4.986988
  H      2.731405   -0.050091   -4.849000
  H      3.890046   -1.055172   -5.643730
  H      5.251933    1.303459   -2.721014
  H      6.695165   -0.062322   -3.851596
  H      5.975383   -1.396884   -4.691414
  O      0.228860   -1.246868   -3.127871
  O     -0.439269    1.118966   -3.014550
  F      1.247881    0.403474   -4.595647
  H      1.697003    2.561969   -2.141109
  H      3.080787    1.987436   -1.225838
  H      2.806463    1.986511   -4.268484
  H      3.778714    3.098282   -3.307383

 Total Charge           Charge          ....    0
 Multiplicity           Mult            ....    1
 Number of Electrons    NEL             ....   96
 Basis Dimension        Dim             ....  413

ORBITAL ENERGIES
----------------

  NO   OCC          E(Eh)            E(eV)
   0   2.0000     -89.254881     -2428.7488
   1   2.0000     -24.869073      -676.7219
   2   2.0000     -19.216642      -522.9114
   3   2.0000     -19.215012      -522.8671
   4   2.0000     -14.399375      -391.8269
   5   2.0000     -14.386752      -391.4834
   6   2.0000     -10.274038      -279.5708
   7   2.0000     -10.273205      -279.5481
   8   2.0000     -10.272402      -279.5263
   9   2.0000     -10.250587      -278.9326
  10   2.0000     -10.132439      -275.7177
  11   2.0000      -8.201317      -223.1692
  12   2.0000      -6.141806      -167.1270
  13   2.0000      -6.135534      -166.9564
  14   2.0000      -6.134857      -166.9380
  15   2.0000      -1.385742       -37.7080
  16   2.0000      -1.141477       -31.0612
  17   2.0000      -1.050421       -28.5834
  18   2.0000      -1.001911       -27.2634
  19   2.0000      -0.917554       -24.9679
  20   2.0000      -0.847577       -23.0637
  21   2.0000      -0.770847       -20.9758
  22   2.0000      -0.751874       -20.4595
  23   2.0000      -0.714584       -19.4448
  24   2.0000      -0.669678       -18.2229
  25   2.0000      -0.604368       -16.4457
  26   2.0000      -0.599479       -16.3127
  27   2.0000      -0.580372       -15.7927
  28   2.0000      -0.570806       -15.5324
  29   2.0000      -0.559623       -15.2281
  30   2.0000      -0.532805       -14.4984
  31   2.0000      -0.509472       -13.8634
  32   2.0000      -0.494217       -13.4483
  33   2.0000      -0.480454       -13.0738
  34   2.0000      -0.476301       -12.9608
  35   2.0000      -0.460879       -12.5412
  36   2.0000      -0.430344       -11.7103
  37   2.0000      -0.423006       -11.5106
  38   2.0000      -0.410984       -11.1835
  39   2.0000      -0.397109       -10.8059
  40   2.0000      -0.392536       -10.6814
  41   2.0000      -0.384094       -10.4517
  42   2.0000      -0.368116       -10.0169
  43   2.0000      -0.351616        -9.5680
  44   2.0000      -0.338867        -9.2210
  45   2.0000      -0.331493        -9.0204
  46   2.0000      -0.271148        -7.3783
  47   2.0000      -0.189116        -5.1461
  48   0.0000       0.018821         0.5122
  49   0.0000       0.034445         0.9373
  50   0.0000       0.047477         1.2919
  51   0.0000       0.066606         1.8125
  52   0.0000       0.072300         1.9674

MULLIKEN ATOMIC CHARGES
-----------------------
   0 C :   -0.188271
   1 N :   -0.332638
   2 C :   -0.203779
   3 C :   -0.299180
   4 H :    0.185431
   5 H :    0.166239
   6 S :    0.837201
   7 C :    0.398850
   8 N :   -0.517432
   9 C :   -0.579733
  10 H :    0.121589
  11 H :    0.094382
  12 H :    0.199166
  13 H :    0.224049
  14 H :    0.251161
  15 O :   -0.399719
  16 O :   -0.409609
  17 F :   -0.098204
  18 H :    0.138952
  19 H :    0.112540
  20 H :    0.168451
  21 H :    0.130553
Sum of atomic charges:   -0.0000000

LOEWDIN ATOMIC CHARGES
----------------------
   0 C :   -0.275052
   1 N :    0.116321
   2 C :   -0.296484
   3 C :   -0.366604
   4 H :    0.150794
   5 H :    0.151935
   6 S :    0.535060
   7 C :   -0.480224
   8 N :   -0.023495
   9 C :   -0.339956
  10 H :    0.079386
  11 H :    0.100942
  12 H :    0.178460
  13 H :    0.158128
  14 H :    0.175441
  15 O :   -0.253915
  16 O :   -0.260309
  17 F :    0.076326
  18 H :    0.150085
  19 H :    0.143500
  20 H :    0.142908
  21 H :    0.136755

  Mayer bond orders larger than 0.100000
B(  0-C ,  1-N ) :   0.9002 B(  0-C ,  2-C ) :   1.0078 B(  0-C , 20-H ) :   0.9634
B(  0-C , 21-H ) :   0.9650 B(  1-N ,  7-C ) :   1.1656 B(  1-N , 12-H ) :   0.9188
B(  2-C ,  3-C ) :   0.9891 B(  2-C , 18-H ) :   0.9484 B(  2-C , 19-H ) :   0.9434
B(  3-C ,  4-H ) :   0.9332 B(  3-C ,  5-H ) :   0.9347 B(  3-C ,  6-S ) :   0.9203
B(  6-S , 15-O ) :   1.9594 B(  6-S , 16-O ) :   1.9386 B(  6-S , 17-F ) :   1.0761
B(  7-C ,  8-N ) :   1.1077 B(  7-C ,  9-C ) :   1.6157 B(  8-N , 13-H ) :   0.9180
B(  8-N , 14-H ) :   0.9147 B(  9-C , 10-H ) :   1.0099 B(  9-C , 11-H ) :   0.9959

Dispersion correction           -0.021856663
FINAL SINGLE POINT ENERGY      -954.576753438048

DIPOLE MOMENT
-------------
                                X             Y             Z
Electronic contribution:    -12.60407      -2.65516      -2.41740
Nuclear contribution   :     14.72648       3.38697       3.27638
                        -----------------------------------------
Total Dipole Moment    :      2.12242       0.73181       0.85898
                        -----------------------------------------
Magnitude (a.u.)       :      2.40376
Magnitude (Debye)      :      6.10986

Rotational constants in cm-1:     0.059651     0.020833     0.018010
Rotational constants in MHz :  1788.283887   624.555661   539.921162

                             ****ORCA TERMINATED NORMALLY****
TOTAL RUN TIME: 0 days 0 hours 0 minutes 29 seconds 506 msec
