                         Program Version 5.0.0 -  RELEASE  -
|  1> !wB97X-D3 RIJCOSX def2-SVP def2/J TightSCF
|  2> *xyz 1 1
|  3> C          3.95643        0.50147       -0.37910
|  4> H          3.16840        0.02920        0.20738
|  5> N          3.80389        1.96157       -0.15675
|  6> C          3.84232        0.14849       -1.85406
|  7> H          4.92323        0.17798        0.00937
|  8> H          4.20643        2.24441        0.74536
|  9> H          2.80827        2.21132       -0.09610
| 10> H          4.28076        2.50155       -0.89104
| 11> H          4.62951        0.62800       -2.39748
| 12> H          2.89665        0.48102       -2.22825
| 13> H          3.92053       -0.91187       -1.97413
| 14> *
| 15>
| 16> %MaxCore 64000
| 17> %pal nprocs 4
| 18> end
| 19>
| 20> %scf
| 21>   MaxIter 150
| 22> end
| 23>
| 24>
| 25>                          ****END OF INPUT****

CARTESIAN COORDINATES (ANGSTROEM)
---------------------------------
  C      3.956430    0.501470   -0.379100
  H      3.168400    0.029200    0.207380
  N      3.803890    1.961570   -0.156750
  C      3.842320    0.148490   -1.854060
  H      4.923230    0.177980    0.009370
  H      4.206430    2.244410    0.745360
  H      2.808270    2.211320   -0.096100
  H      4.280760    2.501550   -0.891040
  H      4.629510    0.628000   -2.397480
  H      2.896650    0.481020   -2.228250
  H      3.920530   -0.911870   -1.974130

 Total Charge           Charge          ....    1
 Multiplicity           Mult            ....    1
 Number of Electrons    NEL             ....   26
 Basis Dimension        Dim             ....   82

ORBITAL ENERGIES
----------------

  NO   OCC          E(Eh)            E(eV)
   0   2.0000     -14.777121      -402.1059
   1   2.0000     -10.542970      -286.8888
   2   2.0000     -10.464037      -284.7409
   3   2.0000      -1.329138       -36.1677
   4   2.0000      -1.076877       -29.3033
   5   2.0000      -0.952316       -25.9138
   6   2.0000      -0.910247       -24.7691
   7   2.0000      -0.891511       -24.2592
   8   2.0000      -0.799575       -21.7575
   9   2.0000      -0.743794       -20.2397
  10   2.0000      -0.679736       -18.4965
  11   2.0000      -0.664422       -18.0798
  12   2.0000      -0.645953       -17.5773
  13   0.0000      -0.093918        -2.5556
  14   0.0000      -0.037302        -1.0150
  15   0.0000      -0.031001        -0.8436
  16   0.0000      -0.001738        -0.0473
  17   0.0000       0.039666         1.0794

MULLIKEN ATOMIC CHARGES
-----------------------
   0 C :   -0.071451
   1 H :    0.114759
   2 N :   -0.022788
   3 C :   -0.072924
   4 H :    0.121224
   5 H :    0.223963
   6 H :    0.226650
   7 H :    0.222643
   8 H :    0.074961
   9 H :    0.071382
  10 H :    0.111581
Sum of atomic charges:    1.0000000

LOEWDIN ATOMIC CHARGES
----------------------
   0 C :    0.047752
   1 H :    0.054990
   2 N :    0.292324
   3 C :   -0.044101
   4 H :    0.057115
   5 H :    0.149788
   6 H :    0.149868
   7 H :    0.145895
   8 H :    0.040874
   9 H :    0.040197
  10 H :    0.065297

  Mayer bond orders larger than 0.100000
B(  0-C ,  1-H ) :   0.9554 B(  0-C ,  2-N ) :   0.9089 B(  0-C ,  3-C ) :   1.0843
B(  0-C ,  4-H ) :   0.9559 B(  2-N ,  5-H ) :   0.9318 B(  2-N ,  6-H ) :   0.9328
B(  2-N ,  7-H ) :   0.9300 B(  3-C ,  8-H ) :   0.9690 B(  3-C ,  9-H ) :   0.9730
B(  3-C , 10-H ) :   0.9607

Dispersion correction           -0.001507994
FINAL SINGLE POINT ENERGY      -135.400281956784

DIPOLE MOMENT
-------------
                                X             Y             Z
Electronic contribution:     -0.01424       1.39578       1.28228
Nuclear contribution   :     -0.06214      -0.04120      -0.39947
                        -----------------------------------------
Total Dipole Moment    :     -0.07638       1.35458       0.88281
                        -----------------------------------------
Magnitude (a.u.)       :      1.61866
Magnitude (Debye)      :      4.11432

Rotational constants in cm-1:     1.011771     0.281435     0.249812
Rotational constants in MHz : 30332.138762  8437.210602  7489.166323

                             ****ORCA TERMINATED NORMALLY****
TOTAL RUN TIME: 0 days 0 hours 0 minutes 10 seconds 233 msec
