                         Program Version 5.0.0 -  RELEASE  -
|  1> !wB97X-D3 RIJCOSX def2-SVP def2/J TightSCF
|  2> *xyz 0 1
|  3> C         -0.77455        2.78833       -0.54394
|  4> C          0.69721        3.22791       -0.52513
|  5> F          1.48929        2.37470        0.19919
|  6> H          0.71600        4.26403       -0.13077
|  7> H          1.03615        3.33092       -1.58367
|  8> H         -1.34746        3.48478       -1.11982
|  9> H         -1.15078        2.75876        0.45729
| 10> H         -0.85058        1.81526       -0.98241
| 11> *
| 12>
| 13> %MaxCore 64000
| 14> %pal nprocs 4
| 15> end
| 16>
| 17> %scf
| 18>   MaxIter 150
| 19> end
| 20>
| 21>
| 22>                          ****END OF INPUT****

CARTESIAN COORDINATES (ANGSTROEM)
---------------------------------
  C     -0.774550    2.788330   -0.543940
  C      0.697210    3.227910   -0.525130
  F      1.489290    2.374700    0.199190
  H      0.716000    4.264030   -0.130770
  H      1.036150    3.330920   -1.583670
  H     -1.347460    3.484780   -1.119820
  H     -1.150780    2.758760    0.457290
  H     -0.850580    1.815260   -0.982410

 Total Charge           Charge          ....    0
 Multiplicity           Mult            ....    1
 Number of Electrons    NEL             ....   26
 Basis Dimension        Dim             ....   67

ORBITAL ENERGIES
----------------

  NO   OCC          E(Eh)            E(eV)
   0   2.0000     -24.767847      -673.9674
   1   2.0000     -10.364281      -282.0264
   2   2.0000     -10.282761      -279.8082
   3   2.0000      -1.284244       -34.9460
   4   2.0000      -0.871040       -23.7022
   5   2.0000      -0.731658       -19.9094
   6   2.0000      -0.602767       -16.4021
   7   2.0000      -0.592901       -16.1337
   8   2.0000      -0.552165       -15.0252
   9   2.0000      -0.498411       -13.5625
  10   2.0000      -0.495284       -13.4774
  11   2.0000      -0.425887       -11.5890
  12   2.0000      -0.420048       -11.4301
  13   0.0000       0.151710         4.1282
  14   0.0000       0.197611         5.3773
  15   0.0000       0.203872         5.5476
  16   0.0000       0.221189         6.0189
  17   0.0000       0.238840         6.4992

MULLIKEN ATOMIC CHARGES
-----------------------
   0 C :   -0.093542
   1 C :    0.201662
   2 F :   -0.273631
   3 H :    0.022502
   4 H :    0.024313
   5 H :    0.031948
   6 H :    0.043473
   7 H :    0.043275
Sum of atomic charges:   -0.0000000

LOEWDIN ATOMIC CHARGES
----------------------
   0 C :   -0.077216
   1 C :    0.109643
   2 F :   -0.141009
   3 H :    0.011152
   4 H :    0.012295
   5 H :    0.030885
   6 H :    0.027265
   7 H :    0.026985

  Mayer bond orders larger than 0.100000
B(  0-C ,  1-C ) :   1.0829 B(  0-C ,  5-H ) :   0.9649 B(  0-C ,  6-H ) :   0.9742
B(  0-C ,  7-H ) :   0.9744 B(  1-C ,  2-F ) :   0.9879 B(  1-C ,  3-H ) :   0.9616
B(  1-C ,  4-H ) :   0.9615

Dispersion correction           -0.000875231
FINAL SINGLE POINT ENERGY      -178.873699335683

DIPOLE MOMENT
-------------
                                X             Y             Z
Electronic contribution:      4.43569      -1.65886       2.00859
Nuclear contribution   :     -4.89513       2.05627      -2.36166
                        -----------------------------------------
Total Dipole Moment    :     -0.45944       0.39741      -0.35307
                        -----------------------------------------
Magnitude (a.u.)       :      0.70262
Magnitude (Debye)      :      1.78592

Rotational constants in cm-1:     1.247826     0.304622     0.269019
Rotational constants in MHz : 37408.889506  9132.346906  8064.979146

                             ****ORCA TERMINATED NORMALLY****
TOTAL RUN TIME: 0 days 0 hours 0 minutes 7 seconds 667 msec
