                         Program Version 5.0.0 -  RELEASE  -
|  1> !wB97X-D3 RIJCOSX def2-SVP def2/J TightSCF
|  2> *xyz 0 1
|  3> C          3.95643        0.50147       -0.37910
|  4> H          3.16840        0.02920        0.20738
|  5> C          3.80389        1.96157       -0.15675
|  6> C          3.84232        0.14849       -1.85406
|  7> H          4.92323        0.17798        0.00937
|  8> H          4.20643        2.24441        0.74536
|  9> H          2.80827        2.21132       -0.09610
| 10> H          4.28076        2.50155       -0.89104
| 11> H          4.62951        0.62800       -2.39748
| 12> H          2.89665        0.48102       -2.22825
| 13> H          3.92053       -0.91187       -1.97413
| 14> *
| 15>
| 16> %MaxCore 64000
| 17> %pal nprocs 4
| 18> end
| 19>
| 20> %scf
| 21>   MaxIter 150
| 22> end
| 23>
| 24>
| 25>                          ****END OF INPUT****

CARTESIAN COORDINATES (ANGSTROEM)
---------------------------------
  C      3.956430    0.501470   -0.379100
  H      3.168400    0.029200    0.207380
  C      3.803890    1.961570   -0.156750
  C      3.842320    0.148490   -1.854060
  H      4.923230    0.177980    0.009370
  H      4.206430    2.244410    0.745360
  H      2.808270    2.211320   -0.096100
  H      4.280760    2.501550   -0.891040
  H      4.629510    0.628000   -2.397480
  H      2.896650    0.481020   -2.228250
  H      3.920530   -0.911870   -1.974130

 Total Charge           Charge          ....    0
 Multiplicity           Mult            ....    1
 Number of Electrons    NEL             ....   26
 Basis Dimension        Dim             ....   82

ORBITAL ENERGIES
----------------

  NO   OCC          E(Eh)            E(eV)
   0   2.0000     -10.273198      -279.5479
   1   2.0000     -10.266531      -279.3665
   2   2.0000     -10.248978      -278.8889
   3   2.0000      -0.901495       -24.5309
   4   2.0000      -0.796138       -21.6640
   5   2.0000      -0.687997       -18.7214
   6   2.0000      -0.569785       -15.5046
   7   2.0000      -0.545199       -14.8356
   8   2.0000      -0.498756       -13.5718
   9   2.0000      -0.486403       -13.2357
  10   2.0000      -0.430081       -11.7031
  11   2.0000      -0.427340       -11.6285
  12   2.0000      -0.417382       -11.3576
  13   0.0000       0.150962         4.1079
  14   0.0000       0.198416         5.3992
  15   0.0000       0.201092         5.4720
  16   0.0000       0.205885         5.6024
  17   0.0000       0.234362         6.3773

MULLIKEN ATOMIC CHARGES
-----------------------
   0 C :   -0.128897
   1 H :    0.023084
   2 C :    0.033732
   3 C :   -0.031629
   4 H :    0.024258
   5 H :    0.001204
   6 H :    0.005955
   7 H :    0.001063
   8 H :    0.023884
   9 H :    0.021838
  10 H :    0.025509
Sum of atomic charges:    0.0000000

LOEWDIN ATOMIC CHARGES
----------------------
   0 C :   -0.045639
   1 H :    0.021157
   2 C :   -0.047952
   3 C :   -0.055515
   4 H :    0.019470
   5 H :    0.016921
   6 H :    0.016164
   7 H :    0.013056
   8 H :    0.020473
   9 H :    0.020482
  10 H :    0.021383

  Mayer bond orders larger than 0.100000
B(  0-C ,  1-H ) :   0.9623 B(  0-C ,  2-C ) :   1.0876 B(  0-C ,  3-C ) :   1.0882
B(  0-C ,  4-H ) :   0.9639 B(  2-C ,  5-H ) :   0.9672 B(  2-C ,  6-H ) :   0.9730
B(  2-C ,  7-H ) :   0.9752 B(  3-C ,  8-H ) :   0.9758 B(  3-C ,  9-H ) :   0.9784
B(  3-C , 10-H ) :   0.9752

Dispersion correction           -0.001455677
FINAL SINGLE POINT ENERGY      -119.006236150415

DIPOLE MOMENT
-------------
                                X             Y             Z
Electronic contribution:      0.07862      -0.28771       0.22449
Nuclear contribution   :     -0.08172       0.30475      -0.19303
                        -----------------------------------------
Total Dipole Moment    :     -0.00310       0.01704       0.03146
                        -----------------------------------------
Magnitude (a.u.)       :      0.03591
Magnitude (Debye)      :      0.09129

Rotational constants in cm-1:     1.020248     0.295755     0.261591
Rotational constants in MHz : 30586.266829  8866.511639  7842.297953

                             ****ORCA TERMINATED NORMALLY****
TOTAL RUN TIME: 0 days 0 hours 0 minutes 9 seconds 799 msec
