                         Program Version 5.0.0 -  RELEASE  -
|  1> !wB97X-D3 RIJCOSX def2-SVP def2/J TightSCF xyzfile
|  2>
|  3> *xyzfile 0 1 D.xyz
|  4>
|  5> %MaxCore 64000
|  6>
|  7> %pal nprocs 18
|  8> end
|  9>
| 10> %scf
| 11>   MaxIter 150
| 12> end
| 13>
| 14>
| 15>                          ****END OF INPUT****

CARTESIAN COORDINATES (ANGSTROEM)
---------------------------------
  C      3.956426    0.501466   -0.379100
  H      3.168398    0.029201    0.207383
  C      3.803893    1.961572   -0.156747
  C      3.842322    0.148490   -1.854058
  H      4.923231    0.177982    0.009371
  H      4.620021    0.694502   -2.402150
  H      4.096015   -0.910930   -1.955103
  C      2.475619    0.412708   -2.485377
  H      2.174689    1.445076   -2.287971
  C      1.383931   -0.532740   -1.995203
  H      2.575613    0.318574   -3.571460
  H      1.264698   -0.412309   -0.915491
  H      1.705223   -1.566885   -2.164984
  C      0.031398   -0.317260   -2.677791
  C     -0.587292    1.060853   -2.436460
  H     -0.662815   -1.089530   -2.329985
  H      0.149465   -0.478040   -3.755648
  H      0.104376    1.828590   -2.793130
  C     -0.951213    1.334978   -0.972500
  H     -1.478832    1.161355   -3.062484
  H     -0.317007    0.741648   -0.311389
  H     -1.980916    1.012842   -0.788958
  C     -0.774550    2.788332   -0.543943
  H     -1.352609    3.459372   -1.192585
  H     -1.171014    2.902331    0.469968
  C      0.697208    3.227911   -0.525126
  F      1.489294    2.374703    0.199189
  H      0.715998    4.264030   -0.130774
  H      1.036148    3.330920   -1.583669
  H      4.206425    2.244406    0.745359
  H      2.808269    2.211323   -0.096097
  H      4.280757    2.501552   -0.891037

 Total Charge           Charge          ....    0
 Multiplicity           Mult            ....    1
 Number of Electrons    NEL             ....   90
 Basis Dimension        Dim             ....  259

ORBITAL ENERGIES
----------------

  NO   OCC          E(Eh)            E(eV)
   0   2.0000     -24.799302      -674.8233
   1   2.0000     -10.377480      -282.3856
   2   2.0000     -10.299881      -280.2740
   3   2.0000     -10.286828      -279.9188
   4   2.0000     -10.283590      -279.8307
   5   2.0000     -10.280085      -279.7353
   6   2.0000     -10.274133      -279.5734
   7   2.0000     -10.272045      -279.5166
   8   2.0000     -10.265462      -279.3374
   9   2.0000     -10.254239      -279.0320
  10   2.0000     -10.201650      -277.6010
  11   2.0000      -1.327597       -36.1257
  12   2.0000      -0.932369       -25.3710
  13   2.0000      -0.911632       -24.8068
  14   2.0000      -0.877714       -23.8838
  15   2.0000      -0.845460       -23.0061
  16   2.0000      -0.796786       -21.6817
  17   2.0000      -0.770754       -20.9733
  18   2.0000      -0.728513       -19.8238
  19   2.0000      -0.704748       -19.1772
  20   2.0000      -0.667988       -18.1769
  21   2.0000      -0.655113       -17.8265
  22   2.0000      -0.630937       -17.1687
  23   2.0000      -0.618141       -16.8205
  24   2.0000      -0.596210       -16.2237
  25   2.0000      -0.570884       -15.5345
  26   2.0000      -0.559599       -15.2275
  27   2.0000      -0.549040       -14.9401
  28   2.0000      -0.528812       -14.3897
  29   2.0000      -0.525340       -14.2952
  30   2.0000      -0.508192       -13.8286
  31   2.0000      -0.490471       -13.3464
  32   2.0000      -0.482640       -13.1333
  33   2.0000      -0.470314       -12.7979
  34   2.0000      -0.461043       -12.5456
  35   2.0000      -0.449993       -12.2449
  36   2.0000      -0.442812       -12.0495
  37   2.0000      -0.436125       -11.8676
  38   2.0000      -0.416872       -11.3437
  39   2.0000      -0.411918       -11.2089
  40   2.0000      -0.405346       -11.0300
  41   2.0000      -0.404415       -11.0047
  42   2.0000      -0.388435       -10.5699
  43   2.0000      -0.387140       -10.5346
  44   2.0000      -0.363664        -9.8958
  45   0.0000       0.134109         3.6493
  46   0.0000       0.147039         4.0011
  47   0.0000       0.156318         4.2536
  48   0.0000       0.163886         4.4596
  49   0.0000       0.173251         4.7144

MULLIKEN ATOMIC CHARGES
-----------------------
   0 C :   -0.070097
   1 H :    0.007139
   2 C :   -0.014133
   3 C :   -0.012935
   4 H :    0.011507
   5 H :    0.013454
   6 H :    0.005766
   7 C :   -0.034540
   8 H :   -0.012357
   9 C :   -0.047108
  10 H :    0.011891
  11 H :    0.016760
  12 H :    0.018102
  13 C :   -0.005412
  14 C :   -0.046819
  15 H :    0.017591
  16 H :    0.016102
  17 H :    0.008831
  18 C :   -0.049750
  19 H :    0.023018
  20 H :    0.031830
  21 H :    0.029574
  22 C :   -0.094413
  23 H :    0.035308
  24 H :    0.038877
  25 C :    0.239715
  26 F :   -0.218406
  27 H :    0.041283
  28 H :    0.035691
  29 H :   -0.022307
  30 H :    0.051074
  31 H :   -0.025236
Sum of atomic charges:    0.0000000

LOEWDIN ATOMIC CHARGES
----------------------
   0 C :   -0.040709
   1 H :    0.013858
   2 C :   -0.076670
   3 C :   -0.037208
   4 H :    0.016494
   5 H :    0.020000
   6 H :    0.016565
   7 C :   -0.040643
   8 H :    0.011784
   9 C :   -0.040171
  10 H :    0.020627
  11 H :    0.015921
  12 H :    0.023566
  13 C :   -0.036613
  14 C :   -0.042653
  15 H :    0.021632
  16 H :    0.021915
  17 H :    0.013151
  18 C :   -0.043806
  19 H :    0.024545
  20 H :    0.021293
  21 H :    0.027119
  22 C :   -0.058310
  23 H :    0.032199
  24 H :    0.028577
  25 C :    0.118785
  26 F :   -0.027593
  27 H :    0.021104
  28 H :    0.014590
  29 H :    0.008067
  30 H :   -0.047272
  31 H :   -0.000143

  Mayer bond orders larger than 0.100000
B(  0-C ,  1-H ) :   0.9540 B(  0-C ,  2-C ) :   1.0804 B(  0-C ,  3-C ) :   1.0799
B(  0-C ,  4-H ) :   0.9548 B(  2-C , 29-H ) :   0.9424 B(  2-C , 30-H ) :   0.9245
B(  2-C , 31-H ) :   0.9531 B(  3-C ,  5-H ) :   0.9480 B(  3-C ,  6-H ) :   0.9486
B(  3-C ,  7-C ) :   1.0774 B(  7-C ,  8-H ) :   0.9425 B(  7-C ,  9-C ) :   1.0528
B(  7-C , 10-H ) :   0.9453 B(  9-C , 11-H ) :   0.9461 B(  9-C , 12-H ) :   0.9443
B(  9-C , 13-C ) :   1.0794 B( 13-C , 14-C ) :   1.0746 B( 13-C , 15-H ) :   0.9491
B( 13-C , 16-H ) :   0.9469 B( 14-C , 17-H ) :   0.9613 B( 14-C , 18-C ) :   1.0316
B( 14-C , 19-H ) :   0.9448 B( 18-C , 20-H ) :   0.9568 B( 18-C , 21-H ) :   0.9491
B( 18-C , 22-C ) :   1.0714 B( 22-C , 23-H ) :   0.9419 B( 22-C , 24-H ) :   0.9497
B( 22-C , 25-C ) :   1.0708 B( 25-C , 26-F ) :   0.9026 B( 25-C , 27-H ) :   0.9608
B( 25-C , 28-H ) :   0.9459 B( 26-F , 30-H ) :   0.1472

Dispersion correction           -0.014488145
FINAL SINGLE POINT ENERGY      -493.028131598670

DIPOLE MOMENT
-------------
                                X             Y             Z
Electronic contribution:     -1.97601       3.32969       4.29522
Nuclear contribution   :      1.09293      -2.80761      -4.51228
                        -----------------------------------------
Total Dipole Moment    :     -0.88308       0.52207      -0.21706
                        -----------------------------------------
Magnitude (a.u.)       :      1.04857
Magnitude (Debye)      :      2.66526

Rotational constants in cm-1:     0.040502     0.027818     0.018259
Rotational constants in MHz :  1214.218058   833.972871   547.398614

                             ****ORCA TERMINATED NORMALLY****
TOTAL RUN TIME: 0 days 0 hours 0 minutes 33 seconds 431 msec
