                         Program Version 5.0.0 -  RELEASE  -
|  1> !wB97X-D3 RIJCOSX def2-SVPD def2/J TightSCF CPCM(Water)
|  2> *xyz -1 1
|  3> C         -5.57236       -5.80780       -0.81644
|  4> S         -6.90318       -4.61903       -0.52846
|  5> O         -8.11485       -5.25093       -0.95701
|  6> O         -6.53271       -3.42684       -1.31485
|  7> O         -6.86563       -4.29496        0.91412
|  8> C         -4.45780       -5.94187        0.22919
|  9> H         -5.17735       -5.54257       -1.79771
| 10> H         -6.07420       -6.76889       -0.92127
| 11> H         -3.75515       -6.68239       -0.09144
| 12> H         -4.88182       -6.23486        1.16689
| 13> H         -3.95908       -5.00189        0.34143
| 14> *
| 15> %MaxCore 64000
| 16>
| 17> %pal nprocs 18
| 18> end
| 19>
| 20> %scf
| 21>   MaxIter 150
| 22> end
| 23>
| 24>                          ****END OF INPUT****

CARTESIAN COORDINATES (ANGSTROEM)
---------------------------------
  C     -5.572360   -5.807800   -0.816440
  S     -6.903180   -4.619030   -0.528460
  O     -8.114850   -5.250930   -0.957010
  O     -6.532710   -3.426840   -1.314850
  O     -6.865630   -4.294960    0.914120
  C     -4.457800   -5.941870    0.229190
  H     -5.177350   -5.542570   -1.797710
  H     -6.074200   -6.768890   -0.921270
  H     -3.755150   -6.682390   -0.091440
  H     -4.881820   -6.234860    1.166890
  H     -3.959080   -5.001890    0.341430

 Total Charge           Charge          ....   -1
 Multiplicity           Mult            ....    1
 Number of Electrons    NEL             ....   58
 Basis Dimension        Dim             ....  176

ORBITAL ENERGIES
----------------

  NO   OCC          E(Eh)            E(eV)
   0   2.0000     -89.153111     -2425.9795
   1   2.0000     -19.212108      -522.7880
   2   2.0000     -19.199729      -522.4512
   3   2.0000     -19.199593      -522.4475
   4   2.0000     -10.299627      -280.2671
   5   2.0000     -10.276996      -279.6513
   6   2.0000      -8.227456      -223.8805
   7   2.0000      -6.187289      -168.3647
   8   2.0000      -6.187257      -168.3638
   9   2.0000      -6.185598      -168.3187
  10   2.0000      -1.228266       -33.4228
  11   2.0000      -1.086620       -29.5684
  12   2.0000      -1.063486       -28.9389
  13   2.0000      -0.884413       -24.0661
  14   2.0000      -0.763072       -20.7643
  15   2.0000      -0.653096       -17.7716
  16   2.0000      -0.586752       -15.9663
  17   2.0000      -0.569237       -15.4897
  18   2.0000      -0.554636       -15.0924
  19   2.0000      -0.536315       -14.5939
  20   2.0000      -0.505727       -13.7615
  21   2.0000      -0.464757       -12.6467
  22   2.0000      -0.457804       -12.4575
  23   2.0000      -0.435111       -11.8400
  24   2.0000      -0.431653       -11.7459
  25   2.0000      -0.390123       -10.6158
  26   2.0000      -0.379083       -10.3154
  27   2.0000      -0.372704       -10.1418
  28   2.0000      -0.345227        -9.3941
  29   0.0000       0.080666         2.1950
  30   0.0000       0.100643         2.7386
  31   0.0000       0.102285         2.7833
  32   0.0000       0.103273         2.8102
  33   0.0000       0.143446         3.9034

MULLIKEN ATOMIC CHARGES
-----------------------
   0 C :   -0.387658
   1 S :    1.263781
   2 O :   -0.793862
   3 O :   -0.854689
   4 O :   -0.863479
   5 C :    0.664690
   6 H :    0.031954
   7 H :    0.047994
   8 H :   -0.037273
   9 H :   -0.029634
  10 H :   -0.041824
Sum of atomic charges:   -1.0000000

LOEWDIN ATOMIC CHARGES
----------------------
   0 C :   -0.108210
   1 S :    0.863154
   2 O :   -0.598204
   3 O :   -0.634432
   4 O :   -0.627868
   5 C :    0.119274
   6 H :    0.012482
   7 H :    0.008182
   8 H :   -0.008504
   9 H :   -0.015887
  10 H :   -0.009988

  Mayer bond orders larger than 0.100000
B(  0-C ,  1-S ) :   0.9127 B(  0-C ,  5-C ) :   1.3000 B(  0-C ,  6-H ) :   0.9722
B(  0-C ,  7-H ) :   0.9753 B(  0-C ,  8-H ) :   0.1858 B(  0-C ,  9-H ) :   0.1875
B(  0-C , 10-H ) :   0.1751 B(  1-S ,  2-O ) :   1.3618 B(  1-S ,  3-O ) :   1.2802
B(  1-S ,  4-O ) :   1.2746 B(  5-C ,  8-H ) :   0.7967 B(  5-C ,  9-H ) :   0.8231
B(  5-C , 10-H ) :   0.8317

Dispersion correction           -0.002821806
FINAL SINGLE POINT ENERGY      -702.794067398799

DIPOLE MOMENT
-------------
                                X             Y             Z
Electronic contribution:     -6.00794       3.65978      -1.02196
Nuclear contribution   :      8.13140      -5.68016       0.80206
                        -----------------------------------------
Total Dipole Moment    :      2.12346      -2.02038      -0.21990
                        -----------------------------------------
Magnitude (a.u.)       :      2.93928
Magnitude (Debye)      :      7.47105

Rotational constants in cm-1:     0.162101     0.080498     0.079099
Rotational constants in MHz :  4859.669771  2413.267251  2371.338602

                             ****ORCA TERMINATED NORMALLY****
TOTAL RUN TIME: 0 days 0 hours 0 minutes 10 seconds 222 msec
