                         Program Version 5.0.0 -  RELEASE  -
|  1> !wB97X-D3 RIJCOSX def2-SVPD def2/J TightSCF CPCM(Water)
|  2> *xyz 1 1
|  3> C         -4.38262       -1.67089        1.21620
|  4> N         -5.76354       -1.91517        0.70501
|  5> C         -3.28173       -2.19127        0.29436
|  6> H         -5.84081       -2.11520       -0.30065
|  7> H         -6.40882       -1.14866        0.93612
|  8> H         -6.17478       -2.79061        1.05143
|  9> H         -4.32862       -2.13922        2.19810
| 10> H         -4.26158       -0.59740        1.35725
| 11> H         -3.36057       -1.71407       -0.66008
| 12> H         -3.38775       -3.24919        0.17403
| 13> H         -2.32559       -1.97514        0.72329
| 14> *
| 15> %MaxCore 64000
| 16>
| 17> %pal nprocs 18
| 18> end
| 19>
| 20> %scf
| 21>   MaxIter 150
| 22> end
| 23>
| 24>                          ****END OF INPUT****

CARTESIAN COORDINATES (ANGSTROEM)
---------------------------------
  C     -4.382620   -1.670890    1.216200
  N     -5.763540   -1.915170    0.705010
  C     -3.281730   -2.191270    0.294360
  H     -5.840810   -2.115200   -0.300650
  H     -6.408820   -1.148660    0.936120
  H     -6.174780   -2.790610    1.051430
  H     -4.328620   -2.139220    2.198100
  H     -4.261580   -0.597400    1.357250
  H     -3.360570   -1.714070   -0.660080
  H     -3.387750   -3.249190    0.174030
  H     -2.325590   -1.975140    0.723290

 Total Charge           Charge          ....    1
 Multiplicity           Mult            ....    1
 Number of Electrons    NEL             ....   26
 Basis Dimension        Dim             ....  124

ORBITAL ENERGIES
----------------

  NO   OCC          E(Eh)            E(eV)
   0   2.0000     -14.555412      -396.0729
   1   2.0000     -10.352992      -281.7192
   2   2.0000     -10.289856      -280.0012
   3   2.0000      -1.107103       -30.1258
   4   2.0000      -0.887187       -24.1416
   5   2.0000      -0.764213       -20.7953
   6   2.0000      -0.683608       -18.6019
   7   2.0000      -0.663817       -18.0634
   8   2.0000      -0.605832       -16.4855
   9   2.0000      -0.552493       -15.0341
  10   2.0000      -0.502236       -13.6665
  11   2.0000      -0.480950       -13.0873
  12   2.0000      -0.461516       -12.5585
  13   0.0000       0.086612         2.3568
  14   0.0000       0.118175         3.2157
  15   0.0000       0.125969         3.4278
  16   0.0000       0.146187         3.9780
  17   0.0000       0.167992         4.5713

MULLIKEN ATOMIC CHARGES
-----------------------
   0 C :    0.146709
   1 N :   -0.915628
   2 C :    0.396001
   3 H :    0.436334
   4 H :    0.451889
   5 H :    0.424165
   6 H :   -0.013528
   7 H :    0.022589
   8 H :   -0.001127
   9 H :    0.028683
  10 H :    0.023914
Sum of atomic charges:    1.0000000

LOEWDIN ATOMIC CHARGES
----------------------
   0 C :    0.067003
   1 N :    0.347991
   2 C :    0.148502
   3 H :    0.113644
   4 H :    0.119183
   5 H :    0.116715
   6 H :    0.048113
   7 H :    0.047264
   8 H :   -0.004237
   9 H :   -0.004149
  10 H :   -0.000029

  Mayer bond orders larger than 0.100000
B(  0-C ,  1-N ) :   0.6609 B(  0-C ,  2-C ) :   1.3265 B(  0-C ,  6-H ) :   0.9484
B(  0-C ,  7-H ) :   0.9484 B(  0-C ,  8-H ) :   0.1572 B(  0-C ,  9-H ) :   0.1426
B(  0-C , 10-H ) :   0.1609 B(  1-N ,  3-H ) :   0.6823 B(  1-N ,  4-H ) :   0.6774
B(  1-N ,  5-H ) :   0.7379 B(  2-C ,  8-H ) :   0.8660 B(  2-C ,  9-H ) :   0.8537
B(  2-C , 10-H ) :   0.8586

Dispersion correction           -0.001548224
FINAL SINGLE POINT ENERGY      -135.518085060580

DIPOLE MOMENT
-------------
                                X             Y             Z
Electronic contribution:     -2.23153       0.22783       0.29437
Nuclear contribution   :      0.19437      -0.25358      -0.32106
                        -----------------------------------------
Total Dipole Moment    :     -2.03716      -0.02575      -0.02670
                        -----------------------------------------
Magnitude (a.u.)       :      2.03750
Magnitude (Debye)      :      5.17891

Rotational constants in cm-1:     1.030014     0.272489     0.242697
Rotational constants in MHz : 30879.030706  8169.007780  7275.865152

                             ****ORCA TERMINATED NORMALLY****
TOTAL RUN TIME: 0 days 0 hours 0 minutes 6 seconds 11 msec
