                         Program Version 5.0.0 -  RELEASE  -
|  1> !wB97X-D3 RIJCOSX def2-SVPD def2/J TightSCF CPCM(Water)
|  2> *xyz 0 1
|  3> C         -5.57236       -5.80780       -0.81644
|  4> S         -6.90318       -4.61903       -0.52846
|  5> F         -8.11485       -5.25093       -0.95701
|  6> O         -6.53271       -3.42684       -1.31485
|  7> O         -6.86563       -4.29496        0.91412
|  8> C         -4.45780       -5.94187        0.22919
|  9> H         -5.17735       -5.54257       -1.79771
| 10> H         -6.07420       -6.76889       -0.92127
| 11> H         -3.75515       -6.68239       -0.09144
| 12> H         -4.88182       -6.23486        1.16689
| 13> H         -3.95908       -5.00189        0.34143
| 14> *
| 15> %MaxCore 64000
| 16>
| 17> %pal nprocs 18
| 18> end
| 19>
| 20> %scf
| 21>   MaxIter 150
| 22> end
| 23>
| 24>                          ****END OF INPUT****

CARTESIAN COORDINATES (ANGSTROEM)
---------------------------------
  C     -5.572360   -5.807800   -0.816440
  S     -6.903180   -4.619030   -0.528460
  F     -8.114850   -5.250930   -0.957010
  O     -6.532710   -3.426840   -1.314850
  O     -6.865630   -4.294960    0.914120
  C     -4.457800   -5.941870    0.229190
  H     -5.177350   -5.542570   -1.797710
  H     -6.074200   -6.768890   -0.921270
  H     -3.755150   -6.682390   -0.091440
  H     -4.881820   -6.234860    1.166890
  H     -3.959080   -5.001890    0.341430

 Total Charge           Charge          ....    0
 Multiplicity           Mult            ....    1
 Number of Electrons    NEL             ....   58
 Basis Dimension        Dim             ....  176

ORBITAL ENERGIES
----------------

  NO   OCC          E(Eh)            E(eV)
   0   2.0000     -89.241905     -2428.3957
   1   2.0000     -24.923370      -678.1994
   2   2.0000     -19.260563      -524.1066
   3   2.0000     -19.260370      -524.1013
   4   2.0000     -10.341024      -281.3936
   5   2.0000     -10.294880      -280.1379
   6   2.0000      -8.316256      -226.2968
   7   2.0000      -6.279926      -170.8855
   8   2.0000      -6.273881      -170.7210
   9   2.0000      -6.271779      -170.6638
  10   2.0000      -1.500142       -40.8209
  11   2.0000      -1.223220       -33.2855
  12   2.0000      -1.120645       -30.4943
  13   2.0000      -0.923898       -25.1405
  14   2.0000      -0.846401       -23.0317
  15   2.0000      -0.779750       -21.2181
  16   2.0000      -0.699736       -19.0408
  17   2.0000      -0.692248       -18.8370
  18   2.0000      -0.664524       -18.0826
  19   2.0000      -0.586830       -15.9684
  20   2.0000      -0.581779       -15.8310
  21   2.0000      -0.552974       -15.0472
  22   2.0000      -0.521596       -14.1934
  23   2.0000      -0.495165       -13.4741
  24   2.0000      -0.487019       -13.2525
  25   2.0000      -0.471112       -12.8196
  26   2.0000      -0.433281       -11.7902
  27   2.0000      -0.423650       -11.5281
  28   2.0000      -0.410838       -11.1795
  29   0.0000       0.069707         1.8968
  30   0.0000       0.093226         2.5368
  31   0.0000       0.098706         2.6859
  32   0.0000       0.100667         2.7393
  33   0.0000       0.117000         3.1837

MULLIKEN ATOMIC CHARGES
-----------------------
   0 C :   -0.475853
   1 S :    1.510930
   2 F :   -0.380027
   3 O :   -0.738662
   4 O :   -0.748997
   5 C :    0.613482
   6 H :    0.095738
   7 H :    0.130071
   8 H :   -0.003629
   9 H :    0.006225
  10 H :   -0.009278
Sum of atomic charges:   -0.0000000

LOEWDIN ATOMIC CHARGES
----------------------
   0 C :   -0.068703
   1 S :    1.150352
   2 F :   -0.236907
   3 O :   -0.525975
   4 O :   -0.522917
   5 C :    0.146017
   6 H :    0.030550
   7 H :    0.027531
   8 H :    0.005581
   9 H :   -0.005463
  10 H :   -0.000067

  Mayer bond orders larger than 0.100000
B(  0-C ,  1-S ) :   0.9577 B(  0-C ,  5-C ) :   1.3371 B(  0-C ,  6-H ) :   0.9741
B(  0-C ,  7-H ) :   0.9435 B(  0-C ,  8-H ) :   0.1793 B(  0-C ,  9-H ) :   0.1823
B(  0-C , 10-H ) :   0.1655 B(  1-S ,  2-F ) :   0.7167 B(  1-S ,  3-O ) :   1.4664
B(  1-S ,  4-O ) :   1.4552 B(  5-C ,  8-H ) :   0.8021 B(  5-C ,  9-H ) :   0.8301
B(  5-C , 10-H ) :   0.8431

Dispersion correction           -0.002828600
FINAL SINGLE POINT ENERGY      -727.183605844603

DIPOLE MOMENT
-------------
                                X             Y             Z
Electronic contribution:     -9.29886       2.99065      -2.09194
Nuclear contribution   :      9.80704      -5.24335       1.35017
                        -----------------------------------------
Total Dipole Moment    :      0.50818      -2.25270      -0.74176
                        -----------------------------------------
Magnitude (a.u.)       :      2.42552
Magnitude (Debye)      :      6.16517

Rotational constants in cm-1:     0.156316     0.078308     0.076228
Rotational constants in MHz :  4686.224999  2347.601204  2285.245115

                             ****ORCA TERMINATED NORMALLY****
TOTAL RUN TIME: 0 days 0 hours 0 minutes 12 seconds 729 msec
