                         Program Version 5.0.0 -  RELEASE  -
|  1> !wB97X-D3 RIJCOSX def2-SVPD def2/J TightSCF CPCM(Water)
|  2> *xyz 0 1
|  3> C         -4.38262       -1.67089        1.21620
|  4> C         -5.76354       -1.91517        0.70501
|  5> C         -3.28173       -2.19127        0.29436
|  6> H         -5.84081       -2.11520       -0.30065
|  7> H         -6.40882       -1.14866        0.93612
|  8> H         -6.17478       -2.79061        1.05143
|  9> H         -4.32862       -2.13922        2.19810
| 10> H         -4.26158       -0.59740        1.35725
| 11> H         -3.36057       -1.71407       -0.66008
| 12> H         -3.38775       -3.24919        0.17403
| 13> H         -2.32559       -1.97514        0.72329
| 14> *
| 15> %MaxCore 64000
| 16>
| 17> %pal nprocs 18
| 18> end
| 19>
| 20> %scf
| 21>   MaxIter 150
| 22> end
| 23>
| 24>                          ****END OF INPUT****

CARTESIAN COORDINATES (ANGSTROEM)
---------------------------------
  C     -4.382620   -1.670890    1.216200
  C     -5.763540   -1.915170    0.705010
  C     -3.281730   -2.191270    0.294360
  H     -5.840810   -2.115200   -0.300650
  H     -6.408820   -1.148660    0.936120
  H     -6.174780   -2.790610    1.051430
  H     -4.328620   -2.139220    2.198100
  H     -4.261580   -0.597400    1.357250
  H     -3.360570   -1.714070   -0.660080
  H     -3.387750   -3.249190    0.174030
  H     -2.325590   -1.975140    0.723290

 Total Charge           Charge          ....    0
 Multiplicity           Mult            ....    1
 Number of Electrons    NEL             ....   26
 Basis Dimension        Dim             ....  124

ORBITAL ENERGIES
----------------

  NO   OCC          E(Eh)            E(eV)
   0   2.0000     -10.273337      -279.5517
   1   2.0000     -10.264468      -279.3104
   2   2.0000     -10.245498      -278.7942
   3   2.0000      -0.895171       -24.3588
   4   2.0000      -0.796057       -21.6618
   5   2.0000      -0.691099       -18.8057
   6   2.0000      -0.560655       -15.2562
   7   2.0000      -0.539045       -14.6682
   8   2.0000      -0.504641       -13.7320
   9   2.0000      -0.478633       -13.0243
  10   2.0000      -0.431359       -11.7379
  11   2.0000      -0.424296       -11.5457
  12   2.0000      -0.410525       -11.1710
  13   0.0000       0.101566         2.7638
  14   0.0000       0.127614         3.4726
  15   0.0000       0.135076         3.6756
  16   0.0000       0.169367         4.6087
  17   0.0000       0.189720         5.1626

MULLIKEN ATOMIC CHARGES
-----------------------
   0 C :   -0.586111
   1 C :    0.826348
   2 C :    0.541881
   3 H :   -0.281969
   4 H :   -0.120150
   5 H :   -0.164176
   6 H :   -0.095536
   7 H :   -0.036722
   8 H :   -0.003446
   9 H :   -0.041801
  10 H :   -0.038317
Sum of atomic charges:   -0.0000000

LOEWDIN ATOMIC CHARGES
----------------------
   0 C :   -0.107710
   1 C :    0.111185
   2 C :    0.109234
   3 H :   -0.036190
   4 H :   -0.030651
   5 H :   -0.033415
   6 H :    0.019411
   7 H :    0.018750
   8 H :   -0.015076
   9 H :   -0.014712
  10 H :   -0.020827

  Mayer bond orders larger than 0.100000
B(  0-C ,  1-C ) :   1.2764 B(  0-C ,  2-C ) :   1.2536 B(  0-C ,  3-H ) :   0.1751
B(  0-C ,  4-H ) :   0.1780 B(  0-C ,  5-H ) :   0.2137 B(  0-C ,  6-H ) :   0.9515
B(  0-C ,  7-H ) :   0.9435 B(  0-C ,  8-H ) :   0.1443 B(  0-C ,  9-H ) :   0.1632
B(  0-C , 10-H ) :   0.1928 B(  1-C ,  3-H ) :   0.6976 B(  1-C ,  4-H ) :   0.7649
B(  1-C ,  5-H ) :   0.6559 B(  1-C ,  6-H ) :   0.1136 B(  2-C ,  8-H ) :   0.8494
B(  2-C ,  9-H ) :   0.8548 B(  2-C , 10-H ) :   0.8190 B(  3-H ,  5-H ) :   0.3039

Dispersion correction           -0.001494968
FINAL SINGLE POINT ENERGY      -119.010336005084

DIPOLE MOMENT
-------------
                                X             Y             Z
Electronic contribution:      0.17443       0.23060       0.33886
Nuclear contribution   :     -0.21528      -0.24783      -0.32864
                        -----------------------------------------
Total Dipole Moment    :     -0.04085      -0.01722       0.01022
                        -----------------------------------------
Magnitude (a.u.)       :      0.04549
Magnitude (Debye)      :      0.11564

Rotational constants in cm-1:     1.037566     0.286459     0.254172
Rotational constants in MHz : 31105.431429  8587.814531  7619.871198

                             ****ORCA TERMINATED NORMALLY****
TOTAL RUN TIME: 0 days 0 hours 0 minutes 6 seconds 4 msec
