                         Program Version 5.0.0 -  RELEASE  -
|  1> !wB97X-D3 RIJCOSX def2-SVPD def2/J TightSCF CPCM(Water)
|  2> *xyz 0 1
|  3> C         -5.57236       -5.80780       -0.81644
|  4> S         -6.90318       -4.61903       -0.52846
|  5> O         -8.11485       -5.25093       -0.95701
|  6> F         -6.53271       -3.42684       -1.31485
|  7> O         -6.86563       -4.29496        0.91412
|  8> C         -4.45780       -5.94187        0.22919
|  9> H         -5.17735       -5.54257       -1.79771
| 10> H         -6.07420       -6.76889       -0.92127
| 11> H         -3.75515       -6.68239       -0.09144
| 12> H         -4.88182       -6.23486        1.16689
| 13> H         -3.95908       -5.00189        0.34143
| 14> *
| 15> %MaxCore 64000
| 16>
| 17> %pal nprocs 18
| 18> end
| 19>
| 20> %scf
| 21>   MaxIter 150
| 22> end
| 23>
| 24>                          ****END OF INPUT****

CARTESIAN COORDINATES (ANGSTROEM)
---------------------------------
  C     -5.572360   -5.807800   -0.816440
  S     -6.903180   -4.619030   -0.528460
  O     -8.114850   -5.250930   -0.957010
  F     -6.532710   -3.426840   -1.314850
  O     -6.865630   -4.294960    0.914120
  C     -4.457800   -5.941870    0.229190
  H     -5.177350   -5.542570   -1.797710
  H     -6.074200   -6.768890   -0.921270
  H     -3.755150   -6.682390   -0.091440
  H     -4.881820   -6.234860    1.166890
  H     -3.959080   -5.001890    0.341430

 Total Charge           Charge          ....    0
 Multiplicity           Mult            ....    1
 Number of Electrons    NEL             ....   58
 Basis Dimension        Dim             ....  176

ORBITAL ENERGIES
----------------

  NO   OCC          E(Eh)            E(eV)
   0   2.0000     -89.238880     -2428.3134
   1   2.0000     -24.902964      -677.6441
   2   2.0000     -19.273048      -524.4463
   3   2.0000     -19.259796      -524.0857
   4   2.0000     -10.340203      -281.3712
   5   2.0000     -10.292728      -280.0794
   6   2.0000      -8.313224      -226.2143
   7   2.0000      -6.276763      -170.7994
   8   2.0000      -6.270992      -170.6424
   9   2.0000      -6.268919      -170.5860
  10   2.0000      -1.464534       -39.8520
  11   2.0000      -1.238556       -33.7028
  12   2.0000      -1.135552       -30.8999
  13   2.0000      -0.922460       -25.1014
  14   2.0000      -0.832576       -22.6555
  15   2.0000      -0.772755       -21.0277
  16   2.0000      -0.680068       -18.5056
  17   2.0000      -0.674149       -18.3445
  18   2.0000      -0.661494       -18.0002
  19   2.0000      -0.589505       -16.0412
  20   2.0000      -0.573575       -15.6078
  21   2.0000      -0.565275       -15.3819
  22   2.0000      -0.523123       -14.2349
  23   2.0000      -0.503978       -13.7139
  24   2.0000      -0.487059       -13.2535
  25   2.0000      -0.469452       -12.7744
  26   2.0000      -0.440724       -11.9927
  27   2.0000      -0.428221       -11.6525
  28   2.0000      -0.422063       -11.4849
  29   0.0000       0.069973         1.9041
  30   0.0000       0.094073         2.5598
  31   0.0000       0.099087         2.6963
  32   0.0000       0.101505         2.7621
  33   0.0000       0.117206         3.1893

MULLIKEN ATOMIC CHARGES
-----------------------
   0 C :   -0.478971
   1 S :    1.500621
   2 O :   -0.686646
   3 F :   -0.414183
   4 O :   -0.758129
   5 C :    0.631325
   6 H :    0.109391
   7 H :    0.118836
   8 H :   -0.005987
   9 H :    0.002233
  10 H :   -0.018489
Sum of atomic charges:   -0.0000000

LOEWDIN ATOMIC CHARGES
----------------------
   0 C :   -0.064826
   1 S :    1.143903
   2 O :   -0.492650
   3 F :   -0.263686
   4 O :   -0.521899
   5 C :    0.140332
   6 H :    0.031314
   7 H :    0.031366
   8 H :    0.003658
   9 H :   -0.006067
  10 H :   -0.001446

  Mayer bond orders larger than 0.100000
B(  0-C ,  1-S ) :   0.9651 B(  0-C ,  5-C ) :   1.3330 B(  0-C ,  6-H ) :   0.9489
B(  0-C ,  7-H ) :   0.9735 B(  0-C ,  8-H ) :   0.1823 B(  0-C ,  9-H ) :   0.1821
B(  0-C , 10-H ) :   0.1726 B(  1-S ,  2-O ) :   1.5417 B(  1-S ,  3-F ) :   0.6528
B(  1-S ,  4-O ) :   1.4600 B(  5-C ,  8-H ) :   0.7991 B(  5-C ,  9-H ) :   0.8309
B(  5-C , 10-H ) :   0.8398

Dispersion correction           -0.002806319
FINAL SINGLE POINT ENERGY      -727.200758340231

DIPOLE MOMENT
-------------
                                X             Y             Z
Electronic contribution:     -6.27499       6.51920      -2.81105
Nuclear contribution   :      8.15840      -7.14411       1.72305
                        -----------------------------------------
Total Dipole Moment    :      1.88341      -0.62491      -1.08800
                        -----------------------------------------
Magnitude (a.u.)       :      2.26307
Magnitude (Debye)      :      5.75226

Rotational constants in cm-1:     0.153926     0.078297     0.077402
Rotational constants in MHz :  4614.585804  2347.272644  2320.438903

                             ****ORCA TERMINATED NORMALLY****
TOTAL RUN TIME: 0 days 0 hours 0 minutes 12 seconds 470 msec
