                         Program Version 5.0.0 -  RELEASE  -
|  1> !wB97X-D3 RIJCOSX def2-SVPD def2/J TightSCF CPCM(Water)
|  2> *xyz 0 1
|  3> C         -5.57236       -5.80780       -0.81644
|  4> S         -6.90318       -4.61903       -0.52846
|  5> O         -8.11485       -5.25093       -0.95701
|  6> O         -6.53271       -3.42684       -1.31485
|  7> F         -6.86563       -4.29496        0.91412
|  8> C         -4.45780       -5.94187        0.22919
|  9> H         -5.17735       -5.54257       -1.79771
| 10> H         -6.07420       -6.76889       -0.92127
| 11> H         -3.75515       -6.68239       -0.09144
| 12> H         -4.88182       -6.23486        1.16689
| 13> H         -3.95908       -5.00189        0.34143
| 14> *
| 15> %MaxCore 64000
| 16>
| 17> %pal nprocs 18
| 18> end
| 19>
| 20> %scf
| 21>   MaxIter 150
| 22> end
| 23>
| 24>                          ****END OF INPUT****

CARTESIAN COORDINATES (ANGSTROEM)
---------------------------------
  C     -5.572360   -5.807800   -0.816440
  S     -6.903180   -4.619030   -0.528460
  O     -8.114850   -5.250930   -0.957010
  O     -6.532710   -3.426840   -1.314850
  F     -6.865630   -4.294960    0.914120
  C     -4.457800   -5.941870    0.229190
  H     -5.177350   -5.542570   -1.797710
  H     -6.074200   -6.768890   -0.921270
  H     -3.755150   -6.682390   -0.091440
  H     -4.881820   -6.234860    1.166890
  H     -3.959080   -5.001890    0.341430

 Total Charge           Charge          ....    0
 Multiplicity           Mult            ....    1
 Number of Electrons    NEL             ....   58
 Basis Dimension        Dim             ....  176

ORBITAL ENERGIES
----------------

  NO   OCC          E(Eh)            E(eV)
   0   2.0000     -89.238802     -2428.3113
   1   2.0000     -24.902552      -677.6329
   2   2.0000     -19.273089      -524.4474
   3   2.0000     -19.259816      -524.0862
   4   2.0000     -10.340380      -281.3760
   5   2.0000     -10.294242      -280.1206
   6   2.0000      -8.313189      -226.2134
   7   2.0000      -6.276804      -170.8005
   8   2.0000      -6.270981      -170.6421
   9   2.0000      -6.268798      -170.5827
  10   2.0000      -1.462399       -39.7939
  11   2.0000      -1.239651       -33.7326
  12   2.0000      -1.136846       -30.9352
  13   2.0000      -0.923832       -25.1388
  14   2.0000      -0.828988       -22.5579
  15   2.0000      -0.775827       -21.1113
  16   2.0000      -0.685361       -18.6496
  17   2.0000      -0.674760       -18.3612
  18   2.0000      -0.655514       -17.8374
  19   2.0000      -0.585996       -15.9458
  20   2.0000      -0.575897       -15.6709
  21   2.0000      -0.556712       -15.1489
  22   2.0000      -0.535544       -14.5729
  23   2.0000      -0.507183       -13.8011
  24   2.0000      -0.480609       -13.0780
  25   2.0000      -0.478221       -13.0131
  26   2.0000      -0.439585       -11.9617
  27   2.0000      -0.428411       -11.6577
  28   2.0000      -0.421131       -11.4596
  29   0.0000       0.067921         1.8482
  30   0.0000       0.094517         2.5719
  31   0.0000       0.098589         2.6827
  32   0.0000       0.099806         2.7159
  33   0.0000       0.127475         3.4688

MULLIKEN ATOMIC CHARGES
-----------------------
   0 C :   -0.467054
   1 S :    1.491594
   2 O :   -0.681687
   3 O :   -0.746625
   4 F :   -0.426532
   5 C :    0.598765
   6 H :    0.102238
   7 H :    0.114909
   8 H :    0.004380
   9 H :    0.014994
  10 H :   -0.004982
Sum of atomic charges:   -0.0000000

LOEWDIN ATOMIC CHARGES
----------------------
   0 C :   -0.062788
   1 S :    1.141918
   2 O :   -0.491826
   3 O :   -0.526489
   4 F :   -0.263095
   5 C :    0.139588
   6 H :    0.036127
   7 H :    0.027408
   8 H :    0.003636
   9 H :   -0.003334
  10 H :   -0.001144

  Mayer bond orders larger than 0.100000
B(  0-C ,  1-S ) :   0.9706 B(  0-C ,  5-C ) :   1.3211 B(  0-C ,  6-H ) :   0.9680
B(  0-C ,  7-H ) :   0.9729 B(  0-C ,  8-H ) :   0.1864 B(  0-C ,  9-H ) :   0.1743
B(  0-C , 10-H ) :   0.1613 B(  1-S ,  2-O ) :   1.5384 B(  1-S ,  3-O ) :   1.4661
B(  1-S ,  4-F ) :   0.6522 B(  5-C ,  8-H ) :   0.7929 B(  5-C ,  9-H ) :   0.8348
B(  5-C , 10-H ) :   0.8459

Dispersion correction           -0.002793676
FINAL SINGLE POINT ENERGY      -727.201046529030

DIPOLE MOMENT
-------------
                                X             Y             Z
Electronic contribution:     -6.91290       4.81911       1.50581
Nuclear contribution   :      8.50531      -6.23950      -0.59960
                        -----------------------------------------
Total Dipole Moment    :      1.59242      -1.42039       0.90621
                        -----------------------------------------
Magnitude (a.u.)       :      2.31830
Magnitude (Debye)      :      5.89264

Rotational constants in cm-1:     0.152799     0.080212     0.076962
Rotational constants in MHz :  4580.804531  2404.707790  2307.252710

                             ****ORCA TERMINATED NORMALLY****
TOTAL RUN TIME: 0 days 0 hours 0 minutes 10 seconds 913 msec
