                         Program Version 5.0.0 -  RELEASE  -
|  1> !wB97X-D3 RIJCOSX def2-SVPD def2/J TightSCF CPCM(Water) xyzfile
|  2>
|  3> *xyzfile 0 1 D1.xyz
|  4>
|  5> %MaxCore 64000
|  6>
|  7> %pal nprocs 18
|  8> end
|  9>
| 10> %scf
| 11>   MaxIter 150
| 12> end
| 13>
| 14>
| 15>                          ****END OF INPUT****

CARTESIAN COORDINATES (ANGSTROEM)
---------------------------------
  C     -4.382623   -1.670889    1.216201
  C     -5.763539   -1.915170    0.705012
  C     -3.281728   -2.191272    0.294361
  C     -5.572364   -5.807798   -0.816445
  S     -6.903179   -4.619033   -0.528458
  H     -5.840812   -2.115205   -0.300646
  H     -6.408823   -1.148656    0.936124
  H     -6.174781   -2.790606    1.051433
  F     -8.114853   -5.250932   -0.957007
  O     -6.532715   -3.426838   -1.314848
  H     -4.328618   -2.139223    2.198103
  H     -4.261583   -0.597399    1.357248
  O     -6.865632   -4.294957    0.914118
  C     -3.474641   -3.605898   -0.259608
  H     -2.354548   -2.127602    0.871433
  H     -3.166611   -1.499693   -0.545037
  C     -3.827078   -4.661097    0.786174
  H     -2.560559   -3.889391   -0.788050
  H     -4.255932   -3.570040   -1.019300
  C     -4.457800   -5.941875    0.229195
  H     -5.177347   -5.542575   -1.797714
  H     -6.074202   -6.768894   -0.921272
  H     -4.530506   -4.253640    1.511979
  H     -2.933400   -4.932302    1.356825
  H     -3.681064   -6.562236   -0.229885
  H     -4.843942   -6.512728    1.075805

 Total Charge           Charge          ....    0
 Multiplicity           Mult            ....    1
 Number of Electrons    NEL             ....   98
 Basis Dimension        Dim             ....  356

ORBITAL ENERGIES
----------------

  NO   OCC          E(Eh)            E(eV)
   0   2.0000     -89.243421     -2428.4369
   1   2.0000     -24.922525      -678.1764
   2   2.0000     -19.259592      -524.0801
   3   2.0000     -19.258795      -524.0585
   4   2.0000     -10.339248      -281.3452
   5   2.0000     -10.303181      -280.3638
   6   2.0000     -10.279118      -279.7090
   7   2.0000     -10.272847      -279.5384
   8   2.0000     -10.270986      -279.4878
   9   2.0000     -10.261829      -279.2386
  10   2.0000     -10.208028      -277.7746
  11   2.0000      -8.316407      -226.3009
  12   2.0000      -6.280078      -170.8896
  13   2.0000      -6.274088      -170.7266
  14   2.0000      -6.272196      -170.6751
  15   2.0000      -1.498384       -40.7731
  16   2.0000      -1.227205       -33.3940
  17   2.0000      -1.124442       -30.5976
  18   2.0000      -0.936967       -25.4962
  19   2.0000      -0.908039       -24.7090
  20   2.0000      -0.862465       -23.4689
  21   2.0000      -0.835551       -22.7365
  22   2.0000      -0.797590       -21.7035
  23   2.0000      -0.753301       -20.4984
  24   2.0000      -0.717616       -19.5273
  25   2.0000      -0.700875       -19.0718
  26   2.0000      -0.685969       -18.6662
  27   2.0000      -0.657872       -17.9016
  28   2.0000      -0.644617       -17.5409
  29   2.0000      -0.595175       -16.1955
  30   2.0000      -0.584887       -15.9156
  31   2.0000      -0.576490       -15.6871
  32   2.0000      -0.570270       -15.5178
  33   2.0000      -0.543345       -14.7852
  34   2.0000      -0.530962       -14.4482
  35   2.0000      -0.518080       -14.0977
  36   2.0000      -0.503551       -13.7023
  37   2.0000      -0.479544       -13.0490
  38   2.0000      -0.478701       -13.0261
  39   2.0000      -0.470199       -12.7948
  40   2.0000      -0.441359       -12.0100
  41   2.0000      -0.439606       -11.9623
  42   2.0000      -0.432189       -11.7605
  43   2.0000      -0.427689       -11.6380
  44   2.0000      -0.417492       -11.3605
  45   2.0000      -0.402840       -10.9618
  46   2.0000      -0.391057       -10.6412
  47   2.0000      -0.385094       -10.4789
  48   2.0000      -0.367279        -9.9942
  49   0.0000       0.073007         1.9866
  50   0.0000       0.090541         2.4638
  51   0.0000       0.096969         2.6387
  52   0.0000       0.098743         2.6869
  53   0.0000       0.111547         3.0354

MULLIKEN ATOMIC CHARGES
-----------------------
   0 C :   -0.103087
   1 C :    1.786862
   2 C :    0.414613
   3 C :    0.061427
   4 S :    1.698369
   5 H :   -0.437607
   6 H :   -0.352184
   7 H :   -0.848678
   8 F :   -0.548769
   9 O :   -0.703878
  10 H :    0.141910
  11 H :   -0.362325
  12 O :   -0.782848
  13 C :    0.081407
  14 H :   -0.037867
  15 H :    0.064575
  16 C :   -0.022810
  17 H :   -0.294195
  18 H :   -0.057004
  19 C :    0.374158
  20 H :    0.216167
  21 H :   -0.133780
  22 H :   -0.002175
  23 H :   -0.220634
  24 H :    0.033519
  25 H :    0.034834
Sum of atomic charges:    0.0000000

LOEWDIN ATOMIC CHARGES
----------------------
   0 C :   -0.050896
   1 C :    0.127413
   2 C :   -0.028638
   3 C :   -0.016292
   4 S :    1.218897
   5 H :   -0.101006
   6 H :   -0.022659
   7 H :   -0.139408
   8 F :   -0.230814
   9 O :   -0.491600
  10 H :    0.014992
  11 H :    0.014031
  12 O :   -0.480338
  13 C :   -0.010150
  14 H :    0.016729
  15 H :    0.024710
  16 C :   -0.011284
  17 H :    0.027444
  18 H :   -0.017568
  19 C :   -0.007739
  20 H :    0.032476
  21 H :    0.027961
  22 H :   -0.007362
  23 H :    0.033429
  24 H :    0.043164
  25 H :    0.034508

  Mayer bond orders larger than 0.100000
B(  0-C ,  1-C ) :   1.0934 B(  0-C ,  2-C ) :   1.1477 B(  0-C ,  5-H ) :   0.3282
B(  0-C ,  7-H ) :   0.3420 B(  0-C , 10-H ) :   0.6918 B(  0-C , 11-H ) :   1.0516
B(  0-C , 14-H ) :   0.1661 B(  0-C , 15-H ) :   0.1501 B(  1-C ,  2-C ) :   0.1349
B(  1-C ,  6-H ) :   0.5645 B(  1-C ,  7-H ) :  -0.3558 B(  1-C , 10-H ) :   0.1928
B(  1-C , 17-H ) :   0.1082 B(  2-C , 10-H ) :   0.1181 B(  2-C , 13-C ) :   1.2640
B(  2-C , 14-H ) :   0.7789 B(  2-C , 15-H ) :   0.6768 B(  3-C ,  4-S ) :   0.9659
B(  3-C ,  8-F ) :   0.1166 B(  3-C , 19-C ) :   1.2599 B(  3-C , 20-H ) :   0.8613
B(  3-C , 21-H ) :   0.9164 B(  3-C , 24-H ) :   0.1195 B(  3-C , 25-H ) :   0.1163
B(  4-S ,  8-F ) :   0.5776 B(  4-S ,  9-O ) :   1.3305 B(  4-S , 12-O ) :   1.3203
B(  5-H ,  7-H ) :   0.9509 B(  5-H ,  9-O ) :   0.1997 B(  5-H , 11-H ) :   0.1573
B(  5-H , 18-H ) :   0.1470 B(  6-H ,  7-H ) :   0.1123 B(  6-H , 11-H ) :  -0.1324
B(  6-H , 18-H ) :  -0.1285 B(  7-H , 10-H ) :  -0.1144 B(  7-H , 11-H ) :   0.1062
B(  7-H , 12-O ) :   0.1345 B(  7-H , 17-H ) :  -0.1107 B(  9-O , 12-O ) :   0.1582
B( 10-H , 11-H ) :  -0.2009 B( 10-H , 22-H ) :   0.1354 B( 11-H , 14-H ) :   0.1037
B( 13-C , 14-H ) :   0.1648 B( 13-C , 15-H ) :   0.2354 B( 13-C , 16-C ) :   1.1860
B( 13-C , 17-H ) :   0.8820 B( 13-C , 18-H ) :   0.8257 B( 13-C , 22-H ) :   0.1014
B( 13-C , 23-H ) :   0.1747 B( 16-C , 17-H ) :   0.1949 B( 16-C , 18-H ) :   0.1588
B( 16-C , 19-C ) :   1.2703 B( 16-C , 22-H ) :   0.8695 B( 16-C , 23-H ) :   0.8897
B( 16-C , 24-H ) :   0.1280 B( 16-C , 25-H ) :   0.2390 B( 19-C , 21-H ) :   0.2033
B( 19-C , 24-H ) :   0.7902 B( 19-C , 25-H ) :   0.7058

Dispersion correction           -0.012979686
FINAL SINGLE POINT ENERGY      -923.520892162326

DIPOLE MOMENT
-------------
                                X             Y             Z
Electronic contribution:    -18.81175      -9.35594      -6.96984
Nuclear contribution   :     19.08524       6.89775       6.14221
                        -----------------------------------------
Total Dipole Moment    :      0.27349      -2.45819      -0.82763
                        -----------------------------------------
Magnitude (a.u.)       :      2.60815
Magnitude (Debye)      :      6.62939

Rotational constants in cm-1:     0.049343     0.024787     0.019726
Rotational constants in MHz :  1479.262779   743.087234   591.370705

                             ****ORCA TERMINATED NORMALLY****
TOTAL RUN TIME: 0 days 0 hours 0 minutes 44 seconds 189 msec
