                         Program Version 5.0.0 -  RELEASE  -
|  1> !wB97X-D3 RIJCOSX def2-SVPD def2/J TightSCF CPCM(Water) xyzfile
|  2>
|  3> *xyzfile 0 1 D2.xyz
|  4>
|  5> %MaxCore 64000
|  6>
|  7> %pal nprocs 18
|  8> end
|  9>
| 10> %scf
| 11>   MaxIter 150
| 12> end
| 13>
| 14>
| 15>                          ****END OF INPUT****

CARTESIAN COORDINATES (ANGSTROEM)
---------------------------------
  C     -4.382623   -1.670889    1.216201
  C     -5.763539   -1.915170    0.705012
  C     -3.281728   -2.191272    0.294361
  C     -5.572364   -5.807798   -0.816445
  S     -6.903179   -4.619033   -0.528458
  H     -5.840812   -2.115205   -0.300646
  H     -6.408823   -1.148656    0.936124
  H     -6.174781   -2.790606    1.051433
  O     -8.114853   -5.250932   -0.957007
  F     -6.532715   -3.426838   -1.314848
  H     -4.328618   -2.139223    2.198103
  H     -4.261583   -0.597399    1.357248
  O     -6.865632   -4.294957    0.914118
  C     -3.474641   -3.605898   -0.259608
  H     -2.354548   -2.127602    0.871433
  H     -3.166611   -1.499693   -0.545037
  C     -3.827078   -4.661097    0.786174
  H     -2.560559   -3.889391   -0.788050
  H     -4.255932   -3.570040   -1.019300
  C     -4.457800   -5.941875    0.229195
  H     -5.177347   -5.542575   -1.797714
  H     -6.074202   -6.768894   -0.921272
  H     -4.530506   -4.253640    1.511979
  H     -2.933400   -4.932302    1.356825
  H     -3.681064   -6.562236   -0.229885
  H     -4.843942   -6.512728    1.075805

 Total Charge           Charge          ....    0
 Multiplicity           Mult            ....    1
 Number of Electrons    NEL             ....   98
 Basis Dimension        Dim             ....  356

ORBITAL ENERGIES
----------------

  NO   OCC          E(Eh)            E(eV)
   0   2.0000     -89.242592     -2428.4144
   1   2.0000     -24.906132      -677.7303
   2   2.0000     -19.274673      -524.4905
   3   2.0000     -19.259129      -524.0675
   4   2.0000     -10.340164      -281.3702
   5   2.0000     -10.302266      -280.3389
   6   2.0000     -10.281160      -279.7646
   7   2.0000     -10.279316      -279.7144
   8   2.0000     -10.274182      -279.5747
   9   2.0000     -10.266136      -279.3558
  10   2.0000     -10.219273      -278.0805
  11   2.0000      -8.315720      -226.2822
  12   2.0000      -6.279303      -170.8685
  13   2.0000      -6.273563      -170.7123
  14   2.0000      -6.271477      -170.6556
  15   2.0000      -1.470661       -40.0187
  16   2.0000      -1.241055       -33.7708
  17   2.0000      -1.140917       -31.0459
  18   2.0000      -0.939330       -25.5605
  19   2.0000      -0.910501       -24.7760
  20   2.0000      -0.861235       -23.4354
  21   2.0000      -0.835366       -22.7315
  22   2.0000      -0.797706       -21.7067
  23   2.0000      -0.758454       -20.6386
  24   2.0000      -0.718853       -19.5610
  25   2.0000      -0.687785       -18.7156
  26   2.0000      -0.675802       -18.3895
  27   2.0000      -0.658350       -17.9146
  28   2.0000      -0.653820       -17.7913
  29   2.0000      -0.594319       -16.1722
  30   2.0000      -0.581527       -15.8242
  31   2.0000      -0.576141       -15.6776
  32   2.0000      -0.566471       -15.4145
  33   2.0000      -0.552716       -15.0402
  34   2.0000      -0.533996       -14.5308
  35   2.0000      -0.516087       -14.0434
  36   2.0000      -0.503247       -13.6941
  37   2.0000      -0.492177       -13.3928
  38   2.0000      -0.483188       -13.1482
  39   2.0000      -0.479236       -13.0407
  40   2.0000      -0.451636       -12.2896
  41   2.0000      -0.448432       -12.2025
  42   2.0000      -0.444165       -12.0864
  43   2.0000      -0.431925       -11.7533
  44   2.0000      -0.415816       -11.3149
  45   2.0000      -0.410968       -11.1830
  46   2.0000      -0.398921       -10.8552
  47   2.0000      -0.396456       -10.7881
  48   2.0000      -0.371733       -10.1154
  49   0.0000       0.072795         1.9809
  50   0.0000       0.091305         2.4845
  51   0.0000       0.096927         2.6375
  52   0.0000       0.100790         2.7426
  53   0.0000       0.112041         3.0488

MULLIKEN ATOMIC CHARGES
-----------------------
   0 C :   -0.108839
   1 C :    1.775638
   2 C :    0.392383
   3 C :    0.072430
   4 S :    1.534842
   5 H :   -0.403895
   6 H :   -0.350888
   7 H :   -0.829283
   8 O :   -0.750059
   9 F :   -0.429517
  10 H :    0.151462
  11 H :   -0.351483
  12 O :   -0.778608
  13 C :    0.054068
  14 H :   -0.028656
  15 H :    0.074423
  16 C :   -0.008715
  17 H :   -0.280308
  18 H :   -0.053915
  19 C :    0.387670
  20 H :    0.235715
  21 H :   -0.172395
  22 H :   -0.013932
  23 H :   -0.185754
  24 H :    0.036298
  25 H :    0.031317
Sum of atomic charges:    0.0000000

LOEWDIN ATOMIC CHARGES
----------------------
   0 C :   -0.046981
   1 C :    0.130809
   2 C :   -0.027516
   3 C :   -0.014376
   4 S :    1.181036
   5 H :   -0.074687
   6 H :   -0.018602
   7 H :   -0.142300
   8 O :   -0.475427
   9 F :   -0.266394
  10 H :    0.017862
  11 H :    0.016556
  12 O :   -0.477129
  13 C :   -0.011032
  14 H :    0.019313
  15 H :    0.026120
  16 C :   -0.012989
  17 H :    0.030397
  18 H :   -0.011883
  19 C :   -0.011986
  20 H :    0.032867
  21 H :    0.032335
  22 H :   -0.007723
  23 H :    0.034919
  24 H :    0.041720
  25 H :    0.035091

  Mayer bond orders larger than 0.100000
B(  0-C ,  1-C ) :   1.0793 B(  0-C ,  2-C ) :   1.1556 B(  0-C ,  5-H ) :   0.3404
B(  0-C ,  7-H ) :   0.3543 B(  0-C , 10-H ) :   0.6897 B(  0-C , 11-H ) :   1.0584
B(  0-C , 14-H ) :   0.1609 B(  0-C , 15-H ) :   0.1483 B(  1-C ,  2-C ) :   0.1274
B(  1-C ,  6-H ) :   0.6072 B(  1-C ,  7-H ) :  -0.3519 B(  1-C , 10-H ) :   0.1918
B(  1-C , 17-H ) :   0.1068 B(  2-C , 10-H ) :   0.1220 B(  2-C , 13-C ) :   1.2629
B(  2-C , 14-H ) :   0.7821 B(  2-C , 15-H ) :   0.6790 B(  3-C ,  4-S ) :   0.9340
B(  3-C , 19-C ) :   1.2440 B(  3-C , 20-H ) :   0.8411 B(  3-C , 21-H ) :   0.9493
B(  3-C , 24-H ) :   0.1199 B(  3-C , 25-H ) :   0.1214 B(  4-S ,  8-O ) :   1.5794
B(  4-S ,  9-F ) :   0.5919 B(  4-S , 12-O ) :   1.3907 B(  5-H ,  6-H ) :  -0.1118
B(  5-H ,  7-H ) :   0.9142 B(  5-H ,  9-F ) :   0.1571 B(  5-H , 11-H ) :   0.1429
B(  5-H , 18-H ) :   0.1437 B(  6-H ,  7-H ) :   0.1071 B(  6-H , 11-H ) :  -0.1312
B(  6-H , 18-H ) :  -0.1249 B(  7-H , 10-H ) :  -0.1146 B(  7-H , 12-O ) :   0.1168
B(  7-H , 17-H ) :  -0.1168 B(  9-F , 12-O ) :   0.1043 B( 10-H , 11-H ) :  -0.1969
B( 10-H , 22-H ) :   0.1327 B( 11-H , 14-H ) :   0.1032 B( 13-C , 14-H ) :   0.1644
B( 13-C , 15-H ) :   0.2357 B( 13-C , 16-C ) :   1.1824 B( 13-C , 17-H ) :   0.9193
B( 13-C , 18-H ) :   0.8146 B( 13-C , 22-H ) :   0.1014 B( 13-C , 23-H ) :   0.1684
B( 16-C , 17-H ) :   0.1893 B( 16-C , 18-H ) :   0.1490 B( 16-C , 19-C ) :   1.2683
B( 16-C , 22-H ) :   0.8889 B( 16-C , 23-H ) :   0.8723 B( 16-C , 24-H ) :   0.1271
B( 16-C , 25-H ) :   0.2355 B( 19-C , 21-H ) :   0.1863 B( 19-C , 24-H ) :   0.7910
B( 19-C , 25-H ) :   0.7039

Dispersion correction           -0.012960698
FINAL SINGLE POINT ENERGY      -923.538226179212

DIPOLE MOMENT
-------------
                                X             Y             Z
Electronic contribution:    -15.50901      -5.61899      -7.59850
Nuclear contribution   :     17.25367       4.78608       6.55647
                        -----------------------------------------
Total Dipole Moment    :      1.74466      -0.83291      -1.04203
                        -----------------------------------------
Magnitude (a.u.)       :      2.19622
Magnitude (Debye)      :      5.58235

Rotational constants in cm-1:     0.048508     0.025517     0.020225
Rotational constants in MHz :  1454.219007   764.979652   606.316599

                             ****ORCA TERMINATED NORMALLY****
TOTAL RUN TIME: 0 days 0 hours 0 minutes 45 seconds 90 msec
