                         Program Version 5.0.0 -  RELEASE  -
|  1> !LC-PBE RIJCOSX def2-SVP def2/J TightSCF
|  2> *xyz -1 1
|  3> C          0.84888        2.66797       -4.30235
|  4> C          2.09343        1.86104       -4.65684
|  5> H          2.44481        2.04157       -5.67499
|  6> H          2.90175        2.13786       -3.98034
|  7> S          1.87964        0.07859       -4.46297
|  8> O          3.20757       -0.46611       -4.42026
|  9> O          1.07506       -0.05616       -3.26876
| 10> O          1.13166       -0.31996       -5.67903
| 11> H          0.05064        2.40112       -4.96303
| 12> H          1.06043        3.71210       -4.40203
| 13> H          0.56237        2.45684       -3.29327
| 14> *
| 15>
| 16> %MaxCore 64000
| 17>
| 18> %pal nprocs 4
| 19> end
| 20>
| 21> %scf
| 22>   MaxIter 150
| 23> end
| 24>
| 25>
| 26>                          ****END OF INPUT****

CARTESIAN COORDINATES (ANGSTROEM)
---------------------------------
  C      0.848880    2.667970   -4.302350
  C      2.093430    1.861040   -4.656840
  H      2.444810    2.041570   -5.674990
  H      2.901750    2.137860   -3.980340
  S      1.879640    0.078590   -4.462970
  O      3.207570   -0.466110   -4.420260
  O      1.075060   -0.056160   -3.268760
  O      1.131660   -0.319960   -5.679030
  H      0.050640    2.401120   -4.963030
  H      1.060430    3.712100   -4.402030
  H      0.562370    2.456840   -3.293270

 Total Charge           Charge          ....   -1
 Multiplicity           Mult            ....    1
 Number of Electrons    NEL             ....   58
 Basis Dimension        Dim             ....  113

ORBITAL ENERGIES
----------------

  NO   OCC          E(Eh)            E(eV)
   0   2.0000     -88.275284     -2402.0926
   1   2.0000     -18.742480      -510.0088
   2   2.0000     -18.739651      -509.9318
   3   2.0000     -18.723126      -509.4822
   4   2.0000      -9.974463      -271.4189
   5   2.0000      -9.973051      -271.3805
   6   2.0000      -7.905162      -215.1104
   7   2.0000      -5.927098      -161.2845
   8   2.0000      -5.926801      -161.2764
   9   2.0000      -5.926613      -161.2713
  10   2.0000      -1.085279       -29.5319
  11   2.0000      -0.931328       -25.3427
  12   2.0000      -0.902864       -24.5682
  13   2.0000      -0.795210       -21.6388
  14   2.0000      -0.655582       -17.8393
  15   2.0000      -0.514816       -14.0088
  16   2.0000      -0.454864       -12.3775
  17   2.0000      -0.449745       -12.2382
  18   2.0000      -0.406376       -11.0580
  19   2.0000      -0.388944       -10.5837
  20   2.0000      -0.380902       -10.3649
  21   2.0000      -0.354723        -9.6525
  22   2.0000      -0.335019        -9.1163
  23   2.0000      -0.267436        -7.2773
  24   2.0000      -0.265171        -7.2157
  25   2.0000      -0.229238        -6.2379
  26   2.0000      -0.216098        -5.8803
  27   2.0000      -0.204546        -5.5660
  28   2.0000      -0.171019        -4.6537
  29   0.0000       0.295867         8.0510
  30   0.0000       0.349246         9.5035
  31   0.0000       0.354166         9.6373
  32   0.0000       0.362264         9.8577
  33   0.0000       0.391083        10.6419

MULLIKEN ATOMIC CHARGES
-----------------------
   0 C :   -0.110487
   1 C :   -0.217486
   2 H :    0.056477
   3 H :    0.047363
   4 S :    0.820399
   5 O :   -0.552828
   6 O :   -0.565127
   7 O :   -0.608940
   8 H :    0.055635
   9 H :    0.013485
  10 H :    0.061508
Sum of atomic charges:   -1.0000000

LOEWDIN ATOMIC CHARGES
----------------------
   0 C :   -0.108821
   1 C :   -0.216630
   2 H :    0.022863
   3 H :    0.018088
   4 S :    1.080953
   5 O :   -0.602179
   6 O :   -0.610706
   7 O :   -0.658288
   8 H :    0.030433
   9 H :    0.013442
  10 H :    0.030846

  Mayer bond orders larger than 0.100000
B(  0-C ,  1-C ) :   1.0397 B(  0-C ,  8-H ) :   0.9721 B(  0-C ,  9-H ) :   0.9729
B(  0-C , 10-H ) :   0.9683 B(  1-C ,  2-H ) :   0.9535 B(  1-C ,  3-H ) :   0.9520
B(  1-C ,  4-S ) :   0.9078 B(  4-S ,  5-O ) :   1.6728 B(  4-S ,  6-O ) :   1.6450
B(  4-S ,  7-O ) :   1.6105

FINAL SINGLE POINT ENERGY      -701.518860532510

DIPOLE MOMENT
-------------
                                X             Y             Z
Electronic contribution:      1.63591      -7.73318       0.06585
Nuclear contribution   :     -1.55288       9.51857       0.00420
                        -----------------------------------------
Total Dipole Moment    :      0.08303       1.78539       0.07005
                        -----------------------------------------
Magnitude (a.u.)       :      1.78869
Magnitude (Debye)      :      4.54649

Rotational constants in cm-1:     0.163401     0.083833     0.082462
Rotational constants in MHz :  4898.624208  2513.264548  2472.149188

                             ****ORCA TERMINATED NORMALLY****
TOTAL RUN TIME: 0 days 0 hours 0 minutes 13 seconds 287 msec
