                         Program Version 5.0.0 -  RELEASE  -
|  1> !LC-PBE RIJCOSX def2-SVP def2/J TightSCF
|  2> *xyz 1 1
|  3> C         -0.46129        2.23469       -4.98962
|  4> C          0.84888        2.66797       -4.30235
|  5> C         -0.42384        2.39877       -6.47432
|  6> N         -0.95947        3.49265       -7.00740
|  7> N          0.14558        1.48689       -7.20399
|  8> H          0.56537        0.69681       -6.72386
|  9> H          0.22068        1.58177       -8.20752
| 10> H         -1.40624        4.18151       -6.40326
| 11> H         -0.93421        3.68160       -7.99947
| 12> H         -1.28888        2.82674       -4.59500
| 13> H         -0.65170        1.18634       -4.75655
| 14> H          1.66208        2.08894       -4.68750
| 15> H          0.76716        2.51042       -3.24717
| 16> H          1.02677        3.70527       -4.49537
| 17> *
| 18>
| 19> %MaxCore 64000
| 20>
| 21> %pal nprocs 4
| 22> end
| 23>
| 24> %scf
| 25>   MaxIter 150
| 26> end
| 27>
| 28>
| 29>                          ****END OF INPUT****

CARTESIAN COORDINATES (ANGSTROEM)
---------------------------------
  C     -0.461290    2.234690   -4.989620
  C      0.848880    2.667970   -4.302350
  C     -0.423840    2.398770   -6.474320
  N     -0.959470    3.492650   -7.007400
  N      0.145580    1.486890   -7.203990
  H      0.565370    0.696810   -6.723860
  H      0.220680    1.581770   -8.207520
  H     -1.406240    4.181510   -6.403260
  H     -0.934210    3.681600   -7.999470
  H     -1.288880    2.826740   -4.595000
  H     -0.651700    1.186340   -4.756550
  H      1.662080    2.088940   -4.687500
  H      0.767160    2.510420   -3.247170
  H      1.026770    3.705270   -4.495370

 Total Charge           Charge          ....    1
 Multiplicity           Mult            ....    1
 Number of Electrons    NEL             ....   40
 Basis Dimension        Dim             ....  115

ORBITAL ENERGIES
----------------

  NO   OCC          E(Eh)            E(eV)
   0   2.0000     -14.477778      -393.9604
   1   2.0000     -14.472896      -393.8275
   2   2.0000     -10.457844      -284.5724
   3   2.0000     -10.325645      -280.9751
   4   2.0000     -10.281795      -279.7819
   5   2.0000      -1.376428       -37.4545
   6   2.0000      -1.270308       -34.5668
   7   2.0000      -1.141412       -31.0594
   8   2.0000      -1.018779       -27.7224
   9   2.0000      -0.972297       -26.4575
  10   2.0000      -0.928713       -25.2716
  11   2.0000      -0.899899       -24.4875
  12   2.0000      -0.841895       -22.9091
  13   2.0000      -0.800641       -21.7866
  14   2.0000      -0.767016       -20.8716
  15   2.0000      -0.758473       -20.6391
  16   2.0000      -0.679393       -18.4872
  17   2.0000      -0.667690       -18.1688
  18   2.0000      -0.659235       -17.9387
  19   2.0000      -0.623055       -16.9542
  20   0.0000      -0.108063        -2.9405
  21   0.0000      -0.048077        -1.3082
  22   0.0000      -0.002866        -0.0780
  23   0.0000       0.000011         0.0003
  24   0.0000       0.025947         0.7060

MULLIKEN ATOMIC CHARGES
-----------------------
   0 C :   -0.161764
   1 C :   -0.114497
   2 C :   -0.012337
   3 N :   -0.080751
   4 N :   -0.032003
   5 H :    0.215989
   6 H :    0.206437
   7 H :    0.217247
   8 H :    0.201962
   9 H :    0.118781
  10 H :    0.132132
  11 H :    0.085694
  12 H :    0.129142
  13 H :    0.093969
Sum of atomic charges:    1.0000000

LOEWDIN ATOMIC CHARGES
----------------------
   0 C :   -0.064128
   1 C :   -0.055586
   2 C :    0.159429
   3 N :    0.067906
   4 N :    0.091534
   5 H :    0.132130
   6 H :    0.123635
   7 H :    0.131255
   8 H :    0.118760
   9 H :    0.067293
  10 H :    0.071475
  11 H :    0.043524
  12 H :    0.064547
  13 H :    0.048226

  Mayer bond orders larger than 0.100000
B(  0-C ,  1-C ) :   1.0440 B(  0-C ,  2-C ) :   1.0120 B(  0-C ,  9-H ) :   0.9354
B(  0-C , 10-H ) :   0.9339 B(  1-C , 11-H ) :   0.9734 B(  1-C , 12-H ) :   0.9651
B(  1-C , 13-H ) :   0.9705 B(  2-C ,  3-N ) :   1.4979 B(  2-C ,  4-N ) :   1.5344
B(  3-N ,  7-H ) :   0.9160 B(  3-N ,  8-H ) :   0.9277 B(  4-N ,  5-H ) :   0.9129
B(  4-N ,  6-H ) :   0.9235

FINAL SINGLE POINT ENERGY      -228.122917196902

DIPOLE MOMENT
-------------
                                X             Y             Z
Electronic contribution:     -1.56391      -0.26914      -3.92357
Nuclear contribution   :      1.33202       0.27544       2.83701
                        -----------------------------------------
Total Dipole Moment    :     -0.23189       0.00630      -1.08656
                        -----------------------------------------
Magnitude (a.u.)       :      1.11105
Magnitude (Debye)      :      2.82407

Rotational constants in cm-1:     0.258570     0.126296     0.098869
Rotational constants in MHz :  7751.748523  3786.267300  2964.011691

                             ****ORCA TERMINATED NORMALLY****
TOTAL RUN TIME: 0 days 0 hours 0 minutes 14 seconds 267 msec
