                         Program Version 5.0.0 -  RELEASE  -
|  1> !LC-PBE RIJCOSX def2-TZVP def2/J TightSCF xyzfile
|  2>
|  3> *xyzfile 0 1 B.xyz
|  4>
|  5> %MaxCore 64000
|  6>
|  7> %pal nprocs 18
|  8> end
|  9>
| 10> %scf
| 11>   MaxIter 150
| 12> end
| 13>
| 14>
| 15>                          ****END OF INPUT****

CARTESIAN COORDINATES (ANGSTROEM)
---------------------------------
  C     -0.461293    2.234686   -4.989619
  C      0.848883    2.667967   -4.302351
  C      2.093434    1.861037   -4.656845
  H      2.444814    2.041567   -5.674990
  H      2.901748    2.137864   -3.980338
  S      1.879644    0.078594   -4.462965
  C     -0.423841    2.398772   -6.474317
  N     -0.959467    3.492647   -7.007401
  N      0.145585    1.486891   -7.203987
  H      0.565371    0.696807   -6.723858
  H      0.220682    1.581768   -8.207520
  H     -1.406243    4.181507   -6.403261
  H     -0.934215    3.681601   -7.999468
  O      3.207574   -0.466111   -4.420259
  O      1.075064   -0.056160   -3.268758
  O      1.131661   -0.319960   -5.679031
  H      0.668432    2.559427   -3.232850
  H      1.034074    3.729426   -4.497081
  H     -1.288884    2.826737   -4.594997
  H     -0.651696    1.186343   -4.756552

 Total Charge           Charge          ....    0
 Multiplicity           Mult            ....    1
 Number of Electrons    NEL             ....   88
 Basis Dimension        Dim             ....  376

ORBITAL ENERGIES
----------------

  NO   OCC          E(Eh)            E(eV)
   0   2.0000     -88.421023     -2406.0584
   1   2.0000     -18.915095      -514.7059
   2   2.0000     -18.900103      -514.2979
   3   2.0000     -18.897891      -514.2378
   4   2.0000     -14.324736      -389.7959
   5   2.0000     -14.292507      -388.9189
   6   2.0000     -10.299895      -280.2744
   7   2.0000     -10.168192      -276.6906
   8   2.0000     -10.147872      -276.1376
   9   2.0000     -10.123922      -275.4859
  10   2.0000      -8.031743      -218.5548
  11   2.0000      -6.049008      -164.6019
  12   2.0000      -6.047597      -164.5635
  13   2.0000      -6.045989      -164.5197
  14   2.0000      -1.253855       -34.1191
  15   2.0000      -1.237232       -33.6668
  16   2.0000      -1.134925       -30.8829
  17   2.0000      -1.101286       -29.9675
  18   2.0000      -1.099757       -29.9259
  19   2.0000      -1.015410       -27.6307
  20   2.0000      -0.929178       -25.2842
  21   2.0000      -0.853919       -23.2363
  22   2.0000      -0.810973       -22.0677
  23   2.0000      -0.782330       -21.2883
  24   2.0000      -0.758453       -20.6385
  25   2.0000      -0.709033       -19.2938
  26   2.0000      -0.670973       -18.2581
  27   2.0000      -0.666762       -18.1435
  28   2.0000      -0.631975       -17.1969
  29   2.0000      -0.617707       -16.8087
  30   2.0000      -0.590216       -16.0606
  31   2.0000      -0.580828       -15.8051
  32   2.0000      -0.558108       -15.1869
  33   2.0000      -0.550271       -14.9736
  34   2.0000      -0.525353       -14.2956
  35   2.0000      -0.508935       -13.8488
  36   2.0000      -0.489995       -13.3334
  37   2.0000      -0.477295       -12.9879
  38   2.0000      -0.446464       -12.1489
  39   2.0000      -0.441478       -12.0132
  40   2.0000      -0.405111       -11.0236
  41   2.0000      -0.396053       -10.7771
  42   2.0000      -0.380804       -10.3622
  43   2.0000      -0.352841        -9.6013
  44   0.0000       0.030669         0.8345
  45   0.0000       0.048357         1.3159
  46   0.0000       0.086077         2.3423
  47   0.0000       0.113505         3.0886
  48   0.0000       0.134346         3.6557

MULLIKEN ATOMIC CHARGES
-----------------------
   0 C :   -0.461190
   1 C :   -0.267279
   2 C :   -0.433096
   3 H :    0.174571
   4 H :    0.187481
   5 S :    0.777882
   6 C :    0.298567
   7 N :   -0.410408
   8 N :   -0.313995
   9 H :    0.331910
  10 H :    0.260520
  11 H :    0.299320
  12 H :    0.278537
  13 O :   -0.465099
  14 O :   -0.483475
  15 O :   -0.574196
  16 H :    0.200793
  17 H :    0.151212
  18 H :    0.170173
  19 H :    0.277772
Sum of atomic charges:    0.0000000

LOEWDIN ATOMIC CHARGES
----------------------
   0 C :   -0.226296
   1 C :   -0.291298
   2 C :   -0.405028
   3 H :    0.133748
   4 H :    0.149631
   5 S :    0.413140
   6 C :   -0.304194
   7 N :    0.052422
   8 N :    0.124967
   9 H :    0.154410
  10 H :    0.188004
  11 H :    0.202200
  12 H :    0.187587
  13 O :   -0.316241
  14 O :   -0.335322
  15 O :   -0.376775
  16 H :    0.165557
  17 H :    0.143392
  18 H :    0.157132
  19 H :    0.182965

  Mayer bond orders larger than 0.100000
B(  0-C ,  1-C ) :   0.8982 B(  0-C ,  6-C ) :   0.9417 B(  0-C , 18-H ) :   0.9723
B(  0-C , 19-H ) :   0.9310 B(  1-C ,  2-C ) :   0.9358 B(  1-C , 16-H ) :   0.9566
B(  1-C , 17-H ) :   0.9595 B(  2-C ,  3-H ) :   0.9525 B(  2-C ,  4-H ) :   0.9586
B(  2-C ,  5-S ) :   0.9218 B(  5-S , 13-O ) :   1.9384 B(  5-S , 14-O ) :   1.7978
B(  5-S , 15-O ) :   1.4948 B(  6-C ,  7-N ) :   1.3513 B(  6-C ,  8-N ) :   1.5891
B(  7-N , 11-H ) :   0.8921 B(  7-N , 12-H ) :   0.9014 B(  8-N ,  9-H ) :   0.7388
B(  8-N , 10-H ) :   0.9063 B(  9-H , 15-O ) :   0.2060

FINAL SINGLE POINT ENERGY      -890.245592118626

DIPOLE MOMENT
-------------
                                X             Y             Z
Electronic contribution:      3.07087      -7.54643       1.04549
Nuclear contribution   :     -5.91573      12.15027      -4.18945
                        -----------------------------------------
Total Dipole Moment    :     -2.84486       4.60384      -3.14397
                        -----------------------------------------
Magnitude (a.u.)       :      6.25884
Magnitude (Debye)      :     15.90871

Rotational constants in cm-1:     0.082044     0.024757     0.022371
Rotational constants in MHz :  2459.631375   742.181961   670.660570

                             ****ORCA TERMINATED NORMALLY****
TOTAL RUN TIME: 0 days 0 hours 0 minutes 31 seconds 331 msec
