                         Program Version 5.0.0 -  RELEASE  -
|  1> !LC-PBE RIJCOSX def2-SVP def2/J TightSCF
|  2> *xyz 0 1
|  3> C          0.84888        2.66797       -4.30235
|  4> C          2.09343        1.86104       -4.65684
|  5> H          2.44481        2.04157       -5.67499
|  6> H          2.90175        2.13786       -3.98034
|  7> S          1.87964        0.07859       -4.46297
|  8> F          3.20757       -0.46611       -4.42026
|  9> O          1.07506       -0.05616       -3.26876
| 10> O          1.13166       -0.31996       -5.67903
| 11> H          0.05064        2.40112       -4.96303
| 12> H          1.06043        3.71210       -4.40203
| 13> H          0.56237        2.45684       -3.29327
| 14> *
| 15>
| 16> %MaxCore 64000
| 17>
| 18> %pal nprocs 4
| 19> end
| 20>
| 21> %scf
| 22>   MaxIter 150
| 23> end
| 24>
| 25>
| 26>                          ****END OF INPUT****

CARTESIAN COORDINATES (ANGSTROEM)
---------------------------------
  C      0.848880    2.667970   -4.302350
  C      2.093430    1.861040   -4.656840
  H      2.444810    2.041570   -5.674990
  H      2.901750    2.137860   -3.980340
  S      1.879640    0.078590   -4.462970
  F      3.207570   -0.466110   -4.420260
  O      1.075060   -0.056160   -3.268760
  O      1.131660   -0.319960   -5.679030
  H      0.050640    2.401120   -4.963030
  H      1.060430    3.712100   -4.402030
  H      0.562370    2.456840   -3.293270

 Total Charge           Charge          ....    0
 Multiplicity           Mult            ....    1
 Number of Electrons    NEL             ....   58
 Basis Dimension        Dim             ....  113

ORBITAL ENERGIES
----------------

  NO   OCC          E(Eh)            E(eV)
   0   2.0000     -88.550968     -2409.5943
   1   2.0000     -24.620949      -669.9701
   2   2.0000     -18.991088      -516.7738
   3   2.0000     -18.976134      -516.3669
   4   2.0000     -10.185724      -277.1676
   5   2.0000     -10.142167      -275.9824
   6   2.0000      -8.183308      -222.6791
   7   2.0000      -6.209774      -168.9765
   8   2.0000      -6.202328      -168.7739
   9   2.0000      -6.201308      -168.7462
  10   2.0000      -1.541521       -41.9469
  11   2.0000      -1.271798       -34.6074
  12   2.0000      -1.156610       -31.4730
  13   2.0000      -0.993797       -27.0426
  14   2.0000      -0.895013       -24.3545
  15   2.0000      -0.834373       -22.7044
  16   2.0000      -0.744737       -20.2653
  17   2.0000      -0.744115       -20.2484
  18   2.0000      -0.699888       -19.0449
  19   2.0000      -0.639615       -17.4048
  20   2.0000      -0.626246       -17.0410
  21   2.0000      -0.574566       -15.6347
  22   2.0000      -0.568028       -15.4568
  23   2.0000      -0.542434       -14.7604
  24   2.0000      -0.520235       -14.1563
  25   2.0000      -0.515600       -14.0302
  26   2.0000      -0.460731       -12.5371
  27   2.0000      -0.442614       -12.0441
  28   2.0000      -0.430378       -11.7112
  29   0.0000       0.136296         3.7088
  30   0.0000       0.143954         3.9172
  31   0.0000       0.175563         4.7773
  32   0.0000       0.182372         4.9626
  33   0.0000       0.193263         5.2590

MULLIKEN ATOMIC CHARGES
-----------------------
   0 C :   -0.123448
   1 C :   -0.250310
   2 H :    0.124751
   3 H :    0.107080
   4 S :    0.904647
   5 F :   -0.144235
   6 O :   -0.430084
   7 O :   -0.469864
   8 H :    0.097850
   9 H :    0.084808
  10 H :    0.098805
Sum of atomic charges:   -0.0000000

LOEWDIN ATOMIC CHARGES
----------------------
   0 C :   -0.084186
   1 C :   -0.180004
   2 H :    0.051627
   3 H :    0.042463
   4 S :    1.138600
   5 F :   -0.098597
   6 O :   -0.484352
   7 O :   -0.528513
   8 H :    0.048452
   9 H :    0.047450
  10 H :    0.047060

  Mayer bond orders larger than 0.100000
B(  0-C ,  1-C ) :   1.0463 B(  0-C ,  8-H ) :   0.9717 B(  0-C ,  9-H ) :   0.9681
B(  0-C , 10-H ) :   0.9667 B(  1-C ,  2-H ) :   0.9359 B(  1-C ,  3-H ) :   0.9359
B(  1-C ,  4-S ) :   0.9312 B(  4-S ,  5-F ) :   1.0660 B(  4-S ,  6-O ) :   1.7939
B(  4-S ,  7-O ) :   1.7592

FINAL SINGLE POINT ENERGY      -725.984261819577

DIPOLE MOMENT
-------------
                                X             Y             Z
Electronic contribution:      4.24817      -9.33932       0.11384
Nuclear contribution   :     -3.08754      10.54185      -0.04092
                        -----------------------------------------
Total Dipole Moment    :      1.16063       1.20253       0.07292
                        -----------------------------------------
Magnitude (a.u.)       :      1.67286
Magnitude (Debye)      :      4.25207

Rotational constants in cm-1:     0.158925     0.081210     0.079022
Rotational constants in MHz :  4764.450166  2434.603461  2369.014434

                             ****ORCA TERMINATED NORMALLY****
TOTAL RUN TIME: 0 days 0 hours 0 minutes 13 seconds 820 msec
