                         Program Version 5.0.0 -  RELEASE  -
|  1> !LC-PBE RIJCOSX def2-SVP def2/J TightSCF
|  2> *xyz 0 1
|  3> C         -0.46129        2.23469       -4.98962
|  4> C          0.84888        2.66797       -4.30235
|  5> C         -0.42384        2.39877       -6.47432
|  6> C         -0.95947        3.49265       -7.00740
|  7> N          0.14558        1.48689       -7.20399
|  8> H          0.56537        0.69681       -6.72386
|  9> H          0.22068        1.58177       -8.20752
| 10> H         -1.40624        4.18151       -6.40326
| 11> H         -0.93421        3.68160       -7.99947
| 12> H         -1.28888        2.82674       -4.59500
| 13> H         -0.65170        1.18634       -4.75655
| 14> H          1.66208        2.08894       -4.68750
| 15> H          0.76716        2.51042       -3.24717
| 16> H          1.02677        3.70527       -4.49537
| 17> *
| 18>
| 19> %MaxCore 64000
| 20>
| 21> %pal nprocs 4
| 22> end
| 23>
| 24> %scf
| 25>   MaxIter 150
| 26> end
| 27>
| 28>
| 29>                          ****END OF INPUT****

CARTESIAN COORDINATES (ANGSTROEM)
---------------------------------
  C     -0.461290    2.234690   -4.989620
  C      0.848880    2.667970   -4.302350
  C     -0.423840    2.398770   -6.474320
  C     -0.959470    3.492650   -7.007400
  N      0.145580    1.486890   -7.203990
  H      0.565370    0.696810   -6.723860
  H      0.220680    1.581770   -8.207520
  H     -1.406240    4.181510   -6.403260
  H     -0.934210    3.681600   -7.999470
  H     -1.288880    2.826740   -4.595000
  H     -0.651700    1.186340   -4.756550
  H      1.662080    2.088940   -4.687500
  H      0.767160    2.510420   -3.247170
  H      1.026770    3.705270   -4.495370

 Total Charge           Charge          ....    0
 Multiplicity           Mult            ....    1
 Number of Electrons    NEL             ....   40
 Basis Dimension        Dim             ....  115

ORBITAL ENERGIES
----------------

  NO   OCC          E(Eh)            E(eV)
   0   2.0000     -14.223865      -387.0511
   1   2.0000     -10.146148      -276.0907
   2   2.0000     -10.124209      -275.4937
   3   2.0000     -10.111532      -275.1488
   4   2.0000     -10.052409      -273.5400
   5   2.0000      -1.097326       -29.8598
   6   2.0000      -0.946755       -25.7625
   7   2.0000      -0.873500       -23.7691
   8   2.0000      -0.792430       -21.5631
   9   2.0000      -0.715652       -19.4739
  10   2.0000      -0.671795       -18.2805
  11   2.0000      -0.624321       -16.9886
  12   2.0000      -0.578394       -15.7389
  13   2.0000      -0.559350       -15.2207
  14   2.0000      -0.527307       -14.3487
  15   2.0000      -0.514536       -14.0012
  16   2.0000      -0.480903       -13.0860
  17   2.0000      -0.465649       -12.6710
  18   2.0000      -0.460428       -12.5289
  19   2.0000      -0.299761        -8.1569
  20   0.0000       0.138798         3.7769
  21   0.0000       0.159392         4.3373
  22   0.0000       0.190245         5.1768
  23   0.0000       0.196936         5.3589
  24   0.0000       0.211916         5.7665

MULLIKEN ATOMIC CHARGES
-----------------------
   0 C :   -0.101059
   1 C :   -0.097839
   2 C :   -0.115857
   3 C :   -0.153038
   4 N :   -0.123596
   5 H :    0.139751
   6 H :    0.148486
   7 H :    0.008833
   8 H :   -0.005055
   9 H :    0.071289
  10 H :    0.052201
  11 H :    0.046902
  12 H :    0.063969
  13 H :    0.065011
Sum of atomic charges:   -0.0000000

LOEWDIN ATOMIC CHARGES
----------------------
   0 C :   -0.056635
   1 C :   -0.078830
   2 C :    0.001948
   3 C :   -0.210160
   4 N :   -0.015453
   5 H :    0.080579
   6 H :    0.088223
   7 H :    0.009975
   8 H :    0.001184
   9 H :    0.047873
  10 H :    0.031599
  11 H :    0.028310
  12 H :    0.033954
  13 H :    0.037432

  Mayer bond orders larger than 0.100000
B(  0-C ,  1-C ) :   1.0653 B(  0-C ,  2-C ) :   1.0108 B(  0-C ,  9-H ) :   0.9507
B(  0-C , 10-H ) :   0.9513 B(  1-C , 11-H ) :   0.9750 B(  1-C , 12-H ) :   0.9764
B(  1-C , 13-H ) :   0.9735 B(  2-C ,  3-C ) :   1.8663 B(  2-C ,  4-N ) :   1.2686
B(  3-C ,  7-H ) :   0.9532 B(  3-C ,  8-H ) :   0.9674 B(  4-N ,  5-H ) :   0.9499
B(  4-N ,  6-H ) :   0.9488

FINAL SINGLE POINT ENERGY      -211.681173232882

DIPOLE MOMENT
-------------
                                X             Y             Z
Electronic contribution:     -0.67964      -1.22891      -2.57303
Nuclear contribution   :      1.14741       0.51394       2.60761
                        -----------------------------------------
Total Dipole Moment    :      0.46778      -0.71497       0.03458
                        -----------------------------------------
Magnitude (a.u.)       :      0.85510
Magnitude (Debye)      :      2.17349

Rotational constants in cm-1:     0.269157     0.129188     0.102123
Rotational constants in MHz :  8069.118715  3872.945231  3061.580645

                             ****ORCA TERMINATED NORMALLY****
TOTAL RUN TIME: 0 days 0 hours 0 minutes 14 seconds 249 msec
