                         Program Version 5.0.0 -  RELEASE  -
|  1> !LC-PBE RIJCOSX def2-SVP def2/J TightSCF
|  2> *xyz 0 1
|  3> C          0.84888        2.66797       -4.30235
|  4> C          2.09343        1.86104       -4.65684
|  5> H          2.44481        2.04157       -5.67499
|  6> H          2.90175        2.13786       -3.98034
|  7> S          1.87964        0.07859       -4.46297
|  8> O          3.20757       -0.46611       -4.42026
|  9> F          1.07506       -0.05616       -3.26876
| 10> O          1.13166       -0.31996       -5.67903
| 11> H          0.05064        2.40112       -4.96303
| 12> H          1.06043        3.71210       -4.40203
| 13> H          0.56237        2.45684       -3.29327
| 14> *
| 15>
| 16> %MaxCore 64000
| 17>
| 18> %pal nprocs 4
| 19> end
| 20>
| 21> %scf
| 22>   MaxIter 150
| 23> end
| 24>
| 25>
| 26>                          ****END OF INPUT****

CARTESIAN COORDINATES (ANGSTROEM)
---------------------------------
  C      0.848880    2.667970   -4.302350
  C      2.093430    1.861040   -4.656840
  H      2.444810    2.041570   -5.674990
  H      2.901750    2.137860   -3.980340
  S      1.879640    0.078590   -4.462970
  O      3.207570   -0.466110   -4.420260
  F      1.075060   -0.056160   -3.268760
  O      1.131660   -0.319960   -5.679030
  H      0.050640    2.401120   -4.963030
  H      1.060430    3.712100   -4.402030
  H      0.562370    2.456840   -3.293270

 Total Charge           Charge          ....    0
 Multiplicity           Mult            ....    1
 Number of Electrons    NEL             ....   58
 Basis Dimension        Dim             ....  113

ORBITAL ENERGIES
----------------

  NO   OCC          E(Eh)            E(eV)
   0   2.0000     -88.550243     -2409.5746
   1   2.0000     -24.615343      -669.8175
   2   2.0000     -18.994639      -516.8704
   3   2.0000     -18.976209      -516.3689
   4   2.0000     -10.185416      -277.1593
   5   2.0000     -10.150198      -276.2009
   6   2.0000      -8.182527      -222.6579
   7   2.0000      -6.209097      -168.9581
   8   2.0000      -6.201538      -168.7524
   9   2.0000      -6.200534      -168.7251
  10   2.0000      -1.532397       -41.6986
  11   2.0000      -1.275498       -34.7081
  12   2.0000      -1.159987       -31.5648
  13   2.0000      -0.999941       -27.2098
  14   2.0000      -0.887289       -24.1444
  15   2.0000      -0.838262       -22.8103
  16   2.0000      -0.754308       -20.5258
  17   2.0000      -0.736722       -20.0472
  18   2.0000      -0.688484       -18.7346
  19   2.0000      -0.641322       -17.4513
  20   2.0000      -0.619760       -16.8645
  21   2.0000      -0.591677       -16.1004
  22   2.0000      -0.573009       -15.5924
  23   2.0000      -0.548606       -14.9283
  24   2.0000      -0.529813       -14.4169
  25   2.0000      -0.516871       -14.0648
  26   2.0000      -0.461663       -12.5625
  27   2.0000      -0.443761       -12.0753
  28   2.0000      -0.433607       -11.7990
  29   0.0000       0.122513         3.3338
  30   0.0000       0.158642         4.3169
  31   0.0000       0.173043         4.7088
  32   0.0000       0.187007         5.0887
  33   0.0000       0.194256         5.2860

MULLIKEN ATOMIC CHARGES
-----------------------
   0 C :   -0.145479
   1 C :   -0.250434
   2 H :    0.147471
   3 H :    0.118623
   4 S :    0.904913
   5 O :   -0.413027
   6 F :   -0.157210
   7 O :   -0.470578
   8 H :    0.097086
   9 H :    0.090959
  10 H :    0.077678
Sum of atomic charges:    0.0000000

LOEWDIN ATOMIC CHARGES
----------------------
   0 C :   -0.099668
   1 C :   -0.175746
   2 H :    0.066414
   3 H :    0.047747
   4 S :    1.140691
   5 O :   -0.473309
   6 F :   -0.108435
   7 O :   -0.529719
   8 H :    0.045567
   9 H :    0.049705
  10 H :    0.036752

  Mayer bond orders larger than 0.100000
B(  0-C ,  1-C ) :   1.0252 B(  0-C ,  8-H ) :   0.9707 B(  0-C ,  9-H ) :   0.9671
B(  0-C , 10-H ) :   0.9746 B(  1-C ,  2-H ) :   0.9365 B(  1-C ,  3-H ) :   0.9389
B(  1-C ,  4-S ) :   0.9366 B(  4-S ,  5-O ) :   1.8190 B(  4-S ,  6-F ) :   1.0451
B(  4-S ,  7-O ) :   1.7593

FINAL SINGLE POINT ENERGY      -725.989308943188

DIPOLE MOMENT
-------------
                                X             Y             Z
Electronic contribution:      0.56309      -8.60353       2.08301
Nuclear contribution   :     -0.86540      10.11467      -1.24082
                        -----------------------------------------
Total Dipole Moment    :     -0.30231       1.51115       0.84219
                        -----------------------------------------
Magnitude (a.u.)       :      1.75620
Magnitude (Debye)      :      4.46391

Rotational constants in cm-1:     0.154065     0.083345     0.080357
Rotational constants in MHz :  4618.752213  2498.631937  2409.037217

                             ****ORCA TERMINATED NORMALLY****
TOTAL RUN TIME: 0 days 0 hours 0 minutes 13 seconds 266 msec
