                         Program Version 5.0.0 -  RELEASE  -
|  1> !LC-PBE RIJCOSX def2-SVP def2/J TightSCF
|  2> *xyz 0 1
|  3> C         -0.46129        2.23469       -4.98962
|  4> C          0.84888        2.66797       -4.30235
|  5> C         -0.42384        2.39877       -6.47432
|  6> N         -0.95947        3.49265       -7.00740
|  7> C          0.14558        1.48689       -7.20399
|  8> H          0.56537        0.69681       -6.72386
|  9> H          0.22068        1.58177       -8.20752
| 10> H         -1.40624        4.18151       -6.40326
| 11> H         -0.93421        3.68160       -7.99947
| 12> H         -1.28888        2.82674       -4.59500
| 13> H         -0.65170        1.18634       -4.75655
| 14> H          1.66208        2.08894       -4.68750
| 15> H          0.76716        2.51042       -3.24717
| 16> H          1.02677        3.70527       -4.49537
| 17> *
| 18>
| 19> %MaxCore 64000
| 20>
| 21> %pal nprocs 4
| 22> end
| 23>
| 24> %scf
| 25>   MaxIter 150
| 26> end
| 27>
| 28>
| 29>                          ****END OF INPUT****

CARTESIAN COORDINATES (ANGSTROEM)
---------------------------------
  C     -0.461290    2.234690   -4.989620
  C      0.848880    2.667970   -4.302350
  C     -0.423840    2.398770   -6.474320
  N     -0.959470    3.492650   -7.007400
  C      0.145580    1.486890   -7.203990
  H      0.565370    0.696810   -6.723860
  H      0.220680    1.581770   -8.207520
  H     -1.406240    4.181510   -6.403260
  H     -0.934210    3.681600   -7.999470
  H     -1.288880    2.826740   -4.595000
  H     -0.651700    1.186340   -4.756550
  H      1.662080    2.088940   -4.687500
  H      0.767160    2.510420   -3.247170
  H      1.026770    3.705270   -4.495370

 Total Charge           Charge          ....    0
 Multiplicity           Mult            ....    1
 Number of Electrons    NEL             ....   40
 Basis Dimension        Dim             ....  115

ORBITAL ENERGIES
----------------

  NO   OCC          E(Eh)            E(eV)
   0   2.0000     -14.219650      -386.9363
   1   2.0000     -10.143611      -276.0217
   2   2.0000     -10.123765      -275.4816
   3   2.0000     -10.109852      -275.1031
   4   2.0000     -10.051760      -273.5223
   5   2.0000      -1.084866       -29.5207
   6   2.0000      -0.947590       -25.7852
   7   2.0000      -0.877125       -23.8678
   8   2.0000      -0.793585       -21.5945
   9   2.0000      -0.709537       -19.3075
  10   2.0000      -0.661432       -17.9985
  11   2.0000      -0.626405       -17.0453
  12   2.0000      -0.580418       -15.7940
  13   2.0000      -0.553005       -15.0480
  14   2.0000      -0.527175       -14.3452
  15   2.0000      -0.516553       -14.0561
  16   2.0000      -0.477908       -13.0045
  17   2.0000      -0.464149       -12.6301
  18   2.0000      -0.460968       -12.5436
  19   2.0000      -0.304881        -8.2962
  20   0.0000       0.140872         3.8333
  21   0.0000       0.160981         4.3805
  22   0.0000       0.190160         5.1745
  23   0.0000       0.195665         5.3243
  24   0.0000       0.214866         5.8468

MULLIKEN ATOMIC CHARGES
-----------------------
   0 C :   -0.099097
   1 C :   -0.098834
   2 C :   -0.086410
   3 N :   -0.169922
   4 C :   -0.133395
   5 H :    0.007212
   6 H :   -0.003180
   7 H :    0.139431
   8 H :    0.143388
   9 H :    0.044050
  10 H :    0.076836
  11 H :    0.063605
  12 H :    0.061700
  13 H :    0.054616
Sum of atomic charges:    0.0000000

LOEWDIN ATOMIC CHARGES
----------------------
   0 C :   -0.056916
   1 C :   -0.076540
   2 C :    0.007238
   3 N :   -0.036554
   4 C :   -0.194268
   5 H :    0.011489
   6 H :    0.004984
   7 H :    0.078967
   8 H :    0.083053
   9 H :    0.030072
  10 H :    0.047662
  11 H :    0.035926
  12 H :    0.032713
  13 H :    0.032173

  Mayer bond orders larger than 0.100000
B(  0-C ,  1-C ) :   1.0710 B(  0-C ,  2-C ) :   0.9985 B(  0-C ,  9-H ) :   0.9530
B(  0-C , 10-H ) :   0.9524 B(  1-C , 11-H ) :   0.9759 B(  1-C , 12-H ) :   0.9765
B(  1-C , 13-H ) :   0.9734 B(  2-C ,  3-N ) :   1.2336 B(  2-C ,  4-C ) :   1.9018
B(  3-N ,  7-H ) :   0.9526 B(  3-N ,  8-H ) :   0.9536 B(  4-C ,  5-H ) :   0.9464
B(  4-C ,  6-H ) :   0.9654

FINAL SINGLE POINT ENERGY      -211.681233538177

DIPOLE MOMENT
-------------
                                X             Y             Z
Electronic contribution:     -1.72736       0.63859      -2.38776
Nuclear contribution   :      1.40335       0.04939       2.56207
                        -----------------------------------------
Total Dipole Moment    :     -0.32401       0.68798       0.17432
                        -----------------------------------------
Magnitude (a.u.)       :      0.78018
Magnitude (Debye)      :      1.98307

Rotational constants in cm-1:     0.271383     0.128194     0.101873
Rotational constants in MHz :  8135.853259  3843.152748  3054.074278

                             ****ORCA TERMINATED NORMALLY****
TOTAL RUN TIME: 0 days 0 hours 0 minutes 15 seconds 461 msec
