                         Program Version 5.0.0 -  RELEASE  -
|  1> !LC-PBE RIJCOSX def2-SVP def2/J TightSCF
|  2> *xyz 0 1
|  3> C          0.84888        2.66797       -4.30235
|  4> C          2.09343        1.86104       -4.65684
|  5> H          2.44481        2.04157       -5.67499
|  6> H          2.90175        2.13786       -3.98034
|  7> S          1.87964        0.07859       -4.46297
|  8> O          3.20757       -0.46611       -4.42026
|  9> O          1.07506       -0.05616       -3.26876
| 10> F          1.13166       -0.31996       -5.67903
| 11> H          0.05064        2.40112       -4.96303
| 12> H          1.06043        3.71210       -4.40203
| 13> H          0.56237        2.45684       -3.29327
| 14> *
| 15>
| 16> %MaxCore 64000
| 17>
| 18> %pal nprocs 4
| 19> end
| 20>
| 21> %scf
| 22>   MaxIter 150
| 23> end
| 24>
| 25>
| 26>                          ****END OF INPUT****

CARTESIAN COORDINATES (ANGSTROEM)
---------------------------------
  C      0.848880    2.667970   -4.302350
  C      2.093430    1.861040   -4.656840
  H      2.444810    2.041570   -5.674990
  H      2.901750    2.137860   -3.980340
  S      1.879640    0.078590   -4.462970
  O      3.207570   -0.466110   -4.420260
  O      1.075060   -0.056160   -3.268760
  F      1.131660   -0.319960   -5.679030
  H      0.050640    2.401120   -4.963030
  H      1.060430    3.712100   -4.402030
  H      0.562370    2.456840   -3.293270

 Total Charge           Charge          ....    0
 Multiplicity           Mult            ....    1
 Number of Electrons    NEL             ....   58
 Basis Dimension        Dim             ....  113

ORBITAL ENERGIES
----------------

  NO   OCC          E(Eh)            E(eV)
   0   2.0000     -88.549686     -2409.5595
   1   2.0000     -24.595529      -669.2784
   2   2.0000     -18.994936      -516.8785
   3   2.0000     -18.991944      -516.7971
   4   2.0000     -10.184630      -277.1379
   5   2.0000     -10.144061      -276.0339
   6   2.0000      -8.181762      -222.6371
   7   2.0000      -6.208061      -168.9299
   8   2.0000      -6.201061      -168.7394
   9   2.0000      -6.200002      -168.7106
  10   2.0000      -1.501330       -40.8533
  11   2.0000      -1.283960       -34.9383
  12   2.0000      -1.180815       -32.1316
  13   2.0000      -0.995717       -27.0948
  14   2.0000      -0.877888       -23.8886
  15   2.0000      -0.827560       -22.5190
  16   2.0000      -0.734151       -19.9773
  17   2.0000      -0.714173       -19.4336
  18   2.0000      -0.691753       -18.8236
  19   2.0000      -0.640116       -17.4184
  20   2.0000      -0.622977       -16.9521
  21   2.0000      -0.594455       -16.1760
  22   2.0000      -0.569677       -15.5017
  23   2.0000      -0.540889       -14.7183
  24   2.0000      -0.537035       -14.6135
  25   2.0000      -0.513559       -13.9746
  26   2.0000      -0.470885       -12.8134
  27   2.0000      -0.455157       -12.3854
  28   2.0000      -0.448883       -12.2147
  29   0.0000       0.128447         3.4952
  30   0.0000       0.154654         4.2083
  31   0.0000       0.176166         4.7937
  32   0.0000       0.186140         5.0651
  33   0.0000       0.192811         5.2467

MULLIKEN ATOMIC CHARGES
-----------------------
   0 C :   -0.134201
   1 C :   -0.260247
   2 H :    0.118351
   3 H :    0.140552
   4 S :    0.915146
   5 O :   -0.418371
   6 O :   -0.434134
   7 F :   -0.193803
   8 H :    0.078124
   9 H :    0.084431
  10 H :    0.104152
Sum of atomic charges:   -0.0000000

LOEWDIN ATOMIC CHARGES
----------------------
   0 C :   -0.095795
   1 C :   -0.181020
   2 H :    0.047743
   3 H :    0.062887
   4 S :    1.145272
   5 O :   -0.477114
   6 O :   -0.487104
   7 F :   -0.148728
   8 H :    0.039398
   9 H :    0.046866
  10 H :    0.047596

  Mayer bond orders larger than 0.100000
B(  0-C ,  1-C ) :   1.0295 B(  0-C ,  8-H ) :   0.9760 B(  0-C ,  9-H ) :   0.9667
B(  0-C , 10-H ) :   0.9664 B(  1-C ,  2-H ) :   0.9388 B(  1-C ,  3-H ) :   0.9380
B(  1-C ,  4-S ) :   0.9282 B(  4-S ,  5-O ) :   1.8233 B(  4-S ,  6-O ) :   1.7991
B(  4-S ,  7-F ) :   1.0083

FINAL SINGLE POINT ENERGY      -726.007017012156

DIPOLE MOMENT
-------------
                                X             Y             Z
Electronic contribution:      0.65525      -9.09143      -2.08358
Nuclear contribution   :     -0.92438      10.38956       1.27076
                        -----------------------------------------
Total Dipole Moment    :     -0.26913       1.29813      -0.81282
                        -----------------------------------------
Magnitude (a.u.)       :      1.55507
Magnitude (Debye)      :      3.95268

Rotational constants in cm-1:     0.154243     0.082247     0.080562
Rotational constants in MHz :  4624.087322  2465.703680  2415.175852

                             ****ORCA TERMINATED NORMALLY****
TOTAL RUN TIME: 0 days 0 hours 0 minutes 15 seconds 360 msec
