                         Program Version 5.0.0 -  RELEASE  -
|  1> !LC-PBE RIJCOSX def2-TZVP def2/J TightSCF xyzfile
|  2>
|  3> *xyzfile 0 1 D2.xyz
|  4>
|  5> %MaxCore 64000
|  6>
|  7> %pal nprocs 18
|  8> end
|  9>
| 10> %scf
| 11>   MaxIter 150
| 12> end
| 13>
| 14>
| 15>                          ****END OF INPUT****

CARTESIAN COORDINATES (ANGSTROEM)
---------------------------------
  C     -0.461293    2.234686   -4.989619
  C      0.848883    2.667967   -4.302351
  C      2.093434    1.861037   -4.656845
  H      2.444814    2.041567   -5.674990
  H      2.901748    2.137864   -3.980338
  S      1.879644    0.078594   -4.462965
  C     -0.423841    2.398772   -6.474317
  N     -0.959467    3.492647   -7.007401
  C      0.145585    1.486891   -7.203987
  H      0.565371    0.696807   -6.723858
  H      0.220682    1.581768   -8.207520
  H     -1.406243    4.181507   -6.403261
  H     -0.934215    3.681601   -7.999468
  F      3.207574   -0.466111   -4.420259
  O      1.075064   -0.056160   -3.268758
  O      1.131661   -0.319960   -5.679031
  H      0.668432    2.559427   -3.232850
  H      1.034074    3.729426   -4.497081
  H     -1.288884    2.826737   -4.594997
  H     -0.651696    1.186343   -4.756552

 Total Charge           Charge          ....    0
 Multiplicity           Mult            ....    1
 Number of Electrons    NEL             ....   88
 Basis Dimension        Dim             ....  376

ORBITAL ENERGIES
----------------

  NO   OCC          E(Eh)            E(eV)
   0   2.0000     -88.537145     -2409.2182
   1   2.0000     -24.621974      -669.9980
   2   2.0000     -18.994618      -516.8698
   3   2.0000     -18.982885      -516.5506
   4   2.0000     -14.203511      -386.4972
   5   2.0000     -10.173757      -276.8420
   6   2.0000     -10.142179      -275.9827
   7   2.0000     -10.126518      -275.5566
   8   2.0000     -10.116145      -275.2743
   9   2.0000     -10.017703      -272.5956
  10   2.0000      -8.148538      -221.7330
  11   2.0000      -6.168755      -167.8603
  12   2.0000      -6.161805      -167.6712
  13   2.0000      -6.161560      -167.6646
  14   2.0000      -1.555205       -42.3193
  15   2.0000      -1.282262       -34.8921
  16   2.0000      -1.177552       -32.0428
  17   2.0000      -1.092867       -29.7384
  18   2.0000      -1.008487       -27.4423
  19   2.0000      -0.939018       -25.5520
  20   2.0000      -0.889437       -24.2028
  21   2.0000      -0.868113       -23.6226
  22   2.0000      -0.801783       -21.8176
  23   2.0000      -0.754348       -20.5268
  24   2.0000      -0.746216       -20.3056
  25   2.0000      -0.714747       -19.4493
  26   2.0000      -0.712990       -19.4014
  27   2.0000      -0.659324       -17.9411
  28   2.0000      -0.645176       -17.5561
  29   2.0000      -0.634440       -17.2640
  30   2.0000      -0.618460       -16.8292
  31   2.0000      -0.599243       -16.3062
  32   2.0000      -0.582226       -15.8432
  33   2.0000      -0.548037       -14.9129
  34   2.0000      -0.535950       -14.5839
  35   2.0000      -0.528225       -14.3737
  36   2.0000      -0.510078       -13.8799
  37   2.0000      -0.491026       -13.3615
  38   2.0000      -0.473593       -12.8871
  39   2.0000      -0.468145       -12.7389
  40   2.0000      -0.453305       -12.3351
  41   2.0000      -0.450673       -12.2634
  42   2.0000      -0.423371       -11.5205
  43   2.0000      -0.301115        -8.1938
  44   0.0000       0.106329         2.8934
  45   0.0000       0.119585         3.2541
  46   0.0000       0.132283         3.5996
  47   0.0000       0.134529         3.6607
  48   0.0000       0.155482         4.2309

MULLIKEN ATOMIC CHARGES
-----------------------
   0 C :   -0.485437
   1 C :   -0.249524
   2 C :   -0.424620
   3 H :    0.235309
   4 H :    0.191965
   5 S :    0.779180
   6 C :    0.266922
   7 N :   -0.506515
   8 C :   -0.526509
   9 H :    0.189388
  10 H :    0.121329
  11 H :    0.245069
  12 H :    0.252409
  13 F :   -0.062566
  14 O :   -0.378714
  15 O :   -0.401006
  16 H :    0.185013
  17 H :    0.168063
  18 H :    0.151660
  19 H :    0.248583
Sum of atomic charges:    0.0000000

LOEWDIN ATOMIC CHARGES
----------------------
   0 C :   -0.232037
   1 C :   -0.284029
   2 C :   -0.380925
   3 H :    0.155849
   4 H :    0.145960
   5 S :    0.519265
   6 C :   -0.386523
   7 N :   -0.029001
   8 C :   -0.271391
   9 H :    0.094309
  10 H :    0.102080
  11 H :    0.170977
  12 H :    0.173028
  13 F :    0.122171
  14 O :   -0.257019
  15 O :   -0.266057
  16 H :    0.155389
  17 H :    0.154679
  18 H :    0.147731
  19 H :    0.165548

  Mayer bond orders larger than 0.100000
B(  0-C ,  1-C ) :   0.9021 B(  0-C ,  6-C ) :   0.8526 B(  0-C , 18-H ) :   0.9933
B(  0-C , 19-H ) :   0.9962 B(  1-C ,  2-C ) :   0.9412 B(  1-C , 16-H ) :   0.9727
B(  1-C , 17-H ) :   0.9511 B(  2-C ,  3-H ) :   0.9257 B(  2-C ,  4-H ) :   0.9427
B(  2-C ,  5-S ) :   0.9477 B(  5-S , 13-F ) :   1.2026 B(  5-S , 14-O ) :   1.9263
B(  5-S , 15-O ) :   1.8173 B(  6-C ,  7-N ) :   1.1036 B(  6-C ,  8-C ) :   1.7248
B(  7-N , 11-H ) :   0.9261 B(  7-N , 12-H ) :   0.9243 B(  8-C ,  9-H ) :   0.9802
B(  8-C , 10-H ) :   1.0001

FINAL SINGLE POINT ENERGY      -898.106804324110

DIPOLE MOMENT
-------------
                                X             Y             Z
Electronic contribution:      9.32131     -12.41888       5.43394
Nuclear contribution   :     -8.42493      13.96425      -5.19491
                        -----------------------------------------
Total Dipole Moment    :      0.89638       1.54537       0.23903
                        -----------------------------------------
Magnitude (a.u.)       :      1.80244
Magnitude (Debye)      :      4.58144

Rotational constants in cm-1:     0.082815     0.024151     0.022015
Rotational constants in MHz :  2482.732265   724.035221   660.002136

                             ****ORCA TERMINATED NORMALLY****
TOTAL RUN TIME: 0 days 0 hours 0 minutes 30 seconds 197 msec
