                         Program Version 5.0.0 -  RELEASE  -
|  1> !LC-PBE RIJCOSX def2-TZVP def2/J TightSCF xyzfile
|  2>
|  3> *xyzfile 0 1 D4.xyz
|  4>
|  5> %MaxCore 64000
|  6>
|  7> %pal nprocs 18
|  8> end
|  9>
| 10> %scf
| 11>   MaxIter 150
| 12> end
| 13>
| 14>
| 15>                          ****END OF INPUT****

CARTESIAN COORDINATES (ANGSTROEM)
---------------------------------
  C     -0.461293    2.234686   -4.989619
  C      0.848883    2.667967   -4.302351
  C      2.093434    1.861037   -4.656845
  H      2.444814    2.041567   -5.674990
  H      2.901748    2.137864   -3.980338
  S      1.879644    0.078594   -4.462965
  C     -0.423841    2.398772   -6.474317
  N     -0.959467    3.492647   -7.007401
  C      0.145585    1.486891   -7.203987
  H      0.565371    0.696807   -6.723858
  H      0.220682    1.581768   -8.207520
  H     -1.406243    4.181507   -6.403261
  H     -0.934215    3.681601   -7.999468
  O      3.207574   -0.466111   -4.420259
  F      1.075064   -0.056160   -3.268758
  O      1.131661   -0.319960   -5.679031
  H      0.668432    2.559427   -3.232850
  H      1.034074    3.729426   -4.497081
  H     -1.288884    2.826737   -4.594997
  H     -0.651696    1.186343   -4.756552

 Total Charge           Charge          ....    0
 Multiplicity           Mult            ....    1
 Number of Electrons    NEL             ....   88
 Basis Dimension        Dim             ....  376

ORBITAL ENERGIES
----------------

  NO   OCC          E(Eh)            E(eV)
   0   2.0000     -88.535901     -2409.1844
   1   2.0000     -24.616719      -669.8550
   2   2.0000     -18.996777      -516.9286
   3   2.0000     -18.981760      -516.5199
   4   2.0000     -14.207595      -386.6083
   5   2.0000     -10.173385      -276.8319
   6   2.0000     -10.148624      -276.1581
   7   2.0000     -10.131641      -275.6960
   8   2.0000     -10.127525      -275.5840
   9   2.0000     -10.021781      -272.7065
  10   2.0000      -8.147272      -221.6985
  11   2.0000      -6.167817      -167.8348
  12   2.0000      -6.160431      -167.6338
  13   2.0000      -6.160124      -167.6255
  14   2.0000      -1.547096       -42.0986
  15   2.0000      -1.284212       -34.9452
  16   2.0000      -1.180275       -32.1169
  17   2.0000      -1.097684       -29.8695
  18   2.0000      -1.015850       -27.6427
  19   2.0000      -0.939185       -25.5565
  20   2.0000      -0.888077       -24.1658
  21   2.0000      -0.872209       -23.7340
  22   2.0000      -0.803787       -21.8722
  23   2.0000      -0.758507       -20.6400
  24   2.0000      -0.748358       -20.3638
  25   2.0000      -0.719493       -19.5784
  26   2.0000      -0.705339       -19.1932
  27   2.0000      -0.662941       -18.0396
  28   2.0000      -0.645642       -17.5688
  29   2.0000      -0.627030       -17.0623
  30   2.0000      -0.624375       -16.9901
  31   2.0000      -0.605637       -16.4802
  32   2.0000      -0.585160       -15.9230
  33   2.0000      -0.554519       -15.0892
  34   2.0000      -0.541645       -14.7389
  35   2.0000      -0.534504       -14.5446
  36   2.0000      -0.516154       -14.0453
  37   2.0000      -0.507000       -13.7962
  38   2.0000      -0.474532       -12.9127
  39   2.0000      -0.468357       -12.7447
  40   2.0000      -0.459951       -12.5159
  41   2.0000      -0.455636       -12.3985
  42   2.0000      -0.421174       -11.4607
  43   2.0000      -0.305304        -8.3077
  44   0.0000       0.097693         2.6584
  45   0.0000       0.120326         3.2742
  46   0.0000       0.129036         3.5113
  47   0.0000       0.135785         3.6949
  48   0.0000       0.148346         4.0367

MULLIKEN ATOMIC CHARGES
-----------------------
   0 C :   -0.481737
   1 C :   -0.274591
   2 C :   -0.412371
   3 H :    0.245590
   4 H :    0.202163
   5 S :    0.779471
   6 C :    0.271617
   7 N :   -0.508558
   8 C :   -0.526137
   9 H :    0.198242
  10 H :    0.124429
  11 H :    0.244348
  12 H :    0.254535
  13 O :   -0.374139
  14 F :   -0.068277
  15 O :   -0.402805
  16 H :    0.177598
  17 H :    0.169403
  18 H :    0.155475
  19 H :    0.225743
Sum of atomic charges:   -0.0000000

LOEWDIN ATOMIC CHARGES
----------------------
   0 C :   -0.237661
   1 C :   -0.296205
   2 C :   -0.372015
   3 H :    0.164991
   4 H :    0.150529
   5 S :    0.521079
   6 C :   -0.387965
   7 N :   -0.029078
   8 C :   -0.263985
   9 H :    0.094817
  10 H :    0.103368
  11 H :    0.170857
  12 H :    0.174120
  13 O :   -0.249128
  14 F :    0.114295
  15 O :   -0.266223
  16 H :    0.147705
  17 H :    0.155105
  18 H :    0.148184
  19 H :    0.157210

  Mayer bond orders larger than 0.100000
B(  0-C ,  1-C ) :   0.8782 B(  0-C ,  6-C ) :   0.8424 B(  0-C , 18-H ) :   0.9919
B(  0-C , 19-H ) :   1.0099 B(  1-C ,  2-C ) :   0.9310 B(  1-C , 16-H ) :   0.9851
B(  1-C , 17-H ) :   0.9508 B(  2-C ,  3-H ) :   0.9238 B(  2-C ,  4-H ) :   0.9493
B(  2-C ,  5-S ) :   0.9416 B(  5-S , 13-O ) :   2.0021 B(  5-S , 14-F ) :   1.1683
B(  5-S , 15-O ) :   1.8064 B(  6-C ,  7-N ) :   1.1045 B(  6-C ,  8-C ) :   1.7310
B(  7-N , 11-H ) :   0.9260 B(  7-N , 12-H ) :   0.9237 B(  8-C ,  9-H ) :   0.9818
B(  8-C , 10-H ) :   0.9997

FINAL SINGLE POINT ENERGY      -898.110257873112

DIPOLE MOMENT
-------------
                                X             Y             Z
Electronic contribution:      5.55525     -11.64385       7.38879
Nuclear contribution   :     -6.09390      13.51614      -6.45360
                        -----------------------------------------
Total Dipole Moment    :     -0.53865       1.87228       0.93519
                        -----------------------------------------
Magnitude (a.u.)       :      2.16106
Magnitude (Debye)      :      5.49297

Rotational constants in cm-1:     0.081469     0.024519     0.022336
Rotational constants in MHz :  2442.393231   735.066768   669.628729

                             ****ORCA TERMINATED NORMALLY****
TOTAL RUN TIME: 0 days 0 hours 0 minutes 32 seconds 442 msec
