                         Program Version 5.0.0 -  RELEASE  -
|  1> !LC-PBE RIJCOSX def2-TZVP def2/J TightSCF xyzfile
|  2>
|  3> *xyzfile 0 1 D6.xyz
|  4>
|  5> %MaxCore 64000
|  6>
|  7> %pal nprocs 18
|  8> end
|  9>
| 10> %scf
| 11>   MaxIter 150
| 12> end
| 13>
| 14>
| 15>                          ****END OF INPUT****

CARTESIAN COORDINATES (ANGSTROEM)
---------------------------------
  C     -0.461293    2.234686   -4.989619
  C      0.848883    2.667967   -4.302351
  C      2.093434    1.861037   -4.656845
  H      2.444814    2.041567   -5.674990
  H      2.901748    2.137864   -3.980338
  S      1.879644    0.078594   -4.462965
  C     -0.423841    2.398772   -6.474317
  N     -0.959467    3.492647   -7.007401
  C      0.145585    1.486891   -7.203987
  H      0.565371    0.696807   -6.723858
  H      0.220682    1.581768   -8.207520
  H     -1.406243    4.181507   -6.403261
  H     -0.934215    3.681601   -7.999468
  O      3.207574   -0.466111   -4.420259
  O      1.075064   -0.056160   -3.268758
  F      1.131661   -0.319960   -5.679031
  H      0.668432    2.559427   -3.232850
  H      1.034074    3.729426   -4.497081
  H     -1.288884    2.826737   -4.594997
  H     -0.651696    1.186343   -4.756552

 Total Charge           Charge          ....    0
 Multiplicity           Mult            ....    1
 Number of Electrons    NEL             ....   88
 Basis Dimension        Dim             ....  376

ORBITAL ENERGIES
----------------

  NO   OCC          E(Eh)            E(eV)
   0   2.0000     -88.531235     -2409.0574
   1   2.0000     -24.596276      -669.2987
   2   2.0000     -18.994506      -516.8668
   3   2.0000     -18.991692      -516.7902
   4   2.0000     -14.221181      -386.9780
   5   2.0000     -10.171010      -276.7673
   6   2.0000     -10.148942      -276.1668
   7   2.0000     -10.144397      -276.0431
   8   2.0000     -10.131650      -275.6962
   9   2.0000     -10.045837      -273.3611
  10   2.0000      -8.142621      -221.5720
  11   2.0000      -6.163218      -167.7097
  12   2.0000      -6.156103      -167.5161
  13   2.0000      -6.155179      -167.4909
  14   2.0000      -1.520917       -41.3862
  15   2.0000      -1.289211       -35.0812
  16   2.0000      -1.190655       -32.3994
  17   2.0000      -1.111038       -30.2329
  18   2.0000      -1.014032       -27.5932
  19   2.0000      -0.944192       -25.6928
  20   2.0000      -0.895215       -24.3600
  21   2.0000      -0.875246       -23.8167
  22   2.0000      -0.802775       -21.8446
  23   2.0000      -0.759412       -20.6646
  24   2.0000      -0.727111       -19.7857
  25   2.0000      -0.710288       -19.3279
  26   2.0000      -0.701420       -19.0866
  27   2.0000      -0.680985       -18.5305
  28   2.0000      -0.649204       -17.6657
  29   2.0000      -0.635744       -17.2995
  30   2.0000      -0.615910       -16.7598
  31   2.0000      -0.602269       -16.3886
  32   2.0000      -0.592180       -16.1140
  33   2.0000      -0.555052       -15.1037
  34   2.0000      -0.542586       -14.7645
  35   2.0000      -0.534105       -14.5337
  36   2.0000      -0.516117       -14.0443
  37   2.0000      -0.508756       -13.8440
  38   2.0000      -0.484814       -13.1925
  39   2.0000      -0.474601       -12.9146
  40   2.0000      -0.469656       -12.7800
  41   2.0000      -0.459486       -12.5032
  42   2.0000      -0.457038       -12.4366
  43   2.0000      -0.323024        -8.7899
  44   0.0000       0.098852         2.6899
  45   0.0000       0.117626         3.2008
  46   0.0000       0.125680         3.4199
  47   0.0000       0.138247         3.7619
  48   0.0000       0.147917         4.0250

MULLIKEN ATOMIC CHARGES
-----------------------
   0 C :   -0.505517
   1 C :   -0.231436
   2 C :   -0.441751
   3 H :    0.235527
   4 H :    0.211464
   5 S :    0.778239
   6 C :    0.297390
   7 N :   -0.498973
   8 C :   -0.522979
   9 H :    0.138222
  10 H :    0.133978
  11 H :    0.251774
  12 H :    0.256447
  13 O :   -0.383948
  14 O :   -0.388145
  15 F :   -0.080256
  16 H :    0.190436
  17 H :    0.164729
  18 H :    0.159023
  19 H :    0.235777
Sum of atomic charges:   -0.0000000

LOEWDIN ATOMIC CHARGES
----------------------
   0 C :   -0.233842
   1 C :   -0.289664
   2 C :   -0.376442
   3 H :    0.153203
   4 H :    0.158938
   5 S :    0.522835
   6 C :   -0.378076
   7 N :   -0.018382
   8 C :   -0.284215
   9 H :    0.093488
  10 H :    0.106091
  11 H :    0.175011
  12 H :    0.175636
  13 O :   -0.253243
  14 O :   -0.261005
  15 F :    0.089542
  16 H :    0.156799
  17 H :    0.152895
  18 H :    0.150865
  19 H :    0.159565

  Mayer bond orders larger than 0.100000
B(  0-C ,  1-C ) :   0.8944 B(  0-C ,  6-C ) :   0.8431 B(  0-C , 18-H ) :   0.9911
B(  0-C , 19-H ) :   1.0039 B(  1-C ,  2-C ) :   0.9254 B(  1-C , 16-H ) :   0.9711
B(  1-C , 17-H ) :   0.9485 B(  2-C ,  3-H ) :   0.9316 B(  2-C ,  4-H ) :   0.9418
B(  2-C ,  5-S ) :   0.9342 B(  5-S , 13-O ) :   1.9959 B(  5-S , 14-O ) :   1.9157
B(  5-S , 15-F ) :   1.1021 B(  6-C ,  7-N ) :   1.1305 B(  6-C ,  8-C ) :   1.7016
B(  7-N , 11-H ) :   0.9223 B(  7-N , 12-H ) :   0.9224 B(  8-C ,  9-H ) :   1.0160
B(  8-C , 10-H ) :   0.9945

FINAL SINGLE POINT ENERGY      -898.127044386302

DIPOLE MOMENT
-------------
                                X             Y             Z
Electronic contribution:      5.53526     -11.91983       3.16023
Nuclear contribution   :     -6.15577      13.80449      -3.81895
                        -----------------------------------------
Total Dipole Moment    :     -0.62051       1.88467      -0.65872
                        -----------------------------------------
Magnitude (a.u.)       :      2.09067
Magnitude (Debye)      :      5.31407

Rotational constants in cm-1:     0.081431     0.024887     0.022470
Rotational constants in MHz :  2441.231544   746.086417   673.646914

                             ****ORCA TERMINATED NORMALLY****
TOTAL RUN TIME: 0 days 0 hours 0 minutes 31 seconds 414 msec
