                         Program Version 5.0.0 -  RELEASE  -
|  1> !PBE0 D3BJ RIJCOSX def2-TZVP def2/J TightSCF
|  2> *xyz -1 1
|  3> C          1.44442        5.26658       -0.97546
|  4> O          1.56525        4.23349       -1.86489
|  5> C          0.14812        5.21087       -0.13809
|  6> H          1.47425        6.26464       -1.47692
|  7> H          2.28962        5.30327       -0.26445
|  8> H         -0.69779        5.17417       -0.79230
|  9> H          0.08430        6.08276        0.47887
| 10> H          0.15965        4.33708        0.47938
| 11> *
| 12> %MaxCore 64000
| 13>
| 14> %pal nprocs 4
| 15> end
| 16>
| 17> %scf
| 18>   MaxIter 150
| 19> end
| 20>
| 21>
| 22>                          ****END OF INPUT****

CARTESIAN COORDINATES (ANGSTROEM)
---------------------------------
  C      1.444420    5.266580   -0.975460
  O      1.565250    4.233490   -1.864890
  C      0.148120    5.210870   -0.138090
  H      1.474250    6.264640   -1.476920
  H      2.289620    5.303270   -0.264450
  H     -0.697790    5.174170   -0.792300
  H      0.084300    6.082760    0.478870
  H      0.159650    4.337080    0.479380

 Total Charge           Charge          ....   -1
 Multiplicity           Mult            ....    1
 Number of Electrons    NEL             ....   26
 Basis Dimension        Dim             ....  123

ORBITAL ENERGIES
----------------

  NO   OCC          E(Eh)            E(eV)
   0   2.0000     -18.849695      -512.9263
   1   2.0000     -10.023181      -272.7446
   2   2.0000     -10.003054      -272.1969
   3   2.0000      -0.690954       -18.8018
   4   2.0000      -0.539448       -14.6791
   5   2.0000      -0.381352       -10.3771
   6   2.0000      -0.254404        -6.9227
   7   2.0000      -0.233216        -6.3461
   8   2.0000      -0.176562        -4.8045
   9   2.0000      -0.159040        -4.3277
  10   2.0000      -0.112442        -3.0597
  11   2.0000       0.033790         0.9195
  12   2.0000       0.036885         1.0037
  13   0.0000       0.226120         6.1530
  14   0.0000       0.262212         7.1351
  15   0.0000       0.286776         7.8036
  16   0.0000       0.292060         7.9474
  17   0.0000       0.323789         8.8108

MULLIKEN ATOMIC CHARGES
-----------------------
   0 C :    0.030152
   1 O :   -0.772432
   2 C :   -0.169461
   3 H :   -0.067199
   4 H :   -0.062191
   5 H :    0.032040
   6 H :   -0.023510
   7 H :    0.032602
Sum of atomic charges:   -1.0000000

LOEWDIN ATOMIC CHARGES
----------------------
   0 C :   -0.558477
   1 O :   -0.426952
   2 C :   -0.368028
   3 H :    0.051445
   4 H :    0.053687
   5 H :    0.087456
   6 H :    0.073755
   7 H :    0.087113

  Mayer bond orders larger than 0.100000
B(  0-C ,  1-O ) :   1.6160 B(  0-C ,  2-C ) :   0.9022 B(  0-C ,  3-H ) :   0.9208
B(  0-C ,  4-H ) :   0.9206 B(  1-O ,  2-C ) :  -0.2468 B(  2-C ,  5-H ) :   0.9611
B(  2-C ,  6-H ) :   0.9234 B(  2-C ,  7-H ) :   0.9652

Dispersion correction           -0.003045972
FINAL SINGLE POINT ENERGY      -154.297221216854

DIPOLE MOMENT
-------------
                                X             Y             Z
Electronic contribution:      1.20544      -1.77983      -2.18655
Nuclear contribution   :     -1.83256       2.47114       3.17273
                        -----------------------------------------
Total Dipole Moment    :     -0.62712       0.69132       0.98618
                        -----------------------------------------
Magnitude (a.u.)       :      1.35785
Magnitude (Debye)      :      3.45138

Rotational constants in cm-1:     1.286062     0.322579     0.284728
Rotational constants in MHz : 38555.180127  9670.683110  8535.939140

                             ****ORCA TERMINATED NORMALLY****
TOTAL RUN TIME: 0 days 0 hours 0 minutes 9 seconds 585 msec
