                         Program Version 5.0.0 -  RELEASE  -
|  1> !PBE0 D3BJ RIJCOSX def2-TZVP def2/J TightSCF
|  2> *xyz 1 1
|  3> C         -0.70169        4.07250       -4.00392
|  4> N          0.68053        4.61482       -4.04800
|  5> H          0.69993        5.58489       -4.38827
|  6> H          1.27804        4.05598       -4.66824
|  7> H          1.08573        4.53358       -3.10652
|  8> C         -1.70347        5.09320       -3.47740
|  9> H         -0.99590        3.74039       -5.00065
| 10> H         -0.64358        3.20191       -3.35153
| 11> H         -1.73704        5.93384       -4.13853
| 12> H         -1.40338        5.41759       -2.50291
| 13> H         -2.67335        4.64479       -3.42108
| 14> *
| 15> %MaxCore 64000
| 16>
| 17> %pal nprocs 4
| 18> end
| 19>
| 20> %scf
| 21>   MaxIter 150
| 22> end
| 23>
| 24>
| 25>                          ****END OF INPUT****

CARTESIAN COORDINATES (ANGSTROEM)
---------------------------------
  C     -0.701690    4.072500   -4.003920
  N      0.680530    4.614820   -4.048000
  H      0.699930    5.584890   -4.388270
  H      1.278040    4.055980   -4.668240
  H      1.085730    4.533580   -3.106520
  C     -1.703470    5.093200   -3.477400
  H     -0.995900    3.740390   -5.000650
  H     -0.643580    3.201910   -3.351530
  H     -1.737040    5.933840   -4.138530
  H     -1.403380    5.417590   -2.502910
  H     -2.673350    4.644790   -3.421080

 Total Charge           Charge          ....    1
 Multiplicity           Mult            ....    1
 Number of Electrons    NEL             ....   26
 Basis Dimension        Dim             ....  141

ORBITAL ENERGIES
----------------

  NO   OCC          E(Eh)            E(eV)
   0   2.0000     -14.719571      -400.5399
   1   2.0000     -10.474756      -285.0326
   2   2.0000     -10.394130      -282.8387
   3   2.0000      -1.244457       -33.8634
   4   2.0000      -0.988395       -26.8956
   5   2.0000      -0.864276       -23.5181
   6   2.0000      -0.820607       -22.3298
   7   2.0000      -0.802681       -21.8421
   8   2.0000      -0.711456       -19.3597
   9   2.0000      -0.656315       -17.8593
  10   2.0000      -0.596283       -16.2257
  11   2.0000      -0.580046       -15.7838
  12   2.0000      -0.562816       -15.3150
  13   0.0000      -0.186243        -5.0679
  14   0.0000      -0.126868        -3.4522
  15   0.0000      -0.120363        -3.2752
  16   0.0000      -0.102036        -2.7765
  17   0.0000      -0.064287        -1.7493

MULLIKEN ATOMIC CHARGES
-----------------------
   0 C :   -0.218328
   1 N :   -0.287826
   2 H :    0.329197
   3 H :    0.334530
   4 H :    0.334209
   5 C :   -0.371710
   6 H :    0.194394
   7 H :    0.190401
   8 H :    0.157859
   9 H :    0.151339
  10 H :    0.185934
Sum of atomic charges:    1.0000000

LOEWDIN ATOMIC CHARGES
----------------------
   0 C :   -0.284262
   1 N :    0.171790
   2 H :    0.222605
   3 H :    0.223411
   4 H :    0.226710
   5 C :   -0.279796
   6 H :    0.154294
   7 H :    0.153036
   8 H :    0.131949
   9 H :    0.131150
  10 H :    0.149112

  Mayer bond orders larger than 0.100000
B(  0-C ,  1-N ) :   0.8831 B(  0-C ,  5-C ) :   1.0237 B(  0-C ,  6-H ) :   0.9461
B(  0-C ,  7-H ) :   0.9489 B(  1-N ,  2-H ) :   0.8697 B(  1-N ,  3-H ) :   0.8753
B(  1-N ,  4-H ) :   0.8759 B(  5-C ,  8-H ) :   0.9562 B(  5-C ,  9-H ) :   0.9563
B(  5-C , 10-H ) :   0.9529

Dispersion correction           -0.005014749
FINAL SINGLE POINT ENERGY      -135.422497188105

DIPOLE MOMENT
-------------
                                X             Y             Z
Electronic contribution:      1.77224      -0.32828      -0.45637
Nuclear contribution   :     -0.23930       0.27560       0.19485
                        -----------------------------------------
Total Dipole Moment    :      1.53294      -0.05268      -0.26152
                        -----------------------------------------
Magnitude (a.u.)       :      1.55598
Magnitude (Debye)      :      3.95498

Rotational constants in cm-1:     1.018556     0.279088     0.248454
Rotational constants in MHz : 30535.536069  8366.847891  7448.451392

                             ****ORCA TERMINATED NORMALLY****
TOTAL RUN TIME: 0 days 0 hours 0 minutes 10 seconds 627 msec
