                         Program Version 5.0.0 -  RELEASE  -
|  1> !PBE0 D3BJ RIJCOSX def2-TZVP def2/J TightSCF
|  2> *xyz 0 1
|  3> C          1.44442        5.26658       -0.97546
|  4> F          1.56525        4.23349       -1.86489
|  5> C          0.14812        5.21087       -0.13809
|  6> H          1.47425        6.26464       -1.47692
|  7> H          2.28962        5.30327       -0.26445
|  8> H         -0.69779        5.17417       -0.79230
|  9> H          0.08430        6.08276        0.47887
| 10> H          0.15965        4.33708        0.47938
| 11> *
| 12> %MaxCore 64000
| 13>
| 14> %pal nprocs 4
| 15> end
| 16>
| 17> %scf
| 18>   MaxIter 150
| 19> end
| 20>
| 21>
| 22>                          ****END OF INPUT****

CARTESIAN COORDINATES (ANGSTROEM)
---------------------------------
  C      1.444420    5.266580   -0.975460
  F      1.565250    4.233490   -1.864890
  C      0.148120    5.210870   -0.138090
  H      1.474250    6.264640   -1.476920
  H      2.289620    5.303270   -0.264450
  H     -0.697790    5.174170   -0.792300
  H      0.084300    6.082760    0.478870
  H      0.159650    4.337080    0.479380

 Total Charge           Charge          ....    0
 Multiplicity           Mult            ....    1
 Number of Electrons    NEL             ....   26
 Basis Dimension        Dim             ....  123

ORBITAL ENERGIES
----------------

  NO   OCC          E(Eh)            E(eV)
   0   2.0000     -24.756288      -673.6528
   1   2.0000     -10.298494      -280.2363
   2   2.0000     -10.214536      -277.9517
   3   2.0000      -1.229906       -33.4675
   4   2.0000      -0.785821       -21.3833
   5   2.0000      -0.651384       -17.7250
   6   2.0000      -0.523607       -14.2481
   7   2.0000      -0.508771       -13.8444
   8   2.0000      -0.473145       -12.8749
   9   2.0000      -0.419203       -11.4071
  10   2.0000      -0.414005       -11.2657
  11   2.0000      -0.348078        -9.4717
  12   2.0000      -0.341062        -9.2808
  13   0.0000       0.051676         1.4062
  14   0.0000       0.089997         2.4489
  15   0.0000       0.106278         2.8920
  16   0.0000       0.109277         2.9736
  17   0.0000       0.123400         3.3579

MULLIKEN ATOMIC CHARGES
-----------------------
   0 C :    0.015112
   1 F :   -0.226528
   2 C :   -0.341139
   3 H :    0.094889
   4 H :    0.095134
   5 H :    0.123890
   6 H :    0.115805
   7 H :    0.122837
Sum of atomic charges:   -0.0000000

LOEWDIN ATOMIC CHARGES
----------------------
   0 C :   -0.373568
   1 F :    0.095697
   2 C :   -0.313273
   3 H :    0.118002
   4 H :    0.116234
   5 H :    0.117821
   6 H :    0.122229
   7 H :    0.116858

  Mayer bond orders larger than 0.100000
B(  0-C ,  1-F ) :   1.0064 B(  0-C ,  2-C ) :   1.0111 B(  0-C ,  3-H ) :   0.9673
B(  0-C ,  4-H ) :   0.9669 B(  2-C ,  5-H ) :   0.9671 B(  2-C ,  6-H ) :   0.9563
B(  2-C ,  7-H ) :   0.9684

Dispersion correction           -0.002807364
FINAL SINGLE POINT ENERGY      -178.937372985710

DIPOLE MOMENT
-------------
                                X             Y             Z
Electronic contribution:      2.30472      -2.76105      -3.71668
Nuclear contribution   :     -2.43357       3.25919       4.19687
                        -----------------------------------------
Total Dipole Moment    :     -0.12885       0.49815       0.48019
                        -----------------------------------------
Magnitude (a.u.)       :      0.70380
Magnitude (Debye)      :      1.78892

Rotational constants in cm-1:     1.264662     0.300144     0.266170
Rotational constants in MHz : 37913.611527  8998.095216  7979.576054

                             ****ORCA TERMINATED NORMALLY****
TOTAL RUN TIME: 0 days 0 hours 0 minutes 8 seconds 573 msec
