                         Program Version 5.0.0 -  RELEASE  -
|  1> !PBE0 D3BJ RIJCOSX def2-TZVP def2/J TightSCF
|  2> *xyz 0 1
|  3> C         -0.70169        4.07250       -4.00392
|  4> C          0.68053        4.61482       -4.04800
|  5> H          0.69993        5.58489       -4.38827
|  6> H          1.27804        4.05598       -4.66824
|  7> H          1.08573        4.53358       -3.10652
|  8> C         -1.70347        5.09320       -3.47740
|  9> H         -0.99590        3.74039       -5.00065
| 10> H         -0.64358        3.20191       -3.35153
| 11> H         -1.73704        5.93384       -4.13853
| 12> H         -1.40338        5.41759       -2.50291
| 13> H         -2.67335        4.64479       -3.42108
| 14> *
| 15> %MaxCore 64000
| 16>
| 17> %pal nprocs 4
| 18> end
| 19>
| 20> %scf
| 21>   MaxIter 150
| 22> end
| 23>
| 24>
| 25>                          ****END OF INPUT****

CARTESIAN COORDINATES (ANGSTROEM)
---------------------------------
  C     -0.701690    4.072500   -4.003920
  C      0.680530    4.614820   -4.048000
  H      0.699930    5.584890   -4.388270
  H      1.278040    4.055980   -4.668240
  H      1.085730    4.533580   -3.106520
  C     -1.703470    5.093200   -3.477400
  H     -0.995900    3.740390   -5.000650
  H     -0.643580    3.201910   -3.351530
  H     -1.737040    5.933840   -4.138530
  H     -1.403380    5.417590   -2.502910
  H     -2.673350    4.644790   -3.421080

 Total Charge           Charge          ....    0
 Multiplicity           Mult            ....    1
 Number of Electrons    NEL             ....   26
 Basis Dimension        Dim             ....  141

ORBITAL ENERGIES
----------------

  NO   OCC          E(Eh)            E(eV)
   0   2.0000     -10.205899      -277.7166
   1   2.0000     -10.196171      -277.4519
   2   2.0000     -10.177159      -276.9346
   3   2.0000      -0.815044       -22.1785
   4   2.0000      -0.711253       -19.3542
   5   2.0000      -0.602280       -16.3889
   6   2.0000      -0.483280       -13.1507
   7   2.0000      -0.458212       -12.4686
   8   2.0000      -0.414754       -11.2860
   9   2.0000      -0.403522       -10.9804
  10   2.0000      -0.347985        -9.4691
  11   2.0000      -0.344614        -9.3774
  12   2.0000      -0.336309        -9.1514
  13   0.0000       0.050670         1.3788
  14   0.0000       0.093089         2.5331
  15   0.0000       0.100271         2.7285
  16   0.0000       0.104527         2.8443
  17   0.0000       0.124170         3.3788

MULLIKEN ATOMIC CHARGES
-----------------------
   0 C :   -0.164931
   1 C :   -0.342132
   2 H :    0.106741
   3 H :    0.116509
   4 H :    0.111756
   5 C :   -0.350020
   6 H :    0.092353
   7 H :    0.090621
   8 H :    0.111932
   9 H :    0.109580
  10 H :    0.117591
Sum of atomic charges:    0.0000000

LOEWDIN ATOMIC CHARGES
----------------------
   0 C :   -0.326482
   1 C :   -0.307878
   2 H :    0.109076
   3 H :    0.110072
   4 H :    0.112153
   5 C :   -0.309619
   6 H :    0.130741
   7 H :    0.133943
   8 H :    0.115938
   9 H :    0.116508
  10 H :    0.115549

  Mayer bond orders larger than 0.100000
B(  0-C ,  1-C ) :   0.9959 B(  0-C ,  5-C ) :   1.0048 B(  0-C ,  6-H ) :   0.9660
B(  0-C ,  7-H ) :   0.9678 B(  1-C ,  2-H ) :   0.9758 B(  1-C ,  3-H ) :   0.9777
B(  1-C ,  4-H ) :   0.9782 B(  5-C ,  8-H ) :   0.9743 B(  5-C ,  9-H ) :   0.9735
B(  5-C , 10-H ) :   0.9748

Dispersion correction           -0.005034410
FINAL SINGLE POINT ENERGY      -119.019557363961

DIPOLE MOMENT
-------------
                                X             Y             Z
Electronic contribution:     -0.13487      -0.31063      -0.13783
Nuclear contribution   :      0.16058       0.27975       0.12812
                        -----------------------------------------
Total Dipole Moment    :      0.02571      -0.03088      -0.00971
                        -----------------------------------------
Magnitude (a.u.)       :      0.04134
Magnitude (Debye)      :      0.10507

Rotational constants in cm-1:     1.027122     0.293327     0.260229
Rotational constants in MHz : 30792.337141  8793.723318  7801.458329

                             ****ORCA TERMINATED NORMALLY****
TOTAL RUN TIME: 0 days 0 hours 0 minutes 11 seconds 261 msec
