                         Program Version 5.0.0 -  RELEASE  -
|  1> !PBE0 D3BJ RIJCOSX def2-TZVP def2/J TightSCF xyzfile
|  2>
|  3> *xyzfile 0 1 D.xyz
|  4>
|  5> %MaxCore 64000
|  6>
|  7> %pal nprocs 18
|  8> end
|  9>
| 10> %scf
| 11>   MaxIter 150
| 12> end
| 13>
| 14>
| 15>                          ****END OF INPUT****

CARTESIAN COORDINATES (ANGSTROEM)
---------------------------------
  C     -0.701686    4.072499   -4.003920
  C      0.680528    4.614820   -4.048005
  C      1.444422    5.266576   -0.975463
  F      1.565248    4.233493   -1.864885
  H      0.699926    5.584890   -4.388272
  H      1.278044    4.055977   -4.668235
  H      1.085729    4.533581   -3.106524
  C     -1.703475    5.093197   -3.477396
  H     -0.995895    3.740394   -5.000654
  H     -0.643580    3.201910   -3.351533
  C     -1.313997    5.785995   -2.169271
  H     -1.877057    5.850103   -4.251154
  H     -2.653264    4.564475   -3.354796
  H     -2.097137    6.509395   -1.929558
  H     -0.416875    6.387594   -2.339097
  C     -1.073895    4.844728   -0.979904
  H     -1.968893    4.809608   -0.352568
  C      0.148120    5.210874   -0.138092
  H     -0.909754    3.827531   -1.338975
  H      1.474250    6.264638   -1.476917
  H      2.289622    5.303267   -0.264450
  H      0.261827    4.450942    0.640711
  H     -0.002516    6.171031    0.371483

 Total Charge           Charge          ....    0
 Multiplicity           Mult            ....    1
 Number of Electrons    NEL             ....   66
 Basis Dimension        Dim             ....  338

ORBITAL ENERGIES
----------------

  NO   OCC          E(Eh)            E(eV)
   0   2.0000     -24.778589      -674.2597
   1   2.0000     -10.306461      -280.4531
   2   2.0000     -10.230785      -278.3938
   3   2.0000     -10.216699      -278.0105
   4   2.0000     -10.210160      -277.8326
   5   2.0000     -10.203099      -277.6404
   6   2.0000     -10.190286      -277.2918
   7   2.0000     -10.134378      -275.7704
   8   2.0000      -1.264811       -34.4173
   9   2.0000      -0.838143       -22.8070
  10   2.0000      -0.807367       -21.9696
  11   2.0000      -0.745976       -20.2990
  12   2.0000      -0.711846       -19.3703
  13   2.0000      -0.650197       -17.6928
  14   2.0000      -0.615055       -16.7365
  15   2.0000      -0.560052       -15.2398
  16   2.0000      -0.552483       -15.0338
  17   2.0000      -0.536184       -14.5903
  18   2.0000      -0.508158       -13.8277
  19   2.0000      -0.473335       -12.8801
  20   2.0000      -0.466437       -12.6924
  21   2.0000      -0.442011       -12.0277
  22   2.0000      -0.427652       -11.6370
  23   2.0000      -0.402110       -10.9420
  24   2.0000      -0.393154       -10.6983
  25   2.0000      -0.380325       -10.3492
  26   2.0000      -0.371203       -10.1009
  27   2.0000      -0.351166        -9.5557
  28   2.0000      -0.341159        -9.2834
  29   2.0000      -0.325854        -8.8669
  30   2.0000      -0.313696        -8.5361
  31   2.0000      -0.310872        -8.4593
  32   2.0000      -0.288305        -7.8452
  33   0.0000       0.042832         1.1655
  34   0.0000       0.057633         1.5683
  35   0.0000       0.063674         1.7327
  36   0.0000       0.079174         2.1544
  37   0.0000       0.089549         2.4367

MULLIKEN ATOMIC CHARGES
-----------------------
   0 C :   -0.177456
   1 C :   -0.432260
   2 C :   -0.055249
   3 F :   -0.166924
   4 H :    0.093707
   5 H :    0.101763
   6 H :    0.179886
   7 C :   -0.203855
   8 H :    0.095599
   9 H :    0.087790
  10 C :   -0.201555
  11 H :    0.101035
  12 H :    0.093253
  13 H :    0.103974
  14 H :    0.096306
  15 C :   -0.187825
  16 H :    0.111928
  17 C :   -0.211110
  18 H :    0.108014
  19 H :    0.119785
  20 H :    0.122594
  21 H :    0.110667
  22 H :    0.109931
Sum of atomic charges:   -0.0000000

LOEWDIN ATOMIC CHARGES
----------------------
   0 C :   -0.310808
   1 C :   -0.323697
   2 C :   -0.350898
   3 F :    0.176189
   4 H :    0.103805
   5 H :    0.104963
   6 H :    0.067561
   7 C :   -0.274965
   8 H :    0.131875
   9 H :    0.131807
  10 C :   -0.267447
  11 H :    0.137453
  12 H :    0.135562
  13 H :    0.135054
  14 H :    0.137030
  15 C :   -0.268657
  16 H :    0.137064
  17 C :   -0.278801
  18 H :    0.142594
  19 H :    0.126994
  20 H :    0.126091
  21 H :    0.137683
  22 H :    0.143547

  Mayer bond orders larger than 0.100000
B(  0-C ,  1-C ) :   0.9568 B(  0-C ,  7-C ) :   1.0189 B(  0-C ,  8-H ) :   0.9607
B(  0-C ,  9-H ) :   0.9747 B(  1-C ,  4-H ) :   0.9727 B(  1-C ,  5-H ) :   0.9690
B(  1-C ,  6-H ) :   0.9574 B(  2-C ,  3-F ) :   0.9620 B(  2-C , 17-C ) :   1.0158
B(  2-C , 19-H ) :   0.9772 B(  2-C , 20-H ) :   0.9611 B(  7-C , 10-C ) :   0.9911
B(  7-C , 11-H ) :   0.9592 B(  7-C , 12-H ) :   0.9616 B( 10-C , 13-H ) :   0.9570
B( 10-C , 14-H ) :   0.9683 B( 10-C , 15-C ) :   0.9842 B( 15-C , 16-H ) :   0.9577
B( 15-C , 17-C ) :   1.0015 B( 15-C , 18-H ) :   0.9659 B( 17-C , 21-H ) :   0.9554
B( 17-C , 22-H ) :   0.9443

Dispersion correction           -0.018320546
FINAL SINGLE POINT ENERGY      -375.278279969537

DIPOLE MOMENT
-------------
                                X             Y             Z
Electronic contribution:      5.13236      -2.28041       2.77619
Nuclear contribution   :     -5.08831       2.68947      -1.99048
                        -----------------------------------------
Total Dipole Moment    :      0.04405       0.40906       0.78571
                        -----------------------------------------
Magnitude (a.u.)       :      0.88691
Magnitude (Debye)      :      2.25435

Rotational constants in cm-1:     0.084646     0.055672     0.038419
Rotational constants in MHz :  2537.625105  1668.992890  1151.781380

                             ****ORCA TERMINATED NORMALLY****
TOTAL RUN TIME: 0 days 0 hours 0 minutes 21 seconds 203 msec
