                         Program Version 5.0.0 -  RELEASE  -
|  1> !LC-PBE RIJCOSX def2-TZVPD def2/J TightSCF
|  2> *xyz -1 1
|  3> C         -0.90349       -0.87394       -1.98739
|  4> C         -0.96015       -0.52236       -0.48987
|  5> H         -1.69039       -1.20813       -0.02168
|  6> H         -1.41449        0.48633       -0.40668
|  7> O          0.26170       -0.58031        0.13861
|  8> H         -1.88568       -0.80774       -2.40670
|  9> H         -0.53143       -1.87013       -2.10605
| 10> H         -0.25399       -0.18836       -2.49039
| 11> *
| 12>
| 13> %MaxCore 64000
| 14>
| 15> %pal nprocs 4
| 16> end
| 17>
| 18> %scf
| 19>   MaxIter 150
| 20> end
| 21>
| 22>
| 23>                          ****END OF INPUT****

CARTESIAN COORDINATES (ANGSTROEM)
---------------------------------
  C     -0.903490   -0.873940   -1.987390
  C     -0.960150   -0.522360   -0.489870
  H     -1.690390   -1.208130   -0.021680
  H     -1.414490    0.486330   -0.406680
  O      0.261700   -0.580310    0.138610
  H     -1.885680   -0.807740   -2.406700
  H     -0.531430   -1.870130   -2.106050
  H     -0.253990   -0.188360   -2.490390

 Total Charge           Charge          ....   -1
 Multiplicity           Mult            ....    1
 Number of Electrons    NEL             ....   26
 Basis Dimension        Dim             ....  159

ORBITAL ENERGIES
----------------

  NO   OCC          E(Eh)            E(eV)
   0   2.0000     -18.631633      -506.9925
   1   2.0000      -9.925523      -270.0872
   2   2.0000      -9.903250      -269.4811
   3   2.0000      -0.839578       -22.8461
   4   2.0000      -0.695707       -18.9312
   5   2.0000      -0.528550       -14.3826
   6   2.0000      -0.395119       -10.7517
   7   2.0000      -0.367910       -10.0113
   8   2.0000      -0.308129        -8.3846
   9   2.0000      -0.288671        -7.8551
  10   2.0000      -0.239995        -6.5306
  11   2.0000      -0.092121        -2.5067
  12   2.0000      -0.089158        -2.4261
  13   0.0000       0.209415         5.6985
  14   0.0000       0.230294         6.2666
  15   0.0000       0.261956         7.1282
  16   0.0000       0.262534         7.1439
  17   0.0000       0.285509         7.7691

MULLIKEN ATOMIC CHARGES
-----------------------
   0 C :   -0.992386
   1 C :   -0.398094
   2 H :    0.215684
   3 H :    0.215487
   4 O :   -0.924675
   5 H :    0.344679
   6 H :    0.269475
   7 H :    0.269830
Sum of atomic charges:   -1.0000000

LOEWDIN ATOMIC CHARGES
----------------------
   0 C :   -0.189025
   1 C :   -0.637934
   2 H :    0.065912
   3 H :    0.067344
   4 O :   -0.442773
   5 H :    0.038886
   6 H :    0.048812
   7 H :    0.048778

  Mayer bond orders larger than 0.100000
B(  0-C ,  1-C ) :   0.7414 B(  0-C ,  4-O ) :   0.1943 B(  0-C ,  5-H ) :   0.9310
B(  0-C ,  6-H ) :   0.9730 B(  0-C ,  7-H ) :   0.9725 B(  1-C ,  2-H ) :   1.0392
B(  1-C ,  3-H ) :   1.0376 B(  1-C ,  4-O ) :   0.9907

FINAL SINGLE POINT ENERGY      -154.010165239522

DIPOLE MOMENT
-------------
                                X             Y             Z
Electronic contribution:      1.74878       0.17075       2.02629
Nuclear contribution   :     -2.90669      -0.27617      -3.31210
                        -----------------------------------------
Total Dipole Moment    :     -1.15792      -0.10542      -1.28582
                        -----------------------------------------
Magnitude (a.u.)       :      1.73356
Magnitude (Debye)      :      4.40635

Rotational constants in cm-1:     1.291883     0.321656     0.284469
Rotational constants in MHz : 38729.676116  9643.011620  8528.167295

                             ****ORCA TERMINATED NORMALLY****
TOTAL RUN TIME: 0 days 0 hours 0 minutes 14 seconds 734 msec
