                         Program Version 5.0.0 -  RELEASE  -
|  1> !LC-PBE RIJCOSX def2-TZVPD def2/J TightSCF
|  2> *xyz 1 1
|  3> C          4.36645       -0.13321       -1.41606
|  4> C          4.50829       -0.93187       -2.72425
|  5> C          3.05650       -0.32080       -0.70738
|  6> N          2.38983        0.71129       -0.24391
|  7> N          2.51600       -1.50772       -0.55023
|  8> H          2.96768       -2.32291       -0.95631
|  9> H          1.54987       -1.49063       -0.24988
| 10> H          2.74307        1.64947       -0.41280
| 11> H          1.44036        0.50278        0.03703
| 12> H          4.48784        0.93300       -1.61157
| 13> H          5.16967       -0.41443       -0.72982
| 14> H          5.46700       -0.73824       -3.15818
| 15> H          3.74074       -0.63528       -3.40821
| 16> H          4.41574       -1.97727       -2.51573
| 17> *
| 18>
| 19> %MaxCore 64000
| 20>
| 21> %pal nprocs 4
| 22> end
| 23>
| 24> %scf
| 25>   MaxIter 150
| 26> end
| 27>
| 28>
| 29>                          ****END OF INPUT****

CARTESIAN COORDINATES (ANGSTROEM)
---------------------------------
  C      4.366450   -0.133210   -1.416060
  C      4.508290   -0.931870   -2.724250
  C      3.056500   -0.320800   -0.707380
  N      2.389830    0.711290   -0.243910
  N      2.516000   -1.507720   -0.550230
  H      2.967680   -2.322910   -0.956310
  H      1.549870   -1.490630   -0.249880
  H      2.743070    1.649470   -0.412800
  H      1.440360    0.502780    0.037030
  H      4.487840    0.933000   -1.611570
  H      5.169670   -0.414430   -0.729820
  H      5.467000   -0.738240   -3.158180
  H      3.740740   -0.635280   -3.408210
  H      4.415740   -1.977270   -2.515730

 Total Charge           Charge          ....    1
 Multiplicity           Mult            ....    1
 Number of Electrons    NEL             ....   40
 Basis Dimension        Dim             ....  266

ORBITAL ENERGIES
----------------

  NO   OCC          E(Eh)            E(eV)
   0   2.0000     -14.460966      -393.5029
   1   2.0000     -14.459518      -393.4635
   2   2.0000     -10.446749      -284.2705
   3   2.0000     -10.318592      -280.7832
   4   2.0000     -10.272323      -279.5241
   5   2.0000      -1.391824       -37.8734
   6   2.0000      -1.275933       -34.7199
   7   2.0000      -1.149624       -31.2829
   8   2.0000      -1.025098       -27.8943
   9   2.0000      -0.975407       -26.5422
  10   2.0000      -0.920203       -25.0400
  11   2.0000      -0.905269       -24.6336
  12   2.0000      -0.842555       -22.9271
  13   2.0000      -0.813033       -22.1238
  14   2.0000      -0.769871       -20.9492
  15   2.0000      -0.745787       -20.2939
  16   2.0000      -0.689601       -18.7650
  17   2.0000      -0.673931       -18.3386
  18   2.0000      -0.657709       -17.8972
  19   2.0000      -0.624675       -16.9983
  20   0.0000      -0.121786        -3.3140
  21   0.0000      -0.094847        -2.5809
  22   0.0000      -0.057039        -1.5521
  23   0.0000      -0.053551        -1.4572
  24   0.0000      -0.028549        -0.7769

MULLIKEN ATOMIC CHARGES
-----------------------
   0 C :   -0.638497
   1 C :   -1.318943
   2 C :    0.799038
   3 N :   -0.389364
   4 N :   -0.377880
   5 H :    0.260131
   6 H :    0.221641
   7 H :    0.278625
   8 H :    0.224850
   9 H :    0.368983
  10 H :    0.392801
  11 H :    0.365194
  12 H :    0.378583
  13 H :    0.434837
Sum of atomic charges:    1.0000000

LOEWDIN ATOMIC CHARGES
----------------------
   0 C :   -0.154701
   1 C :   -0.079649
   2 C :   -0.360540
   3 N :    0.215158
   4 N :    0.220318
   5 H :    0.152116
   6 H :    0.151218
   7 H :    0.159197
   8 H :    0.149872
   9 H :    0.132386
  10 H :    0.150017
  11 H :    0.094908
  12 H :    0.093947
  13 H :    0.075752

  Mayer bond orders larger than 0.100000
B(  0-C ,  1-C ) :   0.6370 B(  0-C ,  2-C ) :   0.7238 B(  0-C ,  9-H ) :   0.8571
B(  0-C , 10-H ) :   0.8890 B(  1-C , 11-H ) :   0.9542 B(  1-C , 12-H ) :   0.9216
B(  1-C , 13-H ) :   0.8352 B(  2-C ,  3-N ) :   1.1203 B(  2-C ,  4-N ) :   1.0766
B(  3-N ,  4-N ) :   0.1039 B(  3-N ,  7-H ) :   0.9260 B(  3-N ,  8-H ) :   1.0110
B(  4-N ,  5-H ) :   0.9276 B(  4-N ,  6-H ) :   1.0170

FINAL SINGLE POINT ENERGY      -228.363136557597

DIPOLE MOMENT
-------------
                                X             Y             Z
Electronic contribution:     -2.65949       0.63254       3.10718
Nuclear contribution   :      1.78847      -0.48174      -2.67127
                        -----------------------------------------
Total Dipole Moment    :     -0.87102       0.15080       0.43590
                        -----------------------------------------
Magnitude (a.u.)       :      0.98561
Magnitude (Debye)      :      2.50522

Rotational constants in cm-1:     0.286883     0.123210     0.094446
Rotational constants in MHz :  8600.540572  3693.747366  2831.415242

                             ****ORCA TERMINATED NORMALLY****
TOTAL RUN TIME: 0 days 0 hours 0 minutes 42 seconds 817 msec
