                         Program Version 5.0.0 -  RELEASE  -
|  1> !LC-PBE RIJCOSX def2-TZVPD def2/J TightSCF xyzfile
|  2>
|  3> *xyzfile 0 1 B.xyz
|  4>
|  5> %MaxCore 64000
|  6>
|  7> %pal nprocs 4
|  8> end
|  9>
| 10> %scf
| 11>   MaxIter 150
| 12> end
| 13>
| 14>
| 15>                          ****END OF INPUT****

CARTESIAN COORDINATES (ANGSTROEM)
---------------------------------
  C      4.366454   -0.133215   -1.416062
  C      4.508292   -0.931872   -2.724249
  H      4.753716   -1.972051   -2.488408
  C      3.294164   -0.918214   -3.656570
  H      5.385637   -0.536236   -3.242640
  H      2.483463   -1.477378   -3.185764
  H      3.553092   -1.478495   -4.560331
  C      2.772335    0.460100   -4.051448
  H      2.608762    1.065107   -3.155194
  C      1.465354    0.410537   -4.853644
  H      3.532940    0.988848   -4.635671
  C      0.326171   -0.375613   -4.192580
  H      1.666704   -0.022269   -5.839323
  H      1.138198    1.439246   -5.035449
  C     -0.017405    0.080588   -2.778406
  H      0.585573   -1.439385   -4.168057
  H     -0.560005   -0.311425   -4.831461
  H      0.902090    0.201296   -2.206729
  C     -0.903495   -0.873945   -1.987388
  H     -0.479549    1.074657   -2.811915
  H     -0.502554   -1.892096   -2.081204
  H     -1.917039   -0.895427   -2.406277
  C     -0.960148   -0.522365   -0.489867
  H     -1.690392   -1.208130   -0.021677
  H     -1.414490    0.486329   -0.406677
  O      0.261703   -0.580307    0.138611
  C      3.056503   -0.320797   -0.707384
  N      2.389825    0.711285   -0.243909
  N      2.515999   -1.507721   -0.550229
  H      2.967683   -2.322915   -0.956305
  H      1.549872   -1.490634   -0.249876
  H      2.743071    1.649471   -0.412802
  H      1.440364    0.502778    0.037031
  H      4.487835    0.932997   -1.611569
  H      5.169672   -0.414432   -0.729817

 Total Charge           Charge          ....    0
 Multiplicity           Mult            ....    1
 Number of Electrons    NEL             ....  104
 Basis Dimension        Dim             ....  682

ORBITAL ENERGIES
----------------

  NO   OCC          E(Eh)            E(eV)
   0   2.0000     -18.843478      -512.7571
   1   2.0000     -14.241526      -387.5316
   2   2.0000     -14.241086      -387.5196
   3   2.0000     -10.249131      -278.8930
   4   2.0000     -10.162771      -276.5431
   5   2.0000     -10.147036      -276.1149
   6   2.0000     -10.124574      -275.5037
   7   2.0000     -10.118042      -275.3259
   8   2.0000     -10.109195      -275.0852
   9   2.0000     -10.098077      -274.7826
  10   2.0000     -10.093849      -274.6676
  11   2.0000     -10.083994      -274.3994
  12   2.0000     -10.070775      -274.0397
  13   2.0000      -1.186684       -32.2913
  14   2.0000      -1.069125       -29.0924
  15   2.0000      -1.053608       -28.6701
  16   2.0000      -1.018058       -27.7028
  17   2.0000      -0.979256       -26.6469
  18   2.0000      -0.935792       -25.4642
  19   2.0000      -0.892199       -24.2780
  20   2.0000      -0.851006       -23.1570
  21   2.0000      -0.799880       -21.7658
  22   2.0000      -0.783490       -21.3199
  23   2.0000      -0.770267       -20.9600
  24   2.0000      -0.723991       -19.7008
  25   2.0000      -0.708717       -19.2852
  26   2.0000      -0.701018       -19.0757
  27   2.0000      -0.680118       -18.5070
  28   2.0000      -0.656022       -17.8513
  29   2.0000      -0.641437       -17.4544
  30   2.0000      -0.631710       -17.1897
  31   2.0000      -0.609652       -16.5895
  32   2.0000      -0.592220       -16.1151
  33   2.0000      -0.571396       -15.5485
  34   2.0000      -0.561345       -15.2750
  35   2.0000      -0.553862       -15.0714
  36   2.0000      -0.548344       -14.9212
  37   2.0000      -0.543771       -14.7968
  38   2.0000      -0.516357       -14.0508
  39   2.0000      -0.506144       -13.7729
  40   2.0000      -0.493652       -13.4330
  41   2.0000      -0.484571       -13.1858
  42   2.0000      -0.472947       -12.8695
  43   2.0000      -0.467479       -12.7207
  44   2.0000      -0.448140       -12.1945
  45   2.0000      -0.439971       -11.9722
  46   2.0000      -0.429060       -11.6753
  47   2.0000      -0.427613       -11.6359
  48   2.0000      -0.419893       -11.4259
  49   2.0000      -0.410992       -11.1837
  50   2.0000      -0.307633        -8.3711
  51   2.0000      -0.303216        -8.2509
  52   0.0000       0.045791         1.2460
  53   0.0000       0.056842         1.5468
  54   0.0000       0.064265         1.7487
  55   0.0000       0.072649         1.9769
  56   0.0000       0.078963         2.1487

MULLIKEN ATOMIC CHARGES
-----------------------
   0 C :   -0.657527
   1 C :   -1.012279
   2 H :    0.439337
   3 C :   -0.460912
   4 H :    0.392330
   5 H :    0.321368
   6 H :    0.375748
   7 C :   -0.788144
   8 H :    0.365822
   9 C :   -0.823894
  10 H :    0.359758
  11 C :   -0.910350
  12 H :    0.383588
  13 H :    0.374741
  14 C :    0.227293
  15 H :    0.374188
  16 H :    0.417911
  17 H :   -0.290210
  18 C :   -0.794927
  19 H :    0.443505
  20 H :    0.355813
  21 H :    0.395725
  22 C :   -0.647630
  23 H :    0.364378
  24 H :    0.332422
  25 O :   -1.075805
  26 C :    0.197504
  27 N :   -0.325560
  28 N :   -0.260916
  29 H :    0.249396
  30 H :    0.334089
  31 H :    0.213265
  32 H :    0.374183
  33 H :    0.432727
  34 H :    0.323064
Sum of atomic charges:   -0.0000000

LOEWDIN ATOMIC CHARGES
----------------------
   0 C :   -0.128370
   1 C :   -0.209297
   2 H :    0.116971
   3 C :   -0.228243
   4 H :    0.123140
   5 H :    0.101105
   6 H :    0.130617
   7 C :   -0.230065
   8 H :    0.103276
   9 C :   -0.224897
  10 H :    0.124410
  11 C :   -0.237963
  12 H :    0.117677
  13 H :    0.119156
  14 C :   -0.239848
  15 H :    0.111394
  16 H :    0.121351
  17 H :    0.079768
  18 C :   -0.223734
  19 H :    0.133670
  20 H :    0.116733
  21 H :    0.117438
  22 C :   -0.416372
  23 H :    0.104960
  24 H :    0.110335
  25 O :   -0.342664
  26 C :   -0.396519
  27 N :    0.189543
  28 N :    0.206379
  29 H :    0.140437
  30 H :    0.056765
  31 H :    0.141376
  32 H :    0.050121
  33 H :    0.124142
  34 H :    0.137207

  Mayer bond orders larger than 0.100000
B(  0-C ,  1-C ) :   0.6791 B(  0-C ,  3-C ) :  -0.1482 B(  0-C , 26-C ) :   0.6640
B(  0-C , 33-H ) :   0.9027 B(  0-C , 34-H ) :   0.9879 B(  1-C ,  2-H ) :   0.9015
B(  1-C ,  3-C ) :   0.6744 B(  1-C ,  4-H ) :   0.8942 B(  3-C ,  5-H ) :   1.0301
B(  3-C ,  6-H ) :   0.8932 B(  3-C ,  7-C ) :   0.4890 B(  7-C ,  8-H ) :   0.9949
B(  7-C ,  9-C ) :   0.8369 B(  7-C , 10-H ) :   0.9098 B(  9-C , 11-C ) :   0.7647
B(  9-C , 12-H ) :   0.9260 B(  9-C , 13-H ) :   0.9482 B( 11-C , 14-C ) :   0.4877
B( 11-C , 15-H ) :   0.9494 B( 11-C , 16-H ) :   0.8556 B( 11-C , 18-C ) :   0.2001
B( 14-C , 17-H ) :   1.0010 B( 14-C , 18-C ) :   0.6972 B( 14-C , 19-H ) :   0.7579
B( 14-C , 25-O ) :   0.2328 B( 14-C , 27-N ) :  -0.1248 B( 17-H , 19-H ) :   0.1343
B( 17-H , 25-O ) :  -0.2016 B( 18-C , 20-H ) :   0.8675 B( 18-C , 21-H ) :   0.9200
B( 18-C , 22-C ) :   0.8757 B( 22-C , 23-H ) :   0.9526 B( 22-C , 24-H ) :   0.9617
B( 22-C , 25-O ) :   0.9310 B( 25-O , 26-C ) :  -0.1703 B( 25-O , 30-H ) :   0.2399
B( 25-O , 32-H ) :   0.1665 B( 26-C , 27-N ) :   1.4311 B( 26-C , 28-N ) :   1.2534
B( 27-N , 31-H ) :   0.9673 B( 27-N , 32-H ) :   0.7397 B( 28-N , 29-H ) :   0.9211
B( 28-N , 30-H ) :   0.7490

FINAL SINGLE POINT ENERGY      -577.345765836110

DIPOLE MOMENT
-------------
                                X             Y             Z
Electronic contribution:      2.83596      -0.26056       7.46754
Nuclear contribution   :     -0.17996       0.53390      -8.68067
                        -----------------------------------------
Total Dipole Moment    :      2.65600       0.27335      -1.21313
                        -----------------------------------------
Magnitude (a.u.)       :      2.93270
Magnitude (Debye)      :      7.45434

Rotational constants in cm-1:     0.028240     0.022734     0.014600
Rotational constants in MHz :   846.611263   681.554306   437.693928

                             ****ORCA TERMINATED NORMALLY****
TOTAL RUN TIME: 0 days 0 hours 7 minutes 24 seconds 330 msec
