                         Program Version 5.0.0 -  RELEASE  -
|  1> !LC-PBE RIJCOSX def2-TZVPD def2/J TightSCF
|  2> *xyz 0 1
|  3> C         -0.90349       -0.87394       -1.98739
|  4> C         -0.96015       -0.52236       -0.48987
|  5> H         -1.69039       -1.20813       -0.02168
|  6> H         -1.41449        0.48633       -0.40668
|  7> F          0.26170       -0.58031        0.13861
|  8> H         -1.88568       -0.80774       -2.40670
|  9> H         -0.53143       -1.87013       -2.10605
| 10> H         -0.25399       -0.18836       -2.49039
| 11> *
| 12>
| 13> %MaxCore 64000
| 14>
| 15> %pal nprocs 4
| 16> end
| 17>
| 18> %scf
| 19>   MaxIter 150
| 20> end
| 21>
| 22>
| 23>                          ****END OF INPUT****

CARTESIAN COORDINATES (ANGSTROEM)
---------------------------------
  C     -0.903490   -0.873940   -1.987390
  C     -0.960150   -0.522360   -0.489870
  H     -1.690390   -1.208130   -0.021680
  H     -1.414490    0.486330   -0.406680
  F      0.261700   -0.580310    0.138610
  H     -1.885680   -0.807740   -2.406700
  H     -0.531430   -1.870130   -2.106050
  H     -0.253990   -0.188360   -2.490390

 Total Charge           Charge          ....    0
 Multiplicity           Mult            ....    1
 Number of Electrons    NEL             ....   26
 Basis Dimension        Dim             ....  159

ORBITAL ENERGIES
----------------

  NO   OCC          E(Eh)            E(eV)
   0   2.0000     -24.475097      -666.0012
   1   2.0000     -10.195356      -277.4297
   2   2.0000     -10.109461      -275.0924
   3   2.0000      -1.352003       -36.7899
   4   2.0000      -0.941665       -25.6240
   5   2.0000      -0.795071       -21.6350
   6   2.0000      -0.655356       -17.8331
   7   2.0000      -0.648238       -17.6394
   8   2.0000      -0.605398       -16.4737
   9   2.0000      -0.546655       -14.8752
  10   2.0000      -0.537896       -14.6369
  11   2.0000      -0.470831       -12.8120
  12   2.0000      -0.462836       -12.5944
  13   0.0000       0.068913         1.8752
  14   0.0000       0.091122         2.4795
  15   0.0000       0.114986         3.1289
  16   0.0000       0.116896         3.1809
  17   0.0000       0.145270         3.9530

MULLIKEN ATOMIC CHARGES
-----------------------
   0 C :   -1.084164
   1 C :   -0.205087
   2 H :    0.272099
   3 H :    0.272236
   4 F :   -0.271999
   5 H :    0.367396
   6 H :    0.324540
   7 H :    0.324979
Sum of atomic charges:   -0.0000000

LOEWDIN ATOMIC CHARGES
----------------------
   0 C :   -0.108246
   1 C :   -0.306791
   2 H :    0.118444
   3 H :    0.120242
   4 F :   -0.045164
   5 H :    0.075405
   6 H :    0.073074
   7 H :    0.073036

  Mayer bond orders larger than 0.100000
B(  0-C ,  1-C ) :   0.7588 B(  0-C ,  5-H ) :   0.9076 B(  0-C ,  6-H ) :   0.9278
B(  0-C ,  7-H ) :   0.9272 B(  1-C ,  2-H ) :   0.9649 B(  1-C ,  3-H ) :   0.9637
B(  1-C ,  4-F ) :   0.7911

FINAL SINGLE POINT ENERGY      -178.633281336916

DIPOLE MOMENT
-------------
                                X             Y             Z
Electronic contribution:      3.18439       0.37799       3.96194
Nuclear contribution   :     -3.84149      -0.36812      -4.38946
                        -----------------------------------------
Total Dipole Moment    :     -0.65710       0.00987      -0.42753
                        -----------------------------------------
Magnitude (a.u.)       :      0.78400
Magnitude (Debye)      :      1.99276

Rotational constants in cm-1:     1.270659     0.299196     0.265842
Rotational constants in MHz : 38093.410361  8969.665806  7969.741481

                             ****ORCA TERMINATED NORMALLY****
TOTAL RUN TIME: 0 days 0 hours 0 minutes 13 seconds 961 msec
