                         Program Version 5.0.0 -  RELEASE  -
|  1> !LC-PBE RIJCOSX def2-TZVPD def2/J TightSCF
|  2> *xyz 0 1
|  3> C          4.36645       -0.13321       -1.41606
|  4> C          4.50829       -0.93187       -2.72425
|  5> C          3.05650       -0.32080       -0.70738
|  6> C          2.38983        0.71129       -0.24391
|  7> N          2.51600       -1.50772       -0.55023
|  8> H          2.96768       -2.32291       -0.95631
|  9> H          1.54987       -1.49063       -0.24988
| 10> H          2.74307        1.64947       -0.41280
| 11> H          1.44036        0.50278        0.03703
| 12> H          4.48784        0.93300       -1.61157
| 13> H          5.16967       -0.41443       -0.72982
| 14> H          5.46700       -0.73824       -3.15818
| 15> H          3.74074       -0.63528       -3.40821
| 16> H          4.41574       -1.97727       -2.51573
| 17> *
| 18>
| 19> %MaxCore 64000
| 20>
| 21> %pal nprocs 4
| 22> end
| 23>
| 24> %scf
| 25>   MaxIter 150
| 26> end
| 27>
| 28>
| 29>                          ****END OF INPUT****

CARTESIAN COORDINATES (ANGSTROEM)
---------------------------------
  C      4.366450   -0.133210   -1.416060
  C      4.508290   -0.931870   -2.724250
  C      3.056500   -0.320800   -0.707380
  C      2.389830    0.711290   -0.243910
  N      2.516000   -1.507720   -0.550230
  H      2.967680   -2.322910   -0.956310
  H      1.549870   -1.490630   -0.249880
  H      2.743070    1.649470   -0.412800
  H      1.440360    0.502780    0.037030
  H      4.487840    0.933000   -1.611570
  H      5.169670   -0.414430   -0.729820
  H      5.467000   -0.738240   -3.158180
  H      3.740740   -0.635280   -3.408210
  H      4.415740   -1.977270   -2.515730

 Total Charge           Charge          ....    0
 Multiplicity           Mult            ....    1
 Number of Electrons    NEL             ....   40
 Basis Dimension        Dim             ....  266

ORBITAL ENERGIES
----------------

  NO   OCC          E(Eh)            E(eV)
   0   2.0000     -14.210868      -386.6974
   1   2.0000     -10.137436      -275.8537
   2   2.0000     -10.117321      -275.3063
   3   2.0000     -10.105203      -274.9766
   4   2.0000     -10.042816      -273.2789
   5   2.0000      -1.108817       -30.1724
   6   2.0000      -0.955608       -26.0034
   7   2.0000      -0.893916       -24.3247
   8   2.0000      -0.800732       -21.7890
   9   2.0000      -0.714455       -19.4413
  10   2.0000      -0.681984       -18.5577
  11   2.0000      -0.617588       -16.8054
  12   2.0000      -0.582910       -15.8618
  13   2.0000      -0.572473       -15.5778
  14   2.0000      -0.528347       -14.3771
  15   2.0000      -0.519882       -14.1467
  16   2.0000      -0.488558       -13.2943
  17   2.0000      -0.476572       -12.9682
  18   2.0000      -0.457805       -12.4575
  19   2.0000      -0.308893        -8.4054
  20   0.0000       0.065250         1.7755
  21   0.0000       0.087130         2.3709
  22   0.0000       0.090059         2.4506
  23   0.0000       0.102973         2.8020
  24   0.0000       0.121560         3.3078

MULLIKEN ATOMIC CHARGES
-----------------------
   0 C :   -0.531247
   1 C :   -1.215041
   2 C :    0.739133
   3 C :   -1.287328
   4 N :   -0.458869
   5 H :    0.216294
   6 H :    0.182740
   7 H :    0.309075
   8 H :    0.324304
   9 H :    0.322661
  10 H :    0.328166
  11 H :    0.360789
  12 H :    0.334480
  13 H :    0.374843
Sum of atomic charges:   -0.0000000

LOEWDIN ATOMIC CHARGES
----------------------
   0 C :   -0.207155
   1 C :   -0.116264
   2 C :   -0.509200
   3 C :   -0.004849
   4 N :    0.086929
   5 H :    0.110874
   6 H :    0.116990
   7 H :    0.033689
   8 H :    0.031618
   9 H :    0.117022
  10 H :    0.124473
  11 H :    0.072753
  12 H :    0.081767
  13 H :    0.061353

  Mayer bond orders larger than 0.100000
B(  0-C ,  1-C ) :   0.5938 B(  0-C ,  2-C ) :   0.7505 B(  0-C ,  9-H ) :   0.8797
B(  0-C , 10-H ) :   0.9035 B(  1-C ,  2-C ) :  -0.1247 B(  1-C , 11-H ) :   0.9564
B(  1-C , 12-H ) :   0.9770 B(  1-C , 13-H ) :   0.8900 B(  2-C ,  3-C ) :   1.1998
B(  2-C ,  4-N ) :   0.8157 B(  2-C ,  8-H ) :  -0.2058 B(  3-C ,  4-N ) :   0.1295
B(  3-C ,  7-H ) :   0.9473 B(  3-C ,  8-H ) :   1.0725 B(  4-N ,  5-H ) :   0.9905
B(  4-N ,  6-H ) :   1.0177

FINAL SINGLE POINT ENERGY      -211.908337823389

DIPOLE MOMENT
-------------
                                X             Y             Z
Electronic contribution:     -1.47105      -0.41978       2.05117
Nuclear contribution   :      1.56827      -0.21459      -2.46657
                        -----------------------------------------
Total Dipole Moment    :      0.09722      -0.63437      -0.41540
                        -----------------------------------------
Magnitude (a.u.)       :      0.76448
Magnitude (Debye)      :      1.94316

Rotational constants in cm-1:     0.294070     0.127722     0.097792
Rotational constants in MHz :  8815.983970  3829.010547  2931.715816

                             ****ORCA TERMINATED NORMALLY****
TOTAL RUN TIME: 0 days 0 hours 0 minutes 48 seconds 74 msec
