                         Program Version 5.0.0 -  RELEASE  -
|  1> !LC-PBE RIJCOSX def2-TZVPD def2/J TightSCF
|  2> *xyz 0 1
|  3> C          4.36645       -0.13321       -1.41606
|  4> C          4.50829       -0.93187       -2.72425
|  5> C          3.05650       -0.32080       -0.70738
|  6> N          2.38983        0.71129       -0.24391
|  7> C          2.51600       -1.50772       -0.55023
|  8> H          2.96768       -2.32291       -0.95631
|  9> H          1.54987       -1.49063       -0.24988
| 10> H          2.74307        1.64947       -0.41280
| 11> H          1.44036        0.50278        0.03703
| 12> H          4.48784        0.93300       -1.61157
| 13> H          5.16967       -0.41443       -0.72982
| 14> H          5.46700       -0.73824       -3.15818
| 15> H          3.74074       -0.63528       -3.40821
| 16> H          4.41574       -1.97727       -2.51573
| 17> *
| 18>
| 19> %MaxCore 64000
| 20>
| 21> %pal nprocs 4
| 22> end
| 23>
| 24> %scf
| 25>   MaxIter 150
| 26> end
| 27>
| 28>
| 29>                          ****END OF INPUT****

CARTESIAN COORDINATES (ANGSTROEM)
---------------------------------
  C      4.366450   -0.133210   -1.416060
  C      4.508290   -0.931870   -2.724250
  C      3.056500   -0.320800   -0.707380
  N      2.389830    0.711290   -0.243910
  C      2.516000   -1.507720   -0.550230
  H      2.967680   -2.322910   -0.956310
  H      1.549870   -1.490630   -0.249880
  H      2.743070    1.649470   -0.412800
  H      1.440360    0.502780    0.037030
  H      4.487840    0.933000   -1.611570
  H      5.169670   -0.414430   -0.729820
  H      5.467000   -0.738240   -3.158180
  H      3.740740   -0.635280   -3.408210
  H      4.415740   -1.977270   -2.515730

 Total Charge           Charge          ....    0
 Multiplicity           Mult            ....    1
 Number of Electrons    NEL             ....   40
 Basis Dimension        Dim             ....  266

ORBITAL ENERGIES
----------------

  NO   OCC          E(Eh)            E(eV)
   0   2.0000     -14.211753      -386.7215
   1   2.0000     -10.137735      -275.8618
   2   2.0000     -10.118560      -275.3400
   3   2.0000     -10.098754      -274.8011
   4   2.0000     -10.041014      -273.2299
   5   2.0000      -1.109218       -30.1834
   6   2.0000      -0.957666       -26.0594
   7   2.0000      -0.881381       -23.9836
   8   2.0000      -0.811388       -22.0790
   9   2.0000      -0.704333       -19.1659
  10   2.0000      -0.678986       -18.4761
  11   2.0000      -0.625410       -17.0183
  12   2.0000      -0.596706       -16.2372
  13   2.0000      -0.545926       -14.8554
  14   2.0000      -0.527448       -14.3526
  15   2.0000      -0.518130       -14.0990
  16   2.0000      -0.491418       -13.3722
  17   2.0000      -0.471240       -12.8231
  18   2.0000      -0.460460       -12.5298
  19   2.0000      -0.307443        -8.3659
  20   0.0000       0.067966         1.8494
  21   0.0000       0.086108         2.3431
  22   0.0000       0.090011         2.4493
  23   0.0000       0.101806         2.7703
  24   0.0000       0.123523         3.3612

MULLIKEN ATOMIC CHARGES
-----------------------
   0 C :   -0.612061
   1 C :   -1.196708
   2 C :    0.780367
   3 N :   -0.481691
   4 C :   -1.269556
   5 H :    0.289029
   6 H :    0.322039
   7 H :    0.239061
   8 H :    0.186108
   9 H :    0.341580
  10 H :    0.343035
  11 H :    0.352186
  12 H :    0.344738
  13 H :    0.361872
Sum of atomic charges:    0.0000000

LOEWDIN ATOMIC CHARGES
----------------------
   0 C :   -0.207025
   1 C :   -0.114508
   2 C :   -0.505667
   3 N :    0.080328
   4 C :   -0.004161
   5 H :    0.030574
   6 H :    0.033270
   7 H :    0.115383
   8 H :    0.115513
   9 H :    0.110093
  10 H :    0.126224
  11 H :    0.071135
  12 H :    0.082044
  13 H :    0.066798

  Mayer bond orders larger than 0.100000
B(  0-C ,  1-C ) :   0.6229 B(  0-C ,  2-C ) :   0.4999 B(  0-C ,  9-H ) :   0.9677
B(  0-C , 10-H ) :   0.9339 B(  1-C , 11-H ) :   0.9424 B(  1-C , 12-H ) :   0.9600
B(  1-C , 13-H ) :   0.9231 B(  2-C ,  3-N ) :   0.9005 B(  2-C ,  4-C ) :   1.0393
B(  2-C ,  6-H ) :  -0.2254 B(  2-C ,  9-H ) :  -0.1105 B(  3-N ,  4-C ) :   0.1563
B(  3-N ,  7-H ) :   0.9957 B(  3-N ,  8-H ) :   1.0102 B(  4-C ,  5-H ) :   0.9746
B(  4-C ,  6-H ) :   1.0833

FINAL SINGLE POINT ENERGY      -211.907107459728

DIPOLE MOMENT
-------------
                                X             Y             Z
Electronic contribution:     -1.58385       1.45571       2.32729
Nuclear contribution   :      1.59749      -0.72853      -2.53752
                        -----------------------------------------
Total Dipole Moment    :      0.01364       0.72717      -0.21023
                        -----------------------------------------
Magnitude (a.u.)       :      0.75708
Magnitude (Debye)      :      1.92434

Rotational constants in cm-1:     0.304597     0.124127     0.096828
Rotational constants in MHz :  9131.600925  3721.227051  2902.830760

                             ****ORCA TERMINATED NORMALLY****
TOTAL RUN TIME: 0 days 0 hours 0 minutes 44 seconds 4 msec
