                         Program Version 5.0.0 -  RELEASE  -
|  1> !LC-PBE RIJCOSX def2-TZVPD def2/J TightSCF xyzfile
|  2>
|  3> *xyzfile 0 1 D1.xyz
|  4>
|  5> %MaxCore 64000
|  6>
|  7> %pal nprocs 4
|  8> end
|  9>
| 10> %scf
| 11>   MaxIter 150
| 12> end
| 13>
| 14>
| 15>                          ****END OF INPUT****

CARTESIAN COORDINATES (ANGSTROEM)
---------------------------------
  C      4.366454   -0.133215   -1.416062
  C      4.508292   -0.931872   -2.724249
  H      4.753716   -1.972051   -2.488408
  C      3.294164   -0.918214   -3.656570
  H      5.385637   -0.536236   -3.242640
  H      2.483463   -1.477378   -3.185764
  H      3.553092   -1.478495   -4.560331
  C      2.772335    0.460100   -4.051448
  H      2.608762    1.065107   -3.155194
  C      1.465354    0.410537   -4.853644
  H      3.532940    0.988848   -4.635671
  C      0.326171   -0.375613   -4.192580
  H      1.666704   -0.022269   -5.839323
  H      1.138198    1.439246   -5.035449
  C     -0.017405    0.080588   -2.778406
  H      0.585573   -1.439385   -4.168057
  H     -0.560005   -0.311425   -4.831461
  H      0.902090    0.201296   -2.206729
  C     -0.903495   -0.873945   -1.987388
  H     -0.479549    1.074657   -2.811915
  H     -0.502554   -1.892096   -2.081204
  H     -1.917039   -0.895427   -2.406277
  C     -0.960148   -0.522365   -0.489867
  H     -1.690392   -1.208130   -0.021677
  H     -1.414490    0.486329   -0.406677
  F      0.261703   -0.580307    0.138611
  C      3.056503   -0.320797   -0.707384
  C      2.389825    0.711285   -0.243909
  N      2.515999   -1.507721   -0.550229
  H      2.967683   -2.322915   -0.956305
  H      1.549872   -1.490634   -0.249876
  H      2.743071    1.649471   -0.412802
  H      1.440364    0.502778    0.037031
  H      4.487835    0.932997   -1.611569
  H      5.169672   -0.414432   -0.729817

 Total Charge           Charge          ....    0
 Multiplicity           Mult            ....    1
 Number of Electrons    NEL             ....  104
 Basis Dimension        Dim             ....  682

ORBITAL ENERGIES
----------------

  NO   OCC          E(Eh)            E(eV)
   0   2.0000     -24.506557      -666.8573
   1   2.0000     -14.185609      -386.0100
   2   2.0000     -10.207775      -277.7677
   3   2.0000     -10.127843      -275.5926
   4   2.0000     -10.120021      -275.3798
   5   2.0000     -10.108496      -275.0661
   6   2.0000     -10.107617      -275.0422
   7   2.0000     -10.105298      -274.9791
   8   2.0000     -10.105100      -274.9737
   9   2.0000     -10.103326      -274.9255
  10   2.0000     -10.100904      -274.8596
  11   2.0000     -10.098747      -274.8009
  12   2.0000     -10.017261      -272.5835
  13   2.0000      -1.393076       -37.9075
  14   2.0000      -1.091050       -29.6890
  15   2.0000      -1.002226       -27.2720
  16   2.0000      -0.977023       -26.5862
  17   2.0000      -0.948376       -25.8066
  18   2.0000      -0.905507       -24.6401
  19   2.0000      -0.876666       -23.8553
  20   2.0000      -0.854679       -23.2570
  21   2.0000      -0.802713       -21.8429
  22   2.0000      -0.777911       -21.1680
  23   2.0000      -0.746926       -20.3249
  24   2.0000      -0.712056       -19.3760
  25   2.0000      -0.694982       -18.9114
  26   2.0000      -0.686764       -18.6878
  27   2.0000      -0.676912       -18.4197
  28   2.0000      -0.666865       -18.1463
  29   2.0000      -0.636810       -17.3285
  30   2.0000      -0.620127       -16.8745
  31   2.0000      -0.606269       -16.4974
  32   2.0000      -0.587318       -15.9817
  33   2.0000      -0.580847       -15.8056
  34   2.0000      -0.570158       -15.5148
  35   2.0000      -0.563946       -15.3458
  36   2.0000      -0.536522       -14.5995
  37   2.0000      -0.526086       -14.3155
  38   2.0000      -0.515187       -14.0189
  39   2.0000      -0.506710       -13.7883
  40   2.0000      -0.499348       -13.5880
  41   2.0000      -0.488528       -13.2935
  42   2.0000      -0.483037       -13.1441
  43   2.0000      -0.471301       -12.8248
  44   2.0000      -0.467835       -12.7304
  45   2.0000      -0.457832       -12.4582
  46   2.0000      -0.441668       -12.0184
  47   2.0000      -0.439077       -11.9479
  48   2.0000      -0.428929       -11.6718
  49   2.0000      -0.425741       -11.5850
  50   2.0000      -0.423656       -11.5283
  51   2.0000      -0.289619        -7.8809
  52   0.0000       0.062515         1.7011
  53   0.0000       0.070363         1.9147
  54   0.0000       0.074877         2.0375
  55   0.0000       0.077312         2.1038
  56   0.0000       0.092009         2.5037

MULLIKEN ATOMIC CHARGES
-----------------------
   0 C :   -0.674683
   1 C :   -0.961914
   2 H :    0.426081
   3 C :   -0.400821
   4 H :    0.376022
   5 H :    0.298478
   6 H :    0.344342
   7 C :   -0.809877
   8 H :    0.345329
   9 C :   -0.822146
  10 H :    0.362771
  11 C :   -0.989629
  12 H :    0.388227
  13 H :    0.376997
  14 C :    0.247028
  15 H :    0.415046
  16 H :    0.419970
  17 H :   -0.234381
  18 C :   -0.902869
  19 H :    0.411952
  20 H :    0.388375
  21 H :    0.412790
  22 C :   -0.406632
  23 H :    0.367976
  24 H :    0.354178
  25 F :   -0.449633
  26 C :    0.109103
  27 C :   -1.463159
  28 N :   -0.341770
  29 H :    0.225626
  30 H :    0.381549
  31 H :    0.369193
  32 H :    0.729673
  33 H :    0.379799
  34 H :    0.327008
Sum of atomic charges:    0.0000000

LOEWDIN ATOMIC CHARGES
----------------------
   0 C :   -0.158148
   1 C :   -0.216861
   2 H :    0.112005
   3 C :   -0.230798
   4 H :    0.117129
   5 H :    0.097466
   6 H :    0.125436
   7 C :   -0.226059
   8 H :    0.108153
   9 C :   -0.223939
  10 H :    0.124430
  11 C :   -0.234600
  12 H :    0.117686
  13 H :    0.118505
  14 C :   -0.232930
  15 H :    0.113049
  16 H :    0.120214
  17 H :    0.083973
  18 C :   -0.198242
  19 H :    0.136772
  20 H :    0.125187
  21 H :    0.129361
  22 C :   -0.206731
  23 H :    0.129878
  24 H :    0.138895
  25 F :   -0.080798
  26 C :   -0.498203
  27 C :   -0.001332
  28 N :    0.111671
  29 H :    0.120786
  30 H :    0.077478
  31 H :    0.045656
  32 H :    0.007946
  33 H :    0.120162
  34 H :    0.126805

  Mayer bond orders larger than 0.100000
B(  0-C ,  1-C ) :   0.6650 B(  0-C ,  3-C ) :  -0.1581 B(  0-C ,  7-C ) :   0.1181
B(  0-C , 26-C ) :   0.6685 B(  0-C , 33-H ) :   0.9116 B(  0-C , 34-H ) :   0.9654
B(  1-C ,  2-H ) :   0.9109 B(  1-C ,  3-C ) :   0.6996 B(  1-C ,  4-H ) :   0.9056
B(  3-C ,  5-H ) :   1.0156 B(  3-C ,  6-H ) :   0.9262 B(  3-C ,  7-C ) :   0.4781
B(  3-C , 11-C ) :   0.1220 B(  7-C ,  8-H ) :   1.0382 B(  7-C ,  9-C ) :   0.7774
B(  7-C , 10-H ) :   0.8957 B(  9-C , 11-C ) :   0.8178 B(  9-C , 12-H ) :   0.9225
B(  9-C , 13-H ) :   0.9389 B( 11-C , 14-C ) :   0.5058 B( 11-C , 15-H ) :   0.9124
B( 11-C , 16-H ) :   0.8457 B( 11-C , 18-C ) :   0.2152 B( 14-C , 17-H ) :   0.9491
B( 14-C , 18-C ) :   0.6281 B( 14-C , 19-H ) :   0.7830 B( 17-H , 19-H ) :   0.1795
B( 18-C , 20-H ) :   0.8598 B( 18-C , 21-H ) :   0.8861 B( 18-C , 22-C ) :   0.8885
B( 22-C , 23-H ) :   0.9140 B( 22-C , 24-H ) :   0.9115 B( 22-C , 25-F ) :   0.7670
B( 25-F , 27-C ) :   0.1188 B( 25-F , 32-H ) :  -0.1156 B( 26-C , 27-C ) :   1.8144
B( 26-C , 28-N ) :   0.7327 B( 27-C , 31-H ) :   0.9540 B( 27-C , 32-H ) :   0.6824
B( 28-N , 29-H ) :   0.9211 B( 28-N , 30-H ) :   0.8408

FINAL SINGLE POINT ENERGY      -585.267850195086

DIPOLE MOMENT
-------------
                                X             Y             Z
Electronic contribution:     -2.71625      -1.59330      10.40809
Nuclear contribution   :      1.82572       1.04089     -11.09065
                        -----------------------------------------
Total Dipole Moment    :     -0.89053      -0.55241      -0.68256
                        -----------------------------------------
Magnitude (a.u.)       :      1.25063
Magnitude (Debye)      :      3.17885

Rotational constants in cm-1:     0.028436     0.022359     0.014416
Rotational constants in MHz :   852.496561   670.291843   432.183951

                             ****ORCA TERMINATED NORMALLY****
TOTAL RUN TIME: 0 days 0 hours 8 minutes 7 seconds 453 msec
