                         Program Version 5.0.0 -  RELEASE  -
|  1> !LC-PBE RIJCOSX def2-TZVPD def2/J TightSCF xyzfile
|  2>
|  3> *xyzfile 0 1 D2.xyz
|  4>
|  5> %MaxCore 64000
|  6>
|  7> %pal nprocs 4
|  8> end
|  9>
| 10> %scf
| 11>   MaxIter 150
| 12> end
| 13>
| 14>
| 15>                          ****END OF INPUT****

CARTESIAN COORDINATES (ANGSTROEM)
---------------------------------
  C      4.366454   -0.133215   -1.416062
  C      4.508292   -0.931872   -2.724249
  H      4.753716   -1.972051   -2.488408
  C      3.294164   -0.918214   -3.656570
  H      5.385637   -0.536236   -3.242640
  H      2.483463   -1.477378   -3.185764
  H      3.553092   -1.478495   -4.560331
  C      2.772335    0.460100   -4.051448
  H      2.608762    1.065107   -3.155194
  C      1.465354    0.410537   -4.853644
  H      3.532940    0.988848   -4.635671
  C      0.326171   -0.375613   -4.192580
  H      1.666704   -0.022269   -5.839323
  H      1.138198    1.439246   -5.035449
  C     -0.017405    0.080588   -2.778406
  H      0.585573   -1.439385   -4.168057
  H     -0.560005   -0.311425   -4.831461
  H      0.902090    0.201296   -2.206729
  C     -0.903495   -0.873945   -1.987388
  H     -0.479549    1.074657   -2.811915
  H     -0.502554   -1.892096   -2.081204
  H     -1.917039   -0.895427   -2.406277
  C     -0.960148   -0.522365   -0.489867
  H     -1.690392   -1.208130   -0.021677
  H     -1.414490    0.486329   -0.406677
  F      0.261703   -0.580307    0.138611
  C      3.056503   -0.320797   -0.707384
  N      2.389825    0.711285   -0.243909
  C      2.515999   -1.507721   -0.550229
  H      2.967683   -2.322915   -0.956305
  H      1.549872   -1.490634   -0.249876
  H      2.743071    1.649471   -0.412802
  H      1.440364    0.502778    0.037031
  H      4.487835    0.932997   -1.611569
  H      5.169672   -0.414432   -0.729817

 Total Charge           Charge          ....    0
 Multiplicity           Mult            ....    1
 Number of Electrons    NEL             ....  104
 Basis Dimension        Dim             ....  682

ORBITAL ENERGIES
----------------

  NO   OCC          E(Eh)            E(eV)
   0   2.0000     -24.506796      -666.8638
   1   2.0000     -14.185753      -386.0140
   2   2.0000     -10.208089      -277.7762
   3   2.0000     -10.126273      -275.5499
   4   2.0000     -10.119588      -275.3680
   5   2.0000     -10.107615      -275.0422
   6   2.0000     -10.107352      -275.0350
   7   2.0000     -10.105813      -274.9931
   8   2.0000     -10.104703      -274.9629
   9   2.0000     -10.103774      -274.9377
  10   2.0000     -10.100517      -274.8490
  11   2.0000     -10.094662      -274.6897
  12   2.0000     -10.015405      -272.5330
  13   2.0000      -1.393263       -37.9126
  14   2.0000      -1.091018       -29.6881
  15   2.0000      -1.002108       -27.2687
  16   2.0000      -0.976740       -26.5784
  17   2.0000      -0.949301       -25.8318
  18   2.0000      -0.901831       -24.5401
  19   2.0000      -0.868141       -23.6233
  20   2.0000      -0.856471       -23.3057
  21   2.0000      -0.807123       -21.9629
  22   2.0000      -0.779391       -21.2083
  23   2.0000      -0.748088       -20.3565
  24   2.0000      -0.708715       -19.2851
  25   2.0000      -0.699438       -19.0327
  26   2.0000      -0.681390       -18.5416
  27   2.0000      -0.673867       -18.3369
  28   2.0000      -0.662208       -18.0196
  29   2.0000      -0.631708       -17.1896
  30   2.0000      -0.625325       -17.0160
  31   2.0000      -0.607670       -16.5355
  32   2.0000      -0.595256       -16.1978
  33   2.0000      -0.579201       -15.7609
  34   2.0000      -0.570911       -15.5353
  35   2.0000      -0.555020       -15.1029
  36   2.0000      -0.536266       -14.5925
  37   2.0000      -0.525405       -14.2970
  38   2.0000      -0.515088       -14.0163
  39   2.0000      -0.501620       -13.6498
  40   2.0000      -0.497391       -13.5347
  41   2.0000      -0.491610       -13.3774
  42   2.0000      -0.482301       -13.1241
  43   2.0000      -0.479492       -13.0476
  44   2.0000      -0.460191       -12.5224
  45   2.0000      -0.454045       -12.3552
  46   2.0000      -0.441719       -12.0198
  47   2.0000      -0.435880       -11.8609
  48   2.0000      -0.431219       -11.7341
  49   2.0000      -0.426082       -11.5943
  50   2.0000      -0.421647       -11.4736
  51   2.0000      -0.288383        -7.8473
  52   0.0000       0.063176         1.7191
  53   0.0000       0.070810         1.9268
  54   0.0000       0.074196         2.0190
  55   0.0000       0.078596         2.1387
  56   0.0000       0.089601         2.4382

MULLIKEN ATOMIC CHARGES
-----------------------
   0 C :   -0.817287
   1 C :   -0.941078
   2 H :    0.415641
   3 C :   -0.430754
   4 H :    0.392310
   5 H :    0.295621
   6 H :    0.368552
   7 C :   -0.788306
   8 H :    0.344175
   9 C :   -0.835792
  10 H :    0.361868
  11 C :   -1.000845
  12 H :    0.381614
  13 H :    0.368298
  14 C :    0.245422
  15 H :    0.434240
  16 H :    0.414019
  17 H :   -0.229415
  18 C :   -0.867846
  19 H :    0.421908
  20 H :    0.411795
  21 H :    0.435265
  22 C :   -0.451848
  23 H :    0.357785
  24 H :    0.366320
  25 F :   -0.452763
  26 C :    0.023471
  27 N :   -0.435877
  28 C :   -1.348903
  29 H :    0.420682
  30 H :    0.802395
  31 H :    0.205345
  32 H :    0.371171
  33 H :    0.436017
  34 H :    0.326799
Sum of atomic charges:    0.0000000

LOEWDIN ATOMIC CHARGES
----------------------
   0 C :   -0.157737
   1 C :   -0.213432
   2 H :    0.116731
   3 C :   -0.230651
   4 H :    0.116295
   5 H :    0.097458
   6 H :    0.126003
   7 C :   -0.228178
   8 H :    0.104947
   9 C :   -0.224340
  10 H :    0.123841
  11 C :   -0.232803
  12 H :    0.118341
  13 H :    0.117565
  14 C :   -0.235032
  15 H :    0.115349
  16 H :    0.120488
  17 H :    0.085002
  18 C :   -0.196339
  19 H :    0.134520
  20 H :    0.128509
  21 H :    0.129621
  22 C :   -0.206819
  23 H :    0.131218
  24 H :    0.136157
  25 F :   -0.079998
  26 C :   -0.495954
  27 N :    0.094603
  28 C :    0.009409
  29 H :    0.047542
  30 H :    0.012101
  31 H :    0.120467
  32 H :    0.072574
  33 H :    0.114010
  34 H :    0.128533

  Mayer bond orders larger than 0.100000
B(  0-C ,  1-C ) :   0.7303 B(  0-C ,  3-C ) :  -0.1205 B(  0-C , 26-C ) :   0.4245
B(  0-C , 33-H ) :   0.9294 B(  0-C , 34-H ) :   0.9811 B(  1-C ,  2-H ) :   0.8972
B(  1-C ,  3-C ) :   0.7548 B(  1-C ,  4-H ) :   0.8983 B(  1-C , 28-C ) :   0.1353
B(  3-C ,  5-H ) :   1.0315 B(  3-C ,  6-H ) :   0.8762 B(  3-C ,  7-C ) :   0.5038
B(  3-C , 11-C ) :   0.1223 B(  7-C ,  8-H ) :   1.0085 B(  7-C ,  9-C ) :   0.7975
B(  7-C , 10-H ) :   0.9093 B(  9-C , 11-C ) :   0.8106 B(  9-C , 12-H ) :   0.9280
B(  9-C , 13-H ) :   0.9516 B( 11-C , 14-C ) :   0.4821 B( 11-C , 15-H ) :   0.8963
B( 11-C , 16-H ) :   0.8570 B( 11-C , 18-C ) :   0.2210 B( 14-C , 17-H ) :   0.9234
B( 14-C , 18-C ) :   0.6421 B( 14-C , 19-H ) :   0.7820 B( 14-C , 27-N ) :  -0.1884
B( 17-H , 19-H ) :   0.1553 B( 18-C , 20-H ) :   0.8330 B( 18-C , 21-H ) :   0.8683
B( 18-C , 22-C ) :   0.8586 B( 22-C , 23-H ) :   0.9225 B( 22-C , 24-H ) :   0.8959
B( 22-C , 25-F ) :   0.7932 B( 25-F , 30-H ) :  -0.1407 B( 26-C , 27-N ) :   0.9392
B( 26-C , 28-C ) :   1.5843 B( 26-C , 30-H ) :  -0.1611 B( 26-C , 33-H ) :  -0.1451
B( 27-N , 31-H ) :   0.9648 B( 27-N , 32-H ) :   0.8426 B( 28-C , 29-H ) :   0.9271
B( 28-C , 30-H ) :   0.5442

FINAL SINGLE POINT ENERGY      -585.266948757724

DIPOLE MOMENT
-------------
                                X             Y             Z
Electronic contribution:     -2.81371       0.00503      10.63836
Nuclear contribution   :      1.85154       0.58682     -11.15333
                        -----------------------------------------
Total Dipole Moment    :     -0.96218       0.59186      -0.51497
                        -----------------------------------------
Magnitude (a.u.)       :      1.24148
Magnitude (Debye)      :      3.15559

Rotational constants in cm-1:     0.028379     0.022321     0.014415
Rotational constants in MHz :   850.785777   669.176075   432.155504

                             ****ORCA TERMINATED NORMALLY****
TOTAL RUN TIME: 0 days 0 hours 8 minutes 44 seconds 860 msec
