                         Program Version 5.0.0 -  RELEASE  -
|  1> !LC-PBE RIJCOSX def2-SVPD def2/J TightSCF
|  2> *xyz -1 1
|  3> C          4.08422        1.74208       -2.11472
|  4> C          4.26524        2.50052       -0.79589
|  5> H          4.86853        3.39267       -0.98113
|  6> H          3.30764        2.82457       -0.38781
|  7> C          4.98224        1.65026        0.24742
|  8> O          4.36806        1.38927        1.31371
|  9> O          6.12892        1.23351       -0.04562
| 10> H          3.57911        2.36849       -2.81997
| 11> H          3.50424        0.85965       -1.94198
| 12> H          5.04288        1.46841       -2.50327
| 13> *
| 14> %MaxCore 64000
| 15> %pal nprocs 8
| 16> end
| 17> %scf
| 18>   MaxIter 150
| 19> end
| 20>
| 21>
| 22>                          ****END OF INPUT****

CARTESIAN COORDINATES (ANGSTROEM)
---------------------------------
  C      4.084220    1.742080   -2.114720
  C      4.265240    2.500520   -0.795890
  H      4.868530    3.392670   -0.981130
  H      3.307640    2.824570   -0.387810
  C      4.982240    1.650260    0.247420
  O      4.368060    1.389270    1.313710
  O      6.128920    1.233510   -0.045620
  H      3.579110    2.368490   -2.819970
  H      3.504240    0.859650   -1.941980
  H      5.042880    1.468410   -2.503270

 Total Charge           Charge          ....   -1
 Multiplicity           Mult            ....    1
 Number of Electrons    NEL             ....   40
 Basis Dimension        Dim             ....  146

ORBITAL ENERGIES
----------------

  NO   OCC          E(Eh)            E(eV)
   0   2.0000     -18.726973      -509.5868
   1   2.0000     -18.726816      -509.5826
   2   2.0000     -10.017883      -272.6004
   3   2.0000      -9.966452      -271.2009
   4   2.0000      -9.955232      -270.8956
   5   2.0000      -0.981035       -26.6953
   6   2.0000      -0.876782       -23.8584
   7   2.0000      -0.779075       -21.1997
   8   2.0000      -0.635370       -17.2893
   9   2.0000      -0.471371       -12.8266
  10   2.0000      -0.439898       -11.9702
  11   2.0000      -0.402806       -10.9609
  12   2.0000      -0.377335       -10.2678
  13   2.0000      -0.355250        -9.6668
  14   2.0000      -0.349460        -9.5093
  15   2.0000      -0.315211        -8.5773
  16   2.0000      -0.301894        -8.2150
  17   2.0000      -0.178914        -4.8685
  18   2.0000      -0.174824        -4.7572
  19   2.0000      -0.163773        -4.4565
  20   0.0000       0.221085         6.0160
  21   0.0000       0.253971         6.9109
  22   0.0000       0.264059         7.1854
  23   0.0000       0.290702         7.9104
  24   0.0000       0.314081         8.5466

MULLIKEN ATOMIC CHARGES
-----------------------
   0 C :    0.317994
   1 C :   -0.407749
   2 H :    0.068625
   3 H :    0.025024
   4 C :    0.304433
   5 O :   -0.644015
   6 O :   -0.660442
   7 H :   -0.012854
   8 H :   -0.015226
   9 H :    0.024209
Sum of atomic charges:   -1.0000000

LOEWDIN ATOMIC CHARGES
----------------------
   0 C :    0.071637
   1 C :   -0.066538
   2 H :    0.022769
   3 H :    0.013511
   4 C :   -0.333314
   5 O :   -0.329704
   6 O :   -0.322611
   7 H :   -0.030345
   8 H :   -0.009767
   9 H :   -0.015637

  Mayer bond orders larger than 0.100000
B(  0-C ,  1-C ) :   1.2744 B(  0-C ,  7-H ) :   0.8789 B(  0-C ,  8-H ) :   0.8980
B(  0-C ,  9-H ) :   0.8701 B(  1-C ,  2-H ) :   0.9111 B(  1-C ,  3-H ) :   0.9862
B(  1-C ,  4-C ) :   1.0189 B(  1-C ,  7-H ) :   0.1196 B(  1-C ,  8-H ) :   0.1333
B(  1-C ,  9-H ) :   0.1513 B(  3-H ,  4-C ) :   0.1521 B(  4-C ,  5-O ) :   1.5540
B(  4-C ,  6-O ) :   1.5839

FINAL SINGLE POINT ENERGY      -266.875133408773

DIPOLE MOMENT
-------------
                                X             Y             Z
Electronic contribution:      2.37763      -1.40573       5.01139
Nuclear contribution   :     -3.31311       2.28398      -6.76358
                        -----------------------------------------
Total Dipole Moment    :     -0.93549       0.87825      -1.75219
                        -----------------------------------------
Magnitude (a.u.)       :      2.17178
Magnitude (Debye)      :      5.52024

Rotational constants in cm-1:     0.309287     0.135287     0.107346
Rotational constants in MHz :  9272.201029  4055.789113  3218.155789

                             ****ORCA TERMINATED NORMALLY****
TOTAL RUN TIME: 0 days 0 hours 0 minutes 16 seconds 128 msec
