                         Program Version 5.0.0 -  RELEASE  -
|  1> !LC-PBE RIJCOSX def2-SVPD def2/J TightSCF
|  2> *xyz 1 1
|  3> C          3.91385       -1.65829        3.01513
|  4> N          5.03927       -0.90115        2.49282
|  5> C          6.21038       -1.41726        2.17824
|  6> N          6.53591       -2.67712        2.55608
|  7> N          7.07675       -0.70082        1.47891
|  8> H          7.95464       -1.12155        1.20755
|  9> H          6.75616        0.10664        0.96028
| 10> H          4.84217        0.01761        2.11519
| 11> H          5.99388       -3.12692        3.28278
| 12> C          3.13916       -2.37657        1.91061
| 13> H          3.26723       -0.93940        3.52069
| 14> H          4.24720       -2.35509        3.79006
| 15> H          7.49844       -2.97548        2.46878
| 16> H          2.82969       -1.66654        1.17238
| 17> H          2.27790       -2.85264        2.33072
| 18> H          3.76754       -3.11338        1.45548
| 19> *
| 20> %MaxCore 64000
| 21> %pal nprocs 8
| 22> end
| 23> %scf
| 24>   MaxIter 150
| 25> end
| 26>
| 27>
| 28>                          ****END OF INPUT****

CARTESIAN COORDINATES (ANGSTROEM)
---------------------------------
  C      3.913850   -1.658290    3.015130
  N      5.039270   -0.901150    2.492820
  C      6.210380   -1.417260    2.178240
  N      6.535910   -2.677120    2.556080
  N      7.076750   -0.700820    1.478910
  H      7.954640   -1.121550    1.207550
  H      6.756160    0.106640    0.960280
  H      4.842170    0.017610    2.115190
  H      5.993880   -3.126920    3.282780
  C      3.139160   -2.376570    1.910610
  H      3.267230   -0.939400    3.520690
  H      4.247200   -2.355090    3.790060
  H      7.498440   -2.975480    2.468780
  H      2.829690   -1.666540    1.172380
  H      2.277900   -2.852640    2.330720
  H      3.767540   -3.113380    1.455480

 Total Charge           Charge          ....    1
 Multiplicity           Mult            ....    1
 Number of Electrons    NEL             ....   48
 Basis Dimension        Dim             ....  200

ORBITAL ENERGIES
----------------

  NO   OCC          E(Eh)            E(eV)
   0   2.0000     -14.459328      -393.4583
   1   2.0000     -14.455674      -393.3589
   2   2.0000     -14.452766      -393.2798
   3   2.0000     -10.474828      -285.0346
   4   2.0000     -10.337402      -281.2950
   5   2.0000     -10.261891      -279.2402
   6   2.0000      -1.392282       -37.8859
   7   2.0000      -1.274420       -34.6787
   8   2.0000      -1.254593       -34.1392
   9   2.0000      -1.100640       -29.9499
  10   2.0000      -0.999446       -27.1963
  11   2.0000      -0.960299       -26.1311
  12   2.0000      -0.942599       -25.6494
  13   2.0000      -0.895264       -24.3614
  14   2.0000      -0.837980       -22.8026
  15   2.0000      -0.828783       -22.5523
  16   2.0000      -0.806309       -21.9408
  17   2.0000      -0.778950       -21.1963
  18   2.0000      -0.744576       -20.2609
  19   2.0000      -0.703666       -19.1477
  20   2.0000      -0.666033       -18.1237
  21   2.0000      -0.643109       -17.4999
  22   2.0000      -0.613624       -16.6976
  23   2.0000      -0.580147       -15.7866
  24   0.0000      -0.081884        -2.2282
  25   0.0000      -0.073309        -1.9948
  26   0.0000      -0.040603        -1.1049
  27   0.0000      -0.035094        -0.9550
  28   0.0000      -0.006667        -0.1814

MULLIKEN ATOMIC CHARGES
-----------------------
   0 C :    0.086414
   1 N :   -0.390382
   2 C :    1.305890
   3 N :   -0.068788
   4 N :   -0.138667
   5 H :    0.034066
   6 H :    0.001551
   7 H :   -0.168259
   8 H :    0.005200
   9 C :    0.428537
  10 H :   -0.155766
  11 H :   -0.002978
  12 H :   -0.097564
  13 H :    0.036006
  14 H :    0.108501
  15 H :    0.016240
Sum of atomic charges:    1.0000000

LOEWDIN ATOMIC CHARGES
----------------------
   0 C :    0.015934
   1 N :    0.032616
   2 C :   -0.031201
   3 N :    0.264922
   4 N :    0.245803
   5 H :    0.048863
   6 H :    0.050865
   7 H :    0.073351
   8 H :    0.022523
   9 C :    0.129022
  10 H :    0.053478
  11 H :    0.035690
  12 H :    0.043870
  13 H :    0.004993
  14 H :    0.013555
  15 H :   -0.004284

  Mayer bond orders larger than 0.100000
B(  0-C ,  1-N ) :   0.9685 B(  0-C ,  2-C ) :  -0.1022 B(  0-C ,  7-H ) :  -0.1487
B(  0-C ,  9-C ) :   1.2475 B(  0-C , 10-H ) :   0.9498 B(  0-C , 11-H ) :   0.9243
B(  0-C , 13-H ) :   0.1836 B(  0-C , 14-H ) :   0.1239 B(  0-C , 15-H ) :   0.1500
B(  1-N ,  2-C ) :   1.0682 B(  1-N ,  3-N ) :   0.1885 B(  1-N ,  4-N ) :   0.2443
B(  1-N ,  7-H ) :   1.2904 B(  1-N , 10-H ) :   0.1644 B(  1-N , 11-H ) :   0.1100
B(  2-C ,  3-N ) :   0.9271 B(  2-C ,  4-N ) :   0.8452 B(  2-C ,  6-H ) :  -0.1512
B(  2-C ,  7-H ) :  -0.2424 B(  2-C ,  8-H ) :  -0.1003 B(  2-C , 12-H ) :  -0.1402
B(  3-N ,  4-N ) :   0.1356 B(  3-N ,  8-H ) :   1.0546 B(  3-N , 12-H ) :   1.2370
B(  4-N ,  5-H ) :   1.1225 B(  4-N ,  6-H ) :   1.1724 B(  5-H ,  6-H ) :  -0.1509
B(  8-H , 12-H ) :  -0.1792 B(  9-C , 13-H ) :   0.8412 B(  9-C , 14-H ) :   0.8262
B(  9-C , 15-H ) :   0.8794

FINAL SINGLE POINT ENERGY      -283.315712958743

DIPOLE MOMENT
-------------
                                X             Y             Z
Electronic contribution:      4.71547       1.91800       0.07593
Nuclear contribution   :     -3.67981      -1.62355      -0.28562
                        -----------------------------------------
Total Dipole Moment    :      1.03566       0.29446      -0.20969
                        -----------------------------------------
Magnitude (a.u.)       :      1.09694
Magnitude (Debye)      :      2.78819

Rotational constants in cm-1:     0.222027     0.074735     0.065694
Rotational constants in MHz :  6656.200457  2240.503315  1969.451902

                             ****ORCA TERMINATED NORMALLY****
TOTAL RUN TIME: 0 days 0 hours 0 minutes 30 seconds 371 msec
