                         Program Version 5.0.0 -  RELEASE  -
|  1> !LC-PBE RIJCOSX def2-SVPD def2/J TightSCF xyzfile
|  2>
|  3> *xyzfile 0 1 B.xyz
|  4>
|  5> %MaxCore 64000
|  6>
|  7> %pal nprocs 4
|  8> end
|  9>
| 10> %scf
| 11>   MaxIter 150
| 12> end
| 13>
| 14>
| 15>                          ****END OF INPUT****

CARTESIAN COORDINATES (ANGSTROEM)
---------------------------------
  C      3.913853   -1.658291    3.015134
  N      5.039266   -0.901154    2.492821
  C      4.084215    1.742081   -2.114724
  C      4.265245    2.500518   -0.795890
  H      4.868534    3.392674   -0.981134
  H      3.307640    2.824571   -0.387809
  C      4.982240    1.650257    0.247422
  C      6.210384   -1.417261    2.178244
  N      6.535913   -2.677122    2.556078
  N      7.076754   -0.700820    1.478906
  H      7.954643   -1.121554    1.207554
  H      6.756161    0.106637    0.960278
  H      4.842168    0.017609    2.115191
  H      5.993876   -3.126918    3.282784
  H      7.498441   -2.975482    2.468776
  O      4.368065    1.389270    1.313706
  O      6.128919    1.233512   -0.045620
  C      3.139159   -2.376572    1.910609
  H      3.267235   -0.939401    3.520693
  H      4.247195   -2.355095    3.790065
  C      1.997274    0.430918   -1.399218
  C      3.412746    0.376886   -1.965497
  H      4.047407   -0.246590   -1.326706
  H      3.390774   -0.118719   -2.942839
  H      5.068475    1.598504   -2.565728
  H      3.503356    2.363939   -2.804565
  C      2.399946   -1.389579    1.009490
  H      2.440750   -3.087118    2.362976
  H      3.844475   -2.970462    1.318677
  C      2.070177   -1.936705   -0.372401
  H      1.481611   -1.061542    1.509912
  H      3.008628   -0.490001    0.897451
  C      1.322238   -0.935775   -1.256413
  H      1.472747   -2.850902   -0.283997
  H      3.003539   -2.234041   -0.862535
  H      1.376444    1.058920   -2.047420
  H      2.015341    0.929780   -0.426535
  H      0.316648   -0.787213   -0.848278
  H      1.185611   -1.379252   -2.248613

 Total Charge           Charge          ....    0
 Multiplicity           Mult            ....    1
 Number of Electrons    NEL             ....  126
 Basis Dimension        Dim             ....  510

ORBITAL ENERGIES
----------------

  NO   OCC          E(Eh)            E(eV)
   0   2.0000     -18.914996      -514.7032
   1   2.0000     -18.913563      -514.6642
   2   2.0000     -14.298368      -389.0784
   3   2.0000     -14.264070      -388.1451
   4   2.0000     -14.256133      -387.9291
   5   2.0000     -10.297732      -280.2155
   6   2.0000     -10.197121      -277.4778
   7   2.0000     -10.186198      -277.1805
   8   2.0000     -10.135787      -275.8088
   9   2.0000     -10.113443      -275.2008
  10   2.0000     -10.112913      -275.1863
  11   2.0000     -10.109340      -275.0891
  12   2.0000     -10.100347      -274.8444
  13   2.0000     -10.099019      -274.8083
  14   2.0000     -10.098800      -274.8023
  15   2.0000     -10.089787      -274.5571
  16   2.0000      -1.216670       -33.1073
  17   2.0000      -1.171030       -31.8653
  18   2.0000      -1.100857       -29.9558
  19   2.0000      -1.082956       -29.4687
  20   2.0000      -1.064924       -28.9781
  21   2.0000      -0.987706       -26.8768
  22   2.0000      -0.961115       -26.1533
  23   2.0000      -0.930117       -25.3098
  24   2.0000      -0.885372       -24.0922
  25   2.0000      -0.843916       -22.9641
  26   2.0000      -0.821649       -22.3582
  27   2.0000      -0.791646       -21.5418
  28   2.0000      -0.773297       -21.0425
  29   2.0000      -0.760135       -20.6843
  30   2.0000      -0.730573       -19.8799
  31   2.0000      -0.721475       -19.6323
  32   2.0000      -0.691342       -18.8124
  33   2.0000      -0.669999       -18.2316
  34   2.0000      -0.667415       -18.1613
  35   2.0000      -0.648922       -17.6581
  36   2.0000      -0.619684       -16.8625
  37   2.0000      -0.615290       -16.7429
  38   2.0000      -0.608642       -16.5620
  39   2.0000      -0.600307       -16.3352
  40   2.0000      -0.586985       -15.9727
  41   2.0000      -0.569385       -15.4938
  42   2.0000      -0.564859       -15.3706
  43   2.0000      -0.559494       -15.2246
  44   2.0000      -0.548889       -14.9360
  45   2.0000      -0.543271       -14.7831
  46   2.0000      -0.525669       -14.3042
  47   2.0000      -0.512161       -13.9366
  48   2.0000      -0.501487       -13.6461
  49   2.0000      -0.490287       -13.3414
  50   2.0000      -0.480992       -13.0885
  51   2.0000      -0.472182       -12.8487
  52   2.0000      -0.457517       -12.4497
  53   2.0000      -0.450111       -12.2481
  54   2.0000      -0.444503       -12.0955
  55   2.0000      -0.438655       -11.9364
  56   2.0000      -0.425347       -11.5743
  57   2.0000      -0.420325       -11.4376
  58   2.0000      -0.412834       -11.2338
  59   2.0000      -0.403381       -10.9766
  60   2.0000      -0.365700        -9.9512
  61   2.0000      -0.355877        -9.6839
  62   2.0000      -0.353152        -9.6097
  63   0.0000       0.060616         1.6495
  64   0.0000       0.082664         2.2494
  65   0.0000       0.089966         2.4481
  66   0.0000       0.103799         2.8245
  67   0.0000       0.110267         3.0005

MULLIKEN ATOMIC CHARGES
-----------------------
   0 C :    0.948029
   1 N :    0.091532
   2 C :    0.229500
   3 C :    0.151800
   4 H :   -0.008344
   5 H :    0.197437
   6 C :    0.076675
   7 C :    1.151357
   8 N :   -0.004197
   9 N :    0.287354
  10 H :   -0.040188
  11 H :   -0.356252
  12 H :   -0.938606
  13 H :    0.003068
  14 H :   -0.125085
  15 O :   -0.583991
  16 O :   -0.534185
  17 C :    0.194917
  18 H :   -0.167489
  19 H :   -0.182023
  20 C :   -0.249289
  21 C :   -0.259182
  22 H :    0.030584
  23 H :   -0.083540
  24 H :    0.086677
  25 H :   -0.039238
  26 C :    0.479163
  27 H :   -0.020808
  28 H :    0.043729
  29 C :   -0.144677
  30 H :    0.047541
  31 H :   -0.822009
  32 C :    0.513704
  33 H :   -0.282490
  34 H :    0.192663
  35 H :   -0.280567
  36 H :    0.241343
  37 H :    0.087984
  38 H :    0.067103
Sum of atomic charges:    0.0000000

LOEWDIN ATOMIC CHARGES
----------------------
   0 C :    0.051517
   1 N :    0.072187
   2 C :   -0.045432
   3 C :    0.010610
   4 H :    0.041970
   5 H :    0.027209
   6 C :   -0.206335
   7 C :   -0.030667
   8 N :    0.232054
   9 N :    0.269892
  10 H :    0.033441
  11 H :   -0.107610
  12 H :   -0.078556
  13 H :    0.002121
  14 H :    0.022731
  15 O :   -0.238658
  16 O :   -0.228232
  17 C :   -0.037858
  18 H :    0.052552
  19 H :    0.018570
  20 C :   -0.054740
  21 C :   -0.053042
  22 H :    0.023215
  23 H :    0.037117
  24 H :    0.033686
  25 H :    0.031737
  26 C :   -0.048627
  27 H :    0.037413
  28 H :    0.029578
  29 C :   -0.063741
  30 H :    0.050788
  31 H :   -0.012265
  32 C :   -0.056008
  33 H :    0.033097
  34 H :    0.028719
  35 H :    0.036094
  36 H :    0.020374
  37 H :    0.032985
  38 H :    0.032113

  Mayer bond orders larger than 0.100000
B(  0-C ,  1-N ) :   0.9370 B(  0-C , 12-H ) :  -0.4418 B(  0-C , 17-C ) :   1.0727
B(  0-C , 18-H ) :   0.7392 B(  0-C , 19-H ) :   0.8448 B(  0-C , 26-C ) :   0.1389
B(  1-N ,  7-C ) :   1.1583 B(  1-N ,  8-N ) :   0.1988 B(  1-N , 12-H ) :   1.3117
B(  1-N , 18-H ) :   0.2054 B(  1-N , 19-H ) :   0.1006 B(  2-C ,  3-C ) :   1.1906
B(  2-C ,  4-H ) :   0.1292 B(  2-C , 21-C ) :   1.2569 B(  2-C , 24-H ) :   0.7341
B(  2-C , 25-H ) :   0.8675 B(  3-C ,  4-H ) :   0.7391 B(  3-C ,  5-H ) :   0.7772
B(  3-C ,  6-C ) :   1.1766 B(  3-C , 25-H ) :   0.1245 B(  4-H ,  6-C ) :   0.2214
B(  5-H ,  6-C ) :   0.2123 B(  6-C , 15-O ) :   1.5039 B(  6-C , 16-O ) :   1.4295
B(  7-C ,  8-N ) :   0.8713 B(  7-C ,  9-N ) :   0.9527 B(  7-C , 11-H ) :  -0.2234
B(  7-C , 12-H ) :  -0.5944 B(  8-N ,  9-N ) :   0.1276 B(  8-N , 13-H ) :   1.0532
B(  8-N , 14-H ) :   1.2086 B(  9-N , 10-H ) :   1.1434 B(  9-N , 11-H ) :   1.1855
B( 10-H , 11-H ) :  -0.2202 B( 11-H , 16-O ) :   0.1480 B( 12-H , 15-O ) :   0.2646
B( 12-H , 18-H ) :   0.1330 B( 13-H , 14-H ) :  -0.1844 B( 15-O , 31-H ) :   0.1051
B( 17-C , 19-H ) :   0.1360 B( 17-C , 26-C ) :   1.1557 B( 17-C , 27-H ) :   0.9236
B( 17-C , 28-H ) :   0.9183 B( 17-C , 30-H ) :   0.1164 B( 18-H , 19-H ) :  -0.1872
B( 20-C , 21-C ) :   1.2356 B( 20-C , 23-H ) :   0.1348 B( 20-C , 32-C ) :   1.1717
B( 20-C , 35-H ) :   1.0852 B( 20-C , 36-H ) :   0.8287 B( 20-C , 37-H ) :   0.2268
B( 20-C , 38-H ) :   0.1184 B( 21-C , 22-H ) :   0.9649 B( 21-C , 23-H ) :   0.9230
B( 21-C , 24-H ) :   0.2046 B( 21-C , 25-H ) :   0.1522 B( 21-C , 35-H ) :   0.1124
B( 26-C , 27-H ) :   0.1283 B( 26-C , 29-C ) :   1.2832 B( 26-C , 30-H ) :   0.6826
B( 26-C , 31-H ) :   0.3018 B( 26-C , 33-H ) :   0.1074 B( 26-C , 34-H ) :   0.1317
B( 27-H , 31-H ) :   0.1069 B( 29-C , 31-H ) :   0.1271 B( 29-C , 32-C ) :   1.1277
B( 29-C , 33-H ) :   1.0884 B( 29-C , 34-H ) :   0.8346 B( 29-C , 38-H ) :   0.1868
B( 30-H , 31-H ) :   0.2937 B( 31-H , 36-H ) :   0.1047 B( 32-C , 37-H ) :   0.7272
B( 32-C , 38-H ) :   0.7449

FINAL SINGLE POINT ENERGY      -744.952758570829

DIPOLE MOMENT
-------------
                                X             Y             Z
Electronic contribution:     12.26794       3.26293       7.66921
Nuclear contribution   :    -11.44764      -6.21818      -6.18483
                        -----------------------------------------
Total Dipole Moment    :      0.82030      -2.95524       1.48438
                        -----------------------------------------
Magnitude (a.u.)       :      3.40731
Magnitude (Debye)      :      8.66069

Rotational constants in cm-1:     0.020281     0.013510     0.009451
Rotational constants in MHz :   608.005987   405.034308   283.324538

                             ****ORCA TERMINATED NORMALLY****
TOTAL RUN TIME: 0 days 0 hours 4 minutes 19 seconds 57 msec
