                         Program Version 5.0.0 -  RELEASE  -
|  1> !LC-PBE RIJCOSX def2-SVPD def2/J TightSCF
|  2> *xyz 0 1
|  3> C          4.08422        1.74208       -2.11472
|  4> C          4.26524        2.50052       -0.79589
|  5> H          4.86853        3.39267       -0.98113
|  6> H          3.30764        2.82457       -0.38781
|  7> C          4.98224        1.65026        0.24742
|  8> F          4.36806        1.38927        1.31371
|  9> O          6.12892        1.23351       -0.04562
| 10> H          3.57911        2.36849       -2.81997
| 11> H          3.50424        0.85965       -1.94198
| 12> H          5.04288        1.46841       -2.50327
| 13> *
| 14> %MaxCore 64000
| 15> %pal nprocs 8
| 16> end
| 17> %scf
| 18>   MaxIter 150
| 19> end
| 20>
| 21>
| 22>                          ****END OF INPUT****

CARTESIAN COORDINATES (ANGSTROEM)
---------------------------------
  C      4.084220    1.742080   -2.114720
  C      4.265240    2.500520   -0.795890
  H      4.868530    3.392670   -0.981130
  H      3.307640    2.824570   -0.387810
  C      4.982240    1.650260    0.247420
  F      4.368060    1.389270    1.313710
  O      6.128920    1.233510   -0.045620
  H      3.579110    2.368490   -2.819970
  H      3.504240    0.859650   -1.941980
  H      5.042880    1.468410   -2.503270

 Total Charge           Charge          ....    0
 Multiplicity           Mult            ....    1
 Number of Electrons    NEL             ....   40
 Basis Dimension        Dim             ....  146

ORBITAL ENERGIES
----------------

  NO   OCC          E(Eh)            E(eV)
   0   2.0000     -24.582018      -668.9107
   1   2.0000     -19.004390      -517.1357
   2   2.0000     -10.319813      -280.8164
   3   2.0000     -10.163963      -276.5755
   4   2.0000     -10.134605      -275.7766
   5   2.0000      -1.467122       -39.9224
   6   2.0000      -1.194781       -32.5116
   7   2.0000      -0.977131       -26.5891
   8   2.0000      -0.852024       -23.1848
   9   2.0000      -0.798829       -21.7372
  10   2.0000      -0.711091       -19.3498
  11   2.0000      -0.693225       -18.8636
  12   2.0000      -0.660687       -17.9782
  13   2.0000      -0.613453       -16.6929
  14   2.0000      -0.580856       -15.8059
  15   2.0000      -0.542061       -14.7502
  16   2.0000      -0.517987       -14.0951
  17   2.0000      -0.510103       -13.8806
  18   2.0000      -0.485396       -13.2083
  19   2.0000      -0.435005       -11.8371
  20   0.0000       0.061315         1.6685
  21   0.0000       0.084259         2.2928
  22   0.0000       0.112147         3.0517
  23   0.0000       0.121769         3.3135
  24   0.0000       0.146906         3.9975

MULLIKEN ATOMIC CHARGES
-----------------------
   0 C :    0.322737
   1 C :   -0.494786
   2 H :    0.145564
   3 H :    0.073816
   4 C :    0.619728
   5 F :   -0.320029
   6 O :   -0.439920
   7 H :    0.035656
   8 H :    0.010213
   9 H :    0.047022
Sum of atomic charges:    0.0000000

LOEWDIN ATOMIC CHARGES
----------------------
   0 C :    0.110789
   1 C :   -0.021419
   2 H :    0.052824
   3 H :    0.035411
   4 C :   -0.028680
   5 F :   -0.023373
   6 O :   -0.130113
   7 H :   -0.000888
   8 H :    0.002901
   9 H :    0.002548

  Mayer bond orders larger than 0.100000
B(  0-C ,  1-C ) :   1.3027 B(  0-C ,  7-H ) :   0.8838 B(  0-C ,  8-H ) :   0.8934
B(  0-C ,  9-H ) :   0.8701 B(  1-C ,  2-H ) :   0.8963 B(  1-C ,  3-H ) :   0.9762
B(  1-C ,  4-C ) :   1.0901 B(  1-C ,  7-H ) :   0.1106 B(  1-C ,  8-H ) :   0.1222
B(  1-C ,  9-H ) :   0.1347 B(  4-C ,  5-F ) :   0.8243 B(  4-C ,  6-O ) :   1.9073

FINAL SINGLE POINT ENERGY      -291.381054433891

DIPOLE MOMENT
-------------
                                X             Y             Z
Electronic contribution:      1.87436      -2.00511       8.11409
Nuclear contribution   :     -2.87511       2.61564      -8.50037
                        -----------------------------------------
Total Dipole Moment    :     -1.00075       0.61052      -0.38628
                        -----------------------------------------
Magnitude (a.u.)       :      1.23428
Magnitude (Debye)      :      3.13729

Rotational constants in cm-1:     0.297822     0.128965     0.102219
Rotational constants in MHz :  8928.481997  3866.271686  3064.463504

                             ****ORCA TERMINATED NORMALLY****
TOTAL RUN TIME: 0 days 0 hours 0 minutes 15 seconds 729 msec
