                         Program Version 5.0.0 -  RELEASE  -
|  1> !LC-PBE RIJCOSX def2-SVPD def2/J TightSCF
|  2> *xyz 0 1
|  3> C          3.91385       -1.65829        3.01513
|  4> C          5.03927       -0.90115        2.49282
|  5> C          6.21038       -1.41726        2.17824
|  6> N          6.53591       -2.67712        2.55608
|  7> N          7.07675       -0.70082        1.47891
|  8> H          7.95464       -1.12155        1.20755
|  9> H          6.75616        0.10664        0.96028
| 10> H          4.84217        0.01761        2.11519
| 11> H          5.99388       -3.12692        3.28278
| 12> C          3.13916       -2.37657        1.91061
| 13> H          3.26723       -0.93940        3.52069
| 14> H          4.24720       -2.35509        3.79006
| 15> H          7.49844       -2.97548        2.46878
| 16> H          2.82969       -1.66654        1.17238
| 17> H          2.27790       -2.85264        2.33072
| 18> H          3.76754       -3.11338        1.45548
| 19> *
| 20> %MaxCore 64000
| 21> %pal nprocs 8
| 22> end
| 23> %scf
| 24>   MaxIter 150
| 25> end
| 26>
| 27>
| 28>                          ****END OF INPUT****

CARTESIAN COORDINATES (ANGSTROEM)
---------------------------------
  C      3.913850   -1.658290    3.015130
  C      5.039270   -0.901150    2.492820
  C      6.210380   -1.417260    2.178240
  N      6.535910   -2.677120    2.556080
  N      7.076750   -0.700820    1.478910
  H      7.954640   -1.121550    1.207550
  H      6.756160    0.106640    0.960280
  H      4.842170    0.017610    2.115190
  H      5.993880   -3.126920    3.282780
  C      3.139160   -2.376570    1.910610
  H      3.267230   -0.939400    3.520690
  H      4.247200   -2.355090    3.790060
  H      7.498440   -2.975480    2.468780
  H      2.829690   -1.666540    1.172380
  H      2.277900   -2.852640    2.330720
  H      3.767540   -3.113380    1.455480

 Total Charge           Charge          ....    0
 Multiplicity           Mult            ....    1
 Number of Electrons    NEL             ....   48
 Basis Dimension        Dim             ....  200

ORBITAL ENERGIES
----------------

  NO   OCC          E(Eh)            E(eV)
   0   2.0000     -14.229540      -387.2055
   1   2.0000     -14.227466      -387.1490
   2   2.0000     -10.174459      -276.8611
   3   2.0000     -10.103117      -274.9198
   4   2.0000     -10.090263      -274.5700
   5   2.0000     -10.049551      -273.4622
   6   2.0000      -1.129997       -30.7488
   7   2.0000      -1.029901       -28.0250
   8   2.0000      -0.946779       -25.7632
   9   2.0000      -0.856965       -23.3192
  10   2.0000      -0.772845       -21.0302
  11   2.0000      -0.729723       -19.8568
  12   2.0000      -0.690250       -18.7827
  13   2.0000      -0.657114       -17.8810
  14   2.0000      -0.612552       -16.6684
  15   2.0000      -0.580691       -15.8014
  16   2.0000      -0.565359       -15.3842
  17   2.0000      -0.533361       -14.5135
  18   2.0000      -0.519483       -14.1358
  19   2.0000      -0.491215       -13.3666
  20   2.0000      -0.458523       -12.4770
  21   2.0000      -0.446373       -12.1464
  22   2.0000      -0.401756       -10.9323
  23   2.0000      -0.277927        -7.5628
  24   0.0000       0.089929         2.4471
  25   0.0000       0.113616         3.0916
  26   0.0000       0.121092         3.2951
  27   0.0000       0.131365         3.5746
  28   0.0000       0.152629         4.1532

MULLIKEN ATOMIC CHARGES
-----------------------
   0 C :   -0.332795
   1 C :   -0.460593
   2 C :    0.881249
   3 N :   -0.112681
   4 N :   -0.096820
   5 H :   -0.085831
   6 H :   -0.002778
   7 H :   -0.141798
   8 H :    0.013531
   9 C :    0.453238
  10 H :    0.017479
  11 H :   -0.005759
  12 H :   -0.206401
  13 H :    0.022944
  14 H :    0.057996
  15 H :   -0.000980
Sum of atomic charges:    0.0000000

LOEWDIN ATOMIC CHARGES
----------------------
   0 C :   -0.124637
   1 C :   -0.062334
   2 C :   -0.227851
   3 N :    0.184612
   4 N :    0.158479
   5 H :    0.001069
   6 H :    0.017537
   7 H :   -0.032521
   8 H :   -0.007056
   9 C :    0.090083
  10 H :    0.026730
  11 H :    0.013556
  12 H :   -0.003132
  13 H :   -0.006808
  14 H :   -0.014866
  15 H :   -0.012862

  Mayer bond orders larger than 0.100000
B(  0-C ,  1-C ) :   1.3150 B(  0-C ,  7-H ) :   0.2702 B(  0-C ,  9-C ) :   1.2307
B(  0-C , 10-H ) :   0.8516 B(  0-C , 11-H ) :   0.9185 B(  0-C , 13-H ) :   0.1902
B(  0-C , 14-H ) :   0.1359 B(  0-C , 15-H ) :   0.1622 B(  1-C ,  2-C ) :   1.7964
B(  1-C ,  3-N ) :   0.2039 B(  1-C ,  4-N ) :   0.3283 B(  1-C ,  7-H ) :   0.8776
B(  1-C , 10-H ) :   0.2316 B(  1-C , 11-H ) :   0.1730 B(  2-C ,  3-N ) :   0.8665
B(  2-C ,  4-N ) :   0.7952 B(  2-C ,  6-H ) :  -0.1066 B(  2-C ,  7-H ) :   0.1768
B(  2-C , 12-H ) :  -0.1535 B(  3-N ,  8-H ) :   1.0169 B(  3-N , 12-H ) :   1.2914
B(  4-N ,  5-H ) :   1.1381 B(  4-N ,  6-H ) :   1.1502 B(  5-H ,  6-H ) :  -0.1468
B(  8-H , 12-H ) :  -0.1729 B(  9-C , 13-H ) :   0.8556 B(  9-C , 14-H ) :   0.8260
B(  9-C , 15-H ) :   0.8774

FINAL SINGLE POINT ENERGY      -266.865986081058

DIPOLE MOMENT
-------------
                                X             Y             Z
Electronic contribution:      4.58783       1.22619      -0.02888
Nuclear contribution   :     -3.74303      -1.46908      -0.23637
                        -----------------------------------------
Total Dipole Moment    :      0.84480      -0.24289      -0.26525
                        -----------------------------------------
Magnitude (a.u.)       :      0.91817
Magnitude (Debye)      :      2.33381

Rotational constants in cm-1:     0.225937     0.074877     0.065953
Rotational constants in MHz :  6773.424301  2244.750632  1977.214101

                             ****ORCA TERMINATED NORMALLY****
TOTAL RUN TIME: 0 days 0 hours 0 minutes 29 seconds 528 msec
