                         Program Version 5.0.0 -  RELEASE  -
|  1> !LC-PBE RIJCOSX def2-SVPD def2/J TightSCF
|  2> *xyz 0 1
|  3> C          4.08422        1.74208       -2.11472
|  4> C          4.26524        2.50052       -0.79589
|  5> H          4.86853        3.39267       -0.98113
|  6> H          3.30764        2.82457       -0.38781
|  7> C          4.98224        1.65026        0.24742
|  8> O          4.36806        1.38927        1.31371
|  9> F          6.12892        1.23351       -0.04562
| 10> H          3.57911        2.36849       -2.81997
| 11> H          3.50424        0.85965       -1.94198
| 12> H          5.04288        1.46841       -2.50327
| 13> *
| 14> %MaxCore 64000
| 15> %pal nprocs 8
| 16> end
| 17> %scf
| 18>   MaxIter 150
| 19> end
| 20>
| 21>
| 22>                          ****END OF INPUT****

CARTESIAN COORDINATES (ANGSTROEM)
---------------------------------
  C      4.084220    1.742080   -2.114720
  C      4.265240    2.500520   -0.795890
  H      4.868530    3.392670   -0.981130
  H      3.307640    2.824570   -0.387810
  C      4.982240    1.650260    0.247420
  O      4.368060    1.389270    1.313710
  F      6.128920    1.233510   -0.045620
  H      3.579110    2.368490   -2.819970
  H      3.504240    0.859650   -1.941980
  H      5.042880    1.468410   -2.503270

 Total Charge           Charge          ....    0
 Multiplicity           Mult            ....    1
 Number of Electrons    NEL             ....   40
 Basis Dimension        Dim             ....  146

ORBITAL ENERGIES
----------------

  NO   OCC          E(Eh)            E(eV)
   0   2.0000     -24.583244      -668.9441
   1   2.0000     -19.003710      -517.1172
   2   2.0000     -10.319406      -280.8053
   3   2.0000     -10.163729      -276.5691
   4   2.0000     -10.139570      -275.9117
   5   2.0000      -1.469669       -39.9917
   6   2.0000      -1.191732       -32.4287
   7   2.0000      -0.981562       -26.7097
   8   2.0000      -0.849121       -23.1058
   9   2.0000      -0.804599       -21.8943
  10   2.0000      -0.714065       -19.4307
  11   2.0000      -0.699675       -19.0391
  12   2.0000      -0.653168       -17.7736
  13   2.0000      -0.613611       -16.6972
  14   2.0000      -0.580805       -15.8045
  15   2.0000      -0.546517       -14.8715
  16   2.0000      -0.524081       -14.2610
  17   2.0000      -0.511651       -13.9227
  18   2.0000      -0.490058       -13.3352
  19   2.0000      -0.429653       -11.6914
  20   0.0000       0.063999         1.7415
  21   0.0000       0.083545         2.2734
  22   0.0000       0.112310         3.0561
  23   0.0000       0.120695         3.2843
  24   0.0000       0.147294         4.0081

MULLIKEN ATOMIC CHARGES
-----------------------
   0 C :    0.309637
   1 C :   -0.471541
   2 H :    0.130495
   3 H :    0.066214
   4 C :    0.638535
   5 O :   -0.425296
   6 F :   -0.335911
   7 H :    0.037919
   8 H :    0.015199
   9 H :    0.034748
Sum of atomic charges:   -0.0000000

LOEWDIN ATOMIC CHARGES
----------------------
   0 C :    0.105865
   1 C :   -0.017252
   2 H :    0.048036
   3 H :    0.046376
   4 C :   -0.033135
   5 O :   -0.133318
   6 F :   -0.018934
   7 H :   -0.000274
   8 H :    0.004740
   9 H :   -0.002104

  Mayer bond orders larger than 0.100000
B(  0-C ,  1-C ) :   1.2741 B(  0-C ,  7-H ) :   0.8901 B(  0-C ,  8-H ) :   0.9057
B(  0-C ,  9-H ) :   0.8627 B(  1-C ,  2-H ) :   0.8956 B(  1-C ,  3-H ) :   1.0065
B(  1-C ,  4-C ) :   1.0624 B(  1-C ,  7-H ) :   0.1118 B(  1-C ,  8-H ) :   0.1184
B(  1-C ,  9-H ) :   0.1265 B(  3-H ,  4-C ) :   0.1022 B(  4-C ,  5-O ) :   1.9005
B(  4-C ,  6-F ) :   0.8084

FINAL SINGLE POINT ENERGY      -291.380280420353

DIPOLE MOMENT
-------------
                                X             Y             Z
Electronic contribution:      4.83589      -2.25901       5.79675
Nuclear contribution   :     -4.79499       2.78546      -7.01827
                        -----------------------------------------
Total Dipole Moment    :      0.04089       0.52645      -1.22152
                        -----------------------------------------
Magnitude (a.u.)       :      1.33077
Magnitude (Debye)      :      3.38254

Rotational constants in cm-1:     0.286098     0.133492     0.103343
Rotational constants in MHz :  8577.003657  4001.981591  3098.148068

                             ****ORCA TERMINATED NORMALLY****
TOTAL RUN TIME: 0 days 0 hours 0 minutes 16 seconds 85 msec
