                         Program Version 5.0.0 -  RELEASE  -
|  1> !LC-PBE RIJCOSX def2-SVPD def2/J TightSCF
|  2> *xyz 0 1
|  3> C          3.91385       -1.65829        3.01513
|  4> N          5.03927       -0.90115        2.49282
|  5> C          6.21038       -1.41726        2.17824
|  6> C          6.53591       -2.67712        2.55608
|  7> N          7.07675       -0.70082        1.47891
|  8> H          7.95464       -1.12155        1.20755
|  9> H          6.75616        0.10664        0.96028
| 10> H          4.84217        0.01761        2.11519
| 11> H          5.99388       -3.12692        3.28278
| 12> C          3.13916       -2.37657        1.91061
| 13> H          3.26723       -0.93940        3.52069
| 14> H          4.24720       -2.35509        3.79006
| 15> H          7.49844       -2.97548        2.46878
| 16> H          2.82969       -1.66654        1.17238
| 17> H          2.27790       -2.85264        2.33072
| 18> H          3.76754       -3.11338        1.45548
| 19> *
| 20> %MaxCore 64000
| 21> %pal nprocs 8
| 22> end
| 23> %scf
| 24>   MaxIter 150
| 25> end
| 26>
| 27>
| 28>                          ****END OF INPUT****

CARTESIAN COORDINATES (ANGSTROEM)
---------------------------------
  C      3.913850   -1.658290    3.015130
  N      5.039270   -0.901150    2.492820
  C      6.210380   -1.417260    2.178240
  C      6.535910   -2.677120    2.556080
  N      7.076750   -0.700820    1.478910
  H      7.954640   -1.121550    1.207550
  H      6.756160    0.106640    0.960280
  H      4.842170    0.017610    2.115190
  H      5.993880   -3.126920    3.282780
  C      3.139160   -2.376570    1.910610
  H      3.267230   -0.939400    3.520690
  H      4.247200   -2.355090    3.790060
  H      7.498440   -2.975480    2.468780
  H      2.829690   -1.666540    1.172380
  H      2.277900   -2.852640    2.330720
  H      3.767540   -3.113380    1.455480

 Total Charge           Charge          ....    0
 Multiplicity           Mult            ....    1
 Number of Electrons    NEL             ....   48
 Basis Dimension        Dim             ....  200

ORBITAL ENERGIES
----------------

  NO   OCC          E(Eh)            E(eV)
   0   2.0000     -14.235876      -387.3779
   1   2.0000     -14.231927      -387.2704
   2   2.0000     -10.182915      -277.0912
   3   2.0000     -10.161073      -276.4969
   4   2.0000     -10.107515      -275.0395
   5   2.0000     -10.037377      -273.1309
   6   2.0000      -1.145294       -31.1650
   7   2.0000      -1.054427       -28.6924
   8   2.0000      -0.921403       -25.0727
   9   2.0000      -0.870983       -23.7006
  10   2.0000      -0.801088       -21.7987
  11   2.0000      -0.715201       -19.4616
  12   2.0000      -0.703532       -19.1441
  13   2.0000      -0.667566       -18.1654
  14   2.0000      -0.612555       -16.6685
  15   2.0000      -0.582699       -15.8560
  16   2.0000      -0.565281       -15.3821
  17   2.0000      -0.537027       -14.6132
  18   2.0000      -0.513494       -13.9729
  19   2.0000      -0.504269       -13.7219
  20   2.0000      -0.498627       -13.5683
  21   2.0000      -0.473935       -12.8964
  22   2.0000      -0.383500       -10.4356
  23   2.0000      -0.282386        -7.6841
  24   0.0000       0.087326         2.3763
  25   0.0000       0.109725         2.9858
  26   0.0000       0.118932         3.2363
  27   0.0000       0.122746         3.3401
  28   0.0000       0.153432         4.1751

MULLIKEN ATOMIC CHARGES
-----------------------
   0 C :    0.088294
   1 N :   -0.399472
   2 C :    0.706910
   3 C :    0.267009
   4 N :   -0.093262
   5 H :    0.022886
   6 H :   -0.111915
   7 H :   -0.278179
   8 H :   -0.150317
   9 C :    0.451792
  10 H :   -0.208880
  11 H :    0.089248
  12 H :   -0.419423
  13 H :   -0.006931
  14 H :    0.055821
  15 H :   -0.013581
Sum of atomic charges:   -0.0000000

LOEWDIN ATOMIC CHARGES
----------------------
   0 C :   -0.007156
   1 N :   -0.034297
   2 C :   -0.238667
   3 C :    0.125861
   4 N :    0.165454
   5 H :    0.018623
   6 H :    0.004597
   7 H :    0.035445
   8 H :   -0.107320
   9 C :    0.104866
  10 H :    0.030631
  11 H :    0.025939
  12 H :   -0.094134
  13 H :   -0.010391
  14 H :   -0.008260
  15 H :   -0.011189

  Mayer bond orders larger than 0.100000
B(  0-C ,  1-N ) :   0.9513 B(  0-C ,  7-H ) :  -0.1483 B(  0-C ,  9-C ) :   1.2032
B(  0-C , 10-H ) :   0.9897 B(  0-C , 11-H ) :   0.8874 B(  0-C , 13-H ) :   0.1785
B(  0-C , 14-H ) :   0.1334 B(  0-C , 15-H ) :   0.1617 B(  1-N ,  2-C ) :   0.9555
B(  1-N ,  3-C ) :   0.3392 B(  1-N ,  4-N ) :   0.1585 B(  1-N ,  7-H ) :   1.3585
B(  1-N , 10-H ) :   0.1430 B(  2-C ,  3-C ) :   1.7612 B(  2-C ,  4-N ) :   0.8525
B(  2-C ,  7-H ) :  -0.2728 B(  2-C ,  8-H ) :   0.2390 B(  2-C , 12-H ) :   0.1393
B(  3-C ,  4-N ) :   0.2122 B(  3-C ,  8-H ) :   0.7205 B(  3-C , 12-H ) :   0.8952
B(  4-N ,  5-H ) :   1.1082 B(  4-N ,  6-H ) :   1.2046 B(  5-H ,  6-H ) :  -0.1484
B(  9-C , 13-H ) :   0.8541 B(  9-C , 14-H ) :   0.8438 B(  9-C , 15-H ) :   0.8910

FINAL SINGLE POINT ENERGY      -266.854465619798

DIPOLE MOMENT
-------------
                                X             Y             Z
Electronic contribution:      3.05560       2.82017      -0.21482
Nuclear contribution   :     -3.42552      -1.84584      -0.22295
                        -----------------------------------------
Total Dipole Moment    :     -0.36993       0.97433      -0.43777
                        -----------------------------------------
Magnitude (a.u.)       :      1.13040
Magnitude (Debye)      :      2.87325

Rotational constants in cm-1:     0.233526     0.075277     0.067092
Rotational constants in MHz :  7000.931279  2256.752901  2011.361214

                             ****ORCA TERMINATED NORMALLY****
TOTAL RUN TIME: 0 days 0 hours 0 minutes 30 seconds 372 msec
