                         Program Version 5.0.0 -  RELEASE  -
|  1> !LC-PBE RIJCOSX def2-SVPD def2/J TightSCF
|  2> *xyz 0 1
|  3> C          3.91385       -1.65829        3.01513
|  4> N          5.03927       -0.90115        2.49282
|  5> C          6.21038       -1.41726        2.17824
|  6> N          6.53591       -2.67712        2.55608
|  7> C          7.07675       -0.70082        1.47891
|  8> H          7.95464       -1.12155        1.20755
|  9> H          6.75616        0.10664        0.96028
| 10> H          4.84217        0.01761        2.11519
| 11> H          5.99388       -3.12692        3.28278
| 12> C          3.13916       -2.37657        1.91061
| 13> H          3.26723       -0.93940        3.52069
| 14> H          4.24720       -2.35509        3.79006
| 15> H          7.49844       -2.97548        2.46878
| 16> H          2.82969       -1.66654        1.17238
| 17> H          2.27790       -2.85264        2.33072
| 18> H          3.76754       -3.11338        1.45548
| 19> *
| 20> %MaxCore 64000
| 21> %pal nprocs 8
| 22> end
| 23> %scf
| 24>   MaxIter 150
| 25> end
| 26>
| 27>
| 28>                          ****END OF INPUT****

CARTESIAN COORDINATES (ANGSTROEM)
---------------------------------
  C      3.913850   -1.658290    3.015130
  N      5.039270   -0.901150    2.492820
  C      6.210380   -1.417260    2.178240
  N      6.535910   -2.677120    2.556080
  C      7.076750   -0.700820    1.478910
  H      7.954640   -1.121550    1.207550
  H      6.756160    0.106640    0.960280
  H      4.842170    0.017610    2.115190
  H      5.993880   -3.126920    3.282780
  C      3.139160   -2.376570    1.910610
  H      3.267230   -0.939400    3.520690
  H      4.247200   -2.355090    3.790060
  H      7.498440   -2.975480    2.468780
  H      2.829690   -1.666540    1.172380
  H      2.277900   -2.852640    2.330720
  H      3.767540   -3.113380    1.455480

 Total Charge           Charge          ....    0
 Multiplicity           Mult            ....    1
 Number of Electrons    NEL             ....   48
 Basis Dimension        Dim             ....  200

ORBITAL ENERGIES
----------------

  NO   OCC          E(Eh)            E(eV)
   0   2.0000     -14.231548      -387.2601
   1   2.0000     -14.229238      -387.1972
   2   2.0000     -10.179241      -276.9912
   3   2.0000     -10.169876      -276.7364
   4   2.0000     -10.115374      -275.2533
   5   2.0000     -10.035638      -273.0836
   6   2.0000      -1.140414       -31.0322
   7   2.0000      -1.045745       -28.4562
   8   2.0000      -0.941083       -25.6082
   9   2.0000      -0.865928       -23.5631
  10   2.0000      -0.787737       -21.4354
  11   2.0000      -0.753627       -20.5072
  12   2.0000      -0.686233       -18.6733
  13   2.0000      -0.645681       -17.5699
  14   2.0000      -0.619371       -16.8539
  15   2.0000      -0.582156       -15.8413
  16   2.0000      -0.578010       -15.7284
  17   2.0000      -0.544946       -14.8287
  18   2.0000      -0.516727       -14.0609
  19   2.0000      -0.506606       -13.7854
  20   2.0000      -0.497266       -13.5313
  21   2.0000      -0.486670       -13.2430
  22   2.0000      -0.387674       -10.5491
  23   2.0000      -0.281720        -7.6660
  24   0.0000       0.084707         2.3050
  25   0.0000       0.113295         3.0829
  26   0.0000       0.116920         3.1816
  27   0.0000       0.121055         3.2941
  28   0.0000       0.152048         4.1374

MULLIKEN ATOMIC CHARGES
-----------------------
   0 C :    0.100424
   1 N :   -0.315155
   2 C :    0.720553
   3 N :    0.005115
   4 C :    0.159359
   5 H :   -0.267568
   6 H :   -0.218124
   7 H :   -0.232529
   8 H :   -0.099691
   9 C :    0.435991
  10 H :   -0.201455
  11 H :   -0.040748
  12 H :   -0.109499
  13 H :    0.003701
  14 H :    0.045031
  15 H :    0.014594
Sum of atomic charges:   -0.0000000

LOEWDIN ATOMIC CHARGES
----------------------
   0 C :   -0.014406
   1 N :   -0.030038
   2 C :   -0.239511
   3 N :    0.184865
   4 C :    0.105523
   5 H :   -0.088416
   6 H :   -0.086144
   7 H :    0.048309
   8 H :   -0.020148
   9 C :    0.101735
  10 H :    0.031226
  11 H :    0.019059
  12 H :    0.013445
  13 H :   -0.006070
  14 H :   -0.009150
  15 H :   -0.010281

  Mayer bond orders larger than 0.100000
B(  0-C ,  1-N ) :   0.9661 B(  0-C ,  7-H ) :  -0.1637 B(  0-C ,  9-C ) :   1.2286
B(  0-C , 10-H ) :   0.9504 B(  0-C , 11-H ) :   0.9273 B(  0-C , 13-H ) :   0.2009
B(  0-C , 14-H ) :   0.1321 B(  0-C , 15-H ) :   0.1548 B(  1-N ,  2-C ) :   1.0714
B(  1-N ,  3-N ) :   0.1280 B(  1-N ,  4-C ) :   0.2526 B(  1-N ,  7-H ) :   1.2514
B(  1-N , 10-H ) :   0.1686 B(  1-N , 11-H ) :   0.1186 B(  2-C ,  3-N ) :   0.8982
B(  2-C ,  4-C ) :   1.5821 B(  2-C ,  5-H ) :   0.1469 B(  2-C ,  7-H ) :  -0.2053
B(  3-N ,  4-C ) :   0.1800 B(  3-N ,  8-H ) :   1.0461 B(  3-N , 12-H ) :   1.2005
B(  4-C ,  5-H ) :   0.8274 B(  4-C ,  6-H ) :   0.9135 B(  5-H ,  6-H ) :   0.1007
B(  8-H , 12-H ) :  -0.1756 B(  9-C , 13-H ) :   0.8381 B(  9-C , 14-H ) :   0.8497
B(  9-C , 15-H ) :   0.8732

FINAL SINGLE POINT ENERGY      -266.854467086066

DIPOLE MOMENT
-------------
                                X             Y             Z
Electronic contribution:      2.50625       0.91541       0.96850
Nuclear contribution   :     -3.31079      -1.42658      -0.45147
                        -----------------------------------------
Total Dipole Moment    :     -0.80454      -0.51117       0.51703
                        -----------------------------------------
Magnitude (a.u.)       :      1.08439
Magnitude (Debye)      :      2.75631

Rotational constants in cm-1:     0.225507     0.077571     0.068070
Rotational constants in MHz :  6760.542142  2325.533779  2040.680522

                             ****ORCA TERMINATED NORMALLY****
TOTAL RUN TIME: 0 days 0 hours 0 minutes 30 seconds 456 msec
