                         Program Version 5.0.0 -  RELEASE  -
|  1> !LC-PBE RIJCOSX def2-SVPD def2/J TightSCF xyzfile
|  2>
|  3> *xyzfile 0 1 D2.xyz
|  4>
|  5> %MaxCore 64000
|  6>
|  7> %pal nprocs 4
|  8> end
|  9>
| 10> %scf
| 11>   MaxIter 150
| 12> end
| 13>
| 14>
| 15>                          ****END OF INPUT****

CARTESIAN COORDINATES (ANGSTROEM)
---------------------------------
  C      3.913853   -1.658291    3.015134
  N      5.039266   -0.901154    2.492821
  C      4.084215    1.742081   -2.114724
  C      4.265245    2.500518   -0.795890
  H      4.868534    3.392674   -0.981134
  H      3.307640    2.824571   -0.387809
  C      4.982240    1.650257    0.247422
  C      6.210384   -1.417261    2.178244
  C      6.535913   -2.677122    2.556078
  N      7.076754   -0.700820    1.478906
  H      7.954643   -1.121554    1.207554
  H      6.756161    0.106637    0.960278
  H      4.842168    0.017609    2.115191
  H      5.993876   -3.126918    3.282784
  H      7.498441   -2.975482    2.468776
  F      4.368065    1.389270    1.313706
  O      6.128919    1.233512   -0.045620
  C      3.139159   -2.376572    1.910609
  H      3.267235   -0.939401    3.520693
  H      4.247195   -2.355095    3.790065
  C      1.997274    0.430918   -1.399218
  C      3.412746    0.376886   -1.965497
  H      4.047407   -0.246590   -1.326706
  H      3.390774   -0.118719   -2.942839
  H      5.068475    1.598504   -2.565728
  H      3.503356    2.363939   -2.804565
  C      2.399946   -1.389579    1.009490
  H      2.440750   -3.087118    2.362976
  H      3.844475   -2.970462    1.318677
  C      2.070177   -1.936705   -0.372401
  H      1.481611   -1.061542    1.509912
  H      3.008628   -0.490001    0.897451
  C      1.322238   -0.935775   -1.256413
  H      1.472747   -2.850902   -0.283997
  H      3.003539   -2.234041   -0.862535
  H      1.376444    1.058920   -2.047420
  H      2.015341    0.929780   -0.426535
  H      0.316648   -0.787213   -0.848278
  H      1.185611   -1.379252   -2.248613

 Total Charge           Charge          ....    0
 Multiplicity           Mult            ....    1
 Number of Electrons    NEL             ....  126
 Basis Dimension        Dim             ....  510

ORBITAL ENERGIES
----------------

  NO   OCC          E(Eh)            E(eV)
   0   2.0000     -24.625439      -670.0923
   1   2.0000     -19.042867      -518.1827
   2   2.0000     -14.211631      -386.7181
   3   2.0000     -14.187900      -386.0724
   4   2.0000     -10.357449      -281.8405
   5   2.0000     -10.181021      -277.0397
   6   2.0000     -10.159384      -276.4509
   7   2.0000     -10.157782      -276.4073
   8   2.0000     -10.147665      -276.1320
   9   2.0000     -10.141262      -275.9578
  10   2.0000     -10.136294      -275.8226
  11   2.0000     -10.129313      -275.6326
  12   2.0000     -10.122789      -275.4551
  13   2.0000     -10.121749      -275.4268
  14   2.0000     -10.112105      -275.1644
  15   2.0000     -10.015811      -272.5441
  16   2.0000      -1.512054       -41.1451
  17   2.0000      -1.237711       -33.6798
  18   2.0000      -1.121882       -30.5280
  19   2.0000      -1.030536       -28.0423
  20   2.0000      -1.021390       -27.7934
  21   2.0000      -0.988085       -26.8872
  22   2.0000      -0.949002       -25.8236
  23   2.0000      -0.912036       -24.8178
  24   2.0000      -0.880117       -23.9492
  25   2.0000      -0.856770       -23.3139
  26   2.0000      -0.842386       -22.9225
  27   2.0000      -0.817543       -22.2465
  28   2.0000      -0.780512       -21.2388
  29   2.0000      -0.759578       -20.6692
  30   2.0000      -0.750418       -20.4199
  31   2.0000      -0.737128       -20.0583
  32   2.0000      -0.724080       -19.7032
  33   2.0000      -0.703722       -19.1492
  34   2.0000      -0.684082       -18.6148
  35   2.0000      -0.663599       -18.0575
  36   2.0000      -0.647520       -17.6199
  37   2.0000      -0.639268       -17.3954
  38   2.0000      -0.636204       -17.3120
  39   2.0000      -0.615574       -16.7506
  40   2.0000      -0.600527       -16.3412
  41   2.0000      -0.593283       -16.1441
  42   2.0000      -0.578195       -15.7335
  43   2.0000      -0.574232       -15.6257
  44   2.0000      -0.560545       -15.2532
  45   2.0000      -0.551348       -15.0029
  46   2.0000      -0.543526       -14.7901
  47   2.0000      -0.529056       -14.3963
  48   2.0000      -0.521133       -14.1807
  49   2.0000      -0.514070       -13.9886
  50   2.0000      -0.507350       -13.8057
  51   2.0000      -0.497045       -13.5253
  52   2.0000      -0.492816       -13.4102
  53   2.0000      -0.484066       -13.1721
  54   2.0000      -0.477161       -12.9842
  55   2.0000      -0.468714       -12.7544
  56   2.0000      -0.457328       -12.4445
  57   2.0000      -0.448941       -12.2163
  58   2.0000      -0.445085       -12.1114
  59   2.0000      -0.442248       -12.0342
  60   2.0000      -0.438859       -11.9420
  61   2.0000      -0.357161        -9.7188
  62   2.0000      -0.261019        -7.1027
  63   0.0000       0.027413         0.7460
  64   0.0000       0.073691         2.0052
  65   0.0000       0.091953         2.5022
  66   0.0000       0.094041         2.5590
  67   0.0000       0.100344         2.7305

MULLIKEN ATOMIC CHARGES
-----------------------
   0 C :    0.878661
   1 N :    0.337170
   2 C :    0.229217
   3 C :    0.073233
   4 H :    0.018364
   5 H :    0.235187
   6 C :    0.424260
   7 C :    0.626618
   8 C :    0.413745
   9 N :    0.355333
  10 H :   -0.038568
  11 H :   -0.512830
  12 H :   -1.149784
  13 H :   -0.056349
  14 H :   -0.545064
  15 F :   -0.436315
  16 O :   -0.386717
  17 C :    0.209810
  18 H :   -0.252056
  19 H :   -0.044331
  20 C :   -0.228272
  21 C :   -0.237932
  22 H :    0.012205
  23 H :   -0.064410
  24 H :    0.105038
  25 H :   -0.008835
  26 C :    0.429703
  27 H :   -0.037423
  28 H :    0.052453
  29 C :   -0.136183
  30 H :    0.045335
  31 H :   -0.811798
  32 C :    0.505857
  33 H :   -0.270456
  34 H :    0.184643
  35 H :   -0.279943
  36 H :    0.196279
  37 H :    0.089110
  38 H :    0.075043
Sum of atomic charges:    0.0000000

LOEWDIN ATOMIC CHARGES
----------------------
   0 C :    0.040981
   1 N :   -0.000172
   2 C :   -0.031904
   3 C :    0.038210
   4 H :    0.058389
   5 H :    0.037156
   6 C :    0.040306
   7 C :   -0.220850
   8 C :    0.117988
   9 N :    0.197764
  10 H :    0.020779
  11 H :   -0.126913
  12 H :   -0.055217
  13 H :   -0.113908
  14 H :   -0.098417
  15 F :   -0.010242
  16 O :   -0.088864
  17 C :   -0.034088
  18 H :    0.035422
  19 H :    0.024603
  20 C :   -0.059487
  21 C :   -0.048378
  22 H :    0.026476
  23 H :    0.046817
  24 H :    0.042773
  25 H :    0.043690
  26 C :   -0.061323
  27 H :    0.036606
  28 H :    0.032986
  29 C :   -0.059425
  30 H :    0.046194
  31 H :   -0.018677
  32 C :   -0.053064
  33 H :    0.039198
  34 H :    0.032532
  35 H :    0.038074
  36 H :    0.013222
  37 H :    0.035682
  38 H :    0.035082

  Mayer bond orders larger than 0.100000
B(  0-C ,  1-N ) :   0.9971 B(  0-C , 12-H ) :  -0.4683 B(  0-C , 17-C ) :   1.0546
B(  0-C , 18-H ) :   0.7933 B(  0-C , 19-H ) :   0.8096 B(  0-C , 26-C ) :   0.1402
B(  1-N ,  7-C ) :   0.9346 B(  1-N ,  8-C ) :   0.4000 B(  1-N , 12-H ) :   0.8526
B(  1-N , 18-H ) :   0.1952 B(  2-C ,  3-C ) :   1.1882 B(  2-C ,  4-H ) :   0.1413
B(  2-C , 21-C ) :   1.2665 B(  2-C , 24-H ) :   0.7456 B(  2-C , 25-H ) :   0.8703
B(  3-C ,  4-H ) :   0.7297 B(  3-C ,  5-H ) :   0.7824 B(  3-C ,  6-C ) :   1.2628
B(  3-C , 25-H ) :   0.1186 B(  4-H ,  6-C ) :   0.2258 B(  5-H ,  6-C ) :   0.1572
B(  6-C , 15-F ) :   0.7556 B(  6-C , 16-O ) :   1.7574 B(  7-C ,  8-C ) :   1.6921
B(  7-C ,  9-N ) :   0.9120 B(  7-C , 11-H ) :  -0.1329 B(  7-C , 12-H ) :  -0.5594
B(  7-C , 13-H ) :   0.3011 B(  7-C , 14-H ) :   0.3149 B(  8-C ,  9-N ) :   0.2249
B(  8-C , 12-H ) :  -0.1006 B(  8-C , 13-H ) :   0.6514 B(  8-C , 14-H ) :   0.6987
B(  9-N , 10-H ) :   1.1281 B(  9-N , 11-H ) :   1.0933 B( 10-H , 11-H ) :  -0.2371
B( 11-H , 12-H ) :   0.1201 B( 11-H , 16-O ) :   0.1054 B( 12-H , 15-F ) :   0.2792
B( 12-H , 18-H ) :   0.1141 B( 13-H , 19-H ) :   0.1350 B( 17-C , 19-H ) :   0.1148
B( 17-C , 26-C ) :   1.1591 B( 17-C , 27-H ) :   0.9455 B( 17-C , 28-H ) :   0.9348
B( 17-C , 30-H ) :   0.1171 B( 18-H , 19-H ) :  -0.2181 B( 20-C , 21-C ) :   1.2195
B( 20-C , 23-H ) :   0.1380 B( 20-C , 32-C ) :   1.1838 B( 20-C , 35-H ) :   1.0825
B( 20-C , 36-H ) :   0.8417 B( 20-C , 37-H ) :   0.2305 B( 20-C , 38-H ) :   0.1171
B( 21-C , 22-H ) :   0.9763 B( 21-C , 23-H ) :   0.9225 B( 21-C , 24-H ) :   0.2001
B( 21-C , 25-H ) :   0.1508 B( 21-C , 35-H ) :   0.1121 B( 26-C , 27-H ) :   0.1358
B( 26-C , 29-C ) :   1.2744 B( 26-C , 30-H ) :   0.6782 B( 26-C , 31-H ) :   0.3784
B( 26-C , 33-H ) :   0.1103 B( 26-C , 34-H ) :   0.1224 B( 29-C , 31-H ) :   0.1234
B( 29-C , 32-C ) :   1.1247 B( 29-C , 33-H ) :   1.0910 B( 29-C , 34-H ) :   0.8493
B( 29-C , 38-H ) :   0.1890 B( 30-H , 31-H ) :   0.2996 B( 32-C , 37-H ) :   0.7238
B( 32-C , 38-H ) :   0.7470

FINAL SINGLE POINT ENERGY      -752.792964077305

DIPOLE MOMENT
-------------
                                X             Y             Z
Electronic contribution:      9.68911      10.58635       5.49505
Nuclear contribution   :    -11.22009      -8.67117      -6.77523
                        -----------------------------------------
Total Dipole Moment    :     -1.53098       1.91519      -1.28018
                        -----------------------------------------
Magnitude (a.u.)       :      2.76599
Magnitude (Debye)      :      7.03058

Rotational constants in cm-1:     0.020086     0.013778     0.009581
Rotational constants in MHz :   602.172053   413.051122   287.243919

                             ****ORCA TERMINATED NORMALLY****
TOTAL RUN TIME: 0 days 0 hours 5 minutes 8 seconds 677 msec
