                         Program Version 5.0.0 -  RELEASE  -
|  1> !LC-PBE RIJCOSX def2-SVPD def2/J TightSCF xyzfile
|  2>
|  3> *xyzfile 0 1 D3.xyz
|  4>
|  5> %MaxCore 64000
|  6>
|  7> %pal nprocs 4
|  8> end
|  9>
| 10> %scf
| 11>   MaxIter 150
| 12> end
| 13>
| 14>
| 15>                          ****END OF INPUT****

CARTESIAN COORDINATES (ANGSTROEM)
---------------------------------
  C      3.913853   -1.658291    3.015134
  N      5.039266   -0.901154    2.492821
  C      4.084215    1.742081   -2.114724
  C      4.265245    2.500518   -0.795890
  H      4.868534    3.392674   -0.981134
  H      3.307640    2.824571   -0.387809
  C      4.982240    1.650257    0.247422
  C      6.210384   -1.417261    2.178244
  N      6.535913   -2.677122    2.556078
  C      7.076754   -0.700820    1.478906
  H      7.954643   -1.121554    1.207554
  H      6.756161    0.106637    0.960278
  H      4.842168    0.017609    2.115191
  H      5.993876   -3.126918    3.282784
  H      7.498441   -2.975482    2.468776
  F      4.368065    1.389270    1.313706
  O      6.128919    1.233512   -0.045620
  C      3.139159   -2.376572    1.910609
  H      3.267235   -0.939401    3.520693
  H      4.247195   -2.355095    3.790065
  C      1.997274    0.430918   -1.399218
  C      3.412746    0.376886   -1.965497
  H      4.047407   -0.246590   -1.326706
  H      3.390774   -0.118719   -2.942839
  H      5.068475    1.598504   -2.565728
  H      3.503356    2.363939   -2.804565
  C      2.399946   -1.389579    1.009490
  H      2.440750   -3.087118    2.362976
  H      3.844475   -2.970462    1.318677
  C      2.070177   -1.936705   -0.372401
  H      1.481611   -1.061542    1.509912
  H      3.008628   -0.490001    0.897451
  C      1.322238   -0.935775   -1.256413
  H      1.472747   -2.850902   -0.283997
  H      3.003539   -2.234041   -0.862535
  H      1.376444    1.058920   -2.047420
  H      2.015341    0.929780   -0.426535
  H      0.316648   -0.787213   -0.848278
  H      1.185611   -1.379252   -2.248613

 Total Charge           Charge          ....    0
 Multiplicity           Mult            ....    1
 Number of Electrons    NEL             ....  126
 Basis Dimension        Dim             ....  510

ORBITAL ENERGIES
----------------

  NO   OCC          E(Eh)            E(eV)
   0   2.0000     -24.606871      -669.5870
   1   2.0000     -19.012745      -517.3631
   2   2.0000     -14.209945      -386.6723
   3   2.0000     -14.206694      -386.5838
   4   2.0000     -10.332674      -281.1664
   5   2.0000     -10.166519      -276.6450
   6   2.0000     -10.155614      -276.3483
   7   2.0000     -10.153817      -276.2994
   8   2.0000     -10.146663      -276.1047
   9   2.0000     -10.132992      -275.7327
  10   2.0000     -10.130886      -275.6754
  11   2.0000     -10.126887      -275.5666
  12   2.0000     -10.123161      -275.4652
  13   2.0000     -10.122627      -275.4507
  14   2.0000     -10.118605      -275.3412
  15   2.0000      -9.998447      -272.0716
  16   2.0000      -1.493316       -40.6352
  17   2.0000      -1.209594       -32.9147
  18   2.0000      -1.120863       -30.5002
  19   2.0000      -1.029559       -28.0157
  20   2.0000      -1.012414       -27.5492
  21   2.0000      -0.983234       -26.7552
  22   2.0000      -0.950672       -25.8691
  23   2.0000      -0.909279       -24.7428
  24   2.0000      -0.881659       -23.9912
  25   2.0000      -0.852968       -23.2104
  26   2.0000      -0.828592       -22.5471
  27   2.0000      -0.804866       -21.9015
  28   2.0000      -0.768933       -20.9237
  29   2.0000      -0.758665       -20.6443
  30   2.0000      -0.738468       -20.0947
  31   2.0000      -0.730972       -19.8908
  32   2.0000      -0.717885       -19.5346
  33   2.0000      -0.700502       -19.0616
  34   2.0000      -0.682347       -18.5676
  35   2.0000      -0.658488       -17.9184
  36   2.0000      -0.641214       -17.4483
  37   2.0000      -0.632357       -17.2073
  38   2.0000      -0.620132       -16.8747
  39   2.0000      -0.608566       -16.5599
  40   2.0000      -0.600782       -16.3481
  41   2.0000      -0.586113       -15.9489
  42   2.0000      -0.576753       -15.6942
  43   2.0000      -0.572137       -15.5686
  44   2.0000      -0.560074       -15.2404
  45   2.0000      -0.541556       -14.7365
  46   2.0000      -0.537740       -14.6326
  47   2.0000      -0.525068       -14.2878
  48   2.0000      -0.515279       -14.0215
  49   2.0000      -0.507748       -13.8165
  50   2.0000      -0.502722       -13.6798
  51   2.0000      -0.499075       -13.5805
  52   2.0000      -0.491004       -13.3609
  53   2.0000      -0.481689       -13.1074
  54   2.0000      -0.474596       -12.9144
  55   2.0000      -0.464384       -12.6365
  56   2.0000      -0.457014       -12.4360
  57   2.0000      -0.444630       -12.0990
  58   2.0000      -0.442055       -12.0289
  59   2.0000      -0.438705       -11.9378
  60   2.0000      -0.402879       -10.9629
  61   2.0000      -0.369509       -10.0548
  62   2.0000      -0.256541        -6.9808
  63   0.0000       0.048307         1.3145
  64   0.0000       0.082427         2.2429
  65   0.0000       0.095513         2.5990
  66   0.0000       0.097137         2.6432
  67   0.0000       0.100894         2.7455

MULLIKEN ATOMIC CHARGES
-----------------------
   0 C :    0.931692
   1 N :    0.268244
   2 C :    0.233477
   3 C :    0.104308
   4 H :    0.012359
   5 H :    0.232756
   6 C :    0.366809
   7 C :    0.765740
   8 N :    0.047131
   9 C :    0.695319
  10 H :   -0.291602
  11 H :   -0.759353
  12 H :   -1.031015
  13 H :   -0.063861
  14 H :   -0.132231
  15 F :   -0.408662
  16 O :   -0.377498
  17 C :    0.168285
  18 H :   -0.224847
  19 H :   -0.155311
  20 C :   -0.230227
  21 C :   -0.248221
  22 H :    0.017830
  23 H :   -0.062242
  24 H :    0.102455
  25 H :   -0.010174
  26 C :    0.434370
  27 H :   -0.066028
  28 H :    0.071995
  29 C :   -0.136528
  30 H :    0.064737
  31 H :   -0.826251
  32 C :    0.509345
  33 H :   -0.270518
  34 H :    0.180669
  35 H :   -0.281599
  36 H :    0.204951
  37 H :    0.089200
  38 H :    0.074496
Sum of atomic charges:    0.0000000

LOEWDIN ATOMIC CHARGES
----------------------
   0 C :    0.032935
   1 N :   -0.002014
   2 C :   -0.033166
   3 C :    0.034669
   4 H :    0.056320
   5 H :    0.033897
   6 C :    0.036726
   7 C :   -0.220911
   8 N :    0.179345
   9 C :    0.142913
  10 H :   -0.080578
  11 H :   -0.188847
  12 H :   -0.047217
  13 H :   -0.024861
  14 H :    0.009947
  15 F :   -0.014540
  16 O :   -0.096271
  17 C :   -0.041318
  18 H :    0.036127
  19 H :    0.017626
  20 C :   -0.059623
  21 C :   -0.048463
  22 H :    0.027545
  23 H :    0.045543
  24 H :    0.042864
  25 H :    0.041706
  26 C :   -0.058687
  27 H :    0.034180
  28 H :    0.034032
  29 C :   -0.059952
  30 H :    0.047162
  31 H :   -0.015427
  32 C :   -0.053457
  33 H :    0.037962
  34 H :    0.032581
  35 H :    0.037766
  36 H :    0.013501
  37 H :    0.035068
  38 H :    0.034918

  Mayer bond orders larger than 0.100000
B(  0-C ,  1-N ) :   0.9727 B(  0-C , 12-H ) :  -0.4447 B(  0-C , 17-C ) :   1.0573
B(  0-C , 18-H ) :   0.7245 B(  0-C , 19-H ) :   0.8430 B(  0-C , 26-C ) :   0.1381
B(  1-N ,  7-C ) :   1.1158 B(  1-N ,  8-N ) :   0.1731 B(  1-N ,  9-C ) :   0.1217
B(  1-N , 12-H ) :   1.0064 B(  1-N , 18-H ) :   0.1875 B(  2-C ,  3-C ) :   1.1832
B(  2-C ,  4-H ) :   0.1376 B(  2-C , 21-C ) :   1.2728 B(  2-C , 24-H ) :   0.7447
B(  2-C , 25-H ) :   0.8633 B(  3-C ,  4-H ) :   0.7241 B(  3-C ,  5-H ) :   0.7758
B(  3-C ,  6-C ) :   1.2620 B(  3-C , 25-H ) :   0.1214 B(  4-H ,  6-C ) :   0.2355
B(  5-H ,  6-C ) :   0.1558 B(  6-C , 15-F ) :   0.7381 B(  6-C , 16-O ) :   1.8608
B(  7-C ,  8-N ) :   0.8133 B(  7-C ,  9-C ) :   1.6557 B(  7-C , 10-H ) :   0.2352
B(  7-C , 12-H ) :  -0.6394 B(  8-N ,  9-C ) :   0.2552 B(  8-N , 13-H ) :   0.9995
B(  8-N , 14-H ) :   1.2082 B(  9-C , 10-H ) :   0.5701 B(  9-C , 11-H ) :   0.5827
B( 10-H , 11-H ) :   0.2322 B( 12-H , 15-F ) :   0.1902 B( 12-H , 18-H ) :   0.1371
B( 13-H , 14-H ) :  -0.1794 B( 17-C , 19-H ) :   0.1319 B( 17-C , 26-C ) :   1.1461
B( 17-C , 27-H ) :   0.9625 B( 17-C , 28-H ) :   0.8976 B( 17-C , 30-H ) :   0.1218
B( 18-H , 19-H ) :  -0.1872 B( 20-C , 21-C ) :   1.2209 B( 20-C , 23-H ) :   0.1390
B( 20-C , 32-C ) :   1.1803 B( 20-C , 35-H ) :   1.0824 B( 20-C , 36-H ) :   0.8400
B( 20-C , 37-H ) :   0.2295 B( 20-C , 38-H ) :   0.1170 B( 21-C , 22-H ) :   0.9776
B( 21-C , 23-H ) :   0.9137 B( 21-C , 24-H ) :   0.1989 B( 21-C , 25-H ) :   0.1516
B( 21-C , 35-H ) :   0.1138 B( 26-C , 27-H ) :   0.1403 B( 26-C , 29-C ) :   1.2750
B( 26-C , 30-H ) :   0.6900 B( 26-C , 31-H ) :   0.3714 B( 26-C , 33-H ) :   0.1119
B( 26-C , 34-H ) :   0.1251 B( 29-C , 31-H ) :   0.1253 B( 29-C , 32-C ) :   1.1225
B( 29-C , 33-H ) :   1.0880 B( 29-C , 34-H ) :   0.8483 B( 29-C , 38-H ) :   0.1875
B( 30-H , 31-H ) :   0.2591 B( 32-C , 37-H ) :   0.7243 B( 32-C , 38-H ) :   0.7490

FINAL SINGLE POINT ENERGY      -752.771809517167

DIPOLE MOMENT
-------------
                                X             Y             Z
Electronic contribution:      9.40149       8.70365       6.67101
Nuclear contribution   :    -11.12616      -8.32792      -6.96231
                        -----------------------------------------
Total Dipole Moment    :     -1.72467       0.37574      -0.29131
                        -----------------------------------------
Magnitude (a.u.)       :      1.78900
Magnitude (Debye)      :      4.54727

Rotational constants in cm-1:     0.020226     0.013574     0.009520
Rotational constants in MHz :   606.360011   406.923773   285.390769

                             ****ORCA TERMINATED NORMALLY****
TOTAL RUN TIME: 0 days 0 hours 5 minutes 10 seconds 902 msec
