                         Program Version 5.0.0 -  RELEASE  -
|  1> !LC-PBE RIJCOSX def2-SVPD def2/J TightSCF xyzfile
|  2>
|  3> *xyzfile 0 1 D5.xyz
|  4>
|  5> %MaxCore 64000
|  6>
|  7> %pal nprocs 4
|  8> end
|  9>
| 10> %scf
| 11>   MaxIter 150
| 12> end
| 13>
| 14>
| 15>                          ****END OF INPUT****

CARTESIAN COORDINATES (ANGSTROEM)
---------------------------------
  C      3.913853   -1.658291    3.015134
  N      5.039266   -0.901154    2.492821
  C      4.084215    1.742081   -2.114724
  C      4.265245    2.500518   -0.795890
  H      4.868534    3.392674   -0.981134
  H      3.307640    2.824571   -0.387809
  C      4.982240    1.650257    0.247422
  C      6.210384   -1.417261    2.178244
  C      6.535913   -2.677122    2.556078
  N      7.076754   -0.700820    1.478906
  H      7.954643   -1.121554    1.207554
  H      6.756161    0.106637    0.960278
  H      4.842168    0.017609    2.115191
  H      5.993876   -3.126918    3.282784
  H      7.498441   -2.975482    2.468776
  O      4.368065    1.389270    1.313706
  F      6.128919    1.233512   -0.045620
  C      3.139159   -2.376572    1.910609
  H      3.267235   -0.939401    3.520693
  H      4.247195   -2.355095    3.790065
  C      1.997274    0.430918   -1.399218
  C      3.412746    0.376886   -1.965497
  H      4.047407   -0.246590   -1.326706
  H      3.390774   -0.118719   -2.942839
  H      5.068475    1.598504   -2.565728
  H      3.503356    2.363939   -2.804565
  C      2.399946   -1.389579    1.009490
  H      2.440750   -3.087118    2.362976
  H      3.844475   -2.970462    1.318677
  C      2.070177   -1.936705   -0.372401
  H      1.481611   -1.061542    1.509912
  H      3.008628   -0.490001    0.897451
  C      1.322238   -0.935775   -1.256413
  H      1.472747   -2.850902   -0.283997
  H      3.003539   -2.234041   -0.862535
  H      1.376444    1.058920   -2.047420
  H      2.015341    0.929780   -0.426535
  H      0.316648   -0.787213   -0.848278
  H      1.185611   -1.379252   -2.248613

 Total Charge           Charge          ....    0
 Multiplicity           Mult            ....    1
 Number of Electrons    NEL             ....  126
 Basis Dimension        Dim             ....  510

ORBITAL ENERGIES
----------------

  NO   OCC          E(Eh)            E(eV)
   0   2.0000     -24.627657      -670.1526
   1   2.0000     -19.044329      -518.2226
   2   2.0000     -14.205964      -386.5639
   3   2.0000     -14.196215      -386.2987
   4   2.0000     -10.358539      -281.8702
   5   2.0000     -10.181576      -277.0548
   6   2.0000     -10.162192      -276.5273
   7   2.0000     -10.160028      -276.4684
   8   2.0000     -10.143330      -276.0140
   9   2.0000     -10.138137      -275.8727
  10   2.0000     -10.132322      -275.7145
  11   2.0000     -10.125200      -275.5207
  12   2.0000     -10.117215      -275.3034
  13   2.0000     -10.110534      -275.1216
  14   2.0000     -10.104685      -274.9625
  15   2.0000     -10.016359      -272.5590
  16   2.0000      -1.515604       -41.2417
  17   2.0000      -1.236720       -33.6529
  18   2.0000      -1.119808       -30.4715
  19   2.0000      -1.032777       -28.1033
  20   2.0000      -1.024056       -27.8660
  21   2.0000      -0.985181       -26.8081
  22   2.0000      -0.944074       -25.6896
  23   2.0000      -0.911189       -24.7947
  24   2.0000      -0.871369       -23.7112
  25   2.0000      -0.858983       -23.3741
  26   2.0000      -0.844579       -22.9822
  27   2.0000      -0.812504       -22.1094
  28   2.0000      -0.779412       -21.2089
  29   2.0000      -0.754654       -20.5352
  30   2.0000      -0.752694       -20.4818
  31   2.0000      -0.749335       -20.3904
  32   2.0000      -0.709775       -19.3140
  33   2.0000      -0.705626       -19.2011
  34   2.0000      -0.684486       -18.6258
  35   2.0000      -0.656656       -17.8685
  36   2.0000      -0.649826       -17.6827
  37   2.0000      -0.640444       -17.4274
  38   2.0000      -0.637279       -17.3412
  39   2.0000      -0.614566       -16.7232
  40   2.0000      -0.597110       -16.2482
  41   2.0000      -0.590427       -16.0663
  42   2.0000      -0.576090       -15.6762
  43   2.0000      -0.566343       -15.4110
  44   2.0000      -0.556333       -15.1386
  45   2.0000      -0.555463       -15.1149
  46   2.0000      -0.542403       -14.7595
  47   2.0000      -0.529170       -14.3994
  48   2.0000      -0.526967       -14.3395
  49   2.0000      -0.514313       -13.9952
  50   2.0000      -0.506558       -13.7841
  51   2.0000      -0.493636       -13.4325
  52   2.0000      -0.489679       -13.3249
  53   2.0000      -0.481342       -13.0980
  54   2.0000      -0.473923       -12.8961
  55   2.0000      -0.471556       -12.8317
  56   2.0000      -0.451935       -12.2978
  57   2.0000      -0.446261       -12.1434
  58   2.0000      -0.438062       -11.9203
  59   2.0000      -0.434207       -11.8154
  60   2.0000      -0.431328       -11.7370
  61   2.0000      -0.357284        -9.7222
  62   2.0000      -0.261060        -7.1038
  63   0.0000       0.028981         0.7886
  64   0.0000       0.071224         1.9381
  65   0.0000       0.091728         2.4960
  66   0.0000       0.094729         2.5777
  67   0.0000       0.101097         2.7510

MULLIKEN ATOMIC CHARGES
-----------------------
   0 C :    0.875397
   1 N :    0.272499
   2 C :    0.235409
   3 C :    0.080758
   4 H :    0.030500
   5 H :    0.209786
   6 C :    0.515718
   7 C :    0.605574
   8 C :    0.397743
   9 N :    0.397144
  10 H :   -0.044279
  11 H :   -0.483312
  12 H :   -1.157191
  13 H :   -0.045646
  14 H :   -0.535159
  15 O :   -0.498354
  16 F :   -0.377172
  17 C :    0.210202
  18 H :   -0.232968
  19 H :   -0.049854
  20 C :   -0.245535
  21 C :   -0.227574
  22 H :    0.016182
  23 H :   -0.072554
  24 H :    0.064717
  25 H :   -0.008841
  26 C :    0.475793
  27 H :   -0.044304
  28 H :    0.044473
  29 C :   -0.126764
  30 H :    0.031697
  31 H :   -0.832286
  32 C :    0.520929
  33 H :   -0.283774
  34 H :    0.182708
  35 H :   -0.282511
  36 H :    0.218158
  37 H :    0.094684
  38 H :    0.068007
Sum of atomic charges:    0.0000000

LOEWDIN ATOMIC CHARGES
----------------------
   0 C :    0.043291
   1 N :    0.003623
   2 C :   -0.039306
   3 C :    0.041762
   4 H :    0.054175
   5 H :    0.047356
   6 C :    0.039618
   7 C :   -0.220582
   8 C :    0.118601
   9 N :    0.195276
  10 H :    0.020629
  11 H :   -0.086397
  12 H :   -0.093085
  13 H :   -0.111977
  14 H :   -0.100423
  15 O :   -0.100157
  16 F :   -0.001793
  17 C :   -0.034949
  18 H :    0.037836
  19 H :    0.022455
  20 C :   -0.054877
  21 C :   -0.049887
  22 H :    0.025701
  23 H :    0.045806
  24 H :    0.037675
  25 H :    0.043846
  26 C :   -0.057246
  27 H :    0.034980
  28 H :    0.030891
  29 C :   -0.061274
  30 H :    0.047036
  31 H :   -0.019469
  32 C :   -0.053321
  33 H :    0.037869
  34 H :    0.030379
  35 H :    0.037820
  36 H :    0.018469
  37 H :    0.036003
  38 H :    0.033644

  Mayer bond orders larger than 0.100000
B(  0-C ,  1-N ) :   0.9918 B(  0-C , 12-H ) :  -0.4935 B(  0-C , 17-C ) :   1.0502
B(  0-C , 18-H ) :   0.7976 B(  0-C , 19-H ) :   0.8089 B(  0-C , 26-C ) :   0.1409
B(  1-N ,  7-C ) :   0.9241 B(  1-N ,  8-C ) :   0.3891 B(  1-N , 12-H ) :   0.9822
B(  1-N , 18-H ) :   0.1974 B(  2-C ,  3-C ) :   1.1850 B(  2-C ,  4-H ) :   0.1400
B(  2-C , 21-C ) :   1.2461 B(  2-C , 24-H ) :   0.7534 B(  2-C , 25-H ) :   0.8759
B(  3-C ,  4-H ) :   0.7380 B(  3-C ,  5-H ) :   0.8065 B(  3-C ,  6-C ) :   1.2119
B(  3-C , 25-H ) :   0.1167 B(  4-H ,  6-C ) :   0.2114 B(  5-H ,  6-C ) :   0.1504
B(  6-C , 15-O ) :   1.7762 B(  6-C , 16-F ) :   0.6276 B(  7-C ,  8-C ) :   1.7032
B(  7-C ,  9-N ) :   0.9089 B(  7-C , 11-H ) :  -0.1186 B(  7-C , 12-H ) :  -0.5818
B(  7-C , 13-H ) :   0.2990 B(  7-C , 14-H ) :   0.3225 B(  8-C ,  9-N ) :   0.2210
B(  8-C , 13-H ) :   0.6442 B(  8-C , 14-H ) :   0.7036 B(  9-N , 10-H ) :   1.1358
B(  9-N , 11-H ) :   1.0786 B( 10-H , 11-H ) :  -0.2151 B( 11-H , 12-H ) :   0.1240
B( 11-H , 16-F ) :   0.1027 B( 12-H , 15-O ) :   0.2204 B( 12-H , 18-H ) :   0.1119
B( 13-H , 19-H ) :   0.1324 B( 17-C , 19-H ) :   0.1179 B( 17-C , 26-C ) :   1.1686
B( 17-C , 27-H ) :   0.9408 B( 17-C , 28-H ) :   0.9365 B( 17-C , 30-H ) :   0.1172
B( 18-H , 19-H ) :  -0.2164 B( 20-C , 21-C ) :   1.2403 B( 20-C , 22-H ) :   0.1011
B( 20-C , 23-H ) :   0.1342 B( 20-C , 32-C ) :   1.1772 B( 20-C , 35-H ) :   1.0848
B( 20-C , 36-H ) :   0.8334 B( 20-C , 37-H ) :   0.2267 B( 20-C , 38-H ) :   0.1168
B( 21-C , 22-H ) :   0.9516 B( 21-C , 23-H ) :   0.9342 B( 21-C , 24-H ) :   0.2057
B( 21-C , 25-H ) :   0.1408 B( 21-C , 35-H ) :   0.1130 B( 26-C , 27-H ) :   0.1426
B( 26-C , 29-C ) :   1.2730 B( 26-C , 30-H ) :   0.6627 B( 26-C , 31-H ) :   0.3145
B( 26-C , 33-H ) :   0.1028 B( 26-C , 34-H ) :   0.1224 B( 29-C , 31-H ) :   0.1243
B( 29-C , 32-C ) :   1.1242 B( 29-C , 33-H ) :   1.0929 B( 29-C , 34-H ) :   0.8463
B( 29-C , 38-H ) :   0.1889 B( 30-H , 31-H ) :   0.3275 B( 31-H , 36-H ) :   0.1009
B( 32-C , 37-H ) :   0.7259 B( 32-C , 38-H ) :   0.7433

FINAL SINGLE POINT ENERGY      -752.792819429477

DIPOLE MOMENT
-------------
                                X             Y             Z
Electronic contribution:     12.74909      10.41948       3.18582
Nuclear contribution   :    -13.35170      -8.48261      -5.12969
                        -----------------------------------------
Total Dipole Moment    :     -0.60261       1.93687      -1.94387
                        -----------------------------------------
Magnitude (a.u.)       :      2.80949
Magnitude (Debye)      :      7.14115

Rotational constants in cm-1:     0.019886     0.013843     0.009504
Rotational constants in MHz :   596.157485   415.004628   284.931121

                             ****ORCA TERMINATED NORMALLY****
TOTAL RUN TIME: 0 days 0 hours 5 minutes 33 seconds 465 msec
