                         Program Version 5.0.0 -  RELEASE  -
|  1> !LC-PBE RIJCOSX def2-SVPD def2/J TightSCF
|  2> *xyz -1 1
|  3> C         -0.91495        0.61511        2.50554
|  4> C         -0.05915        1.50352        3.41058
|  5> H          0.36536        2.34431        2.86116
|  6> H         -0.69226        1.92021        4.19898
|  7> C          1.08303        0.74964        4.08571
|  8> O          2.22817        1.26348        4.01983
|  9> O          0.81003       -0.34541        4.63627
| 10> H         -0.30401        0.20228        1.73015
| 11> H         -1.69811        1.19946        2.06954
| 12> H         -1.34124       -0.17772        3.08397
| 13> *
| 14>
| 15> %MaxCore 64000
| 16>
| 17> %pal nprocs 4
| 18> end
| 19>
| 20> %scf
| 21>   MaxIter 150
| 22> end
| 23>
| 24>
| 25>                          ****END OF INPUT****

CARTESIAN COORDINATES (ANGSTROEM)
---------------------------------
  C     -0.914950    0.615110    2.505540
  C     -0.059150    1.503520    3.410580
  H      0.365360    2.344310    2.861160
  H     -0.692260    1.920210    4.198980
  C      1.083030    0.749640    4.085710
  O      2.228170    1.263480    4.019830
  O      0.810030   -0.345410    4.636270
  H     -0.304010    0.202280    1.730150
  H     -1.698110    1.199460    2.069540
  H     -1.341240   -0.177720    3.083970

 Total Charge           Charge          ....   -1
 Multiplicity           Mult            ....    1
 Number of Electrons    NEL             ....   40
 Basis Dimension        Dim             ....  146

ORBITAL ENERGIES
----------------

  NO   OCC          E(Eh)            E(eV)
   0   2.0000     -18.727510      -509.6015
   1   2.0000     -18.726822      -509.5827
   2   2.0000     -10.018272      -272.6110
   3   2.0000      -9.965020      -271.1620
   4   2.0000      -9.955181      -270.8942
   5   2.0000      -0.981108       -26.6973
   6   2.0000      -0.877305       -23.8727
   7   2.0000      -0.778375       -21.1807
   8   2.0000      -0.635356       -17.2889
   9   2.0000      -0.469924       -12.7873
  10   2.0000      -0.440736       -11.9930
  11   2.0000      -0.402881       -10.9630
  12   2.0000      -0.376659       -10.2494
  13   2.0000      -0.356136        -9.6910
  14   2.0000      -0.348478        -9.4826
  15   2.0000      -0.316239        -8.6053
  16   2.0000      -0.299858        -8.1596
  17   2.0000      -0.179327        -4.8797
  18   2.0000      -0.175032        -4.7629
  19   2.0000      -0.164251        -4.4695
  20   0.0000       0.220613         6.0032
  21   0.0000       0.254690         6.9305
  22   0.0000       0.263779         7.1778
  23   0.0000       0.288653         7.8546
  24   0.0000       0.314414         8.5557

MULLIKEN ATOMIC CHARGES
-----------------------
   0 C :    0.351921
   1 C :   -0.424386
   2 H :    0.019393
   3 H :    0.061846
   4 C :    0.307886
   5 O :   -0.644145
   6 O :   -0.664624
   7 H :   -0.014513
   8 H :   -0.016251
   9 H :    0.022873
Sum of atomic charges:   -1.0000000

LOEWDIN ATOMIC CHARGES
----------------------
   0 C :    0.067787
   1 C :   -0.066786
   2 H :    0.013325
   3 H :    0.024898
   4 C :   -0.330687
   5 O :   -0.329589
   6 O :   -0.320360
   7 H :   -0.010559
   8 H :   -0.030724
   9 H :   -0.017306

  Mayer bond orders larger than 0.100000
B(  0-C ,  1-C ) :   1.2677 B(  0-C ,  7-H ) :   0.8920 B(  0-C ,  8-H ) :   0.8662
B(  0-C ,  9-H ) :   0.8631 B(  1-C ,  2-H ) :   0.9866 B(  1-C ,  3-H ) :   0.9096
B(  1-C ,  4-C ) :   1.0213 B(  1-C ,  7-H ) :   0.1326 B(  1-C ,  8-H ) :   0.1353
B(  1-C ,  9-H ) :   0.1599 B(  2-H ,  4-C ) :   0.1609 B(  4-C ,  5-O ) :   1.5547
B(  4-C ,  6-O ) :   1.5813

FINAL SINGLE POINT ENERGY      -266.875573969494

DIPOLE MOMENT
-------------
                                X             Y             Z
Electronic contribution:      4.63437      -0.95683       3.30460
Nuclear contribution   :     -6.38408       1.63097      -4.40540
                        -----------------------------------------
Total Dipole Moment    :     -1.74971       0.67414      -1.10080
                        -----------------------------------------
Magnitude (a.u.)       :      2.17433
Magnitude (Debye)      :      5.52671

Rotational constants in cm-1:     0.319732     0.134414     0.104753
Rotational constants in MHz :  9585.336550  4029.633034  3140.404334

                             ****ORCA TERMINATED NORMALLY****
TOTAL RUN TIME: 0 days 0 hours 0 minutes 16 seconds 765 msec
