                         Program Version 5.0.0 -  RELEASE  -
|  1> !LC-PBE RIJCOSX def2-SVPD def2/J TightSCF
|  2> *xyz 1 1
|  3> C          4.60295       -2.44010        2.63478
|  4> C          3.86085       -1.59157        3.62289
|  5> N          2.75650       -2.04616        4.16633
|  6> N          4.25433       -0.36291        3.86046
|  7> H          3.56526        0.31099        4.16898
|  8> H          5.05429       -0.01606        3.33784
|  9> H          2.43970       -2.97389        3.89740
| 10> H          2.06687       -1.41253        4.54981
| 11> C          3.74469       -2.58056        1.36188
| 12> H          5.56156       -1.97135        2.40708
| 13> H          4.81050       -3.42255        3.06310
| 14> H          4.26314       -3.18477        0.64702
| 15> H          3.56325       -1.61180        0.94535
| 16> H          2.81197       -3.04259        1.60980
| 17> *
| 18>
| 19> %MaxCore 64000
| 20>
| 21> %pal nprocs 4
| 22> end
| 23>
| 24> %scf
| 25>   MaxIter 150
| 26> end
| 27>
| 28>
| 29>                          ****END OF INPUT****

CARTESIAN COORDINATES (ANGSTROEM)
---------------------------------
  C      4.602950   -2.440100    2.634780
  C      3.860850   -1.591570    3.622890
  N      2.756500   -2.046160    4.166330
  N      4.254330   -0.362910    3.860460
  H      3.565260    0.310990    4.168980
  H      5.054290   -0.016060    3.337840
  H      2.439700   -2.973890    3.897400
  H      2.066870   -1.412530    4.549810
  C      3.744690   -2.580560    1.361880
  H      5.561560   -1.971350    2.407080
  H      4.810500   -3.422550    3.063100
  H      4.263140   -3.184770    0.647020
  H      3.563250   -1.611800    0.945350
  H      2.811970   -3.042590    1.609800

 Total Charge           Charge          ....    1
 Multiplicity           Mult            ....    1
 Number of Electrons    NEL             ....   40
 Basis Dimension        Dim             ....  172

ORBITAL ENERGIES
----------------

  NO   OCC          E(Eh)            E(eV)
   0   2.0000     -14.477242      -393.9458
   1   2.0000     -14.476483      -393.9251
   2   2.0000     -10.461803      -284.6801
   3   2.0000     -10.332135      -281.1517
   4   2.0000     -10.289285      -279.9857
   5   2.0000      -1.381845       -37.6019
   6   2.0000      -1.273559       -34.6553
   7   2.0000      -1.145609       -31.1736
   8   2.0000      -1.020830       -27.7782
   9   2.0000      -0.974728       -26.5237
  10   2.0000      -0.925261       -25.1776
  11   2.0000      -0.903927       -24.5971
  12   2.0000      -0.839658       -22.8482
  13   2.0000      -0.817273       -22.2391
  14   2.0000      -0.770353       -20.9624
  15   2.0000      -0.746496       -20.3132
  16   2.0000      -0.685720       -18.6594
  17   2.0000      -0.677424       -18.4336
  18   2.0000      -0.662753       -18.0344
  19   2.0000      -0.628322       -17.0975
  20   0.0000      -0.125836        -3.4242
  21   0.0000      -0.078970        -2.1489
  22   0.0000      -0.036986        -1.0064
  23   0.0000      -0.035631        -0.9696
  24   0.0000      -0.013401        -0.3647

MULLIKEN ATOMIC CHARGES
-----------------------
   0 C :   -0.382922
   1 C :    0.451704
   2 N :    0.043046
   3 N :   -0.052328
   4 H :   -0.013881
   5 H :    0.127609
   6 H :    0.120852
   7 H :   -0.075553
   8 C :    0.410156
   9 H :    0.097187
  10 H :    0.141598
  11 H :    0.086658
  12 H :    0.035492
  13 H :    0.010382
Sum of atomic charges:    1.0000000

LOEWDIN ATOMIC CHARGES
----------------------
   0 C :   -0.004357
   1 C :   -0.056657
   2 N :    0.270125
   3 N :    0.268327
   4 H :    0.058964
   5 H :    0.062015
   6 H :    0.060993
   7 H :    0.060802
   8 C :    0.141069
   9 H :    0.049202
  10 H :    0.061940
  11 H :    0.019510
  12 H :    0.011703
  13 H :   -0.003636

  Mayer bond orders larger than 0.100000
B(  0-C ,  1-C ) :   1.2366 B(  0-C ,  8-C ) :   1.2440 B(  0-C ,  9-H ) :   0.9227
B(  0-C , 10-H ) :   0.8653 B(  0-C , 11-H ) :   0.1090 B(  0-C , 12-H ) :   0.1154
B(  0-C , 13-H ) :   0.1395 B(  1-C ,  2-N ) :   1.1566 B(  1-C ,  3-N ) :   1.1244
B(  1-C ,  4-H ) :  -0.1062 B(  1-C ,  7-H ) :  -0.1137 B(  1-C ,  9-H ) :   0.1193
B(  1-C , 10-H ) :   0.1312 B(  2-N ,  3-N ) :   0.1486 B(  2-N ,  6-H ) :   0.9954
B(  2-N ,  7-H ) :   1.2464 B(  3-N ,  4-H ) :   1.1924 B(  3-N ,  5-H ) :   0.9915
B(  4-H ,  5-H ) :  -0.1291 B(  6-H ,  7-H ) :  -0.1476 B(  8-C , 11-H ) :   0.8918
B(  8-C , 12-H ) :   0.8784 B(  8-C , 13-H ) :   0.8447

FINAL SINGLE POINT ENERGY      -228.131692250056

DIPOLE MOMENT
-------------
                                X             Y             Z
Electronic contribution:     -0.24050       1.79645       3.73488
Nuclear contribution   :     -0.22400      -1.16268      -3.30447
                        -----------------------------------------
Total Dipole Moment    :     -0.46450       0.63377       0.43041
                        -----------------------------------------
Magnitude (a.u.)       :      0.89593
Magnitude (Debye)      :      2.27726

Rotational constants in cm-1:     0.258103     0.130571     0.102508
Rotational constants in MHz :  7737.732062  3914.431392  3073.119154

                             ****ORCA TERMINATED NORMALLY****
TOTAL RUN TIME: 0 days 0 hours 0 minutes 22 seconds 523 msec
