                         Program Version 5.0.0 -  RELEASE  -
|  1> !LC-PBE RIJCOSX def2-SVPD def2/J TightSCF
|  2> *xyz 0 1
|  3> C         -0.91495        0.61511        2.50554
|  4> C         -0.05915        1.50352        3.41058
|  5> H          0.36536        2.34431        2.86116
|  6> H         -0.69226        1.92021        4.19898
|  7> C          1.08303        0.74964        4.08571
|  8> F          2.22817        1.26348        4.01983
|  9> O          0.81003       -0.34541        4.63627
| 10> H         -0.30401        0.20228        1.73015
| 11> H         -1.69811        1.19946        2.06954
| 12> H         -1.34124       -0.17772        3.08397
| 13> *
| 14>
| 15> %MaxCore 64000
| 16>
| 17> %pal nprocs 4
| 18> end
| 19>
| 20> %scf
| 21>   MaxIter 150
| 22> end
| 23>
| 24>
| 25>                          ****END OF INPUT****

CARTESIAN COORDINATES (ANGSTROEM)
---------------------------------
  C     -0.914950    0.615110    2.505540
  C     -0.059150    1.503520    3.410580
  H      0.365360    2.344310    2.861160
  H     -0.692260    1.920210    4.198980
  C      1.083030    0.749640    4.085710
  F      2.228170    1.263480    4.019830
  O      0.810030   -0.345410    4.636270
  H     -0.304010    0.202280    1.730150
  H     -1.698110    1.199460    2.069540
  H     -1.341240   -0.177720    3.083970

 Total Charge           Charge          ....    0
 Multiplicity           Mult            ....    1
 Number of Electrons    NEL             ....   40
 Basis Dimension        Dim             ....  146

ORBITAL ENERGIES
----------------

  NO   OCC          E(Eh)            E(eV)
   0   2.0000     -24.582382      -668.9206
   1   2.0000     -19.004741      -517.1453
   2   2.0000     -10.320267      -280.8287
   3   2.0000     -10.164171      -276.5812
   4   2.0000     -10.132520      -275.7199
   5   2.0000      -1.467961       -39.9452
   6   2.0000      -1.194377       -32.5006
   7   2.0000      -0.976228       -26.5645
   8   2.0000      -0.853501       -23.2249
   9   2.0000      -0.797654       -21.7053
  10   2.0000      -0.711533       -19.3618
  11   2.0000      -0.693479       -18.8705
  12   2.0000      -0.660602       -17.9759
  13   2.0000      -0.613778       -16.7017
  14   2.0000      -0.580363       -15.7925
  15   2.0000      -0.539544       -14.6817
  16   2.0000      -0.516042       -14.0422
  17   2.0000      -0.510764       -13.8986
  18   2.0000      -0.485421       -13.2090
  19   2.0000      -0.435560       -11.8522
  20   0.0000       0.061739         1.6800
  21   0.0000       0.084366         2.2957
  22   0.0000       0.111279         3.0281
  23   0.0000       0.121951         3.3184
  24   0.0000       0.145984         3.9724

MULLIKEN ATOMIC CHARGES
-----------------------
   0 C :    0.346013
   1 C :   -0.519170
   2 H :    0.072590
   3 H :    0.147905
   4 C :    0.619623
   5 F :   -0.317934
   6 O :   -0.440719
   7 H :    0.014318
   8 H :    0.030719
   9 H :    0.046654
Sum of atomic charges:    0.0000000

LOEWDIN ATOMIC CHARGES
----------------------
   0 C :    0.108950
   1 C :   -0.023061
   2 H :    0.035569
   3 H :    0.054250
   4 C :   -0.026619
   5 F :   -0.023570
   6 O :   -0.129151
   7 H :    0.003499
   8 H :   -0.001176
   9 H :    0.001308

  Mayer bond orders larger than 0.100000
B(  0-C ,  1-C ) :   1.3122 B(  0-C ,  7-H ) :   0.8893 B(  0-C ,  8-H ) :   0.8715
B(  0-C ,  9-H ) :   0.8637 B(  1-C ,  2-H ) :   0.9714 B(  1-C ,  3-H ) :   0.8884
B(  1-C ,  4-C ) :   1.0931 B(  1-C ,  7-H ) :   0.1257 B(  1-C ,  8-H ) :   0.1260
B(  1-C ,  9-H ) :   0.1437 B(  4-C ,  5-F ) :   0.8296 B(  4-C ,  6-O ) :   1.9114

FINAL SINGLE POINT ENERGY      -291.381314225007

DIPOLE MOMENT
-------------
                                X             Y             Z
Electronic contribution:      7.70348      -0.11976       4.06306
Nuclear contribution   :     -8.12386       1.06915      -4.71960
                        -----------------------------------------
Total Dipole Moment    :     -0.42038       0.94938      -0.65654
                        -----------------------------------------
Magnitude (a.u.)       :      1.22845
Magnitude (Debye)      :      3.12248

Rotational constants in cm-1:     0.309513     0.127560     0.099675
Rotational constants in MHz :  9278.979128  3824.146597  2988.174827

                             ****ORCA TERMINATED NORMALLY****
TOTAL RUN TIME: 0 days 0 hours 0 minutes 17 seconds 316 msec
