                         Program Version 5.0.0 -  RELEASE  -
|  1> !LC-PBE RIJCOSX def2-SVPD def2/J TightSCF
|  2> *xyz 0 1
|  3> C          4.60295       -2.44010        2.63478
|  4> C          3.86085       -1.59157        3.62289
|  5> C          2.75650       -2.04616        4.16633
|  6> N          4.25433       -0.36291        3.86046
|  7> H          3.56526        0.31099        4.16898
|  8> H          5.05429       -0.01606        3.33784
|  9> H          2.43970       -2.97389        3.89740
| 10> H          2.06687       -1.41253        4.54981
| 11> C          3.74469       -2.58056        1.36188
| 12> H          5.56156       -1.97135        2.40708
| 13> H          4.81050       -3.42255        3.06310
| 14> H          4.26314       -3.18477        0.64702
| 15> H          3.56325       -1.61180        0.94535
| 16> H          2.81197       -3.04259        1.60980
| 17> *
| 18>
| 19> %MaxCore 64000
| 20>
| 21> %pal nprocs 4
| 22> end
| 23>
| 24> %scf
| 25>   MaxIter 150
| 26> end
| 27>
| 28>
| 29>                          ****END OF INPUT****

CARTESIAN COORDINATES (ANGSTROEM)
---------------------------------
  C      4.602950   -2.440100    2.634780
  C      3.860850   -1.591570    3.622890
  C      2.756500   -2.046160    4.166330
  N      4.254330   -0.362910    3.860460
  H      3.565260    0.310990    4.168980
  H      5.054290   -0.016060    3.337840
  H      2.439700   -2.973890    3.897400
  H      2.066870   -1.412530    4.549810
  C      3.744690   -2.580560    1.361880
  H      5.561560   -1.971350    2.407080
  H      4.810500   -3.422550    3.063100
  H      4.263140   -3.184770    0.647020
  H      3.563250   -1.611800    0.945350
  H      2.811970   -3.042590    1.609800

 Total Charge           Charge          ....    0
 Multiplicity           Mult            ....    1
 Number of Electrons    NEL             ....   40
 Basis Dimension        Dim             ....  172

ORBITAL ENERGIES
----------------

  NO   OCC          E(Eh)            E(eV)
   0   2.0000     -14.229453      -387.2031
   1   2.0000     -10.151613      -276.2394
   2   2.0000     -10.131094      -275.6811
   3   2.0000     -10.113204      -275.1943
   4   2.0000     -10.056140      -273.6415
   5   2.0000      -1.101933       -29.9851
   6   2.0000      -0.953866       -25.9560
   7   2.0000      -0.876902       -23.8617
   8   2.0000      -0.800628       -21.7862
   9   2.0000      -0.713160       -19.4061
  10   2.0000      -0.671751       -18.2793
  11   2.0000      -0.630682       -17.1617
  12   2.0000      -0.593983       -16.1631
  13   2.0000      -0.553608       -15.0644
  14   2.0000      -0.527239       -14.3469
  15   2.0000      -0.514022       -13.9873
  16   2.0000      -0.485301       -13.2057
  17   2.0000      -0.474026       -12.8989
  18   2.0000      -0.463610       -12.6155
  19   2.0000      -0.310407        -8.4466
  20   0.0000       0.089933         2.4472
  21   0.0000       0.115430         3.1410
  22   0.0000       0.120469         3.2781
  23   0.0000       0.129995         3.5373
  24   0.0000       0.140924         3.8347

MULLIKEN ATOMIC CHARGES
-----------------------
   0 C :   -0.218575
   1 C :   -0.147265
   2 C :    0.214308
   3 N :    0.047472
   4 H :   -0.045612
   5 H :   -0.002404
   6 H :   -0.062838
   7 H :   -0.334933
   8 C :    0.417356
   9 H :    0.010663
  10 H :    0.107957
  11 H :    0.056263
  12 H :   -0.011969
  13 H :   -0.030422
Sum of atomic charges:    0.0000000

LOEWDIN ATOMIC CHARGES
----------------------
   0 C :   -0.046211
   1 C :   -0.277267
   2 C :    0.139629
   3 N :    0.150910
   4 H :    0.018593
   5 H :    0.009007
   6 H :   -0.066252
   7 H :   -0.069456
   8 C :    0.104724
   9 H :    0.022400
  10 H :    0.039718
  11 H :   -0.009744
  12 H :   -0.002237
  13 H :   -0.013814

  Mayer bond orders larger than 0.100000
B(  0-C ,  1-C ) :   1.2193 B(  0-C ,  8-C ) :   1.2698 B(  0-C ,  9-H ) :   0.8645
B(  0-C , 10-H ) :   0.8628 B(  0-C , 11-H ) :   0.1234 B(  0-C , 12-H ) :   0.1407
B(  0-C , 13-H ) :   0.1496 B(  1-C ,  2-C ) :   1.9541 B(  1-C ,  3-N ) :   1.0847
B(  1-C ,  6-H ) :   0.1171 B(  1-C ,  7-H ) :   0.1246 B(  1-C ,  9-H ) :   0.1445
B(  1-C , 10-H ) :   0.1571 B(  2-C ,  3-N ) :   0.2481 B(  2-C ,  6-H ) :   0.7695
B(  2-C ,  7-H ) :   0.9187 B(  3-N ,  4-H ) :   1.1135 B(  3-N ,  5-H ) :   1.0125
B(  4-H ,  5-H ) :  -0.1175 B(  8-C , 11-H ) :   0.8469 B(  8-C , 12-H ) :   0.8775
B(  8-C , 13-H ) :   0.8916

FINAL SINGLE POINT ENERGY      -211.689919101942

DIPOLE MOMENT
-------------
                                X             Y             Z
Electronic contribution:      0.80144       1.76548       2.52788
Nuclear contribution   :     -0.47010      -1.22282      -3.06417
                        -----------------------------------------
Total Dipole Moment    :      0.33134       0.54266      -0.53628
                        -----------------------------------------
Magnitude (a.u.)       :      0.83178
Magnitude (Debye)      :      2.11423

Rotational constants in cm-1:     0.271862     0.131962     0.105499
Rotational constants in MHz :  8150.219120  3956.123671  3162.785522

                             ****ORCA TERMINATED NORMALLY****
TOTAL RUN TIME: 0 days 0 hours 0 minutes 25 seconds 310 msec
