                         Program Version 5.0.0 -  RELEASE  -
|  1> !LC-PBE RIJCOSX def2-SVPD def2/J TightSCF
|  2> *xyz 0 1
|  3> C         -0.91495        0.61511        2.50554
|  4> C         -0.05915        1.50352        3.41058
|  5> H          0.36536        2.34431        2.86116
|  6> H         -0.69226        1.92021        4.19898
|  7> C          1.08303        0.74964        4.08571
|  8> O          2.22817        1.26348        4.01983
|  9> F          0.81003       -0.34541        4.63627
| 10> H         -0.30401        0.20228        1.73015
| 11> H         -1.69811        1.19946        2.06954
| 12> H         -1.34124       -0.17772        3.08397
| 13> *
| 14>
| 15> %MaxCore 64000
| 16>
| 17> %pal nprocs 4
| 18> end
| 19>
| 20> %scf
| 21>   MaxIter 150
| 22> end
| 23>
| 24>
| 25>                          ****END OF INPUT****

CARTESIAN COORDINATES (ANGSTROEM)
---------------------------------
  C     -0.914950    0.615110    2.505540
  C     -0.059150    1.503520    3.410580
  H      0.365360    2.344310    2.861160
  H     -0.692260    1.920210    4.198980
  C      1.083030    0.749640    4.085710
  O      2.228170    1.263480    4.019830
  F      0.810030   -0.345410    4.636270
  H     -0.304010    0.202280    1.730150
  H     -1.698110    1.199460    2.069540
  H     -1.341240   -0.177720    3.083970

 Total Charge           Charge          ....    0
 Multiplicity           Mult            ....    1
 Number of Electrons    NEL             ....   40
 Basis Dimension        Dim             ....  146

ORBITAL ENERGIES
----------------

  NO   OCC          E(Eh)            E(eV)
   0   2.0000     -24.583492      -668.9508
   1   2.0000     -19.003614      -517.1146
   2   2.0000     -10.319630      -280.8114
   3   2.0000     -10.163618      -276.5661
   4   2.0000     -10.138451      -275.8813
   5   2.0000      -1.469312       -39.9820
   6   2.0000      -1.192507       -32.4498
   7   2.0000      -0.980944       -26.6928
   8   2.0000      -0.848598       -23.0915
   9   2.0000      -0.805075       -21.9072
  10   2.0000      -0.713889       -19.4259
  11   2.0000      -0.701551       -19.0902
  12   2.0000      -0.650230       -17.6936
  13   2.0000      -0.614594       -16.7239
  14   2.0000      -0.579874       -15.7792
  15   2.0000      -0.546332       -14.8665
  16   2.0000      -0.524840       -14.2816
  17   2.0000      -0.513275       -13.9669
  18   2.0000      -0.488110       -13.2821
  19   2.0000      -0.429662       -11.6917
  20   0.0000       0.064143         1.7454
  21   0.0000       0.082888         2.2555
  22   0.0000       0.112539         3.0623
  23   0.0000       0.120210         3.2711
  24   0.0000       0.146215         3.9787

MULLIKEN ATOMIC CHARGES
-----------------------
   0 C :    0.342493
   1 C :   -0.498915
   2 H :    0.061963
   3 H :    0.133901
   4 C :    0.637689
   5 O :   -0.421368
   6 F :   -0.338762
   7 H :    0.015756
   8 H :    0.032063
   9 H :    0.035178
Sum of atomic charges:   -0.0000000

LOEWDIN ATOMIC CHARGES
----------------------
   0 C :    0.101949
   1 C :   -0.017312
   2 H :    0.046374
   3 H :    0.051456
   4 C :   -0.030152
   5 O :   -0.133817
   6 F :   -0.018431
   7 H :    0.003615
   8 H :   -0.000591
   9 H :   -0.003092

  Mayer bond orders larger than 0.100000
B(  0-C ,  1-C ) :   1.2767 B(  0-C ,  7-H ) :   0.8982 B(  0-C ,  8-H ) :   0.8781
B(  0-C ,  9-H ) :   0.8584 B(  1-C ,  2-H ) :   1.0086 B(  1-C ,  3-H ) :   0.8885
B(  1-C ,  4-C ) :   1.0610 B(  1-C ,  7-H ) :   0.1192 B(  1-C ,  8-H ) :   0.1286
B(  1-C ,  9-H ) :   0.1334 B(  2-H ,  4-C ) :   0.1072 B(  4-C ,  5-O ) :   1.9055
B(  4-C ,  6-F ) :   0.8122

FINAL SINGLE POINT ENERGY      -291.380300047201

DIPOLE MOMENT
-------------
                                X             Y             Z
Electronic contribution:      5.28525      -2.82717       5.08610
Nuclear contribution   :     -6.57765       2.82334      -5.39171
                        -----------------------------------------
Total Dipole Moment    :     -1.29240      -0.00383      -0.30561
                        -----------------------------------------
Magnitude (a.u.)       :      1.32804
Magnitude (Debye)      :      3.37562

Rotational constants in cm-1:     0.294245     0.132994     0.101060
Rotational constants in MHz :  8821.228602  3987.049251  3029.696815

                             ****ORCA TERMINATED NORMALLY****
TOTAL RUN TIME: 0 days 0 hours 0 minutes 18 seconds 290 msec
