                         Program Version 5.0.0 -  RELEASE  -
|  1> !LC-PBE RIJCOSX def2-SVPD def2/J TightSCF
|  2> *xyz 0 1
|  3> C          4.60295       -2.44010        2.63478
|  4> C          3.86085       -1.59157        3.62289
|  5> N          2.75650       -2.04616        4.16633
|  6> C          4.25433       -0.36291        3.86046
|  7> H          3.56526        0.31099        4.16898
|  8> H          5.05429       -0.01606        3.33784
|  9> H          2.43970       -2.97389        3.89740
| 10> H          2.06687       -1.41253        4.54981
| 11> C          3.74469       -2.58056        1.36188
| 12> H          5.56156       -1.97135        2.40708
| 13> H          4.81050       -3.42255        3.06310
| 14> H          4.26314       -3.18477        0.64702
| 15> H          3.56325       -1.61180        0.94535
| 16> H          2.81197       -3.04259        1.60980
| 17> *
| 18>
| 19> %MaxCore 64000
| 20>
| 21> %pal nprocs 4
| 22> end
| 23>
| 24> %scf
| 25>   MaxIter 150
| 26> end
| 27>
| 28>
| 29>                          ****END OF INPUT****

CARTESIAN COORDINATES (ANGSTROEM)
---------------------------------
  C      4.602950   -2.440100    2.634780
  C      3.860850   -1.591570    3.622890
  N      2.756500   -2.046160    4.166330
  C      4.254330   -0.362910    3.860460
  H      3.565260    0.310990    4.168980
  H      5.054290   -0.016060    3.337840
  H      2.439700   -2.973890    3.897400
  H      2.066870   -1.412530    4.549810
  C      3.744690   -2.580560    1.361880
  H      5.561560   -1.971350    2.407080
  H      4.810500   -3.422550    3.063100
  H      4.263140   -3.184770    0.647020
  H      3.563250   -1.611800    0.945350
  H      2.811970   -3.042590    1.609800

 Total Charge           Charge          ....    0
 Multiplicity           Mult            ....    1
 Number of Electrons    NEL             ....   40
 Basis Dimension        Dim             ....  172

ORBITAL ENERGIES
----------------

  NO   OCC          E(Eh)            E(eV)
   0   2.0000     -14.229485      -387.2040
   1   2.0000     -10.152451      -276.2622
   2   2.0000     -10.130712      -275.6707
   3   2.0000     -10.117165      -275.3021
   4   2.0000     -10.057201      -273.6704
   5   2.0000      -1.101767       -29.9806
   6   2.0000      -0.951395       -25.8888
   7   2.0000      -0.885945       -24.1078
   8   2.0000      -0.795283       -21.6408
   9   2.0000      -0.720669       -19.6104
  10   2.0000      -0.673486       -18.3265
  11   2.0000      -0.625698       -17.0261
  12   2.0000      -0.582264       -15.8442
  13   2.0000      -0.573343       -15.6015
  14   2.0000      -0.525493       -14.2994
  15   2.0000      -0.517562       -14.0836
  16   2.0000      -0.487699       -13.2710
  17   2.0000      -0.474953       -12.9241
  18   2.0000      -0.457630       -12.4527
  19   2.0000      -0.312822        -8.5123
  20   0.0000       0.088134         2.3982
  21   0.0000       0.117022         3.1843
  22   0.0000       0.124266         3.3815
  23   0.0000       0.128862         3.5065
  24   0.0000       0.139052         3.7838

MULLIKEN ATOMIC CHARGES
-----------------------
   0 C :   -0.329289
   1 C :   -0.248364
   2 N :    0.169747
   3 C :    0.208415
   4 H :   -0.264820
   5 H :   -0.028829
   6 H :   -0.022991
   7 H :   -0.133442
   8 C :    0.461877
   9 H :    0.139149
  10 H :    0.042447
  11 H :    0.002858
  12 H :    0.008456
  13 H :   -0.005216
Sum of atomic charges:   -0.0000000

LOEWDIN ATOMIC CHARGES
----------------------
   0 C :   -0.047139
   1 C :   -0.282895
   2 N :    0.154826
   3 C :    0.140844
   4 H :   -0.070379
   5 H :   -0.069681
   6 H :    0.010559
   7 H :    0.020413
   8 C :    0.104252
   9 H :    0.033917
  10 H :    0.032494
  11 H :   -0.008356
  12 H :    0.000444
  13 H :   -0.019300

  Mayer bond orders larger than 0.100000
B(  0-C ,  1-C ) :   1.3199 B(  0-C ,  8-C ) :   1.2533 B(  0-C ,  9-H ) :   0.9031
B(  0-C , 10-H ) :   0.8694 B(  0-C , 11-H ) :   0.1492 B(  0-C , 12-H ) :   0.1258
B(  0-C , 13-H ) :   0.1671 B(  1-C ,  2-N ) :   1.1112 B(  1-C ,  3-C ) :   2.0749
B(  1-C ,  4-H ) :   0.2115 B(  1-C ,  5-H ) :   0.1124 B(  1-C ,  9-H ) :   0.1433
B(  1-C , 10-H ) :   0.1710 B(  2-N ,  3-C ) :   0.2298 B(  2-N ,  6-H ) :   1.0362
B(  2-N ,  7-H ) :   1.1656 B(  3-C ,  4-H ) :   0.8103 B(  3-C ,  5-H ) :   0.8990
B(  6-H ,  7-H ) :  -0.1223 B(  8-C , 11-H ) :   0.8803 B(  8-C , 12-H ) :   0.8832
B(  8-C , 13-H ) :   0.8315

FINAL SINGLE POINT ENERGY      -211.690600294144

DIPOLE MOMENT
-------------
                                X             Y             Z
Electronic contribution:     -0.48516       0.31021       2.80203
Nuclear contribution   :     -0.12319      -0.83296      -3.13501
                        -----------------------------------------
Total Dipole Moment    :     -0.60835      -0.52275      -0.33297
                        -----------------------------------------
Magnitude (a.u.)       :      0.86846
Magnitude (Debye)      :      2.20745

Rotational constants in cm-1:     0.266453     0.134423     0.106086
Rotational constants in MHz :  7988.053142  4029.892766  3180.375228

                             ****ORCA TERMINATED NORMALLY****
TOTAL RUN TIME: 0 days 0 hours 0 minutes 24 seconds 164 msec
