                         Program Version 5.0.0 -  RELEASE  -
|  1> !LC-PBE RIJCOSX def2-SVPD def2/J TightSCF xyzfile
|  2>
|  3> *xyzfile 0 1 D1.xyz
|  4>
|  5> %MaxCore 64000
|  6>
|  7> %pal nprocs 4
|  8> end
|  9>
| 10> %scf
| 11>   MaxIter 150
| 12> end
| 13>
| 14>
| 15>                          ****END OF INPUT****

CARTESIAN COORDINATES (ANGSTROEM)
---------------------------------
  C      4.602954   -2.440100    2.634780
  C     -0.914947    0.615112    2.505538
  C     -0.059146    1.503524    3.410578
  H      0.365364    2.344315    2.861161
  H     -0.692261    1.920207    4.198985
  C      1.083027    0.749640    4.085705
  C      3.860851   -1.591565    3.622893
  C      2.756502   -2.046159    4.166333
  N      4.254325   -0.362905    3.860455
  H      3.565256    0.310994    4.168983
  H      5.054292   -0.016059    3.337838
  H      2.439696   -2.973894    3.897395
  H      2.066869   -1.412532    4.549813
  F      2.228167    1.263475    4.019826
  O      0.810034   -0.345411    4.636269
  C      3.744685   -2.580557    1.361882
  C      0.772139    0.636882    0.562129
  C     -0.130740   -0.193985    1.470763
  H     -0.840563   -0.760165    0.856377
  H      0.466691   -0.938942    2.006959
  H     -1.647961    1.245963    1.991076
  H     -1.478180   -0.081046    3.130424
  C      3.203721   -1.256004    0.826211
  H      2.898939   -3.239289    1.583074
  H      4.334962   -3.095523    0.600188
  C      2.107815   -1.442385   -0.216865
  H      2.786775   -0.672760    1.650711
  H      4.021008   -0.652993    0.414046
  C      1.390662   -0.145912   -0.602422
  H      1.372179   -2.152184    0.176151
  H      2.523302   -1.906787   -1.117115
  H      1.561361    1.100094    1.161831
  H      0.195516    1.468325    0.142758
  H      0.602893   -0.398214   -1.319716
  H      2.087247    0.508272   -1.137335
  H      5.561557   -1.971347    2.407084
  H      4.810498   -3.422552    3.063099

 Total Charge           Charge          ....    0
 Multiplicity           Mult            ....    1
 Number of Electrons    NEL             ....  118
 Basis Dimension        Dim             ....  482

ORBITAL ENERGIES
----------------

  NO   OCC          E(Eh)            E(eV)
   0   2.0000     -24.608720      -669.6373
   1   2.0000     -19.017574      -517.4945
   2   2.0000     -14.205200      -386.5432
   3   2.0000     -10.335355      -281.2393
   4   2.0000     -10.168438      -276.6973
   5   2.0000     -10.145693      -276.0783
   6   2.0000     -10.130291      -275.6592
   7   2.0000     -10.129672      -275.6424
   8   2.0000     -10.129507      -275.6379
   9   2.0000     -10.124264      -275.4952
  10   2.0000     -10.117813      -275.3197
  11   2.0000     -10.116374      -275.2805
  12   2.0000     -10.115549      -275.2581
  13   2.0000     -10.113844      -275.2117
  14   2.0000     -10.023786      -272.7611
  15   2.0000      -1.495699       -40.7000
  16   2.0000      -1.213122       -33.0107
  17   2.0000      -1.084007       -29.4973
  18   2.0000      -1.010038       -27.4845
  19   2.0000      -0.982346       -26.7310
  20   2.0000      -0.954669       -25.9779
  21   2.0000      -0.913181       -24.8489
  22   2.0000      -0.886275       -24.1168
  23   2.0000      -0.853856       -23.2346
  24   2.0000      -0.840121       -22.8609
  25   2.0000      -0.809793       -22.0356
  26   2.0000      -0.773260       -21.0415
  27   2.0000      -0.748430       -20.3658
  28   2.0000      -0.737085       -20.0571
  29   2.0000      -0.724584       -19.7169
  30   2.0000      -0.707358       -19.2482
  31   2.0000      -0.690323       -18.7846
  32   2.0000      -0.676786       -18.4163
  33   2.0000      -0.647163       -17.6102
  34   2.0000      -0.633523       -17.2390
  35   2.0000      -0.629006       -17.1161
  36   2.0000      -0.617851       -16.8126
  37   2.0000      -0.597919       -16.2702
  38   2.0000      -0.590631       -16.0719
  39   2.0000      -0.572044       -15.5661
  40   2.0000      -0.567906       -15.4535
  41   2.0000      -0.551406       -15.0045
  42   2.0000      -0.543282       -14.7834
  43   2.0000      -0.530958       -14.4481
  44   2.0000      -0.524084       -14.2610
  45   2.0000      -0.507956       -13.8222
  46   2.0000      -0.504932       -13.7399
  47   2.0000      -0.496994       -13.5239
  48   2.0000      -0.487054       -13.2534
  49   2.0000      -0.476000       -12.9526
  50   2.0000      -0.474762       -12.9189
  51   2.0000      -0.465533       -12.6678
  52   2.0000      -0.453810       -12.3488
  53   2.0000      -0.448037       -12.1917
  54   2.0000      -0.437315       -11.9000
  55   2.0000      -0.435694       -11.8558
  56   2.0000      -0.431460       -11.7406
  57   2.0000      -0.406726       -11.0676
  58   2.0000      -0.288652        -7.8546
  59   0.0000       0.045716         1.2440
  60   0.0000       0.079488         2.1630
  61   0.0000       0.096634         2.6295
  62   0.0000       0.098903         2.6913
  63   0.0000       0.101946         2.7741

MULLIKEN ATOMIC CHARGES
-----------------------
   0 C :    0.615786
   1 C :    0.339232
   2 C :   -0.032503
   3 H :    0.268106
   4 H :   -0.039284
   5 C :    0.471058
   6 C :   -0.527230
   7 C :    0.831265
   8 N :    0.337593
   9 H :   -0.325285
  10 H :    0.132146
  11 H :   -0.170989
  12 H :   -0.814243
  13 F :   -0.393631
  14 O :   -0.434392
  15 C :   -0.082158
  16 C :   -0.329861
  17 C :   -0.280233
  18 H :   -0.088120
  19 H :    0.000211
  20 H :    0.025396
  21 H :    0.149351
  22 C :   -0.014348
  23 H :    0.134147
  24 H :   -0.161702
  25 C :   -0.159594
  26 H :   -0.248106
  27 H :    0.069555
  28 C :    0.607015
  29 H :    0.237809
  30 H :   -0.230862
  31 H :    0.196155
  32 H :   -0.399696
  33 H :    0.151702
  34 H :    0.060698
  35 H :    0.013658
  36 H :    0.091352
Sum of atomic charges:    0.0000000

LOEWDIN ATOMIC CHARGES
----------------------
   0 C :   -0.004447
   1 C :   -0.035967
   2 C :    0.032093
   3 H :    0.036147
   4 H :    0.056670
   5 C :    0.035768
   6 C :   -0.267255
   7 C :    0.177370
   8 N :    0.178398
   9 H :   -0.065264
  10 H :    0.013770
  11 H :   -0.055850
  12 H :   -0.163217
  13 F :   -0.015976
  14 O :   -0.105472
  15 C :   -0.042041
  16 C :   -0.061330
  17 C :   -0.049466
  18 H :    0.044667
  19 H :    0.024983
  20 H :    0.040982
  21 H :    0.042130
  22 C :   -0.054776
  23 H :    0.029820
  24 H :    0.032285
  25 C :   -0.060819
  26 H :   -0.005729
  27 H :    0.044428
  28 C :   -0.052471
  29 H :    0.029010
  30 H :    0.036490
  31 H :    0.017254
  32 H :    0.035239
  33 H :    0.033850
  34 H :    0.034565
  35 H :    0.024405
  36 H :    0.039758

  Mayer bond orders larger than 0.100000
B(  0-C ,  6-C ) :   1.2450 B(  0-C , 15-C ) :   1.1031 B(  0-C , 35-H ) :   0.6034
B(  0-C , 36-H ) :   0.6996 B(  1-C ,  2-C ) :   1.2217 B(  1-C ,  4-H ) :   0.1459
B(  1-C , 17-C ) :   1.2617 B(  1-C , 20-H ) :   0.8097 B(  1-C , 21-H ) :   0.6896
B(  2-C ,  3-H ) :   0.8259 B(  2-C ,  4-H ) :   0.7643 B(  2-C ,  5-C ) :   1.2287
B(  2-C , 20-H ) :   0.1238 B(  3-H ,  5-C ) :   0.1168 B(  4-H ,  5-C ) :   0.2136
B(  5-C , 13-F ) :   0.7248 B(  5-C , 14-O ) :   1.8539 B(  6-C ,  7-C ) :   2.1071
B(  6-C ,  8-N ) :   0.9342 B(  6-C , 10-H ) :   0.1305 B(  6-C , 12-H ) :   0.3358
B(  6-C , 15-C ) :   0.1282 B(  6-C , 35-H ) :   0.2913 B(  6-C , 36-H ) :   0.2052
B(  7-C ,  8-N ) :   0.3620 B(  7-C , 11-H ) :   0.6984 B(  7-C , 12-H ) :   0.1858
B(  8-N ,  9-H ) :   1.0661 B(  8-N , 10-H ) :   0.9052 B(  8-N , 11-H ) :   0.2291
B(  8-N , 12-H ) :  -0.1815 B(  9-H , 10-H ) :  -0.2108 B( 12-H , 14-O ) :   0.2026
B( 13-F , 14-O ) :   0.1181 B( 15-C , 22-C ) :   1.1697 B( 15-C , 23-H ) :   0.8830
B( 15-C , 24-H ) :   0.9832 B( 15-C , 26-H ) :   0.1481 B( 15-C , 35-H ) :   0.1813
B( 15-C , 36-H ) :   0.1289 B( 16-C , 17-C ) :   1.2811 B( 16-C , 18-H ) :   0.1679
B( 16-C , 19-H ) :   0.1091 B( 16-C , 25-C ) :   0.1134 B( 16-C , 28-C ) :   1.1029
B( 16-C , 31-H ) :   0.8308 B( 16-C , 32-H ) :   1.2012 B( 16-C , 33-H ) :   0.1233
B( 16-C , 34-H ) :   0.2362 B( 17-C , 18-H ) :   0.9148 B( 17-C , 19-H ) :   0.9739
B( 17-C , 20-H ) :   0.1715 B( 17-C , 21-H ) :   0.2180 B( 17-C , 25-C ) :   0.1006
B( 17-C , 32-H ) :   0.1192 B( 22-C , 23-H ) :   0.1096 B( 22-C , 24-H ) :   0.2243
B( 22-C , 25-C ) :   1.2422 B( 22-C , 26-H ) :   1.0001 B( 22-C , 27-H ) :   0.7637
B( 22-C , 30-H ) :   0.2312 B( 25-C , 28-C ) :   1.1703 B( 25-C , 29-H ) :   0.8246
B( 25-C , 30-H ) :   1.0161 B( 25-C , 33-H ) :   0.1839 B( 25-C , 34-H ) :   0.1390
B( 26-H , 27-H ) :   0.1881 B( 26-H , 31-H ) :   0.1742 B( 26-H , 32-H ) :  -0.1082
B( 28-C , 33-H ) :   0.6930 B( 28-C , 34-H ) :   0.6916

FINAL SINGLE POINT ENERGY      -697.610485366157

DIPOLE MOMENT
-------------
                                X             Y             Z
Electronic contribution:      1.15763       7.40429      14.89844
Nuclear contribution   :     -1.66567      -5.90236     -15.95042
                        -----------------------------------------
Total Dipole Moment    :     -0.50803       1.50192      -1.05198
                        -----------------------------------------
Magnitude (a.u.)       :      1.90277
Magnitude (Debye)      :      4.83646

Rotational constants in cm-1:     0.021600     0.017292     0.011381
Rotational constants in MHz :   647.565282   518.410024   341.193038

                             ****ORCA TERMINATED NORMALLY****
TOTAL RUN TIME: 0 days 0 hours 4 minutes 37 seconds 8 msec
