                         Program Version 5.0.0 -  RELEASE  -
|  1> !LC-PBE RIJCOSX def2-SVPD def2/J TightSCF xyzfile
|  2>
|  3> *xyzfile 0 1 D2.xyz
|  4>
|  5> %MaxCore 64000
|  6>
|  7> %pal nprocs 4
|  8> end
|  9>
| 10> %scf
| 11>   MaxIter 150
| 12> end
| 13>
| 14>
| 15>                          ****END OF INPUT****

CARTESIAN COORDINATES (ANGSTROEM)
---------------------------------
  C      4.602954   -2.440100    2.634780
  C     -0.914947    0.615112    2.505538
  C     -0.059146    1.503524    3.410578
  H      0.365364    2.344315    2.861161
  H     -0.692261    1.920207    4.198985
  C      1.083027    0.749640    4.085705
  C      3.860851   -1.591565    3.622893
  N      2.756502   -2.046159    4.166333
  C      4.254325   -0.362905    3.860455
  H      3.565256    0.310994    4.168983
  H      5.054292   -0.016059    3.337838
  H      2.439696   -2.973894    3.897395
  H      2.066869   -1.412532    4.549813
  F      2.228167    1.263475    4.019826
  O      0.810034   -0.345411    4.636269
  C      3.744685   -2.580557    1.361882
  C      0.772139    0.636882    0.562129
  C     -0.130740   -0.193985    1.470763
  H     -0.840563   -0.760165    0.856377
  H      0.466691   -0.938942    2.006959
  H     -1.647961    1.245963    1.991076
  H     -1.478180   -0.081046    3.130424
  C      3.203721   -1.256004    0.826211
  H      2.898939   -3.239289    1.583074
  H      4.334962   -3.095523    0.600188
  C      2.107815   -1.442385   -0.216865
  H      2.786775   -0.672760    1.650711
  H      4.021008   -0.652993    0.414046
  C      1.390662   -0.145912   -0.602422
  H      1.372179   -2.152184    0.176151
  H      2.523302   -1.906787   -1.117115
  H      1.561361    1.100094    1.161831
  H      0.195516    1.468325    0.142758
  H      0.602893   -0.398214   -1.319716
  H      2.087247    0.508272   -1.137335
  H      5.561557   -1.971347    2.407084
  H      4.810498   -3.422552    3.063099

 Total Charge           Charge          ....    0
 Multiplicity           Mult            ....    1
 Number of Electrons    NEL             ....  118
 Basis Dimension        Dim             ....  482

ORBITAL ENERGIES
----------------

  NO   OCC          E(Eh)            E(eV)
   0   2.0000     -24.598902      -669.3702
   1   2.0000     -19.028749      -517.7986
   2   2.0000     -14.193552      -386.2262
   3   2.0000     -10.342817      -281.4424
   4   2.0000     -10.171250      -276.7738
   5   2.0000     -10.149213      -276.1741
   6   2.0000     -10.133281      -275.7406
   7   2.0000     -10.133213      -275.7387
   8   2.0000     -10.130486      -275.6645
   9   2.0000     -10.124751      -275.5085
  10   2.0000     -10.120182      -275.3842
  11   2.0000     -10.118420      -275.3362
  12   2.0000     -10.115066      -275.2449
  13   2.0000     -10.112259      -275.1686
  14   2.0000     -10.032333      -272.9937
  15   2.0000      -1.487982       -40.4901
  16   2.0000      -1.223175       -33.2843
  17   2.0000      -1.077070       -29.3086
  18   2.0000      -1.012724       -27.5576
  19   2.0000      -0.982945       -26.7473
  20   2.0000      -0.953697       -25.9514
  21   2.0000      -0.914706       -24.8904
  22   2.0000      -0.881602       -23.9896
  23   2.0000      -0.867865       -23.6158
  24   2.0000      -0.831280       -22.6203
  25   2.0000      -0.811129       -22.0719
  26   2.0000      -0.772353       -21.0168
  27   2.0000      -0.743360       -20.2278
  28   2.0000      -0.731364       -19.9014
  29   2.0000      -0.719476       -19.5779
  30   2.0000      -0.712067       -19.3763
  31   2.0000      -0.701374       -19.0854
  32   2.0000      -0.676136       -18.3986
  33   2.0000      -0.648209       -17.6387
  34   2.0000      -0.637379       -17.3440
  35   2.0000      -0.628067       -17.0906
  36   2.0000      -0.609890       -16.5959
  37   2.0000      -0.600497       -16.3404
  38   2.0000      -0.589491       -16.0409
  39   2.0000      -0.578387       -15.7387
  40   2.0000      -0.569933       -15.5087
  41   2.0000      -0.550754       -14.9868
  42   2.0000      -0.547985       -14.9114
  43   2.0000      -0.536060       -14.5869
  44   2.0000      -0.517972       -14.0947
  45   2.0000      -0.510187       -13.8829
  46   2.0000      -0.506678       -13.7874
  47   2.0000      -0.502030       -13.6609
  48   2.0000      -0.485752       -13.2180
  49   2.0000      -0.479742       -13.0544
  50   2.0000      -0.474925       -12.9234
  51   2.0000      -0.462962       -12.5978
  52   2.0000      -0.453358       -12.3365
  53   2.0000      -0.448084       -12.1930
  54   2.0000      -0.445035       -12.1100
  55   2.0000      -0.437818       -11.9136
  56   2.0000      -0.431600       -11.7444
  57   2.0000      -0.422320       -11.4919
  58   2.0000      -0.289964        -7.8903
  59   0.0000       0.040620         1.1053
  60   0.0000       0.080575         2.1926
  61   0.0000       0.093091         2.5331
  62   0.0000       0.098700         2.6858
  63   0.0000       0.102381         2.7859

MULLIKEN ATOMIC CHARGES
-----------------------
   0 C :    0.431020
   1 C :    0.333317
   2 C :   -0.064961
   3 H :    0.264824
   4 H :   -0.019314
   5 C :    0.580400
   6 C :   -0.494820
   7 N :    0.370702
   8 C :    0.776026
   9 H :   -0.659218
  10 H :   -0.066055
  11 H :    0.086182
  12 H :   -0.501889
  13 F :   -0.390041
  14 O :   -0.470988
  15 C :    0.012389
  16 C :   -0.325708
  17 C :   -0.283267
  18 H :   -0.098637
  19 H :   -0.004739
  20 H :    0.023622
  21 H :    0.139946
  22 C :    0.077090
  23 H :    0.125089
  24 H :   -0.206761
  25 C :   -0.141501
  26 H :   -0.354088
  27 H :    0.042531
  28 C :    0.600762
  29 H :    0.209920
  30 H :   -0.241868
  31 H :    0.182857
  32 H :   -0.373164
  33 H :    0.158172
  34 H :    0.064102
  35 H :    0.209480
  36 H :    0.008587
Sum of atomic charges:   -0.0000000

LOEWDIN ATOMIC CHARGES
----------------------
   0 C :   -0.005076
   1 C :   -0.036629
   2 C :    0.034264
   3 H :    0.038785
   4 H :    0.057870
   5 C :    0.043062
   6 C :   -0.267233
   7 N :    0.196028
   8 C :    0.159556
   9 H :   -0.133658
  10 H :   -0.062382
  11 H :    0.016540
  12 H :   -0.104563
  13 F :   -0.020100
  14 O :   -0.103951
  15 C :   -0.042803
  16 C :   -0.059821
  17 C :   -0.051622
  18 H :    0.044419
  19 H :    0.022140
  20 H :    0.041685
  21 H :    0.041198
  22 C :   -0.050268
  23 H :    0.023451
  24 H :    0.033735
  25 C :   -0.063380
  26 H :   -0.005641
  27 H :    0.049948
  28 C :   -0.051777
  29 H :    0.026569
  30 H :    0.035909
  31 H :    0.019577
  32 H :    0.035767
  33 H :    0.033630
  34 H :    0.035611
  35 H :    0.035453
  36 H :    0.033706

  Mayer bond orders larger than 0.100000
B(  0-C ,  6-C ) :   1.3462 B(  0-C ,  8-C ) :   0.1044 B(  0-C , 15-C ) :   1.1256
B(  0-C , 24-H ) :   0.1004 B(  0-C , 35-H ) :   0.7668 B(  0-C , 36-H ) :   0.6158
B(  1-C ,  2-C ) :   1.2215 B(  1-C ,  4-H ) :   0.1431 B(  1-C , 17-C ) :   1.2580
B(  1-C , 20-H ) :   0.8134 B(  1-C , 21-H ) :   0.6987 B(  2-C ,  3-H ) :   0.8440
B(  2-C ,  4-H ) :   0.7514 B(  2-C ,  5-C ) :   1.2357 B(  2-C , 20-H ) :   0.1221
B(  3-H ,  5-C ) :   0.1220 B(  4-H ,  5-C ) :   0.2108 B(  5-C , 13-F ) :   0.7480
B(  5-C , 14-O ) :   1.7153 B(  6-C ,  7-N ) :   0.9550 B(  6-C ,  8-C ) :   2.1368
B(  6-C ,  9-H ) :   0.3328 B(  6-C , 10-H ) :   0.2453 B(  6-C , 12-H ) :  -0.1015
B(  6-C , 35-H ) :   0.1349 B(  6-C , 36-H ) :   0.2727 B(  7-N ,  8-C ) :   0.3428
B(  7-N , 11-H ) :   0.9576 B(  7-N , 12-H ) :   1.1458 B(  8-C ,  9-H ) :   0.2144
B(  8-C , 10-H ) :   0.7406 B(  9-H , 13-F ) :   0.1812 B( 11-H , 12-H ) :  -0.2349
B( 12-H , 14-O ) :   0.1711 B( 13-F , 14-O ) :   0.1098 B( 15-C , 22-C ) :   1.1595
B( 15-C , 23-H ) :   0.8501 B( 15-C , 24-H ) :   0.9748 B( 15-C , 26-H ) :   0.1216
B( 15-C , 35-H ) :   0.1357 B( 15-C , 36-H ) :   0.1509 B( 16-C , 17-C ) :   1.2778
B( 16-C , 18-H ) :   0.1642 B( 16-C , 19-H ) :   0.1092 B( 16-C , 25-C ) :   0.1153
B( 16-C , 28-C ) :   1.1095 B( 16-C , 31-H ) :   0.8394 B( 16-C , 32-H ) :   1.1798
B( 16-C , 33-H ) :   0.1214 B( 16-C , 34-H ) :   0.2388 B( 17-C , 18-H ) :   0.9262
B( 17-C , 19-H ) :   0.9727 B( 17-C , 20-H ) :   0.1704 B( 17-C , 21-H ) :   0.2139
B( 17-C , 32-H ) :   0.1212 B( 22-C , 23-H ) :   0.1009 B( 22-C , 24-H ) :   0.1918
B( 22-C , 25-C ) :   1.2155 B( 22-C , 26-H ) :   0.9587 B( 22-C , 27-H ) :   0.7625
B( 22-C , 30-H ) :   0.2349 B( 25-C , 28-C ) :   1.1751 B( 25-C , 29-H ) :   0.8346
B( 25-C , 30-H ) :   1.0133 B( 25-C , 33-H ) :   0.1810 B( 25-C , 34-H ) :   0.1334
B( 26-H , 27-H ) :   0.2287 B( 26-H , 31-H ) :   0.1676 B( 28-C , 33-H ) :   0.6959
B( 28-C , 34-H ) :   0.6901

FINAL SINGLE POINT ENERGY      -697.620474833616

DIPOLE MOMENT
-------------
                                X             Y             Z
Electronic contribution:      0.05321       6.27263      15.06959
Nuclear contribution   :     -1.39991      -5.60370     -16.00470
                        -----------------------------------------
Total Dipole Moment    :     -1.34670       0.66893      -0.93511
                        -----------------------------------------
Magnitude (a.u.)       :      1.77073
Magnitude (Debye)      :      4.50084

Rotational constants in cm-1:     0.021622     0.017313     0.011402
Rotational constants in MHz :   648.226014   519.043632   341.814105

                             ****ORCA TERMINATED NORMALLY****
TOTAL RUN TIME: 0 days 0 hours 4 minutes 55 seconds 873 msec
