                         Program Version 5.0.0 -  RELEASE  -
|  1> !LC-PBE RIJCOSX def2-SVPD def2/J TightSCF xyzfile
|  2>
|  3> *xyzfile 0 1 D3.xyz
|  4>
|  5> %MaxCore 64000
|  6>
|  7> %pal nprocs 4
|  8> end
|  9>
| 10> %scf
| 11>   MaxIter 150
| 12> end
| 13>
| 14>
| 15>                          ****END OF INPUT****

CARTESIAN COORDINATES (ANGSTROEM)
---------------------------------
  C      4.602954   -2.440100    2.634780
  C     -0.914947    0.615112    2.505538
  C     -0.059146    1.503524    3.410578
  H      0.365364    2.344315    2.861161
  H     -0.692261    1.920207    4.198985
  C      1.083027    0.749640    4.085705
  C      3.860851   -1.591565    3.622893
  C      2.756502   -2.046159    4.166333
  N      4.254325   -0.362905    3.860455
  H      3.565256    0.310994    4.168983
  H      5.054292   -0.016059    3.337838
  H      2.439696   -2.973894    3.897395
  H      2.066869   -1.412532    4.549813
  O      2.228167    1.263475    4.019826
  F      0.810034   -0.345411    4.636269
  C      3.744685   -2.580557    1.361882
  C      0.772139    0.636882    0.562129
  C     -0.130740   -0.193985    1.470763
  H     -0.840563   -0.760165    0.856377
  H      0.466691   -0.938942    2.006959
  H     -1.647961    1.245963    1.991076
  H     -1.478180   -0.081046    3.130424
  C      3.203721   -1.256004    0.826211
  H      2.898939   -3.239289    1.583074
  H      4.334962   -3.095523    0.600188
  C      2.107815   -1.442385   -0.216865
  H      2.786775   -0.672760    1.650711
  H      4.021008   -0.652993    0.414046
  C      1.390662   -0.145912   -0.602422
  H      1.372179   -2.152184    0.176151
  H      2.523302   -1.906787   -1.117115
  H      1.561361    1.100094    1.161831
  H      0.195516    1.468325    0.142758
  H      0.602893   -0.398214   -1.319716
  H      2.087247    0.508272   -1.137335
  H      5.561557   -1.971347    2.407084
  H      4.810498   -3.422552    3.063099

 Total Charge           Charge          ....    0
 Multiplicity           Mult            ....    1
 Number of Electrons    NEL             ....  118
 Basis Dimension        Dim             ....  482

ORBITAL ENERGIES
----------------

  NO   OCC          E(Eh)            E(eV)
   0   2.0000     -24.598353      -669.3552
   1   2.0000     -19.027354      -517.7606
   2   2.0000     -14.190838      -386.1523
   3   2.0000     -10.341433      -281.4047
   4   2.0000     -10.169624      -276.7295
   5   2.0000     -10.151179      -276.2276
   6   2.0000     -10.134501      -275.7738
   7   2.0000     -10.133362      -275.7428
   8   2.0000     -10.127655      -275.5875
   9   2.0000     -10.123107      -275.4638
  10   2.0000     -10.117061      -275.2992
  11   2.0000     -10.116185      -275.2754
  12   2.0000     -10.115116      -275.2463
  13   2.0000     -10.111336      -275.1434
  14   2.0000     -10.031822      -272.9798
  15   2.0000      -1.487710       -40.4826
  16   2.0000      -1.220403       -33.2089
  17   2.0000      -1.075498       -29.2658
  18   2.0000      -1.014048       -27.5937
  19   2.0000      -0.982695       -26.7405
  20   2.0000      -0.953293       -25.9404
  21   2.0000      -0.913845       -24.8670
  22   2.0000      -0.878475       -23.9045
  23   2.0000      -0.859547       -23.3895
  24   2.0000      -0.831016       -22.6131
  25   2.0000      -0.811385       -22.0789
  26   2.0000      -0.774788       -21.0831
  27   2.0000      -0.747663       -20.3450
  28   2.0000      -0.732173       -19.9234
  29   2.0000      -0.725277       -19.7358
  30   2.0000      -0.709514       -19.3068
  31   2.0000      -0.694615       -18.9014
  32   2.0000      -0.669643       -18.2219
  33   2.0000      -0.642608       -17.4863
  34   2.0000      -0.635545       -17.2941
  35   2.0000      -0.627991       -17.0885
  36   2.0000      -0.613660       -16.6985
  37   2.0000      -0.594805       -16.1855
  38   2.0000      -0.590134       -16.0584
  39   2.0000      -0.576295       -15.6818
  40   2.0000      -0.568082       -15.4583
  41   2.0000      -0.551581       -15.0093
  42   2.0000      -0.548671       -14.9301
  43   2.0000      -0.531805       -14.4712
  44   2.0000      -0.523969       -14.2579
  45   2.0000      -0.512516       -13.9463
  46   2.0000      -0.506941       -13.7946
  47   2.0000      -0.500136       -13.6094
  48   2.0000      -0.484657       -13.1882
  49   2.0000      -0.475360       -12.9352
  50   2.0000      -0.473219       -12.8770
  51   2.0000      -0.466001       -12.6805
  52   2.0000      -0.453449       -12.3390
  53   2.0000      -0.446547       -12.1512
  54   2.0000      -0.438454       -11.9309
  55   2.0000      -0.436833       -11.8868
  56   2.0000      -0.430390       -11.7115
  57   2.0000      -0.422253       -11.4901
  58   2.0000      -0.288437        -7.8488
  59   0.0000       0.045067         1.2263
  60   0.0000       0.079886         2.1738
  61   0.0000       0.097119         2.6427
  62   0.0000       0.098817         2.6889
  63   0.0000       0.102484         2.7887

MULLIKEN ATOMIC CHARGES
-----------------------
   0 C :    0.616297
   1 C :    0.344728
   2 C :   -0.041257
   3 H :    0.252167
   4 H :   -0.034818
   5 C :    0.581606
   6 C :   -0.510402
   7 C :    0.852332
   8 N :    0.325074
   9 H :   -0.375502
  10 H :    0.140978
  11 H :   -0.161546
  12 H :   -0.834472
  13 O :   -0.463983
  14 F :   -0.406908
  15 C :   -0.081399
  16 C :   -0.335315
  17 C :   -0.256404
  18 H :   -0.088829
  19 H :   -0.021204
  20 H :    0.023638
  21 H :    0.098248
  22 C :    0.041680
  23 H :    0.131737
  24 H :   -0.170356
  25 C :   -0.160006
  26 H :   -0.278911
  27 H :    0.069567
  28 C :    0.615817
  29 H :    0.230511
  30 H :   -0.234044
  31 H :    0.212434
  32 H :   -0.398410
  33 H :    0.143596
  34 H :    0.064484
  35 H :    0.016354
  36 H :    0.092518
Sum of atomic charges:   -0.0000000

LOEWDIN ATOMIC CHARGES
----------------------
   0 C :   -0.003469
   1 C :   -0.043902
   2 C :    0.038238
   3 H :    0.046958
   4 H :    0.055357
   5 C :    0.038717
   6 C :   -0.261605
   7 C :    0.166377
   8 N :    0.186873
   9 H :   -0.103157
  10 H :    0.015152
  11 H :   -0.061513
  12 H :   -0.136208
  13 O :   -0.106743
  14 F :   -0.018629
  15 C :   -0.042419
  16 C :   -0.056824
  17 C :   -0.051752
  18 H :    0.044192
  19 H :    0.023244
  20 H :    0.041290
  21 H :    0.037755
  22 C :   -0.052526
  23 H :    0.028463
  24 H :    0.032276
  25 C :   -0.061733
  26 H :   -0.003726
  27 H :    0.045814
  28 C :   -0.052105
  29 H :    0.027621
  30 H :    0.036218
  31 H :    0.021899
  32 H :    0.035829
  33 H :    0.032999
  34 H :    0.035422
  35 H :    0.026006
  36 H :    0.039610

  Mayer bond orders larger than 0.100000
B(  0-C ,  6-C ) :   1.2549 B(  0-C , 15-C ) :   1.1031 B(  0-C , 35-H ) :   0.5990
B(  0-C , 36-H ) :   0.7026 B(  1-C ,  2-C ) :   1.1980 B(  1-C ,  4-H ) :   0.1441
B(  1-C , 17-C ) :   1.2431 B(  1-C , 20-H ) :   0.8219 B(  1-C , 21-H ) :   0.7057
B(  2-C ,  3-H ) :   0.8509 B(  2-C ,  4-H ) :   0.7729 B(  2-C ,  5-C ) :   1.2120
B(  2-C , 20-H ) :   0.1183 B(  3-H ,  5-C ) :   0.1212 B(  4-H ,  5-C ) :   0.2070
B(  5-C , 13-O ) :   1.7332 B(  5-C , 14-F ) :   0.7084 B(  6-C ,  7-C ) :   2.0818
B(  6-C ,  8-N ) :   0.9357 B(  6-C , 10-H ) :   0.1357 B(  6-C , 12-H ) :   0.3393
B(  6-C , 15-C ) :   0.1262 B(  6-C , 35-H ) :   0.3037 B(  6-C , 36-H ) :   0.2082
B(  7-C ,  8-N ) :   0.3680 B(  7-C , 11-H ) :   0.6918 B(  8-N ,  9-H ) :   1.0757
B(  8-N , 10-H ) :   0.8890 B(  8-N , 11-H ) :   0.2234 B(  8-N , 12-H ) :  -0.1696
B(  9-H , 10-H ) :  -0.2274 B(  9-H , 13-O ) :   0.1252 B( 12-H , 14-F ) :   0.2294
B( 13-O , 14-F ) :   0.1153 B( 15-C , 22-C ) :   1.1641 B( 15-C , 23-H ) :   0.8820
B( 15-C , 24-H ) :   0.9886 B( 15-C , 26-H ) :   0.1491 B( 15-C , 35-H ) :   0.1838
B( 15-C , 36-H ) :   0.1283 B( 16-C , 17-C ) :   1.2971 B( 16-C , 18-H ) :   0.1616
B( 16-C , 19-H ) :   0.1164 B( 16-C , 25-C ) :   0.1160 B( 16-C , 28-C ) :   1.1025
B( 16-C , 31-H ) :   0.8280 B( 16-C , 32-H ) :   1.2053 B( 16-C , 33-H ) :   0.1247
B( 16-C , 34-H ) :   0.2346 B( 17-C , 18-H ) :   0.9317 B( 17-C , 19-H ) :   0.9531
B( 17-C , 20-H ) :   0.1662 B( 17-C , 21-H ) :   0.2210 B( 17-C , 32-H ) :   0.1134
B( 22-C , 23-H ) :   0.1087 B( 22-C , 24-H ) :   0.2211 B( 22-C , 25-C ) :   1.2399
B( 22-C , 26-H ) :   0.9659 B( 22-C , 27-H ) :   0.7573 B( 22-C , 30-H ) :   0.2253
B( 25-C , 28-C ) :   1.1697 B( 25-C , 29-H ) :   0.8250 B( 25-C , 30-H ) :   1.0193
B( 25-C , 33-H ) :   0.1848 B( 25-C , 34-H ) :   0.1387 B( 26-H , 27-H ) :   0.1929
B( 26-H , 31-H ) :   0.1805 B( 26-H , 32-H ) :  -0.1102 B( 28-C , 33-H ) :   0.6907
B( 28-C , 34-H ) :   0.6915

FINAL SINGLE POINT ENERGY      -697.621862751096

DIPOLE MOMENT
-------------
                                X             Y             Z
Electronic contribution:     -1.27705       4.74782      15.90709
Nuclear contribution   :      0.05905      -3.94566     -16.70013
                        -----------------------------------------
Total Dipole Moment    :     -1.21800       0.80216      -0.79304
                        -----------------------------------------
Magnitude (a.u.)       :      1.66009
Magnitude (Debye)      :      4.21962

Rotational constants in cm-1:     0.021602     0.017295     0.011353
Rotational constants in MHz :   647.614981   518.478934   340.359556

                             ****ORCA TERMINATED NORMALLY****
TOTAL RUN TIME: 0 days 0 hours 4 minutes 54 seconds 198 msec
