                         Program Version 5.0.0 -  RELEASE  -
|  1> !LC-PBE RIJCOSX def2-SVPD def2/J TightSCF
|  2> *xyz -1 1
|  3> C          3.84189       -6.95161       -3.63283
|  4> S          4.31812       -6.91593       -5.36869
|  5> O          5.40615       -5.89948       -5.51297
|  6> O          3.11191       -6.44508       -6.04379
|  7> O          4.76340       -8.23942       -5.69863
|  8> H          3.06224       -7.67071       -3.49159
|  9> H          3.49217       -5.98401       -3.33897
| 10> H          4.68822       -7.22131       -3.03626
| 11> *
| 12>
| 13> %MaxCore 64000
| 14>
| 15> %pal nprocs 8
| 16> end
| 17>
| 18> %scf
| 19>   MaxIter 150
| 20> end
| 21>
| 22>
| 23>                          ****END OF INPUT****

CARTESIAN COORDINATES (ANGSTROEM)
---------------------------------
  C      3.841890   -6.951610   -3.632830
  S      4.318120   -6.915930   -5.368690
  O      5.406150   -5.899480   -5.512970
  O      3.111910   -6.445080   -6.043790
  O      4.763400   -8.239420   -5.698630
  H      3.062240   -7.670710   -3.491590
  H      3.492170   -5.984010   -3.338970
  H      4.688220   -7.221310   -3.036260

 Total Charge           Charge          ....   -1
 Multiplicity           Mult            ....    1
 Number of Electrons    NEL             ....   50
 Basis Dimension        Dim             ....  140

ORBITAL ENERGIES
----------------

  NO   OCC          E(Eh)            E(eV)
   0   2.0000     -88.316979     -2403.2272
   1   2.0000     -18.778492      -510.9887
   2   2.0000     -18.767802      -510.6979
   3   2.0000     -18.760861      -510.5090
   4   2.0000      -9.985643      -271.7232
   5   2.0000      -7.938491      -216.0173
   6   2.0000      -5.960886      -162.2040
   7   2.0000      -5.960690      -162.1986
   8   2.0000      -5.960515      -162.1939
   9   2.0000      -1.107059       -30.1246
  10   2.0000      -0.954571       -25.9752
  11   2.0000      -0.923954       -25.1421
  12   2.0000      -0.757763       -20.6198
  13   2.0000      -0.542902       -14.7731
  14   2.0000      -0.456428       -12.4201
  15   2.0000      -0.439956       -11.9718
  16   2.0000      -0.437177       -11.8962
  17   2.0000      -0.393602       -10.7105
  18   2.0000      -0.390661       -10.6304
  19   2.0000      -0.294491        -8.0135
  20   2.0000      -0.290819        -7.9136
  21   2.0000      -0.253235        -6.8909
  22   2.0000      -0.241015        -6.5584
  23   2.0000      -0.235473        -6.4075
  24   2.0000      -0.196298        -5.3416
  25   0.0000       0.210047         5.7157
  26   0.0000       0.232227         6.3192
  27   0.0000       0.232549         6.3280
  28   0.0000       0.238204         6.4819
  29   0.0000       0.271093         7.3768

MULLIKEN ATOMIC CHARGES
-----------------------
   0 C :    0.231308
   1 S :    0.983953
   2 O :   -0.774734
   3 O :   -0.744146
   4 O :   -0.710610
   5 H :    0.011958
   6 H :    0.007828
   7 H :   -0.005555
Sum of atomic charges:   -1.0000000

LOEWDIN ATOMIC CHARGES
----------------------
   0 C :    0.024598
   1 S :    0.819934
   2 O :   -0.605288
   3 O :   -0.593463
   4 O :   -0.575228
   5 H :   -0.023402
   6 H :   -0.022357
   7 H :   -0.024793

  Mayer bond orders larger than 0.100000
B(  0-C ,  1-S ) :   0.9703 B(  0-C ,  5-H ) :   0.9332 B(  0-C ,  6-H ) :   0.9388
B(  0-C ,  7-H ) :   0.9416 B(  1-S ,  2-O ) :   1.3276 B(  1-S ,  3-O ) :   1.3569
B(  1-S ,  4-O ) :   1.3791 B(  1-S ,  6-H ) :   0.1047

FINAL SINGLE POINT ENERGY      -662.426885728905

DIPOLE MOMENT
-------------
                                X             Y             Z
Electronic contribution:      1.05669      -0.07389      -4.01527
Nuclear contribution   :     -1.53523      -0.17928       5.57610
                        -----------------------------------------
Total Dipole Moment    :     -0.47855      -0.25318       1.56083
                        -----------------------------------------
Magnitude (a.u.)       :      1.65206
Magnitude (Debye)      :      4.19921

Rotational constants in cm-1:     0.172657     0.156250     0.152500
Rotational constants in MHz :  5176.120042  4684.252187  4571.835124

                             ****ORCA TERMINATED NORMALLY****
TOTAL RUN TIME: 0 days 0 hours 0 minutes 7 seconds 215 msec
