                         Program Version 5.0.0 -  RELEASE  -
|  1> !LC-PBE RIJCOSX def2-SVPD def2/J TightSCF
|  2> *xyz 1 1
|  3> C          5.55821       -1.99291       -6.21505
|  4> C          4.18188       -2.58967       -6.29891
|  5> N          3.14587       -1.76843       -6.48675
|  6> N          4.01910       -3.86431       -6.22743
|  7> H          4.76849       -4.59115       -5.99077
|  8> H          3.12241       -4.33339       -6.31462
|  9> H          3.28164       -0.77779       -6.56655
| 10> H          2.21255       -2.13419       -6.56225
| 11> H          5.49055       -0.92791       -6.29315
| 12> H          6.16046       -2.37160       -7.01429
| 13> H          6.00378       -2.25423       -5.27799
| 14> *
| 15>
| 16> %MaxCore 64000
| 17>
| 18> %pal nprocs 8
| 19> end
| 20>
| 21> %scf
| 22>   MaxIter 150
| 23> end
| 24>
| 25>
| 26>                          ****END OF INPUT****

CARTESIAN COORDINATES (ANGSTROEM)
---------------------------------
  C      5.558210   -1.992910   -6.215050
  C      4.181880   -2.589670   -6.298910
  N      3.145870   -1.768430   -6.486750
  N      4.019100   -3.864310   -6.227430
  H      4.768490   -4.591150   -5.990770
  H      3.122410   -4.333390   -6.314620
  H      3.281640   -0.777790   -6.566550
  H      2.212550   -2.134190   -6.562250
  H      5.490550   -0.927910   -6.293150
  H      6.160460   -2.371600   -7.014290
  H      6.003780   -2.254230   -5.277990

 Total Charge           Charge          ....    1
 Multiplicity           Mult            ....    1
 Number of Electrons    NEL             ....   32
 Basis Dimension        Dim             ....  136

ORBITAL ENERGIES
----------------

  NO   OCC          E(Eh)            E(eV)
   0   2.0000     -14.488066      -394.2403
   1   2.0000     -14.476481      -393.9251
   2   2.0000     -10.471144      -284.9343
   3   2.0000     -10.324681      -280.9489
   4   2.0000      -1.381204       -37.5845
   5   2.0000      -1.273031       -34.6409
   6   2.0000      -1.122227       -30.5373
   7   2.0000      -1.003053       -27.2945
   8   2.0000      -0.932981       -25.3877
   9   2.0000      -0.914450       -24.8835
  10   2.0000      -0.842669       -22.9302
  11   2.0000      -0.814431       -22.1618
  12   2.0000      -0.751147       -20.4398
  13   2.0000      -0.737364       -20.0647
  14   2.0000      -0.714868       -19.4526
  15   2.0000      -0.629621       -17.1329
  16   0.0000      -0.121211        -3.2983
  17   0.0000      -0.082468        -2.2441
  18   0.0000      -0.038824        -1.0564
  19   0.0000      -0.038222        -1.0401
  20   0.0000      -0.014907        -0.4056

MULLIKEN ATOMIC CHARGES
-----------------------
   0 C :    0.280190
   1 C :    0.441397
   2 N :   -0.084116
   3 N :   -0.005063
   4 H :    0.127375
   5 H :   -0.088475
   6 H :    0.065489
   7 H :   -0.064879
   8 H :    0.107798
   9 H :    0.104801
  10 H :    0.115483
Sum of atomic charges:    1.0000000

LOEWDIN ATOMIC CHARGES
----------------------
   0 C :    0.202201
   1 C :   -0.066925
   2 N :    0.267254
   3 N :    0.236112
   4 H :    0.121779
   5 H :    0.058457
   6 H :    0.049284
   7 H :    0.049262
   8 H :    0.016546
   9 H :    0.033771
  10 H :    0.032260

  Mayer bond orders larger than 0.100000
B(  0-C ,  1-C ) :   1.2766 B(  0-C ,  8-H ) :   0.8299 B(  0-C ,  9-H ) :   0.8175
B(  0-C , 10-H ) :   0.7997 B(  1-C ,  2-N ) :   0.9708 B(  1-C ,  3-N ) :   1.1522
B(  1-C ,  5-H ) :  -0.1902 B(  1-C ,  7-H ) :  -0.2183 B(  1-C ,  8-H ) :   0.1746
B(  1-C ,  9-H ) :   0.1263 B(  1-C , 10-H ) :   0.1350 B(  2-N ,  3-N ) :   0.1506
B(  2-N ,  6-H ) :   1.0964 B(  2-N ,  7-H ) :   1.3082 B(  3-N ,  4-H ) :   1.1047
B(  3-N ,  5-H ) :   1.2510 B(  4-H ,  5-H ) :  -0.1487 B(  6-H ,  7-H ) :  -0.1740
B(  8-H , 10-H ) :   0.1062

FINAL SINGLE POINT ENERGY      -188.982503090195

DIPOLE MOMENT
-------------
                                X             Y             Z
Electronic contribution:     -1.90663      -0.90601      -0.11345
Nuclear contribution   :      1.48163       0.51565       0.12876
                        -----------------------------------------
Total Dipole Moment    :     -0.42500      -0.39036       0.01531
                        -----------------------------------------
Magnitude (a.u.)       :      0.57726
Magnitude (Debye)      :      1.46729

Rotational constants in cm-1:     0.329497     0.300036     0.161709
Rotational constants in MHz :  9878.065920  8994.849253  4847.907140

                             ****ORCA TERMINATED NORMALLY****
TOTAL RUN TIME: 0 days 0 hours 0 minutes 7 seconds 104 msec
