                         Program Version 5.0.0 -  RELEASE  -
|  1> !LC-PBE RIJCOSX def2-SVPD def2/J TightSCF
|  2> *xyz 0 1
|  3> C          3.84189       -6.95161       -3.63283
|  4> S          4.31812       -6.91593       -5.36869
|  5> F          5.40615       -5.89948       -5.51297
|  6> O          3.11191       -6.44508       -6.04379
|  7> O          4.76340       -8.23942       -5.69863
|  8> H          3.06224       -7.67071       -3.49159
|  9> H          3.49217       -5.98401       -3.33897
| 10> H          4.68822       -7.22131       -3.03626
| 11> *
| 12>
| 13> %MaxCore 64000
| 14>
| 15> %pal nprocs 8
| 16> end
| 17>
| 18> %scf
| 19>   MaxIter 150
| 20> end
| 21>
| 22>
| 23>                          ****END OF INPUT****

CARTESIAN COORDINATES (ANGSTROEM)
---------------------------------
  C      3.841890   -6.951610   -3.632830
  S      4.318120   -6.915930   -5.368690
  F      5.406150   -5.899480   -5.512970
  O      3.111910   -6.445080   -6.043790
  O      4.763400   -8.239420   -5.698630
  H      3.062240   -7.670710   -3.491590
  H      3.492170   -5.984010   -3.338970
  H      4.688220   -7.221310   -3.036260

 Total Charge           Charge          ....    0
 Multiplicity           Mult            ....    1
 Number of Electrons    NEL             ....   50
 Basis Dimension        Dim             ....  140

ORBITAL ENERGIES
----------------

  NO   OCC          E(Eh)            E(eV)
   0   2.0000     -88.582544     -2410.4536
   1   2.0000     -24.613980      -669.7805
   2   2.0000     -19.018878      -517.5300
   3   2.0000     -19.007814      -517.2289
   4   2.0000     -10.195002      -277.4201
   5   2.0000      -8.204573      -223.2578
   6   2.0000      -6.231431      -169.5659
   7   2.0000      -6.224415      -169.3749
   8   2.0000      -6.223783      -169.3577
   9   2.0000      -1.506648       -40.9980
  10   2.0000      -1.294893       -35.2358
  11   2.0000      -1.190342       -32.3908
  12   2.0000      -0.977575       -26.6012
  13   2.0000      -0.864468       -23.5234
  14   2.0000      -0.751718       -20.4553
  15   2.0000      -0.723821       -19.6962
  16   2.0000      -0.708546       -19.2805
  17   2.0000      -0.630929       -17.1685
  18   2.0000      -0.629433       -17.1277
  19   2.0000      -0.614649       -16.7254
  20   2.0000      -0.589939       -16.0531
  21   2.0000      -0.540302       -14.7024
  22   2.0000      -0.487828       -13.2745
  23   2.0000      -0.474702       -12.9173
  24   2.0000      -0.461992       -12.5714
  25   0.0000       0.059225         1.6116
  26   0.0000       0.090534         2.4635
  27   0.0000       0.095207         2.5907
  28   0.0000       0.096209         2.6180
  29   0.0000       0.109899         2.9905

MULLIKEN ATOMIC CHARGES
-----------------------
   0 C :    0.177812
   1 S :    1.160483
   2 F :   -0.360887
   3 O :   -0.616100
   4 O :   -0.584241
   5 H :    0.079771
   6 H :    0.077848
   7 H :    0.065313
Sum of atomic charges:    0.0000000

LOEWDIN ATOMIC CHARGES
----------------------
   0 C :    0.094447
   1 S :    1.087496
   2 F :   -0.263849
   3 O :   -0.475855
   4 O :   -0.458177
   5 H :    0.014235
   6 H :    0.002069
   7 H :   -0.000366

  Mayer bond orders larger than 0.100000
B(  0-C ,  1-S ) :   1.0228 B(  0-C ,  5-H ) :   0.9228 B(  0-C ,  6-H ) :   0.9287
B(  0-C ,  7-H ) :   0.9317 B(  1-S ,  2-F ) :   0.6915 B(  1-S ,  3-O ) :   1.5640
B(  1-S ,  4-O ) :   1.5842

FINAL SINGLE POINT ENERGY      -686.898459511978

DIPOLE MOMENT
-------------
                                X             Y             Z
Electronic contribution:      2.90404       1.62423      -4.22145
Nuclear contribution   :     -2.64549      -1.17311       5.81218
                        -----------------------------------------
Total Dipole Moment    :      0.25855       0.45112       1.59073
                        -----------------------------------------
Magnitude (a.u.)       :      1.67356
Magnitude (Debye)      :      4.25384

Rotational constants in cm-1:     0.165958     0.149400     0.146699
Rotational constants in MHz :  4975.281722  4478.884828  4397.931002

                             ****ORCA TERMINATED NORMALLY****
TOTAL RUN TIME: 0 days 0 hours 0 minutes 7 seconds 571 msec
