                         Program Version 5.0.0 -  RELEASE  -
|  1> !LC-PBE RIJCOSX def2-SVPD def2/J TightSCF
|  2> *xyz 0 1
|  3> C          5.55821       -1.99291       -6.21505
|  4> C          4.18188       -2.58967       -6.29891
|  5> C          3.14587       -1.76843       -6.48675
|  6> N          4.01910       -3.86431       -6.22743
|  7> H          4.76849       -4.59115       -5.99077
|  8> H          3.12241       -4.33339       -6.31462
|  9> H          3.28164       -0.77779       -6.56655
| 10> H          2.21255       -2.13419       -6.56225
| 11> H          5.49055       -0.92791       -6.29315
| 12> H          6.16046       -2.37160       -7.01429
| 13> H          6.00378       -2.25423       -5.27799
| 14> *
| 15>
| 16> %MaxCore 64000
| 17>
| 18> %pal nprocs 8
| 19> end
| 20>
| 21> %scf
| 22>   MaxIter 150
| 23> end
| 24>
| 25>
| 26>                          ****END OF INPUT****

CARTESIAN COORDINATES (ANGSTROEM)
---------------------------------
  C      5.558210   -1.992910   -6.215050
  C      4.181880   -2.589670   -6.298910
  C      3.145870   -1.768430   -6.486750
  N      4.019100   -3.864310   -6.227430
  H      4.768490   -4.591150   -5.990770
  H      3.122410   -4.333390   -6.314620
  H      3.281640   -0.777790   -6.566550
  H      2.212550   -2.134190   -6.562250
  H      5.490550   -0.927910   -6.293150
  H      6.160460   -2.371600   -7.014290
  H      6.003780   -2.254230   -5.277990

 Total Charge           Charge          ....    0
 Multiplicity           Mult            ....    1
 Number of Electrons    NEL             ....   32
 Basis Dimension        Dim             ....  136

ORBITAL ENERGIES
----------------

  NO   OCC          E(Eh)            E(eV)
   0   2.0000     -14.236834      -387.4040
   1   2.0000     -10.157810      -276.4081
   2   2.0000     -10.116133      -275.2740
   3   2.0000     -10.055201      -273.6159
   4   2.0000      -1.101023       -29.9604
   5   2.0000      -0.921888       -25.0858
   6   2.0000      -0.847846       -23.0711
   7   2.0000      -0.737306       -20.0631
   8   2.0000      -0.659258       -17.9393
   9   2.0000      -0.619184       -16.8488
  10   2.0000      -0.578257       -15.7352
  11   2.0000      -0.533592       -14.5198
  12   2.0000      -0.524984       -14.2855
  13   2.0000      -0.482294       -13.1239
  14   2.0000      -0.477554       -12.9949
  15   2.0000      -0.305200        -8.3049
  16   0.0000       0.090206         2.4546
  17   0.0000       0.122954         3.3457
  18   0.0000       0.128359         3.4928
  19   0.0000       0.135459         3.6860
  20   0.0000       0.162325         4.4171

MULLIKEN ATOMIC CHARGES
-----------------------
   0 C :    0.537922
   1 C :   -0.408850
   2 C :    0.350746
   3 N :    0.104818
   4 H :   -0.023667
   5 H :   -0.163647
   6 H :   -0.170414
   7 H :   -0.384398
   8 H :    0.098583
   9 H :    0.026922
  10 H :    0.031985
Sum of atomic charges:   -0.0000000

LOEWDIN ATOMIC CHARGES
----------------------
   0 C :    0.134570
   1 C :   -0.305945
   2 C :    0.144318
   3 N :    0.116870
   4 H :    0.062004
   5 H :    0.016681
   6 H :   -0.082643
   7 H :   -0.080955
   8 H :   -0.003372
   9 H :    0.000122
  10 H :   -0.001649

  Mayer bond orders larger than 0.100000
B(  0-C ,  1-C ) :   1.3199 B(  0-C ,  8-H ) :   0.8367 B(  0-C ,  9-H ) :   0.7415
B(  0-C , 10-H ) :   0.7283 B(  1-C ,  2-C ) :   1.7610 B(  1-C ,  3-N ) :   1.1610
B(  1-C ,  7-H ) :   0.1286 B(  1-C ,  8-H ) :   0.1600 B(  1-C ,  9-H ) :   0.2193
B(  1-C , 10-H ) :   0.2233 B(  2-C ,  3-N ) :   0.2274 B(  2-C ,  6-H ) :   1.0233
B(  2-C ,  7-H ) :   0.8153 B(  3-N ,  4-H ) :   1.1886 B(  3-N ,  5-H ) :   1.2229
B(  4-H ,  5-H ) :  -0.1336 B(  8-H , 10-H ) :   0.1018

FINAL SINGLE POINT ENERGY      -172.540780399973

DIPOLE MOMENT
-------------
                                X             Y             Z
Electronic contribution:     -0.86958      -1.48412       0.04485
Nuclear contribution   :      1.24351       0.69391       0.08872
                        -----------------------------------------
Total Dipole Moment    :      0.37393      -0.79021       0.13357
                        -----------------------------------------
Magnitude (a.u.)       :      0.88436
Magnitude (Debye)      :      2.24786

Rotational constants in cm-1:     0.350694     0.303314     0.167659
Rotational constants in MHz : 10513.535482  9093.138449  5026.287342

                             ****ORCA TERMINATED NORMALLY****
TOTAL RUN TIME: 0 days 0 hours 0 minutes 7 seconds 765 msec
