                         Program Version 5.0.0 -  RELEASE  -
|  1> !LC-PBE RIJCOSX def2-SVPD def2/J TightSCF
|  2> *xyz 0 1
|  3> C          3.84189       -6.95161       -3.63283
|  4> S          4.31812       -6.91593       -5.36869
|  5> O          5.40615       -5.89948       -5.51297
|  6> F          3.11191       -6.44508       -6.04379
|  7> O          4.76340       -8.23942       -5.69863
|  8> H          3.06224       -7.67071       -3.49159
|  9> H          3.49217       -5.98401       -3.33897
| 10> H          4.68822       -7.22131       -3.03626
| 11> *
| 12>
| 13> %MaxCore 64000
| 14>
| 15> %pal nprocs 8
| 16> end
| 17>
| 18> %scf
| 19>   MaxIter 150
| 20> end
| 21>
| 22>
| 23>                          ****END OF INPUT****

CARTESIAN COORDINATES (ANGSTROEM)
---------------------------------
  C      3.841890   -6.951610   -3.632830
  S      4.318120   -6.915930   -5.368690
  O      5.406150   -5.899480   -5.512970
  F      3.111910   -6.445080   -6.043790
  O      4.763400   -8.239420   -5.698630
  H      3.062240   -7.670710   -3.491590
  H      3.492170   -5.984010   -3.338970
  H      4.688220   -7.221310   -3.036260

 Total Charge           Charge          ....    0
 Multiplicity           Mult            ....    1
 Number of Electrons    NEL             ....   50
 Basis Dimension        Dim             ....  140

ORBITAL ENERGIES
----------------

  NO   OCC          E(Eh)            E(eV)
   0   2.0000     -88.584312     -2410.5017
   1   2.0000     -24.628063      -670.1637
   2   2.0000     -19.018726      -517.5258
   3   2.0000     -19.000636      -517.0336
   4   2.0000     -10.196070      -277.4492
   5   2.0000      -8.206411      -223.3078
   6   2.0000      -6.233483      -169.6217
   7   2.0000      -6.226226      -169.4242
   8   2.0000      -6.225295      -169.3989
   9   2.0000      -1.533305       -41.7234
  10   2.0000      -1.289375       -35.0857
  11   2.0000      -1.172077       -31.8938
  12   2.0000      -0.982185       -26.7266
  13   2.0000      -0.876706       -23.8564
  14   2.0000      -0.762961       -20.7612
  15   2.0000      -0.742979       -20.2175
  16   2.0000      -0.712250       -19.3813
  17   2.0000      -0.632789       -17.2191
  18   2.0000      -0.628589       -17.1048
  19   2.0000      -0.612923       -16.6785
  20   2.0000      -0.585355       -15.9283
  21   2.0000      -0.537944       -14.6382
  22   2.0000      -0.484599       -13.1866
  23   2.0000      -0.468224       -12.7410
  24   2.0000      -0.449685       -12.2365
  25   0.0000       0.058647         1.5959
  26   0.0000       0.089419         2.4332
  27   0.0000       0.094530         2.5723
  28   0.0000       0.097218         2.6454
  29   0.0000       0.117769         3.2047

MULLIKEN ATOMIC CHARGES
-----------------------
   0 C :    0.175338
   1 S :    1.151969
   2 O :   -0.636205
   3 F :   -0.340773
   4 O :   -0.574386
   5 H :    0.084909
   6 H :    0.076031
   7 H :    0.063117
Sum of atomic charges:    0.0000000

LOEWDIN ATOMIC CHARGES
----------------------
   0 C :    0.094348
   1 S :    1.088001
   2 O :   -0.486087
   3 F :   -0.254612
   4 O :   -0.458376
   5 H :    0.001599
   6 H :    0.001789
   7 H :    0.013338

  Mayer bond orders larger than 0.100000
B(  0-C ,  1-S ) :   1.0199 B(  0-C ,  5-H ) :   0.9213 B(  0-C ,  6-H ) :   0.9279
B(  0-C ,  7-H ) :   0.9343 B(  1-S ,  2-O ) :   1.5365 B(  1-S ,  3-F ) :   0.7352
B(  1-S ,  4-O ) :   1.5889

FINAL SINGLE POINT ENERGY      -686.887370519519

DIPOLE MOMENT
-------------
                                X             Y             Z
Electronic contribution:     -0.99717       0.68759      -5.12970
Nuclear contribution   :     -0.35339      -0.62802       6.34251
                        -----------------------------------------
Total Dipole Moment    :     -1.35056       0.05957       1.21281
                        -----------------------------------------
Magnitude (a.u.)       :      1.81617
Magnitude (Debye)      :      4.61634

Rotational constants in cm-1:     0.162638     0.154373     0.145390
Rotational constants in MHz :  4875.774584  4627.990015  4358.691210

                             ****ORCA TERMINATED NORMALLY****
TOTAL RUN TIME: 0 days 0 hours 0 minutes 7 seconds 568 msec
