                         Program Version 5.0.0 -  RELEASE  -
|  1> !LC-PBE RIJCOSX def2-SVPD def2/J TightSCF
|  2> *xyz 0 1
|  3> C          5.55821       -1.99291       -6.21505
|  4> C          4.18188       -2.58967       -6.29891
|  5> N          3.14587       -1.76843       -6.48675
|  6> C          4.01910       -3.86431       -6.22743
|  7> H          4.76849       -4.59115       -5.99077
|  8> H          3.12241       -4.33339       -6.31462
|  9> H          3.28164       -0.77779       -6.56655
| 10> H          2.21255       -2.13419       -6.56225
| 11> H          5.49055       -0.92791       -6.29315
| 12> H          6.16046       -2.37160       -7.01429
| 13> H          6.00378       -2.25423       -5.27799
| 14> *
| 15>
| 16> %MaxCore 64000
| 17>
| 18> %pal nprocs 8
| 19> end
| 20>
| 21> %scf
| 22>   MaxIter 150
| 23> end
| 24>
| 25>
| 26>                          ****END OF INPUT****

CARTESIAN COORDINATES (ANGSTROEM)
---------------------------------
  C      5.558210   -1.992910   -6.215050
  C      4.181880   -2.589670   -6.298910
  N      3.145870   -1.768430   -6.486750
  C      4.019100   -3.864310   -6.227430
  H      4.768490   -4.591150   -5.990770
  H      3.122410   -4.333390   -6.314620
  H      3.281640   -0.777790   -6.566550
  H      2.212550   -2.134190   -6.562250
  H      5.490550   -0.927910   -6.293150
  H      6.160460   -2.371600   -7.014290
  H      6.003780   -2.254230   -5.277990

 Total Charge           Charge          ....    0
 Multiplicity           Mult            ....    1
 Number of Electrons    NEL             ....   32
 Basis Dimension        Dim             ....  136

ORBITAL ENERGIES
----------------

  NO   OCC          E(Eh)            E(eV)
   0   2.0000     -14.225946      -387.1077
   1   2.0000     -10.154581      -276.3202
   2   2.0000     -10.116804      -275.2922
   3   2.0000     -10.061818      -273.7960
   4   2.0000      -1.091610       -29.7042
   5   2.0000      -0.924526       -25.1576
   6   2.0000      -0.854329       -23.2475
   7   2.0000      -0.719426       -19.5766
   8   2.0000      -0.671925       -18.2840
   9   2.0000      -0.624560       -16.9951
  10   2.0000      -0.575191       -15.6517
  11   2.0000      -0.532647       -14.4941
  12   2.0000      -0.528366       -14.3776
  13   2.0000      -0.477918       -13.0048
  14   2.0000      -0.472459       -12.8563
  15   2.0000      -0.313569        -8.5326
  16   0.0000       0.092607         2.5200
  17   0.0000       0.125005         3.4015
  18   0.0000       0.128931         3.5084
  19   0.0000       0.134135         3.6500
  20   0.0000       0.164020         4.4632

MULLIKEN ATOMIC CHARGES
-----------------------
   0 C :    0.500459
   1 C :   -0.028047
   2 N :    0.065204
   3 C :   -0.106757
   4 H :   -0.032266
   5 H :   -0.295890
   6 H :   -0.096713
   7 H :   -0.118968
   8 H :   -0.044930
   9 H :    0.062735
  10 H :    0.095174
Sum of atomic charges:    0.0000000

LOEWDIN ATOMIC CHARGES
----------------------
   0 C :    0.136464
   1 C :   -0.294185
   2 N :    0.151399
   3 C :    0.109066
   4 H :   -0.025724
   5 H :   -0.074978
   6 H :   -0.005269
   7 H :    0.009021
   8 H :   -0.015976
   9 H :    0.005355
  10 H :    0.004826

  Mayer bond orders larger than 0.100000
B(  0-C ,  1-C ) :   1.1263 B(  0-C ,  8-H ) :   0.7946 B(  0-C ,  9-H ) :   0.8215
B(  0-C , 10-H ) :   0.7743 B(  1-C ,  2-N ) :   0.9958 B(  1-C ,  3-C ) :   1.6763
B(  1-C ,  7-H ) :  -0.1377 B(  1-C ,  8-H ) :   0.2085 B(  1-C ,  9-H ) :   0.1249
B(  1-C , 10-H ) :   0.1481 B(  2-N ,  3-C ) :   0.2654 B(  2-N ,  6-H ) :   1.1439
B(  2-N ,  7-H ) :   1.2692 B(  3-C ,  4-H ) :   0.9606 B(  3-C ,  5-H ) :   0.9044
B(  6-H ,  7-H ) :  -0.1620

FINAL SINGLE POINT ENERGY      -172.550468629237

DIPOLE MOMENT
-------------
                                X             Y             Z
Electronic contribution:     -1.61320       0.40798      -0.20744
Nuclear contribution   :      1.43935       0.22387       0.14687
                        -----------------------------------------
Total Dipole Moment    :     -0.17385       0.63185      -0.06056
                        -----------------------------------------
Magnitude (a.u.)       :      0.65813
Magnitude (Debye)      :      1.67283

Rotational constants in cm-1:     0.350137     0.303099     0.167465
Rotational constants in MHz : 10496.847516  9086.685989  5020.487860

                             ****ORCA TERMINATED NORMALLY****
TOTAL RUN TIME: 0 days 0 hours 0 minutes 7 seconds 402 msec
