                         Program Version 5.0.0 -  RELEASE  -
|  1> !LC-PBE RIJCOSX def2-SVPD def2/J TightSCF
|  2> *xyz 0 1
|  3> C          3.84189       -6.95161       -3.63283
|  4> S          4.31812       -6.91593       -5.36869
|  5> O          5.40615       -5.89948       -5.51297
|  6> O          3.11191       -6.44508       -6.04379
|  7> F          4.76340       -8.23942       -5.69863
|  8> H          3.06224       -7.67071       -3.49159
|  9> H          3.49217       -5.98401       -3.33897
| 10> H          4.68822       -7.22131       -3.03626
| 11> *
| 12>
| 13> %MaxCore 64000
| 14>
| 15> %pal nprocs 8
| 16> end
| 17>
| 18> %scf
| 19>   MaxIter 150
| 20> end
| 21>
| 22>
| 23>                          ****END OF INPUT****

CARTESIAN COORDINATES (ANGSTROEM)
---------------------------------
  C      3.841890   -6.951610   -3.632830
  S      4.318120   -6.915930   -5.368690
  O      5.406150   -5.899480   -5.512970
  O      3.111910   -6.445080   -6.043790
  F      4.763400   -8.239420   -5.698630
  H      3.062240   -7.670710   -3.491590
  H      3.492170   -5.984010   -3.338970
  H      4.688220   -7.221310   -3.036260

 Total Charge           Charge          ....    0
 Multiplicity           Mult            ....    1
 Number of Electrons    NEL             ....   50
 Basis Dimension        Dim             ....  140

ORBITAL ENERGIES
----------------

  NO   OCC          E(Eh)            E(eV)
   0   2.0000     -88.585490     -2410.5337
   1   2.0000     -24.642643      -670.5604
   2   2.0000     -19.008190      -517.2391
   3   2.0000     -19.001165      -517.0480
   4   2.0000     -10.196479      -277.4603
   5   2.0000      -8.207681      -223.3424
   6   2.0000      -6.234873      -169.6595
   7   2.0000      -6.227287      -169.4531
   8   2.0000      -6.226477      -169.4310
   9   2.0000      -1.556039       -42.3420
  10   2.0000      -1.278624       -34.7931
  11   2.0000      -1.163716       -31.6663
  12   2.0000      -0.982012       -26.7219
  13   2.0000      -0.888845       -24.1867
  14   2.0000      -0.774899       -21.0861
  15   2.0000      -0.759139       -20.6572
  16   2.0000      -0.713679       -19.4202
  17   2.0000      -0.629817       -17.1382
  18   2.0000      -0.626508       -17.0481
  19   2.0000      -0.615555       -16.7501
  20   2.0000      -0.579904       -15.7800
  21   2.0000      -0.531307       -14.4576
  22   2.0000      -0.473527       -12.8853
  23   2.0000      -0.467274       -12.7152
  24   2.0000      -0.442507       -12.0412
  25   0.0000       0.056724         1.5436
  26   0.0000       0.088419         2.4060
  27   0.0000       0.093710         2.5500
  28   0.0000       0.097266         2.6468
  29   0.0000       0.115876         3.1531

MULLIKEN ATOMIC CHARGES
-----------------------
   0 C :    0.177774
   1 S :    1.149589
   2 O :   -0.629576
   3 O :   -0.599618
   4 F :   -0.324007
   5 H :    0.084883
   6 H :    0.074366
   7 H :    0.066588
Sum of atomic charges:    0.0000000

LOEWDIN ATOMIC CHARGES
----------------------
   0 C :    0.094037
   1 S :    1.090360
   2 O :   -0.485533
   3 O :   -0.475606
   4 F :   -0.239710
   5 H :    0.001436
   6 H :    0.015025
   7 H :   -0.000010

  Mayer bond orders larger than 0.100000
B(  0-C ,  1-S ) :   1.0213 B(  0-C ,  5-H ) :   0.9195 B(  0-C ,  6-H ) :   0.9313
B(  0-C ,  7-H ) :   0.9309 B(  1-S ,  2-O ) :   1.5360 B(  1-S ,  3-O ) :   1.5692
B(  1-S ,  4-F ) :   0.7590 B(  1-S ,  6-H ) :   0.1023

FINAL SINGLE POINT ENERGY      -686.874259313280

DIPOLE MOMENT
-------------
                                X             Y             Z
Electronic contribution:      1.79705      -2.33496      -4.54050
Nuclear contribution   :     -2.00334       1.16464       5.99767
                        -----------------------------------------
Total Dipole Moment    :     -0.20629      -1.17031       1.45717
                        -----------------------------------------
Magnitude (a.u.)       :      1.88030
Magnitude (Debye)      :      4.77934

Rotational constants in cm-1:     0.163678     0.154408     0.144413
Rotational constants in MHz :  4906.945035  4629.020676  4329.393152

                             ****ORCA TERMINATED NORMALLY****
TOTAL RUN TIME: 0 days 0 hours 0 minutes 7 seconds 709 msec
