                         Program Version 5.0.0 -  RELEASE  -
|  1> !LC-PBE RIJCOSX def2-SVPD def2/J TightSCF xyzfile
|  2>
|  3> *xyzfile 0 1 D2.xyz
|  4>
|  5> %MaxCore 64000
|  6>
|  7> %pal nprocs 4
|  8> end
|  9>
| 10> %scf
| 11>   MaxIter 150
| 12> end
| 13>
| 14>
| 15>                          ****END OF INPUT****

CARTESIAN COORDINATES (ANGSTROEM)
---------------------------------
  C      5.558206   -1.992914   -6.215054
  C      4.930199   -7.375319   -2.649623
  C      3.841892   -6.951611   -3.632829
  H      3.458144   -5.954425   -3.407121
  H      2.988484   -7.643606   -3.567078
  S      4.318115   -6.915930   -5.368692
  C      4.181880   -2.589671   -6.298911
  N      3.145873   -1.768431   -6.486753
  C      4.019102   -3.864307   -6.227427
  H      4.768490   -4.591153   -5.990773
  H      3.122405   -4.333392   -6.314620
  H      3.281635   -0.777786   -6.566549
  H      2.212549   -2.134193   -6.562246
  F      5.406154   -5.899480   -5.512972
  O      3.111910   -6.445079   -6.043792
  C      6.419260   -2.542944   -5.077630
  C      5.872267   -5.002756   -2.427819
  C      6.173994   -6.485522   -2.606315
  H      6.734852   -6.613767   -3.534015
  H      6.821463   -6.831018   -1.793617
  H      4.469612   -7.406168   -1.655876
  H      5.230134   -8.398678   -2.885906
  C      5.896512   -2.169314   -3.694552
  H      7.428880   -2.143665   -5.208078
  H      6.505894   -3.627541   -5.175502
  C      6.807804   -2.623428   -2.551019
  H      4.894708   -2.589732   -3.557501
  H      5.778823   -1.081255   -3.635790
  C      7.111544   -4.122463   -2.520363
  H      7.751615   -2.071393   -2.614406
  H      6.345837   -2.326401   -1.604086
  H      5.362882   -4.828697   -1.471335
  H      5.174429   -4.702577   -3.211298
  H      7.778329   -4.329347   -1.677651
  H      7.673189   -4.402845   -3.417586
  O      4.763396   -8.239424   -5.698629
  H      6.036826   -2.198189   -7.176852
  H      5.467610   -0.907371   -6.127968

 Total Charge           Charge          ....    0
 Multiplicity           Mult            ....    1
 Number of Electrons    NEL             ....  136
 Basis Dimension        Dim             ....  512

ORBITAL ENERGIES
----------------

  NO   OCC          E(Eh)            E(eV)
   0   2.0000     -88.574397     -2410.2319
   1   2.0000     -24.610292      -669.6801
   2   2.0000     -19.012487      -517.3561
   3   2.0000     -19.000214      -517.0221
   4   2.0000     -14.218882      -386.9155
   5   2.0000     -10.192991      -277.3654
   6   2.0000     -10.157099      -276.3887
   7   2.0000     -10.142601      -275.9942
   8   2.0000     -10.140674      -275.9418
   9   2.0000     -10.132383      -275.7162
  10   2.0000     -10.127323      -275.5785
  11   2.0000     -10.124078      -275.4902
  12   2.0000     -10.123637      -275.4782
  13   2.0000     -10.123289      -275.4687
  14   2.0000     -10.119377      -275.3623
  15   2.0000     -10.040571      -273.2178
  16   2.0000      -8.195034      -222.9982
  17   2.0000      -6.222276      -169.3167
  18   2.0000      -6.215026      -169.1194
  19   2.0000      -6.213815      -169.0865
  20   2.0000      -1.507557       -41.0227
  21   2.0000      -1.288683       -35.0669
  22   2.0000      -1.183716       -32.2106
  23   2.0000      -1.084412       -29.5084
  24   2.0000      -1.022055       -27.8115
  25   2.0000      -0.993243       -27.0275
  26   2.0000      -0.960290       -26.1308
  27   2.0000      -0.929221       -25.2854
  28   2.0000      -0.887717       -24.1560
  29   2.0000      -0.877217       -23.8703
  30   2.0000      -0.848981       -23.1020
  31   2.0000      -0.823247       -22.4017
  32   2.0000      -0.783678       -21.3250
  33   2.0000      -0.766423       -20.8554
  34   2.0000      -0.750782       -20.4298
  35   2.0000      -0.723777       -19.6950
  36   2.0000      -0.717627       -19.5276
  37   2.0000      -0.699421       -19.0322
  38   2.0000      -0.689665       -18.7667
  39   2.0000      -0.662840       -18.0368
  40   2.0000      -0.647298       -17.6139
  41   2.0000      -0.642252       -17.4766
  42   2.0000      -0.634922       -17.2771
  43   2.0000      -0.619965       -16.8701
  44   2.0000      -0.604984       -16.4625
  45   2.0000      -0.602289       -16.3891
  46   2.0000      -0.595864       -16.2143
  47   2.0000      -0.579332       -15.7644
  48   2.0000      -0.560616       -15.2551
  49   2.0000      -0.554700       -15.0942
  50   2.0000      -0.550910       -14.9910
  51   2.0000      -0.539496       -14.6804
  52   2.0000      -0.518163       -14.0999
  53   2.0000      -0.510692       -13.8966
  54   2.0000      -0.502237       -13.6666
  55   2.0000      -0.495643       -13.4871
  56   2.0000      -0.485142       -13.2014
  57   2.0000      -0.483162       -13.1475
  58   2.0000      -0.479410       -13.0454
  59   2.0000      -0.468855       -12.7582
  60   2.0000      -0.462748       -12.5920
  61   2.0000      -0.460602       -12.5336
  62   2.0000      -0.452918       -12.3245
  63   2.0000      -0.444430       -12.0935
  64   2.0000      -0.440010       -11.9733
  65   2.0000      -0.436315       -11.8727
  66   2.0000      -0.433397       -11.7933
  67   2.0000      -0.304290        -8.2801
  68   0.0000       0.072770         1.9802
  69   0.0000       0.083185         2.2636
  70   0.0000       0.092001         2.5035
  71   0.0000       0.094190         2.5630
  72   0.0000       0.108040         2.9399

MULLIKEN ATOMIC CHARGES
-----------------------
   0 C :    0.603283
   1 C :    0.323505
   2 C :   -0.206998
   3 H :    0.326685
   4 H :   -0.092668
   5 S :    1.393278
   6 C :    0.166357
   7 N :    0.068363
   8 C :    1.147556
   9 H :   -0.354673
  10 H :   -0.973354
  11 H :   -0.089831
  12 H :   -0.140485
  13 F :   -0.564721
  14 O :   -0.653376
  15 C :    0.136578
  16 C :   -0.105898
  17 C :    0.043163
  18 H :    0.092418
  19 H :   -0.192049
  20 H :    0.153647
  21 H :    0.081394
  22 C :   -0.242035
  23 H :   -0.045883
  24 H :   -0.492845
  25 C :    0.442390
  26 H :    0.217106
  27 H :   -0.207876
  28 C :   -0.036681
  29 H :    0.108597
  30 H :    0.037019
  31 H :    0.080150
  32 H :   -0.326923
  33 H :   -0.197509
  34 H :    0.143113
  35 O :   -0.710828
  36 H :   -0.025055
  37 H :    0.095088
Sum of atomic charges:    0.0000000

LOEWDIN ATOMIC CHARGES
----------------------
   0 C :   -0.007040
   1 C :   -0.051862
   2 C :   -0.057457
   3 H :    0.031709
   4 H :    0.056269
   5 S :    1.115921
   6 C :   -0.240830
   7 N :    0.161129
   8 C :    0.156116
   9 H :   -0.118480
  10 H :   -0.085799
  11 H :   -0.006467
  12 H :    0.010903
  13 F :   -0.275967
  14 O :   -0.449422
  15 C :   -0.045194
  16 C :   -0.056508
  17 C :   -0.052575
  18 H :    0.027098
  19 H :    0.044280
  20 H :    0.047803
  21 H :    0.042196
  22 C :   -0.054250
  23 H :    0.040973
  24 H :    0.004017
  25 C :   -0.055080
  26 H :    0.025690
  27 H :    0.035784
  28 C :   -0.056254
  29 H :    0.034370
  30 H :    0.033966
  31 H :    0.052110
  32 H :   -0.005577
  33 H :    0.036969
  34 H :    0.029097
  35 O :   -0.439383
  36 H :    0.045118
  37 H :    0.026628

  Mayer bond orders larger than 0.100000
B(  0-C ,  6-C ) :   0.9810 B(  0-C ,  8-C ) :   0.1448 B(  0-C ,  9-H ) :  -0.1356
B(  0-C , 15-C ) :   1.2436 B(  0-C , 36-H ) :   0.6598 B(  0-C , 37-H ) :   0.7392
B(  1-C ,  2-C ) :   1.2518 B(  1-C ,  4-H ) :   0.1413 B(  1-C , 17-C ) :   1.2249
B(  1-C , 20-H ) :   0.7529 B(  1-C , 21-H ) :   0.7322 B(  2-C ,  3-H ) :   0.8156
B(  2-C ,  4-H ) :   0.8898 B(  2-C ,  5-S ) :   1.0446 B(  2-C , 20-H ) :   0.1389
B(  2-C , 21-H ) :   0.1059 B(  4-H ,  5-S ) :   0.1103 B(  5-S , 13-F ) :   0.6307
B(  5-S , 14-O ) :   1.5479 B(  5-S , 35-O ) :   1.5701 B(  6-C ,  7-N ) :   0.8521
B(  6-C ,  8-C ) :   2.0402 B(  6-C ,  9-H ) :  -0.1127 B(  6-C , 10-H ) :   0.1072
B(  6-C , 12-H ) :  -0.1557 B(  6-C , 36-H ) :   0.2224 B(  7-N ,  8-C ) :   0.4517
B(  7-N ,  9-H ) :   0.1016 B(  7-N , 10-H ) :  -0.1077 B(  7-N , 11-H ) :   1.1324
B(  7-N , 12-H ) :   1.2978 B(  8-C ,  9-H ) :   0.3040 B(  8-C , 14-O ) :  -0.2705
B(  8-C , 24-H ) :   0.1213 B(  9-H , 10-H ) :  -0.1942 B(  9-H , 24-H ) :   0.1637
B( 10-H , 14-O ) :   0.3160 B( 10-H , 24-H ) :  -0.1262 B( 11-H , 12-H ) :  -0.1559
B( 13-F , 14-O ) :   0.1089 B( 13-F , 24-H ) :   0.1223 B( 15-C , 22-C ) :   1.2385
B( 15-C , 23-H ) :   0.8324 B( 15-C , 24-H ) :   0.7971 B( 15-C , 26-H ) :   0.1067
B( 15-C , 27-H ) :   0.1629 B( 15-C , 36-H ) :   0.2532 B( 15-C , 37-H ) :   0.1404
B( 16-C , 17-C ) :   1.2170 B( 16-C , 19-H ) :   0.1670 B( 16-C , 28-C ) :   1.2478
B( 16-C , 31-H ) :   0.8017 B( 16-C , 32-H ) :   1.0258 B( 16-C , 33-H ) :   0.1896
B( 16-C , 34-H ) :   0.1061 B( 17-C , 18-H ) :   0.8999 B( 17-C , 19-H ) :   0.9460
B( 17-C , 21-H ) :   0.2129 B( 17-C , 28-C ) :   0.1102 B( 22-C , 23-H ) :   0.1375
B( 22-C , 24-H ) :   0.1614 B( 22-C , 25-C ) :   1.1144 B( 22-C , 26-H ) :   0.8381
B( 22-C , 27-H ) :   1.1044 B( 22-C , 29-H ) :   0.1343 B( 22-C , 30-H ) :   0.2018
B( 25-C , 28-C ) :   1.1422 B( 25-C , 29-H ) :   0.7167 B( 25-C , 30-H ) :   0.7636
B( 26-H , 32-H ) :   0.1472 B( 28-C , 29-H ) :   0.1825 B( 28-C , 30-H ) :   0.1027
B( 28-C , 33-H ) :   1.0228 B( 28-C , 34-H ) :   0.8501 B( 31-H , 32-H ) :   0.1240

FINAL SINGLE POINT ENERGY     -1132.286914790596

DIPOLE MOMENT
-------------
                                X             Y             Z
Electronic contribution:     -7.70647     -16.93506     -13.50407
Nuclear contribution   :      7.91684      17.85507      15.13212
                        -----------------------------------------
Total Dipole Moment    :      0.21037       0.92001       1.62804
                        -----------------------------------------
Magnitude (a.u.)       :      1.88180
Magnitude (Debye)      :      4.78317

Rotational constants in cm-1:     0.018015     0.012410     0.008313
Rotational constants in MHz :   540.084467   372.038374   249.228144

                             ****ORCA TERMINATED NORMALLY****
TOTAL RUN TIME: 0 days 0 hours 5 minutes 11 seconds 728 msec
