                         Program Version 5.0.0 -  RELEASE  -
|  1> !LC-PBE RIJCOSX def2-SVPD def2/J TightSCF xyzfile
|  2>
|  3> *xyzfile 0 1 D6.xyz
|  4>
|  5> %MaxCore 64000
|  6>
|  7> %pal nprocs 4
|  8> end
|  9>
| 10> %scf
| 11>   MaxIter 150
| 12> end
| 13>
| 14>
| 15>                          ****END OF INPUT****

CARTESIAN COORDINATES (ANGSTROEM)
---------------------------------
  C      5.558206   -1.992914   -6.215054
  C      4.930199   -7.375319   -2.649623
  C      3.841892   -6.951611   -3.632829
  H      3.458144   -5.954425   -3.407121
  H      2.988484   -7.643606   -3.567078
  S      4.318115   -6.915930   -5.368692
  C      4.181880   -2.589671   -6.298911
  N      3.145873   -1.768431   -6.486753
  C      4.019102   -3.864307   -6.227427
  H      4.768490   -4.591153   -5.990773
  H      3.122405   -4.333392   -6.314620
  H      3.281635   -0.777786   -6.566549
  H      2.212549   -2.134193   -6.562246
  O      5.406154   -5.899480   -5.512972
  O      3.111910   -6.445079   -6.043792
  C      6.419260   -2.542944   -5.077630
  C      5.872267   -5.002756   -2.427819
  C      6.173994   -6.485522   -2.606315
  H      6.734852   -6.613767   -3.534015
  H      6.821463   -6.831018   -1.793617
  H      4.469612   -7.406168   -1.655876
  H      5.230134   -8.398678   -2.885906
  C      5.896512   -2.169314   -3.694552
  H      7.428880   -2.143665   -5.208078
  H      6.505894   -3.627541   -5.175502
  C      6.807804   -2.623428   -2.551019
  H      4.894708   -2.589732   -3.557501
  H      5.778823   -1.081255   -3.635790
  C      7.111544   -4.122463   -2.520363
  H      7.751615   -2.071393   -2.614406
  H      6.345837   -2.326401   -1.604086
  H      5.362882   -4.828697   -1.471335
  H      5.174429   -4.702577   -3.211298
  H      7.778329   -4.329347   -1.677651
  H      7.673189   -4.402845   -3.417586
  F      4.763396   -8.239424   -5.698629
  H      6.036826   -2.198189   -7.176852
  H      5.467610   -0.907371   -6.127968

 Total Charge           Charge          ....    0
 Multiplicity           Mult            ....    1
 Number of Electrons    NEL             ....  136
 Basis Dimension        Dim             ....  512

ORBITAL ENERGIES
----------------

  NO   OCC          E(Eh)            E(eV)
   0   2.0000     -88.584719     -2410.5127
   1   2.0000     -24.640675      -670.5068
   2   2.0000     -19.008232      -517.2403
   3   2.0000     -19.003476      -517.1109
   4   2.0000     -14.201610      -386.4455
   5   2.0000     -10.198860      -277.5251
   6   2.0000     -10.161213      -276.5007
   7   2.0000     -10.131795      -275.7001
   8   2.0000     -10.120431      -275.3909
   9   2.0000     -10.120322      -275.3880
  10   2.0000     -10.115538      -275.2578
  11   2.0000     -10.112551      -275.1765
  12   2.0000     -10.106312      -275.0067
  13   2.0000     -10.105313      -274.9795
  14   2.0000     -10.104497      -274.9574
  15   2.0000     -10.013206      -272.4732
  16   2.0000      -8.205312      -223.2779
  17   2.0000      -6.232619      -169.5982
  18   2.0000      -6.225282      -169.3985
  19   2.0000      -6.223865      -169.3600
  20   2.0000      -1.552935       -42.2575
  21   2.0000      -1.282366       -34.8950
  22   2.0000      -1.170003       -31.8374
  23   2.0000      -1.066399       -29.0182
  24   2.0000      -1.021864       -27.8063
  25   2.0000      -0.983041       -26.7499
  26   2.0000      -0.950735       -25.8708
  27   2.0000      -0.923730       -25.1360
  28   2.0000      -0.890814       -24.2403
  29   2.0000      -0.869392       -23.6574
  30   2.0000      -0.842092       -22.9145
  31   2.0000      -0.811266       -22.0757
  32   2.0000      -0.779630       -21.2148
  33   2.0000      -0.764049       -20.7908
  34   2.0000      -0.759423       -20.6650
  35   2.0000      -0.739605       -20.1257
  36   2.0000      -0.710545       -19.3349
  37   2.0000      -0.700635       -19.0652
  38   2.0000      -0.679281       -18.4842
  39   2.0000      -0.653562       -17.7843
  40   2.0000      -0.648620       -17.6498
  41   2.0000      -0.639900       -17.4126
  42   2.0000      -0.621736       -16.9183
  43   2.0000      -0.616560       -16.7775
  44   2.0000      -0.606506       -16.5039
  45   2.0000      -0.595328       -16.1997
  46   2.0000      -0.590228       -16.0609
  47   2.0000      -0.564485       -15.3604
  48   2.0000      -0.558007       -15.1841
  49   2.0000      -0.552847       -15.0437
  50   2.0000      -0.551235       -14.9999
  51   2.0000      -0.529255       -14.4018
  52   2.0000      -0.509507       -13.8644
  53   2.0000      -0.503783       -13.7086
  54   2.0000      -0.490882       -13.3576
  55   2.0000      -0.484847       -13.1934
  56   2.0000      -0.479618       -13.0511
  57   2.0000      -0.473398       -12.8818
  58   2.0000      -0.464693       -12.6449
  59   2.0000      -0.460308       -12.5256
  60   2.0000      -0.453268       -12.3340
  61   2.0000      -0.446983       -12.1630
  62   2.0000      -0.444306       -12.0902
  63   2.0000      -0.431059       -11.7297
  64   2.0000      -0.423932       -11.5358
  65   2.0000      -0.420486       -11.4420
  66   2.0000      -0.394873       -10.7451
  67   2.0000      -0.283208        -7.7065
  68   0.0000       0.059990         1.6324
  69   0.0000       0.081023         2.2048
  70   0.0000       0.090292         2.4570
  71   0.0000       0.097354         2.6491
  72   0.0000       0.103806         2.8247

MULLIKEN ATOMIC CHARGES
-----------------------
   0 C :    0.608624
   1 C :    0.319869
   2 C :   -0.250118
   3 H :    0.323511
   4 H :   -0.064410
   5 S :    1.516075
   6 C :    0.141606
   7 N :    0.074117
   8 C :    1.052660
   9 H :   -0.247632
  10 H :   -1.045614
  11 H :   -0.095789
  12 H :   -0.146750
  13 O :   -0.827608
  14 O :   -0.669312
  15 C :    0.173376
  16 C :   -0.151343
  17 C :    0.108860
  18 H :    0.141023
  19 H :   -0.210292
  20 H :    0.136079
  21 H :    0.066276
  22 C :   -0.233859
  23 H :   -0.028003
  24 H :   -0.528028
  25 C :    0.444711
  26 H :    0.225904
  27 H :   -0.211518
  28 C :   -0.058191
  29 H :    0.106472
  30 H :    0.031860
  31 H :    0.087213
  32 H :   -0.285696
  33 H :   -0.198410
  34 H :    0.157097
  35 F :   -0.516712
  36 H :   -0.037090
  37 H :    0.091047
Sum of atomic charges:    0.0000000

LOEWDIN ATOMIC CHARGES
----------------------
   0 C :   -0.008777
   1 C :   -0.054031
   2 C :   -0.056565
   3 H :    0.044389
   4 H :    0.044589
   5 S :    1.162553
   6 C :   -0.246598
   7 N :    0.152570
   8 C :    0.158293
   9 H :   -0.153217
  10 H :   -0.086550
  11 H :   -0.011470
  12 H :    0.006099
  13 O :   -0.459777
  14 O :   -0.447452
  15 C :   -0.041441
  16 C :   -0.053531
  17 C :   -0.053988
  18 H :    0.021766
  19 H :    0.041558
  20 H :    0.047840
  21 H :    0.036918
  22 C :   -0.054608
  23 H :    0.038753
  24 H :    0.006020
  25 C :   -0.056753
  26 H :    0.025567
  27 H :    0.033786
  28 C :   -0.054403
  29 H :    0.033049
  30 H :    0.031976
  31 H :    0.049219
  32 H :   -0.002506
  33 H :    0.034680
  34 H :    0.031924
  35 F :   -0.226666
  36 H :    0.043317
  37 H :    0.023469

  Mayer bond orders larger than 0.100000
B(  0-C ,  6-C ) :   0.9764 B(  0-C ,  8-C ) :   0.1565 B(  0-C ,  9-H ) :  -0.1275
B(  0-C , 15-C ) :   1.2377 B(  0-C , 36-H ) :   0.6509 B(  0-C , 37-H ) :   0.7434
B(  1-C ,  2-C ) :   1.2459 B(  1-C ,  4-H ) :   0.1401 B(  1-C , 17-C ) :   1.2168
B(  1-C , 20-H ) :   0.7699 B(  1-C , 21-H ) :   0.7173 B(  2-C ,  3-H ) :   0.8021
B(  2-C ,  4-H ) :   0.9127 B(  2-C ,  5-S ) :   1.0365 B(  2-C , 20-H ) :   0.1322
B(  2-C , 35-F ) :   0.1174 B(  4-H ,  5-S ) :   0.1007 B(  5-S , 13-O ) :   1.3194
B(  5-S , 14-O ) :   1.5171 B(  5-S , 35-F ) :   0.5988 B(  6-C ,  7-N ) :   0.8429
B(  6-C ,  8-C ) :   2.1134 B(  6-C ,  9-H ) :  -0.1793 B(  6-C , 10-H ) :   0.1268
B(  6-C , 12-H ) :  -0.1508 B(  6-C , 36-H ) :   0.2398 B(  7-N ,  8-C ) :   0.4621
B(  7-N ,  9-H ) :   0.1066 B(  7-N , 10-H ) :  -0.1109 B(  7-N , 11-H ) :   1.1362
B(  7-N , 12-H ) :   1.2965 B(  8-C ,  9-H ) :   0.4547 B(  8-C , 14-O ) :  -0.2211
B(  8-C , 24-H ) :   0.1480 B(  9-H , 10-H ) :  -0.2323 B(  9-H , 24-H ) :   0.1439
B( 10-H , 14-O ) :   0.3535 B( 10-H , 24-H ) :  -0.1328 B( 11-H , 12-H ) :  -0.1545
B( 13-O , 14-O ) :   0.1394 B( 13-O , 24-H ) :   0.1615 B( 15-C , 22-C ) :   1.2403
B( 15-C , 23-H ) :   0.8088 B( 15-C , 24-H ) :   0.7472 B( 15-C , 26-H ) :   0.1099
B( 15-C , 27-H ) :   0.1778 B( 15-C , 36-H ) :   0.2566 B( 15-C , 37-H ) :   0.1522
B( 16-C , 17-C ) :   1.2207 B( 16-C , 18-H ) :   0.1030 B( 16-C , 19-H ) :   0.1517
B( 16-C , 28-C ) :   1.2645 B( 16-C , 31-H ) :   0.7964 B( 16-C , 32-H ) :   1.0162
B( 16-C , 33-H ) :   0.1900 B( 16-C , 34-H ) :   0.1129 B( 17-C , 18-H ) :   0.8640
B( 17-C , 19-H ) :   0.9439 B( 17-C , 21-H ) :   0.2183 B( 17-C , 28-C ) :   0.1209
B( 22-C , 23-H ) :   0.1384 B( 22-C , 24-H ) :   0.1644 B( 22-C , 25-C ) :   1.1090
B( 22-C , 26-H ) :   0.8305 B( 22-C , 27-H ) :   1.1070 B( 22-C , 29-H ) :   0.1364
B( 22-C , 30-H ) :   0.2013 B( 25-C , 28-C ) :   1.1408 B( 25-C , 29-H ) :   0.7155
B( 25-C , 30-H ) :   0.7613 B( 26-H , 32-H ) :   0.1487 B( 28-C , 29-H ) :   0.1810
B( 28-C , 30-H ) :   0.1047 B( 28-C , 33-H ) :   1.0232 B( 28-C , 34-H ) :   0.8401
B( 31-H , 32-H ) :   0.1401

FINAL SINGLE POINT ENERGY     -1132.264867610953

DIPOLE MOMENT
-------------
                                X             Y             Z
Electronic contribution:     -8.83064     -21.56785     -13.93513
Nuclear contribution   :      8.67311      20.60825      15.35056
                        -----------------------------------------
Total Dipole Moment    :     -0.15753      -0.95961       1.41543
                        -----------------------------------------
Magnitude (a.u.)       :      1.71730
Magnitude (Debye)      :      4.36503

Rotational constants in cm-1:     0.017976     0.012151     0.008188
Rotational constants in MHz :   538.898457   364.286417   245.482451

                             ****ORCA TERMINATED NORMALLY****
TOTAL RUN TIME: 0 days 0 hours 5 minutes 11 seconds 701 msec
