                         Program Version 5.0.0 -  RELEASE  -
|  1> !CAM-B3LYP RIJCOSX def2-SVP def2/J TightSCF
|  2> *xyz -1 1
|  3> C          0.70466        1.44313       -4.50363
|  4> C          1.72854        1.42432       -5.63944
|  5> H          2.64672        1.95379       -5.38105
|  6> H          1.29992        1.93061       -6.50361
|  7> S          2.25263       -0.18811       -6.27184
|  8> O          3.56261       -0.44446       -5.63155
|  9> O          2.34494       -0.03374       -7.69650
| 10> O          1.26606       -1.15918       -5.80536
| 11> H         -0.17385        0.91270       -4.80656
| 12> H          0.44778        2.45562       -4.27173
| 13> H          1.12367        0.97423       -3.63791
| 14> *
| 15>
| 16> %MaxCore 64000
| 17>
| 18> %pal nprocs 4
| 19> end
| 20>
| 21> %scf
| 22>   MaxIter 150
| 23> end
| 24>
| 25>
| 26>                          ****END OF INPUT****

CARTESIAN COORDINATES (ANGSTROEM)
---------------------------------
  C      0.704660    1.443130   -4.503630
  C      1.728540    1.424320   -5.639440
  H      2.646720    1.953790   -5.381050
  H      1.299920    1.930610   -6.503610
  S      2.252630   -0.188110   -6.271840
  O      3.562610   -0.444460   -5.631550
  O      2.344940   -0.033740   -7.696500
  O      1.266060   -1.159180   -5.805360
  H     -0.173850    0.912700   -4.806560
  H      0.447780    2.455620   -4.271730
  H      1.123670    0.974230   -3.637910

 Total Charge           Charge          ....   -1
 Multiplicity           Mult            ....    1
 Number of Electrons    NEL             ....   58
 Basis Dimension        Dim             ....  113

ORBITAL ENERGIES
----------------

  NO   OCC          E(Eh)            E(eV)
   0   2.0000     -88.919408     -2419.6201
   1   2.0000     -18.956705      -515.8382
   2   2.0000     -18.950298      -515.6638
   3   2.0000     -18.937975      -515.3285
   4   2.0000     -10.112493      -275.1749
   5   2.0000     -10.103902      -274.9411
   6   2.0000      -7.979580      -217.1354
   7   2.0000      -5.949000      -161.8805
   8   2.0000      -5.948818      -161.8756
   9   2.0000      -5.948611      -161.8699
  10   2.0000      -0.982959       -26.7477
  11   2.0000      -0.838273       -22.8106
  12   2.0000      -0.812898       -22.1201
  13   2.0000      -0.699779       -19.0419
  14   2.0000      -0.571616       -15.5545
  15   2.0000      -0.433753       -11.8030
  16   2.0000      -0.380155       -10.3445
  17   2.0000      -0.365943        -9.9578
  18   2.0000      -0.329995        -8.9796
  19   2.0000      -0.307804        -8.3758
  20   2.0000      -0.302662        -8.2359
  21   2.0000      -0.280167        -7.6237
  22   2.0000      -0.273017        -7.4292
  23   2.0000      -0.184936        -5.0324
  24   2.0000      -0.184169        -5.0115
  25   2.0000      -0.150218        -4.0876
  26   2.0000      -0.144112        -3.9215
  27   2.0000      -0.131573        -3.5803
  28   2.0000      -0.095814        -2.6072
  29   0.0000       0.240514         6.5447
  30   0.0000       0.297524         8.0960
  31   0.0000       0.302701         8.2369
  32   0.0000       0.309468         8.4211
  33   0.0000       0.330714         8.9992

MULLIKEN ATOMIC CHARGES
-----------------------
   0 C :    0.050906
   1 C :   -0.094643
   2 H :   -0.001518
   3 H :   -0.010568
   4 S :    0.876393
   5 O :   -0.622988
   6 O :   -0.571136
   7 O :   -0.590161
   8 H :    0.003282
   9 H :   -0.040437
  10 H :    0.000870
Sum of atomic charges:   -1.0000000

LOEWDIN ATOMIC CHARGES
----------------------
   0 C :   -0.068540
   1 C :   -0.189178
   2 H :    0.008980
   3 H :    0.004673
   4 S :    1.113003
   5 O :   -0.661634
   6 O :   -0.609092
   7 O :   -0.631941
   8 H :    0.016375
   9 H :    0.000956
  10 H :    0.016397

  Mayer bond orders larger than 0.100000
B(  0-C ,  1-C ) :   1.0781 B(  0-C ,  8-H ) :   0.9657 B(  0-C ,  9-H ) :   0.9590
B(  0-C , 10-H ) :   0.9695 B(  1-C ,  2-H ) :   0.9455 B(  1-C ,  3-H ) :   0.9449
B(  1-C ,  4-S ) :   0.8866 B(  4-S ,  5-O ) :   1.5998 B(  4-S ,  6-O ) :   1.6522
B(  4-S ,  7-O ) :   1.6328

FINAL SINGLE POINT ENERGY      -702.602266218956

DIPOLE MOMENT
-------------
                                X             Y             Z
Electronic contribution:      3.68589      -5.70723      -4.34688
Nuclear contribution   :     -4.50297       7.24642       5.01775
                        -----------------------------------------
Total Dipole Moment    :     -0.81709       1.53919       0.67087
                        -----------------------------------------
Magnitude (a.u.)       :      1.86730
Magnitude (Debye)      :      4.74630

Rotational constants in cm-1:     0.162459     0.081286     0.079601
Rotational constants in MHz :  4870.394399  2436.893583  2386.374948

                             ****ORCA TERMINATED NORMALLY****
TOTAL RUN TIME: 0 days 0 hours 0 minutes 20 seconds 15 msec
