                         Program Version 5.0.0 -  RELEASE  -
|  1> !CAM-B3LYP RIJCOSX def2-SVP def2/J TightSCF
|  2> *xyz 1 1
|  3> C          2.91632       -1.24259       -1.54313
|  4> C          3.46659       -1.59097       -2.88908
|  5> N          4.65227       -1.14316       -3.25969
|  6> N          2.75226       -2.29204       -3.72803
|  7> H          1.77836       -2.48960       -3.51274
|  8> H          2.94861       -2.20854       -4.71681
|  9> H          5.14672       -0.51251       -2.63385
| 10> H          4.78303       -1.00720       -4.25350
| 11> C          2.80408        0.29070       -1.35924
| 12> H          1.94047       -1.71653       -1.44116
| 13> H          3.55857       -1.66343       -0.76637
| 14> H          2.17393        0.69633       -2.12297
| 15> H          3.77707        0.73043       -1.42880
| 16> H          2.38369        0.50492       -0.39889
| 17> *
| 18>
| 19> %MaxCore 64000
| 20>
| 21> %pal nprocs 4
| 22> end
| 23>
| 24> %scf
| 25>   MaxIter 150
| 26> end
| 27>
| 28>
| 29>                          ****END OF INPUT****

CARTESIAN COORDINATES (ANGSTROEM)
---------------------------------
  C      2.916320   -1.242590   -1.543130
  C      3.466590   -1.590970   -2.889080
  N      4.652270   -1.143160   -3.259690
  N      2.752260   -2.292040   -3.728030
  H      1.778360   -2.489600   -3.512740
  H      2.948610   -2.208540   -4.716810
  H      5.146720   -0.512510   -2.633850
  H      4.783030   -1.007200   -4.253500
  C      2.804080    0.290700   -1.359240
  H      1.940470   -1.716530   -1.441160
  H      3.558570   -1.663430   -0.766370
  H      2.173930    0.696330   -2.122970
  H      3.777070    0.730430   -1.428800
  H      2.383690    0.504920   -0.398890

 Total Charge           Charge          ....    1
 Multiplicity           Mult            ....    1
 Number of Electrons    NEL             ....   40
 Basis Dimension        Dim             ....  115

ORBITAL ENERGIES
----------------

  NO   OCC          E(Eh)            E(eV)
   0   2.0000     -14.653838      -398.7512
   1   2.0000     -14.648446      -398.6045
   2   2.0000     -10.585393      -288.0432
   3   2.0000     -10.459704      -284.6230
   4   2.0000     -10.421954      -283.5958
   5   2.0000      -1.287271       -35.0284
   6   2.0000      -1.184512       -32.2322
   7   2.0000      -1.047843       -28.5133
   8   2.0000      -0.936807       -25.4918
   9   2.0000      -0.890701       -24.2372
  10   2.0000      -0.842421       -22.9235
  11   2.0000      -0.823653       -22.4127
  12   2.0000      -0.768893       -20.9226
  13   2.0000      -0.736690       -20.0464
  14   2.0000      -0.695092       -18.9144
  15   2.0000      -0.669672       -18.2227
  16   2.0000      -0.618943       -16.8423
  17   2.0000      -0.609085       -16.5740
  18   2.0000      -0.595988       -16.2176
  19   2.0000      -0.561626       -15.2826
  20   0.0000      -0.166293        -4.5251
  21   0.0000      -0.103451        -2.8150
  22   0.0000      -0.059659        -1.6234
  23   0.0000      -0.057898        -1.5755
  24   0.0000      -0.021169        -0.5760

MULLIKEN ATOMIC CHARGES
-----------------------
   0 C :    0.025914
   1 C :   -0.104729
   2 N :    0.023956
   3 N :    0.039680
   4 H :    0.184983
   5 H :    0.169479
   6 H :    0.180008
   7 H :    0.173343
   8 C :    0.005763
   9 H :    0.046648
  10 H :    0.095800
  11 H :    0.046606
  12 H :    0.033633
  13 H :    0.078917
Sum of atomic charges:    1.0000000

LOEWDIN ATOMIC CHARGES
----------------------
   0 C :   -0.031832
   1 C :    0.156348
   2 N :    0.088720
   3 N :    0.103031
   4 H :    0.123014
   5 H :    0.112553
   6 H :    0.118488
   7 H :    0.111982
   8 C :   -0.021735
   9 H :    0.050767
  10 H :    0.069313
  11 H :    0.036838
  12 H :    0.027617
  13 H :    0.054896

  Mayer bond orders larger than 0.100000
B(  0-C ,  1-C ) :   1.0302 B(  0-C ,  8-C ) :   1.0675 B(  0-C ,  9-H ) :   0.9232
B(  0-C , 10-H ) :   0.9181 B(  1-C ,  2-N ) :   1.4942 B(  1-C ,  3-N ) :   1.5301
B(  2-N ,  6-H ) :   0.9265 B(  2-N ,  7-H ) :   0.9308 B(  3-N ,  4-H ) :   0.9202
B(  3-N ,  5-H ) :   0.9316 B(  8-C , 11-H ) :   0.9723 B(  8-C , 12-H ) :   0.9732
B(  8-C , 13-H ) :   0.9618

FINAL SINGLE POINT ENERGY      -228.731752526099

DIPOLE MOMENT
-------------
                                X             Y             Z
Electronic contribution:      1.32048      -2.85525      -2.83094
Nuclear contribution   :     -1.30215       2.77761       1.84194
                        -----------------------------------------
Total Dipole Moment    :      0.01833      -0.07764      -0.98901
                        -----------------------------------------
Magnitude (a.u.)       :      0.99222
Magnitude (Debye)      :      2.52202

Rotational constants in cm-1:     0.267442     0.127541     0.099068
Rotational constants in MHz :  8017.703171  3823.592522  2969.992494

                             ****ORCA TERMINATED NORMALLY****
TOTAL RUN TIME: 0 days 0 hours 0 minutes 20 seconds 230 msec
