                         Program Version 5.0.0 -  RELEASE  -
|  1> !CAM-B3LYP RIJCOSX def2-SVP def2/J TightSCF
|  2> *xyz 0 1
|  3> C          0.70466        1.44313       -4.50363
|  4> C          1.72854        1.42432       -5.63944
|  5> H          2.64672        1.95379       -5.38105
|  6> H          1.29992        1.93061       -6.50361
|  7> S          2.25263       -0.18811       -6.27184
|  8> F          3.56261       -0.44446       -5.63155
|  9> O          2.34494       -0.03374       -7.69650
| 10> O          1.26606       -1.15918       -5.80536
| 11> H         -0.17385        0.91270       -4.80656
| 12> H          0.44778        2.45562       -4.27173
| 13> H          1.12367        0.97423       -3.63791
| 14> *
| 15>
| 16> %MaxCore 64000
| 17>
| 18> %pal nprocs 4
| 19> end
| 20>
| 21> %scf
| 22>   MaxIter 150
| 23> end
| 24>
| 25>
| 26>                          ****END OF INPUT****

CARTESIAN COORDINATES (ANGSTROEM)
---------------------------------
  C      0.704660    1.443130   -4.503630
  C      1.728540    1.424320   -5.639440
  H      2.646720    1.953790   -5.381050
  H      1.299920    1.930610   -6.503610
  S      2.252630   -0.188110   -6.271840
  F      3.562610   -0.444460   -5.631550
  O      2.344940   -0.033740   -7.696500
  O      1.266060   -1.159180   -5.805360
  H     -0.173850    0.912700   -4.806560
  H      0.447780    2.455620   -4.271730
  H      1.123670    0.974230   -3.637910

 Total Charge           Charge          ....    0
 Multiplicity           Mult            ....    1
 Number of Electrons    NEL             ....   58
 Basis Dimension        Dim             ....  113

ORBITAL ENERGIES
----------------

  NO   OCC          E(Eh)            E(eV)
   0   2.0000     -89.193846     -2427.0879
   1   2.0000     -24.855519      -676.3531
   2   2.0000     -19.210590      -522.7467
   3   2.0000     -19.203501      -522.5538
   4   2.0000     -10.316333      -280.7217
   5   2.0000     -10.279107      -279.7087
   6   2.0000      -8.256173      -224.6619
   7   2.0000      -6.229498      -169.5133
   8   2.0000      -6.223173      -169.3411
   9   2.0000      -6.222174      -169.3139
  10   2.0000      -1.417969       -38.5849
  11   2.0000      -1.186957       -32.2988
  12   2.0000      -1.086248       -29.5583
  13   2.0000      -0.897793       -24.4302
  14   2.0000      -0.795045       -21.6343
  15   2.0000      -0.741189       -20.1688
  16   2.0000      -0.647464       -17.6184
  17   2.0000      -0.630907       -17.1678
  18   2.0000      -0.613767       -16.7014
  19   2.0000      -0.560395       -15.2491
  20   2.0000      -0.546238       -14.8639
  21   2.0000      -0.515938       -14.0394
  22   2.0000      -0.494482       -13.4555
  23   2.0000      -0.468940       -12.7605
  24   2.0000      -0.462328       -12.5806
  25   2.0000      -0.443988       -12.0815
  26   2.0000      -0.391754       -10.6602
  27   2.0000      -0.385798       -10.4981
  28   2.0000      -0.371233       -10.1018
  29   0.0000       0.079982         2.1764
  30   0.0000       0.093083         2.5329
  31   0.0000       0.123546         3.3619
  32   0.0000       0.136514         3.7147
  33   0.0000       0.146533         3.9874

MULLIKEN ATOMIC CHARGES
-----------------------
   0 C :    0.038335
   1 C :   -0.147273
   2 H :    0.058730
   3 H :    0.081797
   4 S :    0.963283
   5 F :   -0.211560
   6 O :   -0.434994
   7 O :   -0.458114
   8 H :    0.048743
   9 H :    0.030653
  10 H :    0.030401
Sum of atomic charges:   -0.0000000

LOEWDIN ATOMIC CHARGES
----------------------
   0 C :   -0.050454
   1 C :   -0.154457
   2 H :    0.032782
   3 H :    0.047596
   4 S :    1.176171
   5 F :   -0.160655
   6 O :   -0.482930
   7 O :   -0.507890
   8 H :    0.035571
   9 H :    0.034896
  10 H :    0.029370

  Mayer bond orders larger than 0.100000
B(  0-C ,  1-C ) :   1.0721 B(  0-C ,  8-H ) :   0.9689 B(  0-C ,  9-H ) :   0.9605
B(  0-C , 10-H ) :   0.9734 B(  1-C ,  2-H ) :   0.9376 B(  1-C ,  3-H ) :   0.9417
B(  1-C ,  4-S ) :   0.9103 B(  4-S ,  5-F ) :   0.9851 B(  4-S ,  6-O ) :   1.8045
B(  4-S ,  7-O ) :   1.7850

FINAL SINGLE POINT ENERGY      -727.125893002545

DIPOLE MOMENT
-------------
                                X             Y             Z
Electronic contribution:      6.33285      -6.50453      -3.72307
Nuclear contribution   :     -6.09914       7.80989       4.64238
                        -----------------------------------------
Total Dipole Moment    :      0.23371       1.30536       0.91931
                        -----------------------------------------
Magnitude (a.u.)       :      1.61360
Magnitude (Debye)      :      4.10145

Rotational constants in cm-1:     0.154372     0.078826     0.078033
Rotational constants in MHz :  4627.943144  2363.154585  2339.382767

                             ****ORCA TERMINATED NORMALLY****
TOTAL RUN TIME: 0 days 0 hours 0 minutes 19 seconds 693 msec
