                         Program Version 5.0.0 -  RELEASE  -
|  1> !CAM-B3LYP RIJCOSX def2-SVP def2/J TightSCF
|  2> *xyz 0 1
|  3> C          2.91632       -1.24259       -1.54313
|  4> C          3.46659       -1.59097       -2.88908
|  5> C          4.65227       -1.14316       -3.25969
|  6> N          2.75226       -2.29204       -3.72803
|  7> H          1.77836       -2.48960       -3.51274
|  8> H          2.94861       -2.20854       -4.71681
|  9> H          5.14672       -0.51251       -2.63385
| 10> H          4.78303       -1.00720       -4.25350
| 11> C          2.80408        0.29070       -1.35924
| 12> H          1.94047       -1.71653       -1.44116
| 13> H          3.55857       -1.66343       -0.76637
| 14> H          2.17393        0.69633       -2.12297
| 15> H          3.77707        0.73043       -1.42880
| 16> H          2.38369        0.50492       -0.39889
| 17> *
| 18>
| 19> %MaxCore 64000
| 20>
| 21> %pal nprocs 4
| 22> end
| 23>
| 24> %scf
| 25>   MaxIter 150
| 26> end
| 27>
| 28>
| 29>                          ****END OF INPUT****

CARTESIAN COORDINATES (ANGSTROEM)
---------------------------------
  C      2.916320   -1.242590   -1.543130
  C      3.466590   -1.590970   -2.889080
  C      4.652270   -1.143160   -3.259690
  N      2.752260   -2.292040   -3.728030
  H      1.778360   -2.489600   -3.512740
  H      2.948610   -2.208540   -4.716810
  H      5.146720   -0.512510   -2.633850
  H      4.783030   -1.007200   -4.253500
  C      2.804080    0.290700   -1.359240
  H      1.940470   -1.716530   -1.441160
  H      3.558570   -1.663430   -0.766370
  H      2.173930    0.696330   -2.122970
  H      3.777070    0.730430   -1.428800
  H      2.383690    0.504920   -0.398890

 Total Charge           Charge          ....    0
 Multiplicity           Mult            ....    1
 Number of Electrons    NEL             ....   40
 Basis Dimension        Dim             ....  115

ORBITAL ENERGIES
----------------

  NO   OCC          E(Eh)            E(eV)
   0   2.0000     -14.399648      -391.8343
   1   2.0000     -10.273769      -279.5635
   2   2.0000     -10.258015      -279.1348
   3   2.0000     -10.244888      -278.7776
   4   2.0000     -10.181415      -277.0504
   5   2.0000      -1.004635       -27.3375
   6   2.0000      -0.853443       -23.2234
   7   2.0000      -0.780407       -21.2360
   8   2.0000      -0.713578       -19.4174
   9   2.0000      -0.630591       -17.1592
  10   2.0000      -0.587159       -15.9774
  11   2.0000      -0.544907       -14.8277
  12   2.0000      -0.516151       -14.0452
  13   2.0000      -0.474512       -12.9121
  14   2.0000      -0.453068       -12.3286
  15   2.0000      -0.439774       -11.9669
  16   2.0000      -0.418828       -11.3969
  17   2.0000      -0.405628       -11.0377
  18   2.0000      -0.387565       -10.5462
  19   2.0000      -0.240033        -6.5316
  20   0.0000       0.091538         2.4909
  21   0.0000       0.097317         2.6481
  22   0.0000       0.136962         3.7269
  23   0.0000       0.142579         3.8798
  24   0.0000       0.164565         4.4780

MULLIKEN ATOMIC CHARGES
-----------------------
   0 C :    0.070972
   1 C :   -0.160160
   2 C :   -0.035606
   3 N :   -0.043434
   4 H :    0.100532
   5 H :    0.108852
   6 H :   -0.047353
   7 H :   -0.054144
   8 C :    0.030302
   9 H :   -0.024619
  10 H :    0.025795
  11 H :    0.006873
  12 H :    0.018320
  13 H :    0.003669
Sum of atomic charges:    0.0000000

LOEWDIN ATOMIC CHARGES
----------------------
   0 C :   -0.028223
   1 C :    0.009218
   2 C :   -0.186979
   3 N :    0.000418
   4 H :    0.067625
   5 H :    0.075912
   6 H :   -0.005151
   7 H :   -0.007805
   8 C :   -0.039016
   9 H :    0.014530
  10 H :    0.037045
  11 H :    0.020625
  12 H :    0.023239
  13 H :    0.018562

  Mayer bond orders larger than 0.100000
B(  0-C ,  1-C ) :   1.0108 B(  0-C ,  8-C ) :   1.0978 B(  0-C ,  9-H ) :   0.9331
B(  0-C , 10-H ) :   0.9353 B(  1-C ,  2-C ) :   1.8631 B(  1-C ,  3-N ) :   1.2759
B(  2-C ,  6-H ) :   0.9523 B(  2-C ,  7-H ) :   0.9526 B(  3-N ,  4-H ) :   0.9507
B(  3-N ,  5-H ) :   0.9510 B(  8-C , 11-H ) :   0.9724 B(  8-C , 12-H ) :   0.9754
B(  8-C , 13-H ) :   0.9660

FINAL SINGLE POINT ENERGY      -212.266949999601

DIPOLE MOMENT
-------------
                                X             Y             Z
Electronic contribution:      0.05191      -2.77595      -1.83960
Nuclear contribution   :     -0.99366       2.78648       1.68526
                        -----------------------------------------
Total Dipole Moment    :     -0.94174       0.01053      -0.15434
                        -----------------------------------------
Magnitude (a.u.)       :      0.95436
Magnitude (Debye)      :      2.42580

Rotational constants in cm-1:     0.282898     0.128664     0.101801
Rotational constants in MHz :  8481.061354  3857.240210  3051.924245

                             ****ORCA TERMINATED NORMALLY****
TOTAL RUN TIME: 0 days 0 hours 0 minutes 21 seconds 487 msec
