                         Program Version 5.0.0 -  RELEASE  -
|  1> !CAM-B3LYP RIJCOSX def2-SVP def2/J TightSCF
|  2> *xyz 0 1
|  3> C          0.70466        1.44313       -4.50363
|  4> C          1.72854        1.42432       -5.63944
|  5> H          2.64672        1.95379       -5.38105
|  6> H          1.29992        1.93061       -6.50361
|  7> S          2.25263       -0.18811       -6.27184
|  8> O          3.56261       -0.44446       -5.63155
|  9> F          2.34494       -0.03374       -7.69650
| 10> O          1.26606       -1.15918       -5.80536
| 11> H         -0.17385        0.91270       -4.80656
| 12> H          0.44778        2.45562       -4.27173
| 13> H          1.12367        0.97423       -3.63791
| 14> *
| 15>
| 16> %MaxCore 64000
| 17>
| 18> %pal nprocs 4
| 19> end
| 20>
| 21> %scf
| 22>   MaxIter 150
| 23> end
| 24>
| 25>
| 26>                          ****END OF INPUT****

CARTESIAN COORDINATES (ANGSTROEM)
---------------------------------
  C      0.704660    1.443130   -4.503630
  C      1.728540    1.424320   -5.639440
  H      2.646720    1.953790   -5.381050
  H      1.299920    1.930610   -6.503610
  S      2.252630   -0.188110   -6.271840
  O      3.562610   -0.444460   -5.631550
  F      2.344940   -0.033740   -7.696500
  O      1.266060   -1.159180   -5.805360
  H     -0.173850    0.912700   -4.806560
  H      0.447780    2.455620   -4.271730
  H      1.123670    0.974230   -3.637910

 Total Charge           Charge          ....    0
 Multiplicity           Mult            ....    1
 Number of Electrons    NEL             ....   58
 Basis Dimension        Dim             ....  113

ORBITAL ENERGIES
----------------

  NO   OCC          E(Eh)            E(eV)
   0   2.0000     -89.194769     -2427.1131
   1   2.0000     -24.879444      -677.0041
   2   2.0000     -19.203041      -522.5413
   3   2.0000     -19.192722      -522.2605
   4   2.0000     -10.317314      -280.7484
   5   2.0000     -10.279507      -279.7196
   6   2.0000      -8.257374      -224.6946
   7   2.0000      -6.230883      -169.5510
   8   2.0000      -6.224129      -169.3672
   9   2.0000      -6.223106      -169.3393
  10   2.0000      -1.457282       -39.6547
  11   2.0000      -1.172108       -31.8947
  12   2.0000      -1.064328       -28.9618
  13   2.0000      -0.898437       -24.4477
  14   2.0000      -0.809495       -22.0275
  15   2.0000      -0.750595       -20.4247
  16   2.0000      -0.661827       -18.0092
  17   2.0000      -0.659220       -17.9383
  18   2.0000      -0.619099       -16.8465
  19   2.0000      -0.562526       -15.3071
  20   2.0000      -0.544980       -14.8297
  21   2.0000      -0.504519       -13.7287
  22   2.0000      -0.490629       -13.3507
  23   2.0000      -0.471660       -12.8345
  24   2.0000      -0.454800       -12.3757
  25   2.0000      -0.439041       -11.9469
  26   2.0000      -0.383706       -10.4412
  27   2.0000      -0.372927       -10.1479
  28   2.0000      -0.354130        -9.6364
  29   0.0000       0.082046         2.2326
  30   0.0000       0.088049         2.3959
  31   0.0000       0.124340         3.3835
  32   0.0000       0.138096         3.7578
  33   0.0000       0.140863         3.8331

MULLIKEN ATOMIC CHARGES
-----------------------
   0 C :    0.041224
   1 C :   -0.139611
   2 H :    0.076953
   3 H :    0.047256
   4 S :    0.953275
   5 O :   -0.479742
   6 F :   -0.166228
   7 O :   -0.452245
   8 H :    0.040414
   9 H :    0.031913
  10 H :    0.046792
Sum of atomic charges:   -0.0000000

LOEWDIN ATOMIC CHARGES
----------------------
   0 C :   -0.044413
   1 C :   -0.152758
   2 H :    0.042795
   3 H :    0.027733
   4 S :    1.169236
   5 O :   -0.529503
   6 F :   -0.114062
   7 O :   -0.503790
   8 H :    0.033207
   9 H :    0.035581
  10 H :    0.035973

  Mayer bond orders larger than 0.100000
B(  0-C ,  1-C ) :   1.0827 B(  0-C ,  8-H ) :   0.9674 B(  0-C ,  9-H ) :   0.9613
B(  0-C , 10-H ) :   0.9732 B(  1-C ,  2-H ) :   0.9372 B(  1-C ,  3-H ) :   0.9368
B(  1-C ,  4-S ) :   0.9115 B(  4-S ,  5-O ) :   1.7488 B(  4-S ,  6-F ) :   1.0359
B(  4-S ,  7-O ) :   1.7797

FINAL SINGLE POINT ENERGY      -727.104445403921

DIPOLE MOMENT
-------------
                                X             Y             Z
Electronic contribution:      4.22094      -5.80410      -7.26098
Nuclear contribution   :     -4.83029       7.38191       6.79413
                        -----------------------------------------
Total Dipole Moment    :     -0.60935       1.57781      -0.46685
                        -----------------------------------------
Magnitude (a.u.)       :      1.75463
Magnitude (Debye)      :      4.45992

Rotational constants in cm-1:     0.156575     0.079070     0.076729
Rotational constants in MHz :  4694.010604  2370.444114  2300.280155

                             ****ORCA TERMINATED NORMALLY****
TOTAL RUN TIME: 0 days 0 hours 0 minutes 19 seconds 725 msec
