                         Program Version 5.0.0 -  RELEASE  -
|  1> !CAM-B3LYP RIJCOSX def2-SVP def2/J TightSCF
|  2> *xyz 0 1
|  3> C          2.91632       -1.24259       -1.54313
|  4> C          3.46659       -1.59097       -2.88908
|  5> N          4.65227       -1.14316       -3.25969
|  6> C          2.75226       -2.29204       -3.72803
|  7> H          1.77836       -2.48960       -3.51274
|  8> H          2.94861       -2.20854       -4.71681
|  9> H          5.14672       -0.51251       -2.63385
| 10> H          4.78303       -1.00720       -4.25350
| 11> C          2.80408        0.29070       -1.35924
| 12> H          1.94047       -1.71653       -1.44116
| 13> H          3.55857       -1.66343       -0.76637
| 14> H          2.17393        0.69633       -2.12297
| 15> H          3.77707        0.73043       -1.42880
| 16> H          2.38369        0.50492       -0.39889
| 17> *
| 18>
| 19> %MaxCore 64000
| 20>
| 21> %pal nprocs 4
| 22> end
| 23>
| 24> %scf
| 25>   MaxIter 150
| 26> end
| 27>
| 28>
| 29>                          ****END OF INPUT****

CARTESIAN COORDINATES (ANGSTROEM)
---------------------------------
  C      2.916320   -1.242590   -1.543130
  C      3.466590   -1.590970   -2.889080
  N      4.652270   -1.143160   -3.259690
  C      2.752260   -2.292040   -3.728030
  H      1.778360   -2.489600   -3.512740
  H      2.948610   -2.208540   -4.716810
  H      5.146720   -0.512510   -2.633850
  H      4.783030   -1.007200   -4.253500
  C      2.804080    0.290700   -1.359240
  H      1.940470   -1.716530   -1.441160
  H      3.558570   -1.663430   -0.766370
  H      2.173930    0.696330   -2.122970
  H      3.777070    0.730430   -1.428800
  H      2.383690    0.504920   -0.398890

 Total Charge           Charge          ....    0
 Multiplicity           Mult            ....    1
 Number of Electrons    NEL             ....   40
 Basis Dimension        Dim             ....  115

ORBITAL ENERGIES
----------------

  NO   OCC          E(Eh)            E(eV)
   0   2.0000     -14.396312      -391.7436
   1   2.0000     -10.272296      -279.5234
   2   2.0000     -10.256443      -279.0920
   3   2.0000     -10.250654      -278.9345
   4   2.0000     -10.186197      -277.1805
   5   2.0000      -1.000086       -27.2137
   6   2.0000      -0.851127       -23.1603
   7   2.0000      -0.792543       -21.5662
   8   2.0000      -0.706012       -19.2116
   9   2.0000      -0.630533       -17.1577
  10   2.0000      -0.591777       -16.1031
  11   2.0000      -0.542382       -14.7590
  12   2.0000      -0.503569       -13.7028
  13   2.0000      -0.499685       -13.5971
  14   2.0000      -0.450302       -12.2533
  15   2.0000      -0.445191       -12.1143
  16   2.0000      -0.420460       -11.4413
  17   2.0000      -0.404112       -10.9964
  18   2.0000      -0.382530       -10.4092
  19   2.0000      -0.247594        -6.7374
  20   0.0000       0.087578         2.3831
  21   0.0000       0.100274         2.7286
  22   0.0000       0.139888         3.8065
  23   0.0000       0.148220         4.0333
  24   0.0000       0.159859         4.3500

MULLIKEN ATOMIC CHARGES
-----------------------
   0 C :    0.075290
   1 C :   -0.145240
   2 N :   -0.056559
   3 C :   -0.029706
   4 H :   -0.045321
   5 H :   -0.058609
   6 H :    0.099739
   7 H :    0.115190
   8 C :    0.019444
   9 H :   -0.000751
  10 H :    0.006964
  11 H :    0.013634
  12 H :   -0.006817
  13 H :    0.012741
Sum of atomic charges:    0.0000000

LOEWDIN ATOMIC CHARGES
----------------------
   0 C :   -0.026495
   1 C :    0.008155
   2 N :   -0.012558
   3 C :   -0.172153
   4 H :   -0.001712
   5 H :   -0.007746
   6 H :    0.066571
   7 H :    0.076889
   8 C :   -0.046718
   9 H :    0.032159
  10 H :    0.023916
  11 H :    0.024071
  12 H :    0.011868
  13 H :    0.023755

  Mayer bond orders larger than 0.100000
B(  0-C ,  1-C ) :   1.0410 B(  0-C ,  8-C ) :   1.0832 B(  0-C ,  9-H ) :   0.9306
B(  0-C , 10-H ) :   0.9316 B(  1-C ,  2-N ) :   1.2503 B(  1-C ,  3-C ) :   1.8952
B(  2-N ,  6-H ) :   0.9580 B(  2-N ,  7-H ) :   0.9508 B(  3-C ,  4-H ) :   0.9391
B(  3-C ,  5-H ) :   0.9509 B(  8-C , 11-H ) :   0.9713 B(  8-C , 12-H ) :   0.9726
B(  8-C , 13-H ) :   0.9684

FINAL SINGLE POINT ENERGY      -212.271058549338

DIPOLE MOMENT
-------------
                                X             Y             Z
Electronic contribution:      1.79780      -1.70819      -1.41131
Nuclear contribution   :     -1.43372       2.52039       1.57679
                        -----------------------------------------
Total Dipole Moment    :      0.36408       0.81220       0.16548
                        -----------------------------------------
Magnitude (a.u.)       :      0.90532
Magnitude (Debye)      :      2.30114

Rotational constants in cm-1:     0.274962     0.131786     0.102554
Rotational constants in MHz :  8243.150005  3950.846092  3074.493018

                             ****ORCA TERMINATED NORMALLY****
TOTAL RUN TIME: 0 days 0 hours 0 minutes 20 seconds 342 msec
