                         Program Version 5.0.0 -  RELEASE  -
|  1> !CAM-B3LYP RIJCOSX def2-SVP def2/J TightSCF
|  2> *xyz 0 1
|  3> C          0.70466        1.44313       -4.50363
|  4> C          1.72854        1.42432       -5.63944
|  5> H          2.64672        1.95379       -5.38105
|  6> H          1.29992        1.93061       -6.50361
|  7> S          2.25263       -0.18811       -6.27184
|  8> O          3.56261       -0.44446       -5.63155
|  9> O          2.34494       -0.03374       -7.69650
| 10> F          1.26606       -1.15918       -5.80536
| 11> H         -0.17385        0.91270       -4.80656
| 12> H          0.44778        2.45562       -4.27173
| 13> H          1.12367        0.97423       -3.63791
| 14> *
| 15>
| 16> %MaxCore 64000
| 17>
| 18> %pal nprocs 4
| 19> end
| 20>
| 21> %scf
| 22>   MaxIter 150
| 23> end
| 24>
| 25>
| 26>                          ****END OF INPUT****

CARTESIAN COORDINATES (ANGSTROEM)
---------------------------------
  C      0.704660    1.443130   -4.503630
  C      1.728540    1.424320   -5.639440
  H      2.646720    1.953790   -5.381050
  H      1.299920    1.930610   -6.503610
  S      2.252630   -0.188110   -6.271840
  O      3.562610   -0.444460   -5.631550
  O      2.344940   -0.033740   -7.696500
  F      1.266060   -1.159180   -5.805360
  H     -0.173850    0.912700   -4.806560
  H      0.447780    2.455620   -4.271730
  H      1.123670    0.974230   -3.637910

 Total Charge           Charge          ....    0
 Multiplicity           Mult            ....    1
 Number of Electrons    NEL             ....   58
 Basis Dimension        Dim             ....  113

ORBITAL ENERGIES
----------------

  NO   OCC          E(Eh)            E(eV)
   0   2.0000     -89.193357     -2427.0746
   1   2.0000     -24.867504      -676.6792
   2   2.0000     -19.210103      -522.7335
   3   2.0000     -19.192079      -522.2430
   4   2.0000     -10.316026      -280.7133
   5   2.0000     -10.287318      -279.9322
   6   2.0000      -8.255883      -224.6540
   7   2.0000      -6.229417      -169.5111
   8   2.0000      -6.222727      -169.3290
   9   2.0000      -6.221672      -169.3003
  10   2.0000      -1.435639       -39.0657
  11   2.0000      -1.182051       -32.1653
  12   2.0000      -1.072611       -29.1872
  13   2.0000      -0.901951       -24.5433
  14   2.0000      -0.798343       -21.7240
  15   2.0000      -0.751464       -20.4484
  16   2.0000      -0.663046       -18.0424
  17   2.0000      -0.644397       -17.5349
  18   2.0000      -0.606054       -16.4916
  19   2.0000      -0.566430       -15.4133
  20   2.0000      -0.540103       -14.6970
  21   2.0000      -0.516344       -14.0504
  22   2.0000      -0.500618       -13.6225
  23   2.0000      -0.478871       -13.0307
  24   2.0000      -0.460986       -12.5441
  25   2.0000      -0.443008       -12.0549
  26   2.0000      -0.389538       -10.5999
  27   2.0000      -0.373939       -10.1754
  28   2.0000      -0.360396        -9.8069
  29   0.0000       0.065770         1.7897
  30   0.0000       0.107517         2.9257
  31   0.0000       0.130834         3.5602
  32   0.0000       0.132542         3.6067
  33   0.0000       0.143781         3.9125

MULLIKEN ATOMIC CHARGES
-----------------------
   0 C :    0.008293
   1 C :   -0.130837
   2 H :    0.089441
   3 H :    0.069449
   4 S :    0.956914
   5 O :   -0.483510
   6 O :   -0.431321
   7 F :   -0.189563
   8 H :    0.029951
   9 H :    0.039979
  10 H :    0.041203
Sum of atomic charges:   -0.0000000

LOEWDIN ATOMIC CHARGES
----------------------
   0 C :   -0.058827
   1 C :   -0.147863
   2 H :    0.050971
   3 H :    0.038899
   4 S :    1.173293
   5 O :   -0.533479
   6 O :   -0.480453
   7 F :   -0.138174
   8 H :    0.026385
   9 H :    0.038466
  10 H :    0.030783

  Mayer bond orders larger than 0.100000
B(  0-C ,  1-C ) :   1.0651 B(  0-C ,  8-H ) :   0.9738 B(  0-C ,  9-H ) :   0.9626
B(  0-C , 10-H ) :   0.9736 B(  1-C ,  2-H ) :   0.9392 B(  1-C ,  3-H ) :   0.9413
B(  1-C ,  4-S ) :   0.9230 B(  4-S ,  5-O ) :   1.7518 B(  4-S ,  6-O ) :   1.8015
B(  4-S ,  7-F ) :   1.0097

FINAL SINGLE POINT ENERGY      -727.114720573542

DIPOLE MOMENT
-------------
                                X             Y             Z
Electronic contribution:      2.37329      -7.69465      -4.00877
Nuclear contribution   :     -3.70606       8.55465       4.82350
                        -----------------------------------------
Total Dipole Moment    :     -1.33277       0.86000       0.81473
                        -----------------------------------------
Magnitude (a.u.)       :      1.78316
Magnitude (Debye)      :      4.53244

Rotational constants in cm-1:     0.153201     0.080978     0.077494
Rotational constants in MHz :  4592.852844  2427.650814  2323.207507

                             ****ORCA TERMINATED NORMALLY****
TOTAL RUN TIME: 0 days 0 hours 0 minutes 19 seconds 647 msec
