                         Program Version 5.0.0 -  RELEASE  -
|  1> !CAM-B3LYP RIJCOSX def2-TZVP def2/J TightSCF xyzfile
|  2>
|  3> *xyzfile 0 1 D1.xyz
|  4>
|  5> %MaxCore 64000
|  6>
|  7> %pal nprocs 18
|  8> end
|  9>
| 10> %scf
| 11>   MaxIter 150
| 12> end
| 13>
| 14>
| 15>                          ****END OF INPUT****

CARTESIAN COORDINATES (ANGSTROEM)
---------------------------------
  C      2.916324   -1.242589   -1.543125
  C      0.704661    1.443129   -4.503630
  C      1.728539    1.424320   -5.639443
  H      2.646718    1.953794   -5.381054
  H      1.299916    1.930613   -6.503614
  S      2.252625   -0.188115   -6.271840
  C      3.466585   -1.590971   -2.889082
  C      4.652275   -1.143164   -3.259692
  N      2.752264   -2.292043   -3.728029
  H      1.778364   -2.489604   -3.512738
  H      2.948612   -2.208544   -4.716813
  H      5.146723   -0.512508   -2.633852
  H      4.783030   -1.007203   -4.253498
  F      3.562607   -0.444464   -5.631552
  O      2.344944   -0.033742   -7.696501
  C      2.804084    0.290698   -1.359243
  C      1.052550    0.695659   -3.214915
  H     -0.232483    1.032925   -4.884449
  H      0.511700    2.495794   -4.267966
  C      2.388380    1.093669   -2.597108
  H      3.763425    0.674718   -0.999889
  H      2.094788    0.461222   -0.545756
  O      1.266058   -1.159177   -5.805365
  H      3.167316    1.013242   -3.359430
  H      2.357690    2.149375   -2.310997
  H      1.039284   -0.368429   -3.449329
  H      0.250787    0.865605   -2.488283
  H      1.940472   -1.716529   -1.441161
  H      3.558569   -1.663433   -0.766371

 Total Charge           Charge          ....    0
 Multiplicity           Mult            ....    1
 Number of Electrons    NEL             ....  112
 Basis Dimension        Dim             ....  505

ORBITAL ENERGIES
----------------

  NO   OCC          E(Eh)            E(eV)
   0   2.0000     -89.185407     -2426.8583
   1   2.0000     -24.868872      -676.7164
   2   2.0000     -19.221774      -523.0511
   3   2.0000     -19.217876      -522.9450
   4   2.0000     -14.382565      -391.3695
   5   2.0000     -10.308778      -280.5161
   6   2.0000     -10.273166      -279.5471
   7   2.0000     -10.263528      -279.2848
   8   2.0000     -10.250403      -278.9276
   9   2.0000     -10.248375      -278.8725
  10   2.0000     -10.246960      -278.8340
  11   2.0000     -10.245928      -278.8059
  12   2.0000     -10.166675      -276.6493
  13   2.0000      -8.229509      -223.9363
  14   2.0000      -6.197523      -168.6432
  15   2.0000      -6.190924      -168.4636
  16   2.0000      -6.190325      -168.4473
  17   2.0000      -1.449944       -39.4550
  18   2.0000      -1.206297       -32.8250
  19   2.0000      -1.112875       -30.2829
  20   2.0000      -1.017883       -27.6980
  21   2.0000      -0.925971       -25.1969
  22   2.0000      -0.888281       -24.1714
  23   2.0000      -0.846540       -23.0355
  24   2.0000      -0.815148       -22.1813
  25   2.0000      -0.780327       -21.2338
  26   2.0000      -0.768781       -20.9196
  27   2.0000      -0.713777       -19.4229
  28   2.0000      -0.675330       -18.3767
  29   2.0000      -0.658779       -17.9263
  30   2.0000      -0.649501       -17.6738
  31   2.0000      -0.638094       -17.3634
  32   2.0000      -0.623328       -16.9616
  33   2.0000      -0.587988       -16.0000
  34   2.0000      -0.573145       -15.5961
  35   2.0000      -0.565254       -15.3813
  36   2.0000      -0.550631       -14.9834
  37   2.0000      -0.545571       -14.8457
  38   2.0000      -0.532595       -14.4927
  39   2.0000      -0.515285       -14.0216
  40   2.0000      -0.503780       -13.7086
  41   2.0000      -0.492876       -13.4118
  42   2.0000      -0.471747       -12.8369
  43   2.0000      -0.462464       -12.5843
  44   2.0000      -0.454009       -12.3542
  45   2.0000      -0.450207       -12.2508
  46   2.0000      -0.442622       -12.0444
  47   2.0000      -0.425776       -11.5860
  48   2.0000      -0.419704       -11.4207
  49   2.0000      -0.410426       -11.1683
  50   2.0000      -0.405231       -11.0269
  51   2.0000      -0.395199       -10.7539
  52   2.0000      -0.390145       -10.6164
  53   2.0000      -0.386883       -10.5276
  54   2.0000      -0.381348       -10.3770
  55   2.0000      -0.245251        -6.6736
  56   0.0000       0.052017         1.4155
  57   0.0000       0.064326         1.7504
  58   0.0000       0.070505         1.9185
  59   0.0000       0.074621         2.0305
  60   0.0000       0.080791         2.1984

MULLIKEN ATOMIC CHARGES
-----------------------
   0 C :   -0.238217
   1 C :   -0.165212
   2 C :   -0.335987
   3 H :    0.165275
   4 H :    0.183177
   5 S :    0.901666
   6 C :    0.139578
   7 C :   -0.399267
   8 N :   -0.356898
   9 H :    0.222193
  10 H :    0.207044
  11 H :    0.083033
  12 H :    0.076107
  13 F :   -0.135154
  14 O :   -0.411579
  15 C :   -0.239706
  16 C :   -0.238585
  17 H :    0.136346
  18 H :    0.121642
  19 C :   -0.167793
  20 H :    0.122790
  21 H :    0.104807
  22 O :   -0.455690
  23 H :    0.111028
  24 H :    0.105016
  25 H :    0.108736
  26 H :    0.112253
  27 H :    0.107274
  28 H :    0.136124
Sum of atomic charges:    0.0000000

LOEWDIN ATOMIC CHARGES
----------------------
   0 C :   -0.211849
   1 C :   -0.278576
   2 C :   -0.362251
   3 H :    0.139449
   4 H :    0.151662
   5 S :    0.565716
   6 C :   -0.381358
   7 C :   -0.296320
   8 N :    0.022929
   9 H :    0.165235
  10 H :    0.158183
  11 H :    0.103465
  12 H :    0.091465
  13 F :    0.064032
  14 O :   -0.258821
  15 C :   -0.249933
  16 C :   -0.270635
  17 H :    0.146940
  18 H :    0.146569
  19 C :   -0.269197
  20 H :    0.138708
  21 H :    0.135542
  22 O :   -0.284819
  23 H :    0.135225
  24 H :    0.136059
  25 H :    0.135754
  26 H :    0.139539
  27 H :    0.135752
  28 H :    0.151534

  Mayer bond orders larger than 0.100000
B(  0-C ,  6-C ) :   0.9013 B(  0-C , 15-C ) :   0.9313 B(  0-C , 27-H ) :   0.9880
B(  0-C , 28-H ) :   0.9849 B(  1-C ,  2-C ) :   0.9263 B(  1-C , 16-C ) :   0.9542
B(  1-C , 17-H ) :   0.9770 B(  1-C , 18-H ) :   0.9598 B(  2-C ,  3-H ) :   0.9485
B(  2-C ,  4-H ) :   0.9524 B(  2-C ,  5-S ) :   0.9099 B(  5-S , 13-F ) :   1.0795
B(  5-S , 14-O ) :   1.9923 B(  5-S , 22-O ) :   1.8401 B(  6-C ,  7-C ) :   1.6901
B(  6-C ,  8-N ) :   1.2055 B(  7-C , 11-H ) :   1.0168 B(  7-C , 12-H ) :   1.0098
B(  8-N ,  9-H ) :   0.9280 B(  8-N , 10-H ) :   0.9299 B( 15-C , 19-C ) :   0.9552
B( 15-C , 20-H ) :   0.9849 B( 15-C , 21-H ) :   0.9789 B( 16-C , 19-C ) :   0.9056
B( 16-C , 25-H ) :   0.9773 B( 16-C , 26-H ) :   0.9735 B( 19-C , 23-H ) :   0.9761
B( 19-C , 24-H ) :   0.9741

FINAL SINGLE POINT ENERGY     -1017.639520075118

DIPOLE MOMENT
-------------
                                X             Y             Z
Electronic contribution:      2.14550      -4.92645     -18.56870
Nuclear contribution   :     -2.89481       6.29550      19.36835
                        -----------------------------------------
Total Dipole Moment    :     -0.74931       1.36905       0.79965
                        -----------------------------------------
Magnitude (a.u.)       :      1.75362
Magnitude (Debye)      :      4.45736

Rotational constants in cm-1:     0.036515     0.018832     0.015081
Rotational constants in MHz :  1094.679513   564.567051   452.109105

                             ****ORCA TERMINATED NORMALLY****
TOTAL RUN TIME: 0 days 0 hours 1 minutes 38 seconds 90 msec
