                         Program Version 5.0.0 -  RELEASE  -
|  1> !CAM-B3LYP RIJCOSX def2-TZVP def2/J TightSCF xyzfile
|  2>
|  3> *xyzfile 0 1 D3.xyz
|  4>
|  5> %MaxCore 64000
|  6>
|  7> %pal nprocs 18
|  8> end
|  9>
| 10> %scf
| 11>   MaxIter 150
| 12> end
| 13>
| 14>
| 15>                          ****END OF INPUT****

CARTESIAN COORDINATES (ANGSTROEM)
---------------------------------
  C      2.916324   -1.242589   -1.543125
  C      0.704661    1.443129   -4.503630
  C      1.728539    1.424320   -5.639443
  H      2.646718    1.953794   -5.381054
  H      1.299916    1.930613   -6.503614
  S      2.252625   -0.188115   -6.271840
  C      3.466585   -1.590971   -2.889082
  C      4.652275   -1.143164   -3.259692
  N      2.752264   -2.292043   -3.728029
  H      1.778364   -2.489604   -3.512738
  H      2.948612   -2.208544   -4.716813
  H      5.146723   -0.512508   -2.633852
  H      4.783030   -1.007203   -4.253498
  O      3.562607   -0.444464   -5.631552
  F      2.344944   -0.033742   -7.696501
  C      2.804084    0.290698   -1.359243
  C      1.052550    0.695659   -3.214915
  H     -0.232483    1.032925   -4.884449
  H      0.511700    2.495794   -4.267966
  C      2.388380    1.093669   -2.597108
  H      3.763425    0.674718   -0.999889
  H      2.094788    0.461222   -0.545756
  O      1.266058   -1.159177   -5.805365
  H      3.167316    1.013242   -3.359430
  H      2.357690    2.149375   -2.310997
  H      1.039284   -0.368429   -3.449329
  H      0.250787    0.865605   -2.488283
  H      1.940472   -1.716529   -1.441161
  H      3.558569   -1.663433   -0.766371

 Total Charge           Charge          ....    0
 Multiplicity           Mult            ....    1
 Number of Electrons    NEL             ....  112
 Basis Dimension        Dim             ....  505

ORBITAL ENERGIES
----------------

  NO   OCC          E(Eh)            E(eV)
   0   2.0000     -89.191723     -2427.0302
   1   2.0000     -24.892975      -677.3723
   2   2.0000     -19.221897      -523.0544
   3   2.0000     -19.212557      -522.8002
   4   2.0000     -14.357907      -390.6985
   5   2.0000     -10.312461      -280.6163
   6   2.0000     -10.274553      -279.5848
   7   2.0000     -10.243880      -278.7502
   8   2.0000     -10.239563      -278.6327
   9   2.0000     -10.235574      -278.5241
  10   2.0000     -10.233652      -278.4718
  11   2.0000     -10.231072      -278.4016
  12   2.0000     -10.139996      -275.9233
  13   2.0000      -8.235907      -224.1104
  14   2.0000      -6.203641      -168.8097
  15   2.0000      -6.197244      -168.6356
  16   2.0000      -6.196915      -168.6266
  17   2.0000      -1.485357       -40.4186
  18   2.0000      -1.199391       -32.6371
  19   2.0000      -1.099184       -29.9103
  20   2.0000      -0.993704       -27.0401
  21   2.0000      -0.924856       -25.1666
  22   2.0000      -0.879296       -23.9269
  23   2.0000      -0.845439       -23.0056
  24   2.0000      -0.808907       -22.0115
  25   2.0000      -0.778654       -21.1883
  26   2.0000      -0.753382       -20.5006
  27   2.0000      -0.712660       -19.3925
  28   2.0000      -0.680940       -18.5293
  29   2.0000      -0.675827       -18.3902
  30   2.0000      -0.648967       -17.6593
  31   2.0000      -0.638344       -17.3702
  32   2.0000      -0.609037       -16.5727
  33   2.0000      -0.577029       -15.7018
  34   2.0000      -0.567950       -15.4547
  35   2.0000      -0.566090       -15.4041
  36   2.0000      -0.549136       -14.9428
  37   2.0000      -0.539313       -14.6755
  38   2.0000      -0.519716       -14.1422
  39   2.0000      -0.506043       -13.7701
  40   2.0000      -0.495689       -13.4884
  41   2.0000      -0.482239       -13.1224
  42   2.0000      -0.470339       -12.7986
  43   2.0000      -0.451965       -12.2986
  44   2.0000      -0.446486       -12.1495
  45   2.0000      -0.429985       -11.7005
  46   2.0000      -0.424643       -11.5551
  47   2.0000      -0.416361       -11.3298
  48   2.0000      -0.409323       -11.1382
  49   2.0000      -0.401083       -10.9140
  50   2.0000      -0.392826       -10.6893
  51   2.0000      -0.388815       -10.5802
  52   2.0000      -0.379019       -10.3136
  53   2.0000      -0.370915       -10.0931
  54   2.0000      -0.363495        -9.8912
  55   2.0000      -0.220958        -6.0126
  56   0.0000       0.050640         1.3780
  57   0.0000       0.058742         1.5985
  58   0.0000       0.079015         2.1501
  59   0.0000       0.086907         2.3649
  60   0.0000       0.089507         2.4356

MULLIKEN ATOMIC CHARGES
-----------------------
   0 C :   -0.238089
   1 C :   -0.179304
   2 C :   -0.323703
   3 H :    0.179003
   4 H :    0.158424
   5 S :    0.904680
   6 C :    0.155807
   7 C :   -0.403102
   8 N :   -0.374238
   9 H :    0.208084
  10 H :    0.224083
  11 H :    0.069644
  12 H :    0.110433
  13 O :   -0.456891
  14 F :   -0.097610
  15 C :   -0.238830
  16 C :   -0.214672
  17 H :    0.130152
  18 H :    0.124395
  19 C :   -0.180819
  20 H :    0.119517
  21 H :    0.096661
  22 O :   -0.449500
  23 H :    0.137300
  24 H :    0.096743
  25 H :    0.103096
  26 H :    0.108859
  27 H :    0.100102
  28 H :    0.129776
Sum of atomic charges:    0.0000000

LOEWDIN ATOMIC CHARGES
----------------------
   0 C :   -0.215500
   1 C :   -0.275891
   2 C :   -0.364298
   3 H :    0.147340
   4 H :    0.137802
   5 S :    0.562512
   6 C :   -0.383066
   7 C :   -0.292105
   8 N :    0.018073
   9 H :    0.158237
  10 H :    0.162068
  11 H :    0.099503
  12 H :    0.099617
  13 O :   -0.288744
  14 F :    0.106688
  15 C :   -0.251574
  16 C :   -0.267125
  17 H :    0.145175
  18 H :    0.147913
  19 C :   -0.268703
  20 H :    0.138036
  21 H :    0.132557
  22 O :   -0.282340
  23 H :    0.142713
  24 H :    0.133144
  25 H :    0.136974
  26 H :    0.138582
  27 H :    0.133028
  28 H :    0.149385

  Mayer bond orders larger than 0.100000
B(  0-C ,  6-C ) :   0.9076 B(  0-C , 15-C ) :   0.9351 B(  0-C , 27-H ) :   0.9889
B(  0-C , 28-H ) :   0.9868 B(  1-C ,  2-C ) :   0.9350 B(  1-C , 16-C ) :   0.9599
B(  1-C , 17-H ) :   0.9786 B(  1-C , 18-H ) :   0.9610 B(  2-C ,  3-H ) :   0.9437
B(  2-C ,  4-H ) :   0.9518 B(  2-C ,  5-S ) :   0.9142 B(  5-S , 13-O ) :   1.8179
B(  5-S , 14-F ) :   1.1632 B(  5-S , 22-O ) :   1.8635 B(  6-C ,  7-C ) :   1.7049
B(  6-C ,  8-N ) :   1.1942 B(  7-C , 11-H ) :   1.0110 B(  7-C , 12-H ) :   1.0032
B(  8-N ,  9-H ) :   0.9344 B(  8-N , 10-H ) :   0.9186 B( 15-C , 19-C ) :   0.9597
B( 15-C , 20-H ) :   0.9836 B( 15-C , 21-H ) :   0.9793 B( 16-C , 19-C ) :   0.9044
B( 16-C , 25-H ) :   0.9736 B( 16-C , 26-H ) :   0.9746 B( 19-C , 23-H ) :   0.9733
B( 19-C , 24-H ) :   0.9727

FINAL SINGLE POINT ENERGY     -1017.621831687940

DIPOLE MOMENT
-------------
                                X             Y             Z
Electronic contribution:      0.02800      -4.13320     -22.55214
Nuclear contribution   :     -1.50273       5.82595      21.72909
                        -----------------------------------------
Total Dipole Moment    :     -1.47473       1.69275      -0.82305
                        -----------------------------------------
Magnitude (a.u.)       :      2.39116
Magnitude (Debye)      :      6.07785

Rotational constants in cm-1:     0.036883     0.018294     0.014745
Rotational constants in MHz :  1105.724679   548.429785   442.050481

                             ****ORCA TERMINATED NORMALLY****
TOTAL RUN TIME: 0 days 0 hours 1 minutes 8 seconds 312 msec
