                         Program Version 5.0.0 -  RELEASE  -
|  1> !LC-PBE RIJCOSX def2-SVPD def2/J TightSCF
|  2> *xyz -1 1
|  3> C         -0.90349       -0.87394       -1.98739
|  4> C         -0.96015       -0.52236       -0.48987
|  5> H         -1.69039       -1.20813       -0.02168
|  6> H         -1.41449        0.48633       -0.40668
|  7> O          0.26170       -0.58031        0.13861
|  8> H         -1.88568       -0.80774       -2.40670
|  9> H         -0.53143       -1.87013       -2.10605
| 10> H         -0.25399       -0.18836       -2.49039
| 11> *
| 12>
| 13> %MaxCore 64000
| 14>
| 15> %pal nprocs 4
| 16> end
| 17>
| 18> %scf
| 19>   MaxIter 150
| 20> end
| 21>
| 22>
| 23>                          ****END OF INPUT****

CARTESIAN COORDINATES (ANGSTROEM)
---------------------------------
  C     -0.903490   -0.873940   -1.987390
  C     -0.960150   -0.522360   -0.489870
  H     -1.690390   -1.208130   -0.021680
  H     -1.414490    0.486330   -0.406680
  O      0.261700   -0.580310    0.138610
  H     -1.885680   -0.807740   -2.406700
  H     -0.531430   -1.870130   -2.106050
  H     -0.253990   -0.188360   -2.490390

 Total Charge           Charge          ....   -1
 Multiplicity           Mult            ....    1
 Number of Electrons    NEL             ....   26
 Basis Dimension        Dim             ....  103

ORBITAL ENERGIES
----------------

  NO   OCC          E(Eh)            E(eV)
   0   2.0000     -18.647065      -507.4124
   1   2.0000      -9.938966      -270.4530
   2   2.0000      -9.918021      -269.8831
   3   2.0000      -0.830081       -22.5876
   4   2.0000      -0.688785       -18.7428
   5   2.0000      -0.522703       -14.2235
   6   2.0000      -0.395810       -10.7705
   7   2.0000      -0.368057       -10.0153
   8   2.0000      -0.309729        -8.4282
   9   2.0000      -0.289361        -7.8739
  10   2.0000      -0.240092        -6.5332
  11   2.0000      -0.091660        -2.4942
  12   2.0000      -0.088493        -2.4080
  13   0.0000       0.244182         6.6445
  14   0.0000       0.277004         7.5376
  15   0.0000       0.317452         8.6383
  16   0.0000       0.330174         8.9845
  17   0.0000       0.345055         9.3894

MULLIKEN ATOMIC CHARGES
-----------------------
   0 C :    0.144602
   1 C :   -0.020686
   2 H :   -0.098282
   3 H :   -0.090927
   4 O :   -0.873601
   5 H :   -0.002346
   6 H :   -0.028945
   7 H :   -0.029814
Sum of atomic charges:   -1.0000000

LOEWDIN ATOMIC CHARGES
----------------------
   0 C :    0.030783
   1 C :   -0.289670
   2 H :   -0.019393
   3 H :   -0.017618
   4 O :   -0.601345
   5 H :   -0.043994
   6 H :   -0.029350
   7 H :   -0.029413

  Mayer bond orders larger than 0.100000
B(  0-C ,  1-C ) :   1.1841 B(  0-C ,  5-H ) :   0.9002 B(  0-C ,  6-H ) :   0.9259
B(  0-C ,  7-H ) :   0.9258 B(  1-C ,  2-H ) :   0.9986 B(  1-C ,  3-H ) :   0.9989
B(  1-C ,  4-O ) :   1.2920 B(  1-C ,  6-H ) :   0.1395 B(  1-C ,  7-H ) :   0.1398

FINAL SINGLE POINT ENERGY      -153.847064815352

DIPOLE MOMENT
-------------
                                X             Y             Z
Electronic contribution:      1.70662       0.16887       1.98728
Nuclear contribution   :     -2.90669      -0.27617      -3.31210
                        -----------------------------------------
Total Dipole Moment    :     -1.20007      -0.10729      -1.32482
                        -----------------------------------------
Magnitude (a.u.)       :      1.79076
Magnitude (Debye)      :      4.55176

Rotational constants in cm-1:     1.291883     0.321656     0.284469
Rotational constants in MHz : 38729.676116  9643.011620  8528.167295

                             ****ORCA TERMINATED NORMALLY****
TOTAL RUN TIME: 0 days 0 hours 0 minutes 10 seconds 714 msec
