                         Program Version 5.0.0 -  RELEASE  -
|  1> !LC-PBE RIJCOSX def2-SVPD def2/J TightSCF
|  2> *xyz 1 1
|  3> C          4.36645       -0.13321       -1.41606
|  4> C          4.50829       -0.93187       -2.72425
|  5> C          3.05650       -0.32080       -0.70738
|  6> N          2.38983        0.71129       -0.24391
|  7> N          2.51600       -1.50772       -0.55023
|  8> H          2.96768       -2.32291       -0.95631
|  9> H          1.54987       -1.49063       -0.24988
| 10> H          2.74307        1.64947       -0.41280
| 11> H          1.44036        0.50278        0.03703
| 12> H          4.48784        0.93300       -1.61157
| 13> H          5.16967       -0.41443       -0.72982
| 14> H          5.46700       -0.73824       -3.15818
| 15> H          3.74074       -0.63528       -3.40821
| 16> H          4.41574       -1.97727       -2.51573
| 17> *
| 18>
| 19> %MaxCore 64000
| 20>
| 21> %pal nprocs 4
| 22> end
| 23>
| 24> %scf
| 25>   MaxIter 150
| 26> end
| 27>
| 28>
| 29>                          ****END OF INPUT****

CARTESIAN COORDINATES (ANGSTROEM)
---------------------------------
  C      4.366450   -0.133210   -1.416060
  C      4.508290   -0.931870   -2.724250
  C      3.056500   -0.320800   -0.707380
  N      2.389830    0.711290   -0.243910
  N      2.516000   -1.507720   -0.550230
  H      2.967680   -2.322910   -0.956310
  H      1.549870   -1.490630   -0.249880
  H      2.743070    1.649470   -0.412800
  H      1.440360    0.502780    0.037030
  H      4.487840    0.933000   -1.611570
  H      5.169670   -0.414430   -0.729820
  H      5.467000   -0.738240   -3.158180
  H      3.740740   -0.635280   -3.408210
  H      4.415740   -1.977270   -2.515730

 Total Charge           Charge          ....    1
 Multiplicity           Mult            ....    1
 Number of Electrons    NEL             ....   40
 Basis Dimension        Dim             ....  172

ORBITAL ENERGIES
----------------

  NO   OCC          E(Eh)            E(eV)
   0   2.0000     -14.477821      -393.9615
   1   2.0000     -14.476586      -393.9279
   2   2.0000     -10.460641      -284.6485
   3   2.0000     -10.331748      -281.1411
   4   2.0000     -10.286883      -279.9203
   5   2.0000      -1.385770       -37.7087
   6   2.0000      -1.268970       -34.5304
   7   2.0000      -1.144501       -31.1435
   8   2.0000      -1.020713       -27.7750
   9   2.0000      -0.975309       -26.5395
  10   2.0000      -0.921363       -25.0716
  11   2.0000      -0.906086       -24.6558
  12   2.0000      -0.845791       -23.0151
  13   2.0000      -0.814564       -22.1654
  14   2.0000      -0.771248       -20.9867
  15   2.0000      -0.747170       -20.3315
  16   2.0000      -0.691070       -18.8050
  17   2.0000      -0.674595       -18.3567
  18   2.0000      -0.657990       -17.9048
  19   2.0000      -0.626119       -17.0376
  20   0.0000      -0.122346        -3.3292
  21   0.0000      -0.080777        -2.1981
  22   0.0000      -0.038124        -1.0374
  23   0.0000      -0.037494        -1.0203
  24   0.0000      -0.004191        -0.1141

MULLIKEN ATOMIC CHARGES
-----------------------
   0 C :   -0.450777
   1 C :    0.470912
   2 C :    0.585995
   3 N :   -0.051614
   4 N :    0.011434
   5 H :    0.057879
   6 H :   -0.047195
   7 H :    0.089133
   8 H :   -0.005735
   9 H :    0.165102
  10 H :    0.124773
  11 H :    0.082392
  12 H :    0.017097
  13 H :   -0.049396
Sum of atomic charges:    1.0000000

LOEWDIN ATOMIC CHARGES
----------------------
   0 C :   -0.004605
   1 C :    0.137150
   2 C :   -0.042433
   3 N :    0.264435
   4 N :    0.272760
   5 H :    0.056829
   6 H :    0.053224
   7 H :    0.067219
   8 H :    0.052523
   9 H :    0.048159
  10 H :    0.068827
  11 H :    0.019912
  12 H :    0.013540
  13 H :   -0.007540

  Mayer bond orders larger than 0.100000
B(  0-C ,  1-C ) :   1.3118 B(  0-C ,  2-C ) :   1.1587 B(  0-C ,  9-H ) :   0.8866
B(  0-C , 10-H ) :   0.8651 B(  0-C , 11-H ) :   0.1356 B(  0-C , 12-H ) :   0.1522
B(  0-C , 13-H ) :   0.1426 B(  1-C ,  9-H ) :   0.1062 B(  1-C , 11-H ) :   0.8592
B(  1-C , 12-H ) :   0.8286 B(  1-C , 13-H ) :   0.8718 B(  2-C ,  3-N ) :   1.1229
B(  2-C ,  4-N ) :   1.1258 B(  2-C ,  6-H ) :  -0.1554 B(  2-C ,  8-H ) :  -0.1054
B(  2-C ,  9-H ) :   0.1119 B(  2-C , 10-H ) :   0.1145 B(  3-N ,  4-N ) :   0.1985
B(  3-N ,  7-H ) :   1.0814 B(  3-N ,  8-H ) :   1.1932 B(  4-N ,  5-H ) :   1.0537
B(  4-N ,  6-H ) :   1.2600 B(  5-H ,  6-H ) :  -0.1715 B(  7-H ,  8-H ) :  -0.1389

FINAL SINGLE POINT ENERGY      -228.130613535408

DIPOLE MOMENT
-------------
                                X             Y             Z
Electronic contribution:     -2.67238       0.63308       3.11943
Nuclear contribution   :      1.78847      -0.48174      -2.67127
                        -----------------------------------------
Total Dipole Moment    :     -0.88391       0.15134       0.44815
                        -----------------------------------------
Magnitude (a.u.)       :      1.00252
Magnitude (Debye)      :      2.54821

Rotational constants in cm-1:     0.286883     0.123210     0.094446
Rotational constants in MHz :  8600.540572  3693.747366  2831.415242

                             ****ORCA TERMINATED NORMALLY****
TOTAL RUN TIME: 0 days 0 hours 0 minutes 22 seconds 933 msec
