                         Program Version 5.0.0 -  RELEASE  -
|  1> !LC-PBE RIJCOSX def2-SVPD def2/J TightSCF
|  2> *xyz 0 1
|  3> C         -0.90349       -0.87394       -1.98739
|  4> C         -0.96015       -0.52236       -0.48987
|  5> H         -1.69039       -1.20813       -0.02168
|  6> H         -1.41449        0.48633       -0.40668
|  7> F          0.26170       -0.58031        0.13861
|  8> H         -1.88568       -0.80774       -2.40670
|  9> H         -0.53143       -1.87013       -2.10605
| 10> H         -0.25399       -0.18836       -2.49039
| 11> *
| 12>
| 13> %MaxCore 64000
| 14>
| 15> %pal nprocs 4
| 16> end
| 17>
| 18> %scf
| 19>   MaxIter 150
| 20> end
| 21>
| 22>
| 23>                          ****END OF INPUT****

CARTESIAN COORDINATES (ANGSTROEM)
---------------------------------
  C     -0.903490   -0.873940   -1.987390
  C     -0.960150   -0.522360   -0.489870
  H     -1.690390   -1.208130   -0.021680
  H     -1.414490    0.486330   -0.406680
  F      0.261700   -0.580310    0.138610
  H     -1.885680   -0.807740   -2.406700
  H     -0.531430   -1.870130   -2.106050
  H     -0.253990   -0.188360   -2.490390

 Total Charge           Charge          ....    0
 Multiplicity           Mult            ....    1
 Number of Electrons    NEL             ....   26
 Basis Dimension        Dim             ....  103

ORBITAL ENERGIES
----------------

  NO   OCC          E(Eh)            E(eV)
   0   2.0000     -24.494072      -666.5176
   1   2.0000     -10.210079      -277.8304
   2   2.0000     -10.124776      -275.5092
   3   2.0000      -1.338245       -36.4155
   4   2.0000      -0.935828       -25.4652
   5   2.0000      -0.790268       -21.5043
   6   2.0000      -0.658471       -17.9179
   7   2.0000      -0.650263       -17.6946
   8   2.0000      -0.608042       -16.5457
   9   2.0000      -0.548023       -14.9125
  10   2.0000      -0.539135       -14.6706
  11   2.0000      -0.473525       -12.8853
  12   2.0000      -0.464608       -12.6426
  13   0.0000       0.091078         2.4784
  14   0.0000       0.121313         3.3011
  15   0.0000       0.156257         4.2520
  16   0.0000       0.158642         4.3169
  17   0.0000       0.186729         5.0811

MULLIKEN ATOMIC CHARGES
-----------------------
   0 C :    0.092974
   1 C :    0.226528
   2 H :    0.011440
   3 H :    0.019080
   4 F :   -0.423222
   5 H :    0.042823
   6 H :    0.015565
   7 H :    0.014812
Sum of atomic charges:   -0.0000000

LOEWDIN ATOMIC CHARGES
----------------------
   0 C :    0.101806
   1 C :    0.036384
   2 H :    0.040461
   3 H :    0.042654
   4 F :   -0.213841
   5 H :   -0.001299
   6 H :   -0.003052
   7 H :   -0.003113

  Mayer bond orders larger than 0.100000
B(  0-C ,  1-C ) :   1.3154 B(  0-C ,  5-H ) :   0.8873 B(  0-C ,  6-H ) :   0.9228
B(  0-C ,  7-H ) :   0.9229 B(  1-C ,  2-H ) :   0.9705 B(  1-C ,  3-H ) :   0.9694
B(  1-C ,  4-F ) :   0.8131 B(  1-C ,  6-H ) :   0.1044 B(  1-C ,  7-H ) :   0.1045

FINAL SINGLE POINT ENERGY      -178.438637720787

DIPOLE MOMENT
-------------
                                X             Y             Z
Electronic contribution:      3.16678       0.37884       3.95222
Nuclear contribution   :     -3.84149      -0.36812      -4.38946
                        -----------------------------------------
Total Dipole Moment    :     -0.67471       0.01072      -0.43725
                        -----------------------------------------
Magnitude (a.u.)       :      0.80407
Magnitude (Debye)      :      2.04379

Rotational constants in cm-1:     1.270659     0.299196     0.265842
Rotational constants in MHz : 38093.410361  8969.665806  7969.741481

                             ****ORCA TERMINATED NORMALLY****
TOTAL RUN TIME: 0 days 0 hours 0 minutes 9 seconds 671 msec
