                         Program Version 5.0.0 -  RELEASE  -
|  1> !LC-PBE RIJCOSX def2-SVPD def2/J TightSCF
|  2> *xyz 0 1
|  3> C          4.36645       -0.13321       -1.41606
|  4> C          4.50829       -0.93187       -2.72425
|  5> C          3.05650       -0.32080       -0.70738
|  6> C          2.38983        0.71129       -0.24391
|  7> N          2.51600       -1.50772       -0.55023
|  8> H          2.96768       -2.32291       -0.95631
|  9> H          1.54987       -1.49063       -0.24988
| 10> H          2.74307        1.64947       -0.41280
| 11> H          1.44036        0.50278        0.03703
| 12> H          4.48784        0.93300       -1.61157
| 13> H          5.16967       -0.41443       -0.72982
| 14> H          5.46700       -0.73824       -3.15818
| 15> H          3.74074       -0.63528       -3.40821
| 16> H          4.41574       -1.97727       -2.51573
| 17> *
| 18>
| 19> %MaxCore 64000
| 20>
| 21> %pal nprocs 4
| 22> end
| 23>
| 24> %scf
| 25>   MaxIter 150
| 26> end
| 27>
| 28>
| 29>                          ****END OF INPUT****

CARTESIAN COORDINATES (ANGSTROEM)
---------------------------------
  C      4.366450   -0.133210   -1.416060
  C      4.508290   -0.931870   -2.724250
  C      3.056500   -0.320800   -0.707380
  C      2.389830    0.711290   -0.243910
  N      2.516000   -1.507720   -0.550230
  H      2.967680   -2.322910   -0.956310
  H      1.549870   -1.490630   -0.249880
  H      2.743070    1.649470   -0.412800
  H      1.440360    0.502780    0.037030
  H      4.487840    0.933000   -1.611570
  H      5.169670   -0.414430   -0.729820
  H      5.467000   -0.738240   -3.158180
  H      3.740740   -0.635280   -3.408210
  H      4.415740   -1.977270   -2.515730

 Total Charge           Charge          ....    0
 Multiplicity           Mult            ....    1
 Number of Electrons    NEL             ....   40
 Basis Dimension        Dim             ....  172

ORBITAL ENERGIES
----------------

  NO   OCC          E(Eh)            E(eV)
   0   2.0000     -14.226747      -387.1295
   1   2.0000     -10.150474      -276.2084
   2   2.0000     -10.130287      -275.6591
   3   2.0000     -10.119829      -275.3746
   4   2.0000     -10.057510      -273.6788
   5   2.0000      -1.101350       -29.9693
   6   2.0000      -0.949297       -25.8317
   7   2.0000      -0.888071       -24.1656
   8   2.0000      -0.795859       -21.6564
   9   2.0000      -0.712980       -19.4012
  10   2.0000      -0.682156       -18.5624
  11   2.0000      -0.617649       -16.8071
  12   2.0000      -0.583581       -15.8800
  13   2.0000      -0.572865       -15.5884
  14   2.0000      -0.529321       -14.4036
  15   2.0000      -0.520327       -14.1588
  16   2.0000      -0.489249       -13.3131
  17   2.0000      -0.478067       -13.0089
  18   2.0000      -0.458594       -12.4790
  19   2.0000      -0.309180        -8.4132
  20   0.0000       0.088502         2.4083
  21   0.0000       0.116262         3.1637
  22   0.0000       0.121787         3.3140
  23   0.0000       0.135535         3.6881
  24   0.0000       0.142636         3.8813

MULLIKEN ATOMIC CHARGES
-----------------------
   0 C :   -0.265594
   1 C :    0.494657
   2 C :   -0.215559
   3 C :    0.245249
   4 N :    0.193276
   5 H :   -0.104193
   6 H :   -0.083633
   7 H :   -0.096443
   8 H :   -0.313548
   9 H :    0.192104
  10 H :    0.015470
  11 H :    0.015518
  12 H :    0.009998
  13 H :   -0.087303
Sum of atomic charges:   -0.0000000

LOEWDIN ATOMIC CHARGES
----------------------
   0 C :   -0.045645
   1 C :    0.099149
   2 C :   -0.270341
   3 C :    0.140435
   4 N :    0.153012
   5 H :    0.005254
   6 H :    0.014165
   7 H :   -0.065682
   8 H :   -0.072825
   9 H :    0.032741
  10 H :    0.039081
  11 H :   -0.006179
  12 H :    0.000422
  13 H :   -0.023588

  Mayer bond orders larger than 0.100000
B(  0-C ,  1-C ) :   1.2849 B(  0-C ,  2-C ) :   1.1711 B(  0-C ,  9-H ) :   0.8857
B(  0-C , 10-H ) :   0.8539 B(  0-C , 11-H ) :   0.1707 B(  0-C , 12-H ) :   0.1552
B(  0-C , 13-H ) :   0.1636 B(  1-C , 11-H ) :   0.8373 B(  1-C , 12-H ) :   0.8291
B(  1-C , 13-H ) :   0.8583 B(  2-C ,  3-C ) :   1.9294 B(  2-C ,  4-N ) :   1.2311
B(  2-C ,  8-H ) :   0.2302 B(  2-C , 10-H ) :   0.1793 B(  3-C ,  4-N ) :   0.2510
B(  3-C ,  7-H ) :   1.0080 B(  3-C ,  8-H ) :   0.7266 B(  4-N ,  5-H ) :   1.1009
B(  4-N ,  6-H ) :   1.1613 B(  5-H ,  6-H ) :  -0.1431

FINAL SINGLE POINT ENERGY      -211.690394628955

DIPOLE MOMENT
-------------
                                X             Y             Z
Electronic contribution:     -1.47846      -0.42215       2.05699
Nuclear contribution   :      1.56827      -0.21459      -2.46657
                        -----------------------------------------
Total Dipole Moment    :      0.08980      -0.63674      -0.40959
                        -----------------------------------------
Magnitude (a.u.)       :      0.76240
Magnitude (Debye)      :      1.93787

Rotational constants in cm-1:     0.294070     0.127722     0.097792
Rotational constants in MHz :  8815.983970  3829.010547  2931.715816

                             ****ORCA TERMINATED NORMALLY****
TOTAL RUN TIME: 0 days 0 hours 0 minutes 23 seconds 396 msec
