                         Program Version 5.0.0 -  RELEASE  -
|  1> !LC-PBE RIJCOSX def2-SVPD def2/J TightSCF
|  2> *xyz 0 1
|  3> C          4.36645       -0.13321       -1.41606
|  4> C          4.50829       -0.93187       -2.72425
|  5> C          3.05650       -0.32080       -0.70738
|  6> N          2.38983        0.71129       -0.24391
|  7> C          2.51600       -1.50772       -0.55023
|  8> H          2.96768       -2.32291       -0.95631
|  9> H          1.54987       -1.49063       -0.24988
| 10> H          2.74307        1.64947       -0.41280
| 11> H          1.44036        0.50278        0.03703
| 12> H          4.48784        0.93300       -1.61157
| 13> H          5.16967       -0.41443       -0.72982
| 14> H          5.46700       -0.73824       -3.15818
| 15> H          3.74074       -0.63528       -3.40821
| 16> H          4.41574       -1.97727       -2.51573
| 17> *
| 18>
| 19> %MaxCore 64000
| 20>
| 21> %pal nprocs 4
| 22> end
| 23>
| 24> %scf
| 25>   MaxIter 150
| 26> end
| 27>
| 28>
| 29>                          ****END OF INPUT****

CARTESIAN COORDINATES (ANGSTROEM)
---------------------------------
  C      4.366450   -0.133210   -1.416060
  C      4.508290   -0.931870   -2.724250
  C      3.056500   -0.320800   -0.707380
  N      2.389830    0.711290   -0.243910
  C      2.516000   -1.507720   -0.550230
  H      2.967680   -2.322910   -0.956310
  H      1.549870   -1.490630   -0.249880
  H      2.743070    1.649470   -0.412800
  H      1.440360    0.502780    0.037030
  H      4.487840    0.933000   -1.611570
  H      5.169670   -0.414430   -0.729820
  H      5.467000   -0.738240   -3.158180
  H      3.740740   -0.635280   -3.408210
  H      4.415740   -1.977270   -2.515730

 Total Charge           Charge          ....    0
 Multiplicity           Mult            ....    1
 Number of Electrons    NEL             ....   40
 Basis Dimension        Dim             ....  172

ORBITAL ENERGIES
----------------

  NO   OCC          E(Eh)            E(eV)
   0   2.0000     -14.227450      -387.1486
   1   2.0000     -10.150813      -276.2177
   2   2.0000     -10.131540      -275.6932
   3   2.0000     -10.113240      -275.1952
   4   2.0000     -10.056080      -273.6399
   5   2.0000      -1.101742       -29.9799
   6   2.0000      -0.951452       -25.8903
   7   2.0000      -0.875486       -23.8232
   8   2.0000      -0.806692       -21.9512
   9   2.0000      -0.702668       -19.1206
  10   2.0000      -0.679156       -18.4808
  11   2.0000      -0.625528       -17.0215
  12   2.0000      -0.597172       -16.2499
  13   2.0000      -0.546672       -14.8757
  14   2.0000      -0.528390       -14.3782
  15   2.0000      -0.518608       -14.1120
  16   2.0000      -0.492585       -13.4039
  17   2.0000      -0.472261       -12.8509
  18   2.0000      -0.461190       -12.5496
  19   2.0000      -0.307783        -8.3752
  20   0.0000       0.092392         2.5141
  21   0.0000       0.112884         3.0717
  22   0.0000       0.122237         3.3262
  23   0.0000       0.130123         3.5408
  24   0.0000       0.147838         4.0229

MULLIKEN ATOMIC CHARGES
-----------------------
   0 C :   -0.183618
   1 C :    0.486575
   2 C :   -0.050216
   3 N :    0.096218
   4 C :    0.232291
   5 H :   -0.163376
   6 H :   -0.360861
   7 H :   -0.056886
   8 H :   -0.025251
   9 H :    0.040277
  10 H :    0.023850
  11 H :    0.043431
  12 H :   -0.013476
  13 H :   -0.068956
Sum of atomic charges:    0.0000000

LOEWDIN ATOMIC CHARGES
----------------------
   0 C :   -0.047223
   1 C :    0.102987
   2 C :   -0.263868
   3 N :    0.143984
   4 C :    0.145679
   5 H :   -0.072219
   6 H :   -0.072735
   7 H :    0.012673
   8 H :    0.013480
   9 H :    0.021554
  10 H :    0.040985
  11 H :   -0.007887
  12 H :   -0.000165
  13 H :   -0.017244

  Mayer bond orders larger than 0.100000
B(  0-C ,  1-C ) :   1.2981 B(  0-C ,  2-C ) :   1.0998 B(  0-C ,  9-H ) :   0.8411
B(  0-C , 10-H ) :   0.8832 B(  0-C , 11-H ) :   0.1479 B(  0-C , 12-H ) :   0.1572
B(  0-C , 13-H ) :   0.1472 B(  1-C , 11-H ) :   0.8329 B(  1-C , 12-H ) :   0.8446
B(  1-C , 13-H ) :   0.8778 B(  2-C ,  3-N ) :   1.1556 B(  2-C ,  4-C ) :   1.8771
B(  2-C ,  5-H ) :   0.1058 B(  2-C ,  6-H ) :   0.1897 B(  2-C ,  9-H ) :   0.1629
B(  2-C , 10-H ) :   0.1328 B(  3-N ,  4-C ) :   0.2647 B(  3-N ,  7-H ) :   1.1147
B(  3-N ,  8-H ) :   1.1177 B(  4-C ,  5-H ) :   0.8810 B(  4-C ,  6-H ) :   0.8481
B(  5-H ,  6-H ) :  -0.1028 B(  7-H ,  8-H ) :  -0.1181

FINAL SINGLE POINT ENERGY      -211.689043230390

DIPOLE MOMENT
-------------
                                X             Y             Z
Electronic contribution:     -1.59132       1.45849       2.33466
Nuclear contribution   :      1.59749      -0.72853      -2.53752
                        -----------------------------------------
Total Dipole Moment    :      0.00617       0.72996      -0.20286
                        -----------------------------------------
Magnitude (a.u.)       :      0.75765
Magnitude (Debye)      :      1.92579

Rotational constants in cm-1:     0.304597     0.124127     0.096828
Rotational constants in MHz :  9131.600925  3721.227051  2902.830760

                             ****ORCA TERMINATED NORMALLY****
TOTAL RUN TIME: 0 days 0 hours 0 minutes 26 seconds 49 msec
