                         Program Version 5.0.0 -  RELEASE  -
|  1> !DLPNO-CCSD(T) aug-cc-pVTZ aug-cc-pVTZ/C TightSCF TightPNO RIJCOSX def2/J
|  2> *xyz -1 1
|  3> C         -0.25875        1.00432       -5.40983
|  4> C          0.39596       -0.37070       -5.33994
|  5> O         -0.32633       -1.39040       -5.49128
|  6> O          1.61941       -0.40073       -5.03683
|  7> H         -1.28979        0.89539       -5.67439
|  8> H          0.23798        1.59877       -6.14792
|  9> H         -0.18395        1.48386       -4.45623
| 10> *
| 11> %MaxCore 64000
| 12>
| 13> %pal nprocs 8
| 14> end
| 15>
| 16> %scf
| 17>   MaxIter 150
| 18> end
| 19>
| 20>
| 21>                          ****END OF INPUT****

CARTESIAN COORDINATES (ANGSTROEM)
---------------------------------
  C     -0.258750    1.004320   -5.409830
  C      0.395960   -0.370700   -5.339940
  O     -0.326330   -1.390400   -5.491280
  O      1.619410   -0.400730   -5.036830
  H     -1.289790    0.895390   -5.674390
  H      0.237980    1.598770   -6.147920
  H     -0.183950    1.483860   -4.456230

 Total Charge           Charge          ....   -1
 Multiplicity           Mult            ....    1
 Number of Electrons    NEL             ....   32
 Basis Dimension        Dim             ....  253

ORBITAL ENERGIES
----------------

  NO   OCC          E(Eh)            E(eV)
   0   2.0000     -20.281692      -551.8929
   1   2.0000     -20.277905      -551.7898
   2   2.0000     -11.124785      -302.7208
   3   2.0000     -11.039394      -300.3972
   4   2.0000      -1.157139       -31.4874
   5   2.0000      -1.049155       -28.5490
   6   2.0000      -0.806123       -21.9357
   7   2.0000      -0.511188       -13.9101
   8   2.0000      -0.422525       -11.4975
   9   2.0000      -0.419623       -11.4185
  10   2.0000      -0.412344       -11.2205
  11   2.0000      -0.355376        -9.6703
  12   2.0000      -0.315029        -8.5724
  13   2.0000      -0.197068        -5.3625
  14   2.0000      -0.192111        -5.2276
  15   2.0000      -0.180596        -4.9143
  16   0.0000       0.132444         3.6040
  17   0.0000       0.143224         3.8973
  18   0.0000       0.145190         3.9508
  19   0.0000       0.184245         5.0136
  20   0.0000       0.221283         6.0214

MULLIKEN ATOMIC CHARGES
-----------------------
   0 C :   -0.617978
   1 C :    0.398991
   2 O :   -0.774639
   3 O :   -0.800997
   4 H :    0.295194
   5 H :    0.248706
   6 H :    0.250723
Sum of atomic charges:   -1.0000000

LOEWDIN ATOMIC CHARGES
----------------------
   0 C :    0.481855
   1 C :   -1.229032
   2 O :    0.221809
   3 O :    0.216618
   4 H :   -0.241205
   5 H :   -0.227015
   6 H :   -0.223030

  Mayer bond orders larger than 0.100000
B(  0-C ,  1-C ) :   0.7171 B(  0-C ,  4-H ) :   0.9120 B(  0-C ,  5-H ) :   0.9514
B(  0-C ,  6-H ) :   0.9520 B(  1-C ,  2-O ) :   1.4726 B(  1-C ,  3-O ) :   1.4852

E(0)                                       ...   -227.326693165
E(0)                                       ...   -227.326693165
E(CORR)(strong-pairs)                      ...     -0.836976061
E(CORR)(weak-pairs)                        ...     -0.000619591
E(CORR)(corrected)                         ...     -0.837595653
E(TOT)                                     ...   -228.164288818
E(CCSD(T))                                 ...   -228.200436586
FINAL SINGLE POINT ENERGY      -228.200436586259

DIPOLE MOMENT
-------------
                                X             Y             Z
Electronic contribution:      1.45383      -3.08592       0.16542
Nuclear contribution   :     -2.15615       4.52621      -0.30445
                        -----------------------------------------
Total Dipole Moment    :     -0.70232       1.44029      -0.13902
                        -----------------------------------------
Magnitude (a.u.)       :      1.60842
Magnitude (Debye)      :      4.08827

Rotational constants in cm-1:     0.393591     0.332639     0.186460
Rotational constants in MHz : 11799.557437  9972.275109  5589.926304

                             ****ORCA TERMINATED NORMALLY****
TOTAL RUN TIME: 0 days 0 hours 3 minutes 31 seconds 512 msec
