                         Program Version 5.0.0 -  RELEASE  -
|  1> !DLPNO-CCSD(T) aug-cc-pVTZ aug-cc-pVTZ/C TightSCF TightPNO RIJCOSX def2/J
|  2> *xyz 1 1
|  3> C          0.81607       -2.10149       -2.18655
|  4> N          1.10055       -2.46749       -3.59927
|  5> H          1.70061       -1.75723       -4.07838
|  6> H          0.29386       -2.35977       -4.25632
|  7> H          1.50132       -3.42848       -3.69491
|  8> H          0.40947       -1.11246       -2.14929
|  9> H          1.72290       -2.13590       -1.61965
| 10> H          0.11112       -2.79271       -1.77405
| 11> *
| 12> %MaxCore 64000
| 13>
| 14> %pal nprocs 8
| 15> end
| 16>
| 17> %scf
| 18>   MaxIter 150
| 19> end
| 20>
| 21>
| 22>                          ****END OF INPUT****

CARTESIAN COORDINATES (ANGSTROEM)
---------------------------------
  C      0.816070   -2.101490   -2.186550
  N      1.100550   -2.467490   -3.599270
  H      1.700610   -1.757230   -4.078380
  H      0.293860   -2.359770   -4.256320
  H      1.501320   -3.428480   -3.694910
  H      0.409470   -1.112460   -2.149290
  H      1.722900   -2.135900   -1.619650
  H      0.111120   -2.792710   -1.774050

 Total Charge           Charge          ....    1
 Multiplicity           Mult            ....    1
 Number of Electrons    NEL             ....   18
 Basis Dimension        Dim             ....  230

ORBITAL ENERGIES
----------------

  NO   OCC          E(Eh)            E(eV)
   0   2.0000     -15.917162      -433.1280
   1   2.0000     -11.483569      -312.4838
   2   2.0000      -1.521263       -41.3957
   3   2.0000      -1.181753       -32.1571
   4   2.0000      -0.993012       -27.0212
   5   2.0000      -0.955103       -25.9897
   6   2.0000      -0.876870       -23.8608
   7   2.0000      -0.784466       -21.3464
   8   2.0000      -0.777730       -21.1631
   9   0.0000      -0.128921        -3.5081
  10   0.0000      -0.087356        -2.3771
  11   0.0000      -0.085011        -2.3133
  12   0.0000      -0.083461        -2.2711
  13   0.0000      -0.047368        -1.2889

MULLIKEN ATOMIC CHARGES
-----------------------
   0 C :   -0.777516
   1 N :    0.047786
   2 H :    0.196382
   3 H :    0.177822
   4 H :    0.181845
   5 H :    0.401459
   6 H :    0.379059
   7 H :    0.393163
Sum of atomic charges:    1.0000000

LOEWDIN ATOMIC CHARGES
----------------------
   0 C :    0.685596
   1 N :    1.073010
   2 H :   -0.117816
   3 H :   -0.115320
   4 H :   -0.103212
   5 H :   -0.140756
   6 H :   -0.140303
   7 H :   -0.141200

  Mayer bond orders larger than 0.100000
B(  0-C ,  1-N ) :   0.7960 B(  0-C ,  5-H ) :   0.8424 B(  0-C ,  6-H ) :   0.8649
B(  0-C ,  7-H ) :   0.8492 B(  1-N ,  2-H ) :   0.9622 B(  1-N ,  3-H ) :   0.9803
B(  1-N ,  4-H ) :   0.9830

E(0)                                       ...    -95.610809138
E(0)                                       ...    -95.610809138
E(CORR)(strong-pairs)                      ...     -0.430747092
E(CORR)(weak-pairs)                        ...     -0.000230965
E(CORR)(corrected)                         ...     -0.430978057
E(TOT)                                     ...    -96.041787195
E(CCSD(T))                                 ...    -96.055455234
FINAL SINGLE POINT ENERGY       -96.055455234011

DIPOLE MOMENT
-------------
                                X             Y             Z
Electronic contribution:      0.21158      -0.30846      -0.96376
Nuclear contribution   :     -0.05716       0.15480       0.08012
                        -----------------------------------------
Total Dipole Moment    :      0.15442      -0.15366      -0.88364
                        -----------------------------------------
Magnitude (a.u.)       :      0.91010
Magnitude (Debye)      :      2.31328

Rotational constants in cm-1:     2.875975     0.681325     0.670600
Rotational constants in MHz : 86219.567947 20425.600745 20104.086440

                             ****ORCA TERMINATED NORMALLY****
TOTAL RUN TIME: 0 days 0 hours 1 minutes 29 seconds 394 msec
