                         Program Version 5.0.0 -  RELEASE  -
|  1> !DLPNO-CCSD(T) aug-cc-pVTZ aug-cc-pVTZ/C TightSCF TightPNO RIJCOSX def2/J
|  2>
|  3> *xyzfile 0 1 B.xyz
|  4>
|  5> %MaxCore 64000
|  6>
|  7> %pal nprocs 18
|  8> end
|  9>
| 10> %scf
| 11>   MaxIter 150
| 12> end
| 13>
| 14>
| 15>                          ****END OF INPUT****

CARTESIAN COORDINATES (ANGSTROEM)
---------------------------------
  C      0.816067   -2.101491   -2.186546
  H      1.696232   -2.368691   -1.600457
  N      1.100552   -2.467492   -3.599269
  C      0.516243   -0.613634   -2.039373
  H     -0.020066   -2.712849   -1.840844
  C     -0.868621   -0.193925   -2.546303
  C     -0.984801    1.284739   -2.928686
  H     -0.764939    1.904116   -2.051568
  H     -2.032613    1.478953   -3.178952
  C     -0.106085    1.769914   -4.089836
  H     -0.347744    2.822196   -4.262942
  H      0.949683    1.745875   -3.808781
  C     -0.258747    1.004323   -5.409829
  C      0.395958   -0.370696   -5.339939
  H      0.239150    1.569393   -6.201253
  H     -1.309360    0.888694   -5.682455
  H      1.700606   -1.757225   -4.078378
  H      0.293855   -2.359766   -4.256324
  H      1.501324   -3.428479   -3.694915
  O     -0.326329   -1.390398   -5.491279
  O      1.619412   -0.400726   -5.036827
  H     -1.607271   -0.412651   -1.768955
  H     -1.157234   -0.796164   -3.409254
  H      1.299044   -0.056805   -2.558982
  H      0.612393   -0.365579   -0.979171

 Total Charge           Charge          ....    0
 Multiplicity           Mult            ....    1
 Number of Electrons    NEL             ....   80
 Basis Dimension        Dim             ....  805

ORBITAL ENERGIES
----------------

  NO   OCC          E(Eh)            E(eV)
   0   2.0000     -20.480034      -557.2901
   1   2.0000     -20.479465      -557.2746
   2   2.0000     -15.652945      -425.9383
   3   2.0000     -11.316118      -307.9272
   4   2.0000     -11.301858      -307.5392
   5   2.0000     -11.237968      -305.8007
   6   2.0000     -11.219711      -305.3039
   7   2.0000     -11.216229      -305.2091
   8   2.0000     -11.209588      -305.0284
   9   2.0000     -11.201403      -304.8057
  10   2.0000      -1.372583       -37.3499
  11   2.0000      -1.285094       -34.9692
  12   2.0000      -1.259554       -34.2742
  13   2.0000      -1.093686       -29.7607
  14   2.0000      -1.040845       -28.3228
  15   2.0000      -0.980772       -26.6882
  16   2.0000      -0.899280       -24.4707
  17   2.0000      -0.851059       -23.1585
  18   2.0000      -0.775854       -21.1121
  19   2.0000      -0.755044       -20.5458
  20   2.0000      -0.729377       -19.8473
  21   2.0000      -0.701633       -19.0924
  22   2.0000      -0.667969       -18.1763
  23   2.0000      -0.638365       -17.3708
  24   2.0000      -0.627643       -17.0790
  25   2.0000      -0.616819       -16.7845
  26   2.0000      -0.594617       -16.1804
  27   2.0000      -0.580856       -15.8059
  28   2.0000      -0.565708       -15.3937
  29   2.0000      -0.544719       -14.8226
  30   2.0000      -0.539772       -14.6880
  31   2.0000      -0.522110       -14.2073
  32   2.0000      -0.501325       -13.6417
  33   2.0000      -0.493263       -13.4224
  34   2.0000      -0.463590       -12.6149
  35   2.0000      -0.449340       -12.2272
  36   2.0000      -0.444601       -12.0982
  37   2.0000      -0.399575       -10.8730
  38   2.0000      -0.389239       -10.5917
  39   2.0000      -0.384798       -10.4709
  40   0.0000       0.015199         0.4136
  41   0.0000       0.028539         0.7766
  42   0.0000       0.032737         0.8908
  43   0.0000       0.036981         1.0063
  44   0.0000       0.047537         1.2935

MULLIKEN ATOMIC CHARGES
-----------------------
   0 C :   -0.549480
   1 H :    0.299154
   2 N :    0.021652
   3 C :   -0.375664
   4 H :    0.275525
   5 C :   -0.430272
   6 C :   -0.562710
   7 H :    0.228609
   8 H :    0.187651
   9 C :   -0.354758
  10 H :    0.330500
  11 H :    0.198327
  12 C :   -0.437072
  13 C :    1.286755
  14 H :    0.287319
  15 H :    0.246335
  16 H :    0.168607
  17 H :    0.132271
  18 H :    0.048344
  19 O :   -1.052207
  20 O :   -1.025601
  21 H :    0.461236
  22 H :    0.093395
  23 H :    0.122724
  24 H :    0.399361
Sum of atomic charges:   -0.0000000

LOEWDIN ATOMIC CHARGES
----------------------
   0 C :    0.320033
   1 H :   -0.127810
   2 N :    1.037711
   3 C :    0.317289
   4 H :   -0.120821
   5 C :    0.297807
   6 C :    0.302335
   7 H :   -0.140192
   8 H :   -0.142614
   9 C :    0.277734
  10 H :   -0.145097
  11 H :   -0.168487
  12 C :    0.268843
  13 C :   -0.978470
  14 H :   -0.155012
  15 H :   -0.163333
  16 H :   -0.450164
  17 H :   -0.435952
  18 H :   -0.106488
  19 O :    0.475842
  20 O :    0.487997
  21 H :   -0.135603
  22 H :   -0.206165
  23 H :   -0.176676
  24 H :   -0.132706

  Mayer bond orders larger than 0.100000
B(  0-C ,  1-H ) :   0.9474 B(  0-C ,  2-N ) :   0.7939 B(  0-C ,  3-C ) :   0.9134
B(  0-C ,  4-H ) :   0.9504 B(  2-N , 16-H ) :   0.8635 B(  2-N , 17-H ) :   0.9293
B(  2-N , 18-H ) :   1.1333 B(  3-C ,  5-C ) :   0.7882 B(  3-C , 23-H ) :   1.1302
B(  3-C , 24-H ) :   0.7804 B(  5-C ,  6-C ) :   0.9156 B(  5-C , 21-H ) :   0.7537
B(  5-C , 22-H ) :   1.1422 B(  6-C ,  7-H ) :   0.9937 B(  6-C ,  8-H ) :   1.0255
B(  6-C ,  9-C ) :   0.7790 B(  9-C , 10-H ) :   0.8865 B(  9-C , 11-H ) :   1.0447
B(  9-C , 12-C ) :   0.9221 B( 12-C , 13-C ) :   0.7959 B( 12-C , 14-H ) :   0.9552
B( 12-C , 15-H ) :   0.9852 B( 13-C , 19-O ) :   0.9331 B( 13-C , 20-O ) :   0.9318
B( 16-H , 20-O ) :   0.2035 B( 17-H , 19-O ) :   0.1599

E(0)                                       ...   -478.158603370
E(0)                                       ...   -478.158603370
E(CORR)(strong-pairs)                      ...     -1.998361723
E(CORR)(weak-pairs)                        ...     -0.002732733
E(CORR)(corrected)                         ...     -2.001094457
E(TOT)                                     ...   -480.159697827
E(CCSD(T))                                 ...   -480.243905393
FINAL SINGLE POINT ENERGY      -480.243905392715

DIPOLE MOMENT
-------------
                                X             Y             Z
Electronic contribution:      2.27161      -3.08668      -6.15862
Nuclear contribution   :     -2.02598       1.95876       8.24116
                        -----------------------------------------
Total Dipole Moment    :      0.24563      -1.12792       2.08254
                        -----------------------------------------
Magnitude (a.u.)       :      2.38108
Magnitude (Debye)      :      6.05221

Rotational constants in cm-1:     0.052900     0.041948     0.028766
Rotational constants in MHz :  1585.892512  1257.572595   862.390225

                             ****ORCA TERMINATED NORMALLY****
TOTAL RUN TIME: 0 days 2 hours 12 minutes 47 seconds 498 msec
