                         Program Version 5.0.0 -  RELEASE  -
|  1> !DLPNO-CCSD(T) aug-cc-pVTZ aug-cc-pVTZ/C TightSCF TightPNO RIJCOSX def2/J
|  2> *xyz 0 1
|  3> C         -0.25875        1.00432       -5.40983
|  4> C          0.39596       -0.37070       -5.33994
|  5> F         -0.32633       -1.39040       -5.49128
|  6> O          1.61941       -0.40073       -5.03683
|  7> H         -1.28979        0.89539       -5.67439
|  8> H          0.23798        1.59877       -6.14792
|  9> H         -0.18395        1.48386       -4.45623
| 10> *
| 11> %MaxCore 64000
| 12>
| 13> %pal nprocs 8
| 14> end
| 15>
| 16> %scf
| 17>   MaxIter 150
| 18> end
| 19>
| 20>
| 21>                          ****END OF INPUT****

CARTESIAN COORDINATES (ANGSTROEM)
---------------------------------
  C     -0.258750    1.004320   -5.409830
  C      0.395960   -0.370700   -5.339940
  F     -0.326330   -1.390400   -5.491280
  O      1.619410   -0.400730   -5.036830
  H     -1.289790    0.895390   -5.674390
  H      0.237980    1.598770   -6.147920
  H     -0.183950    1.483860   -4.456230

 Total Charge           Charge          ....    0
 Multiplicity           Mult            ....    1
 Number of Electrons    NEL             ....   32
 Basis Dimension        Dim             ....  253

ORBITAL ENERGIES
----------------

  NO   OCC          E(Eh)            E(eV)
   0   2.0000     -26.379127      -717.8125
   1   2.0000     -20.563805      -559.5696
   2   2.0000     -11.436672      -311.2077
   3   2.0000     -11.257733      -306.3385
   4   2.0000      -1.731028       -47.1037
   5   2.0000      -1.372609       -37.3506
   6   2.0000      -1.043643       -28.3990
   7   2.0000      -0.901534       -24.5320
   8   2.0000      -0.779219       -21.2036
   9   2.0000      -0.770867       -20.9764
  10   2.0000      -0.710962       -19.3463
  11   2.0000      -0.616064       -16.7640
  12   2.0000      -0.600882       -16.3508
  13   2.0000      -0.587661       -15.9911
  14   2.0000      -0.493995       -13.4423
  15   2.0000      -0.469638       -12.7795
  16   0.0000       0.025365         0.6902
  17   0.0000       0.044447         1.2095
  18   0.0000       0.044664         1.2154
  19   0.0000       0.062677         1.7055
  20   0.0000       0.097486         2.6527

MULLIKEN ATOMIC CHARGES
-----------------------
   0 C :   -0.670086
   1 C :    0.541614
   2 F :   -0.232478
   3 O :   -0.591197
   4 H :    0.321813
   5 H :    0.315100
   6 H :    0.315233
Sum of atomic charges:   -0.0000000

LOEWDIN ATOMIC CHARGES
----------------------
   0 C :    0.583316
   1 C :   -0.924348
   2 F :    0.569002
   3 O :    0.364277
   4 H :   -0.210061
   5 H :   -0.192253
   6 H :   -0.189934

  Mayer bond orders larger than 0.100000
B(  0-C ,  1-C ) :   0.7920 B(  0-C ,  4-H ) :   0.9020 B(  0-C ,  5-H ) :   0.9039
B(  0-C ,  6-H ) :   0.8999 B(  1-C ,  2-F ) :   0.9363 B(  1-C ,  3-O ) :   1.7386

E(0)                                       ...   -251.878490819
E(0)                                       ...   -251.878490819
E(CORR)(strong-pairs)                      ...     -0.838553821
E(CORR)(weak-pairs)                        ...     -0.000614630
E(CORR)(corrected)                         ...     -0.839168451
E(TOT)                                     ...   -252.717659270
E(CCSD(T))                                 ...   -252.750441591
FINAL SINGLE POINT ENERGY      -252.750441590908

DIPOLE MOMENT
-------------
                                X             Y             Z
Electronic contribution:      0.31849      -4.96730      -0.12916
Nuclear contribution   :     -1.44986       5.66477      -0.12483
                        -----------------------------------------
Total Dipole Moment    :     -1.13137       0.69747      -0.25399
                        -----------------------------------------
Magnitude (a.u.)       :      1.35314
Magnitude (Debye)      :      3.43940

Rotational constants in cm-1:     0.371735     0.317798     0.176902
Rotational constants in MHz : 11144.324945  9527.341239  5303.391856

                             ****ORCA TERMINATED NORMALLY****
TOTAL RUN TIME: 0 days 0 hours 3 minutes 14 seconds 356 msec
