                         Program Version 5.0.0 -  RELEASE  -
|  1> !DLPNO-CCSD(T) aug-cc-pVTZ aug-cc-pVTZ/C TightSCF TightPNO RIJCOSX def2/J
|  2> *xyz 0 1
|  3> C          0.81607       -2.10149       -2.18655
|  4> C          1.10055       -2.46749       -3.59927
|  5> H          1.70061       -1.75723       -4.07838
|  6> H          0.29386       -2.35977       -4.25632
|  7> H          1.50132       -3.42848       -3.69491
|  8> H          0.40947       -1.11246       -2.14929
|  9> H          1.72290       -2.13590       -1.61965
| 10> H          0.11112       -2.79271       -1.77405
| 11> *
| 12> %MaxCore 64000
| 13>
| 14> %pal nprocs 8
| 15> end
| 16>
| 17> %scf
| 18>   MaxIter 150
| 19> end
| 20>
| 21>
| 22>                          ****END OF INPUT****

CARTESIAN COORDINATES (ANGSTROEM)
---------------------------------
  C      0.816070   -2.101490   -2.186550
  C      1.100550   -2.467490   -3.599270
  H      1.700610   -1.757230   -4.078380
  H      0.293860   -2.359770   -4.256320
  H      1.501320   -3.428480   -3.694910
  H      0.409470   -1.112460   -2.149290
  H      1.722900   -2.135900   -1.619650
  H      0.111120   -2.792710   -1.774050

 Total Charge           Charge          ....    0
 Multiplicity           Mult            ....    1
 Number of Electrons    NEL             ....   18
 Basis Dimension        Dim             ....  230

ORBITAL ENERGIES
----------------

  NO   OCC          E(Eh)            E(eV)
   0   2.0000     -11.199555      -304.7554
   1   2.0000     -11.188109      -304.4439
   2   2.0000      -1.035657       -28.1817
   3   2.0000      -0.853745       -23.2316
   4   2.0000      -0.620596       -16.8873
   5   2.0000      -0.598463       -16.2850
   6   2.0000      -0.520532       -14.1644
   7   2.0000      -0.499695       -13.5974
   8   2.0000      -0.475363       -12.9353
   9   0.0000       0.032932         0.8961
  10   0.0000       0.042988         1.1698
  11   0.0000       0.043733         1.1900
  12   0.0000       0.044555         1.2124
  13   0.0000       0.068064         1.8521

MULLIKEN ATOMIC CHARGES
-----------------------
   0 C :   -0.822505
   1 C :   -0.972272
   2 H :    0.306928
   3 H :    0.292959
   4 H :    0.331816
   5 H :    0.313090
   6 H :    0.267338
   7 H :    0.282646
Sum of atomic charges:   -0.0000000

LOEWDIN ATOMIC CHARGES
----------------------
   0 C :    0.582642
   1 C :    0.583654
   2 H :   -0.210240
   3 H :   -0.208595
   4 H :   -0.193578
   5 H :   -0.184104
   6 H :   -0.184240
   7 H :   -0.185539

  Mayer bond orders larger than 0.100000
B(  0-C ,  1-C ) :   0.7851 B(  0-C ,  5-H ) :   0.9166 B(  0-C ,  6-H ) :   0.9546
B(  0-C ,  7-H ) :   0.9386 B(  1-C ,  2-H ) :   0.9193 B(  1-C ,  3-H ) :   0.9350
B(  1-C ,  4-H ) :   0.8884

E(0)                                       ...    -79.250614483
E(0)                                       ...    -79.250614483
E(CORR)(strong-pairs)                      ...     -0.404402217
E(CORR)(weak-pairs)                        ...     -0.000232472
E(CORR)(corrected)                         ...     -0.404634688
E(TOT)                                     ...    -79.655249171
E(CCSD(T))                                 ...    -79.668398828
FINAL SINGLE POINT ENERGY       -79.668398828308

DIPOLE MOMENT
-------------
                                X             Y             Z
Electronic contribution:      0.00519      -0.07409       0.13125
Nuclear contribution   :     -0.00793       0.09023      -0.16124
                        -----------------------------------------
Total Dipole Moment    :     -0.00274       0.01614      -0.02999
                        -----------------------------------------
Magnitude (a.u.)       :      0.03417
Magnitude (Debye)      :      0.08685

Rotational constants in cm-1:     2.876169     0.710562     0.698917
Rotational constants in MHz : 86225.370734 21302.115394 20952.991121

                             ****ORCA TERMINATED NORMALLY****
TOTAL RUN TIME: 0 days 0 hours 1 minutes 40 seconds 799 msec
