                         Program Version 5.0.0 -  RELEASE  -
|  1> !M062X D3Zero RIJCOSX def2-TZVP def2/J TightSCF
|  2> *xyz -1 1
|  3> C         -0.90349       -0.87394       -1.98739
|  4> C         -0.96015       -0.52236       -0.48987
|  5> H         -1.69039       -1.20813       -0.02168
|  6> H         -1.41449        0.48633       -0.40668
|  7> O          0.26170       -0.58031        0.13861
|  8> H         -1.88568       -0.80774       -2.40670
|  9> H         -0.53143       -1.87013       -2.10605
| 10> H         -0.25399       -0.18836       -2.49039
| 11> *
| 12>
| 13> %MaxCore 64000
| 14>
| 15> %pal nprocs 4
| 16> end
| 17>
| 18> %scf
| 19>   MaxIter 150
| 20> end
| 21>
| 22>
| 23>                          ****END OF INPUT****

CARTESIAN COORDINATES (ANGSTROEM)
---------------------------------
  C     -0.903490   -0.873940   -1.987390
  C     -0.960150   -0.522360   -0.489870
  H     -1.690390   -1.208130   -0.021680
  H     -1.414490    0.486330   -0.406680
  O      0.261700   -0.580310    0.138610
  H     -1.885680   -0.807740   -2.406700
  H     -0.531430   -1.870130   -2.106050
  H     -0.253990   -0.188360   -2.490390

 Total Charge           Charge          ....   -1
 Multiplicity           Mult            ....    1
 Number of Electrons    NEL             ....   26
 Basis Dimension        Dim             ....  123

ORBITAL ENERGIES
----------------

  NO   OCC          E(Eh)            E(eV)
   0   2.0000     -19.266126      -524.2580
   1   2.0000     -10.336789      -281.2783
   2   2.0000     -10.317227      -280.7460
   3   2.0000      -0.775472       -21.1017
   4   2.0000      -0.613947       -16.7063
   5   2.0000      -0.447793       -12.1851
   6   2.0000      -0.312057        -8.4915
   7   2.0000      -0.288704        -7.8560
   8   2.0000      -0.227547        -6.1919
   9   2.0000      -0.213179        -5.8009
  10   2.0000      -0.163549        -4.4504
  11   2.0000      -0.021667        -0.5896
  12   2.0000      -0.019409        -0.5281
  13   0.0000       0.251515         6.8441
  14   0.0000       0.289348         7.8736
  15   0.0000       0.314431         8.5561
  16   0.0000       0.315179         8.5765
  17   0.0000       0.347639         9.4597

MULLIKEN ATOMIC CHARGES
-----------------------
   0 C :   -0.275879
   1 C :   -0.003190
   2 H :   -0.024186
   3 H :   -0.025980
   4 O :   -0.813587
   5 H :    0.015740
   6 H :    0.063360
   7 H :    0.063723
Sum of atomic charges:   -1.0000000

LOEWDIN ATOMIC CHARGES
----------------------
   0 C :   -0.367569
   1 C :   -0.551340
   2 H :    0.059419
   3 H :    0.059169
   4 O :   -0.458185
   5 H :    0.078259
   6 H :    0.090114
   7 H :    0.090134

  Mayer bond orders larger than 0.100000
B(  0-C ,  1-C ) :   0.8771 B(  0-C ,  4-O ) :  -0.1781 B(  0-C ,  5-H ) :   0.9480
B(  0-C ,  6-H ) :   0.9742 B(  0-C ,  7-H ) :   0.9743 B(  1-C ,  2-H ) :   0.9461
B(  1-C ,  3-H ) :   0.9452 B(  1-C ,  4-O ) :   1.5245

Dispersion correction           -0.000015280
FINAL SINGLE POINT ENERGY      -154.401574621990

DIPOLE MOMENT
-------------
                                X             Y             Z
Electronic contribution:      1.95261       0.16702       2.15879
Nuclear contribution   :     -2.90669      -0.27617      -3.31210
                        -----------------------------------------
Total Dipole Moment    :     -0.95408      -0.10914      -1.15331
                        -----------------------------------------
Magnitude (a.u.)       :      1.50077
Magnitude (Debye)      :      3.81465

Rotational constants in cm-1:     1.291883     0.321656     0.284469
Rotational constants in MHz : 38729.676116  9643.011620  8528.167295

                             ****ORCA TERMINATED NORMALLY****
TOTAL RUN TIME: 0 days 0 hours 0 minutes 15 seconds 872 msec
