                         Program Version 5.0.0 -  RELEASE  -
|  1> !M062X D3Zero RIJCOSX def2-TZVP def2/J TightSCF
|  2> *xyz 1 1
|  3> C          4.36645       -0.13321       -1.41606
|  4> C          4.50829       -0.93187       -2.72425
|  5> C          3.05650       -0.32080       -0.70738
|  6> N          2.38983        0.71129       -0.24391
|  7> N          2.51600       -1.50772       -0.55023
|  8> H          2.96768       -2.32291       -0.95631
|  9> H          1.54987       -1.49063       -0.24988
| 10> H          2.74307        1.64947       -0.41280
| 11> H          1.44036        0.50278        0.03703
| 12> H          4.48784        0.93300       -1.61157
| 13> H          5.16967       -0.41443       -0.72982
| 14> H          5.46700       -0.73824       -3.15818
| 15> H          3.74074       -0.63528       -3.40821
| 16> H          4.41574       -1.97727       -2.51573
| 17> *
| 18>
| 19> %MaxCore 64000
| 20>
| 21> %pal nprocs 4
| 22> end
| 23>
| 24> %scf
| 25>   MaxIter 150
| 26> end
| 27>
| 28>
| 29>                          ****END OF INPUT****

CARTESIAN COORDINATES (ANGSTROEM)
---------------------------------
  C      4.366450   -0.133210   -1.416060
  C      4.508290   -0.931870   -2.724250
  C      3.056500   -0.320800   -0.707380
  N      2.389830    0.711290   -0.243910
  N      2.516000   -1.507720   -0.550230
  H      2.967680   -2.322910   -0.956310
  H      1.549870   -1.490630   -0.249880
  H      2.743070    1.649470   -0.412800
  H      1.440360    0.502780    0.037030
  H      4.487840    0.933000   -1.611570
  H      5.169670   -0.414430   -0.729820
  H      5.467000   -0.738240   -3.158180
  H      3.740740   -0.635280   -3.408210
  H      4.415740   -1.977270   -2.515730

 Total Charge           Charge          ....    1
 Multiplicity           Mult            ....    1
 Number of Electrons    NEL             ....   40
 Basis Dimension        Dim             ....  209

ORBITAL ENERGIES
----------------

  NO   OCC          E(Eh)            E(eV)
   0   2.0000     -14.995071      -408.0366
   1   2.0000     -14.993732      -408.0002
   2   2.0000     -10.862770      -295.5910
   3   2.0000     -10.737878      -292.1925
   4   2.0000     -10.694106      -291.0014
   5   2.0000      -1.325698       -36.0741
   6   2.0000      -1.212538       -32.9948
   7   2.0000      -1.068987       -29.0886
   8   2.0000      -0.950273       -25.8582
   9   2.0000      -0.901480       -24.5305
  10   2.0000      -0.846870       -23.0445
  11   2.0000      -0.832752       -22.6603
  12   2.0000      -0.773609       -21.0510
  13   2.0000      -0.735011       -20.0007
  14   2.0000      -0.696461       -18.9517
  15   2.0000      -0.672204       -18.2916
  16   2.0000      -0.617868       -16.8130
  17   2.0000      -0.604822       -16.4580
  18   2.0000      -0.590967       -16.0810
  19   2.0000      -0.557147       -15.1607
  20   0.0000      -0.171422        -4.6646
  21   0.0000      -0.132412        -3.6031
  22   0.0000      -0.087556        -2.3825
  23   0.0000      -0.085747        -2.3333
  24   0.0000      -0.048383        -1.3166

MULLIKEN ATOMIC CHARGES
-----------------------
   0 C :   -0.314680
   1 C :   -0.403377
   2 C :    0.440881
   3 N :   -0.392653
   4 N :   -0.388968
   5 H :    0.312420
   6 H :    0.280346
   7 H :    0.314476
   8 H :    0.277487
   9 H :    0.163939
  10 H :    0.213451
  11 H :    0.190017
  12 H :    0.173523
  13 H :    0.133135
Sum of atomic charges:    1.0000000

LOEWDIN ATOMIC CHARGES
----------------------
   0 C :   -0.219207
   1 C :   -0.262286
   2 C :   -0.291539
   3 N :    0.107343
   4 N :    0.107165
   5 H :    0.211231
   6 H :    0.202659
   7 H :    0.213534
   8 H :    0.201798
   9 H :    0.160482
  10 H :    0.175974
  11 H :    0.140718
  12 H :    0.131678
  13 H :    0.120448

  Mayer bond orders larger than 0.100000
B(  0-C ,  1-C ) :   0.9446 B(  0-C ,  2-C ) :   0.9506 B(  0-C ,  9-H ) :   0.9692
B(  0-C , 10-H ) :   0.9306 B(  1-C , 11-H ) :   0.9634 B(  1-C , 12-H ) :   0.9606
B(  1-C , 13-H ) :   0.9630 B(  2-C ,  3-N ) :   1.4164 B(  2-C ,  4-N ) :   1.3959
B(  3-N ,  7-H ) :   0.8836 B(  3-N ,  8-H ) :   0.8993 B(  4-N ,  5-H ) :   0.8875
B(  4-N ,  6-H ) :   0.8972

Dispersion correction           -0.000199306
FINAL SINGLE POINT ENERGY      -228.997913166019

DIPOLE MOMENT
-------------
                                X             Y             Z
Electronic contribution:     -2.66213       0.63298       3.10352
Nuclear contribution   :      1.78847      -0.48174      -2.67127
                        -----------------------------------------
Total Dipole Moment    :     -0.87366       0.15124       0.43224
                        -----------------------------------------
Magnitude (a.u.)       :      0.98640
Magnitude (Debye)      :      2.50724

Rotational constants in cm-1:     0.286883     0.123210     0.094446
Rotational constants in MHz :  8600.540572  3693.747366  2831.415242

                             ****ORCA TERMINATED NORMALLY****
TOTAL RUN TIME: 0 days 0 hours 0 minutes 27 seconds 868 msec
