                         Program Version 5.0.0 -  RELEASE  -
|  1> !M062X D3Zero RIJCOSX def2-TZVP def2/J TightSCF xyzfile
|  2>
|  3> *xyzfile 0 1 B.xyz
|  4>
|  5> %MaxCore 64000
|  6>
|  7> %pal nprocs 18
|  8> end
|  9>
| 10> %scf
| 11>   MaxIter 150
| 12> end
| 13>
| 14>
| 15>                          ****END OF INPUT****

CARTESIAN COORDINATES (ANGSTROEM)
---------------------------------
  C      4.366454   -0.133215   -1.416062
  C      4.508292   -0.931872   -2.724249
  H      4.753716   -1.972051   -2.488408
  C      3.294164   -0.918214   -3.656570
  H      5.385637   -0.536236   -3.242640
  H      2.483463   -1.477378   -3.185764
  H      3.553092   -1.478495   -4.560331
  C      2.772335    0.460100   -4.051448
  H      2.608762    1.065107   -3.155194
  C      1.465354    0.410537   -4.853644
  H      3.532940    0.988848   -4.635671
  C      0.326171   -0.375613   -4.192580
  H      1.666704   -0.022269   -5.839323
  H      1.138198    1.439246   -5.035449
  C     -0.017405    0.080588   -2.778406
  H      0.585573   -1.439385   -4.168057
  H     -0.560005   -0.311425   -4.831461
  H      0.902090    0.201296   -2.206729
  C     -0.903495   -0.873945   -1.987388
  H     -0.479549    1.074657   -2.811915
  H     -0.502554   -1.892096   -2.081204
  H     -1.917039   -0.895427   -2.406277
  C     -0.960148   -0.522365   -0.489867
  H     -1.690392   -1.208130   -0.021677
  H     -1.414490    0.486329   -0.406677
  O      0.261703   -0.580307    0.138611
  C      3.056503   -0.320797   -0.707384
  N      2.389825    0.711285   -0.243909
  N      2.515999   -1.507721   -0.550229
  H      2.967683   -2.322915   -0.956305
  H      1.549872   -1.490634   -0.249876
  H      2.743071    1.649471   -0.412802
  H      1.440364    0.502778    0.037031
  H      4.487835    0.932997   -1.611569
  H      5.169672   -0.414432   -0.729817

 Total Charge           Charge          ....    0
 Multiplicity           Mult            ....    1
 Number of Electrons    NEL             ....  104
 Basis Dimension        Dim             ....  535

ORBITAL ENERGIES
----------------

  NO   OCC          E(Eh)            E(eV)
   0   2.0000     -19.494558      -530.4739
   1   2.0000     -14.776527      -402.0897
   2   2.0000     -14.776333      -402.0845
   3   2.0000     -10.665053      -290.2109
   4   2.0000     -10.581426      -287.9352
   5   2.0000     -10.565664      -287.5063
   6   2.0000     -10.544072      -286.9188
   7   2.0000     -10.537324      -286.7352
   8   2.0000     -10.528292      -286.4894
   9   2.0000     -10.517185      -286.1871
  10   2.0000     -10.514322      -286.1092
  11   2.0000     -10.503596      -285.8174
  12   2.0000     -10.489704      -285.4394
  13   2.0000      -1.120690       -30.4955
  14   2.0000      -1.005826       -27.3699
  15   2.0000      -1.004439       -27.3322
  16   2.0000      -0.935276       -25.4501
  17   2.0000      -0.897435       -24.4204
  18   2.0000      -0.855863       -23.2892
  19   2.0000      -0.813499       -22.1364
  20   2.0000      -0.772977       -21.0338
  21   2.0000      -0.725548       -19.7432
  22   2.0000      -0.707784       -19.2598
  23   2.0000      -0.693299       -18.8656
  24   2.0000      -0.648395       -17.6437
  25   2.0000      -0.633483       -17.2379
  26   2.0000      -0.627575       -17.0772
  27   2.0000      -0.606179       -16.4950
  28   2.0000      -0.575652       -15.6643
  29   2.0000      -0.571891       -15.5620
  30   2.0000      -0.555110       -15.1053
  31   2.0000      -0.533045       -14.5049
  32   2.0000      -0.517217       -14.0742
  33   2.0000      -0.496436       -13.5087
  34   2.0000      -0.487040       -13.2530
  35   2.0000      -0.480027       -13.0622
  36   2.0000      -0.474065       -12.9000
  37   2.0000      -0.469340       -12.7714
  38   2.0000      -0.445709       -12.1284
  39   2.0000      -0.435427       -11.8486
  40   2.0000      -0.424615       -11.5544
  41   2.0000      -0.415444       -11.3048
  42   2.0000      -0.404433       -11.0052
  43   2.0000      -0.400420       -10.8960
  44   2.0000      -0.381643       -10.3850
  45   2.0000      -0.373377       -10.1601
  46   2.0000      -0.362606        -9.8670
  47   2.0000      -0.359019        -9.7694
  48   2.0000      -0.355454        -9.6724
  49   2.0000      -0.345515        -9.4019
  50   2.0000      -0.247869        -6.7449
  51   2.0000      -0.243831        -6.6350
  52   0.0000       0.013616         0.3705
  53   0.0000       0.032716         0.8903
  54   0.0000       0.049656         1.3512
  55   0.0000       0.070899         1.9293
  56   0.0000       0.079043         2.1509

MULLIKEN ATOMIC CHARGES
-----------------------
   0 C :   -0.324407
   1 C :   -0.383437
   2 H :    0.178799
   3 C :   -0.262953
   4 H :    0.163577
   5 H :    0.150651
   6 H :    0.157906
   7 C :   -0.301115
   8 H :    0.142615
   9 C :   -0.267455
  10 H :    0.149581
  11 C :   -0.304015
  12 H :    0.146261
  13 H :    0.147112
  14 C :   -0.241017
  15 H :    0.153850
  16 H :    0.145578
  17 H :    0.041989
  18 C :   -0.229385
  19 H :    0.142070
  20 H :    0.106972
  21 H :    0.111276
  22 C :   -0.011543
  23 H :    0.079798
  24 H :    0.071058
  25 O :   -0.791940
  26 C :    0.345104
  27 N :   -0.420473
  28 N :   -0.411909
  29 H :    0.257475
  30 H :    0.315103
  31 H :    0.252820
  32 H :    0.332471
  33 H :    0.172257
  34 H :    0.185325
Sum of atomic charges:   -0.0000000

LOEWDIN ATOMIC CHARGES
----------------------
   0 C :   -0.219713
   1 C :   -0.263892
   2 H :    0.139300
   3 C :   -0.272758
   4 H :    0.146253
   5 H :    0.140002
   6 H :    0.143668
   7 C :   -0.274285
   8 H :    0.132505
   9 C :   -0.269733
  10 H :    0.137148
  11 C :   -0.277649
  12 H :    0.137062
  13 H :    0.138652
  14 C :   -0.281532
  15 H :    0.133479
  16 H :    0.137446
  17 H :    0.133905
  18 C :   -0.292813
  19 H :    0.136323
  20 H :    0.126525
  21 H :    0.129565
  22 C :   -0.464743
  23 H :    0.104478
  24 H :    0.101333
  25 O :   -0.321621
  26 C :   -0.332126
  27 N :    0.083472
  28 N :    0.087083
  29 H :    0.180965
  30 H :    0.156917
  31 H :    0.179852
  32 H :    0.154420
  33 H :    0.150299
  34 H :    0.160212

  Mayer bond orders larger than 0.100000
B(  0-C ,  1-C ) :   0.8750 B(  0-C , 26-C ) :   0.9422 B(  0-C , 33-H ) :   0.9895
B(  0-C , 34-H ) :   0.9647 B(  1-C ,  2-H ) :   0.9971 B(  1-C ,  3-C ) :   0.8885
B(  1-C ,  4-H ) :   0.9757 B(  3-C ,  5-H ) :   0.9877 B(  3-C ,  6-H ) :   0.9768
B(  3-C ,  7-C ) :   0.8590 B(  7-C ,  8-H ) :   0.9850 B(  7-C ,  9-C ) :   0.9228
B(  7-C , 10-H ) :   0.9761 B(  9-C , 11-C ) :   0.9142 B(  9-C , 12-H ) :   0.9893
B(  9-C , 13-H ) :   0.9900 B( 11-C , 14-C ) :   0.9052 B( 11-C , 15-H ) :   0.9935
B( 11-C , 16-H ) :   0.9858 B( 14-C , 17-H ) :   0.9785 B( 14-C , 18-C ) :   0.9397
B( 14-C , 19-H ) :   0.9718 B( 18-C , 20-H ) :   0.9798 B( 18-C , 21-H ) :   0.9682
B( 18-C , 22-C ) :   0.9228 B( 22-C , 23-H ) :   0.9790 B( 22-C , 24-H ) :   0.9779
B( 22-C , 25-O ) :   1.1008 B( 25-O , 30-H ) :   0.2271 B( 25-O , 32-H ) :   0.2244
B( 26-C , 27-N ) :   1.4452 B( 26-C , 28-N ) :   1.4214 B( 27-N , 31-H ) :   0.9130
B( 27-N , 32-H ) :   0.7282 B( 28-N , 29-H ) :   0.9108 B( 28-N , 30-H ) :   0.7344

Dispersion correction           -0.002169401
FINAL SINGLE POINT ENERGY      -578.973262741066

DIPOLE MOMENT
-------------
                                X             Y             Z
Electronic contribution:      2.81847      -0.26342       7.52551
Nuclear contribution   :     -0.17996       0.53390      -8.68067
                        -----------------------------------------
Total Dipole Moment    :      2.63851       0.27048      -1.15516
                        -----------------------------------------
Magnitude (a.u.)       :      2.89297
Magnitude (Debye)      :      7.35336

Rotational constants in cm-1:     0.028240     0.022734     0.014600
Rotational constants in MHz :   846.611263   681.554306   437.693928

                             ****ORCA TERMINATED NORMALLY****
TOTAL RUN TIME: 0 days 0 hours 1 minutes 31 seconds 539 msec
