                         Program Version 5.0.0 -  RELEASE  -
|  1> !M062X D3Zero RIJCOSX def2-TZVP def2/J TightSCF
|  2> *xyz 0 1
|  3> C          4.36645       -0.13321       -1.41606
|  4> C          4.50829       -0.93187       -2.72425
|  5> C          3.05650       -0.32080       -0.70738
|  6> C          2.38983        0.71129       -0.24391
|  7> N          2.51600       -1.50772       -0.55023
|  8> H          2.96768       -2.32291       -0.95631
|  9> H          1.54987       -1.49063       -0.24988
| 10> H          2.74307        1.64947       -0.41280
| 11> H          1.44036        0.50278        0.03703
| 12> H          4.48784        0.93300       -1.61157
| 13> H          5.16967       -0.41443       -0.72982
| 14> H          5.46700       -0.73824       -3.15818
| 15> H          3.74074       -0.63528       -3.40821
| 16> H          4.41574       -1.97727       -2.51573
| 17> *
| 18>
| 19> %MaxCore 64000
| 20>
| 21> %pal nprocs 4
| 22> end
| 23>
| 24> %scf
| 25>   MaxIter 150
| 26> end
| 27>
| 28>
| 29>                          ****END OF INPUT****

CARTESIAN COORDINATES (ANGSTROEM)
---------------------------------
  C      4.366450   -0.133210   -1.416060
  C      4.508290   -0.931870   -2.724250
  C      3.056500   -0.320800   -0.707380
  C      2.389830    0.711290   -0.243910
  N      2.516000   -1.507720   -0.550230
  H      2.967680   -2.322910   -0.956310
  H      1.549870   -1.490630   -0.249880
  H      2.743070    1.649470   -0.412800
  H      1.440360    0.502780    0.037030
  H      4.487840    0.933000   -1.611570
  H      5.169670   -0.414430   -0.729820
  H      5.467000   -0.738240   -3.158180
  H      3.740740   -0.635280   -3.408210
  H      4.415740   -1.977270   -2.515730

 Total Charge           Charge          ....    0
 Multiplicity           Mult            ....    1
 Number of Electrons    NEL             ....   40
 Basis Dimension        Dim             ....  209

ORBITAL ENERGIES
----------------

  NO   OCC          E(Eh)            E(eV)
   0   2.0000     -14.744347      -401.2141
   1   2.0000     -10.553381      -287.1721
   2   2.0000     -10.535859      -286.6953
   3   2.0000     -10.525485      -286.4130
   4   2.0000     -10.465361      -284.7769
   5   2.0000      -1.041832       -28.3497
   6   2.0000      -0.875758       -23.8306
   7   2.0000      -0.817102       -22.2345
   8   2.0000      -0.723227       -19.6800
   9   2.0000      -0.640276       -17.4228
  10   2.0000      -0.608737       -16.5646
  11   2.0000      -0.541231       -14.7276
  12   2.0000      -0.508738       -13.8435
  13   2.0000      -0.497848       -13.5471
  14   2.0000      -0.459144       -12.4940
  15   2.0000      -0.446681       -12.1548
  16   2.0000      -0.419429       -11.4132
  17   2.0000      -0.404851       -11.0165
  18   2.0000      -0.389297       -10.5933
  19   2.0000      -0.242716        -6.6046
  20   0.0000       0.056093         1.5264
  21   0.0000       0.078478         2.1355
  22   0.0000       0.101101         2.7511
  23   0.0000       0.104966         2.8563
  24   0.0000       0.124138         3.3780

MULLIKEN ATOMIC CHARGES
-----------------------
   0 C :   -0.295635
   1 C :   -0.401706
   2 C :    0.303321
   3 C :   -0.424274
   4 N :   -0.520309
   5 H :    0.241553
   6 H :    0.241174
   7 H :    0.097144
   8 H :    0.079346
   9 H :    0.133979
  10 H :    0.147084
  11 H :    0.141677
  12 H :    0.146756
  13 H :    0.109887
Sum of atomic charges:   -0.0000000

LOEWDIN ATOMIC CHARGES
----------------------
   0 C :   -0.239016
   1 C :   -0.298191
   2 C :   -0.374993
   3 C :   -0.274650
   4 N :   -0.009170
   5 H :    0.170617
   6 H :    0.180359
   7 H :    0.104853
   8 H :    0.099814
   9 H :    0.148116
  10 H :    0.144009
  11 H :    0.118299
  12 H :    0.120667
  13 H :    0.109288

  Mayer bond orders larger than 0.100000
B(  0-C ,  1-C ) :   0.9322 B(  0-C ,  2-C ) :   0.9431 B(  0-C ,  9-H ) :   0.9845
B(  0-C , 10-H ) :   0.9742 B(  1-C , 11-H ) :   0.9796 B(  1-C , 12-H ) :   0.9702
B(  1-C , 13-H ) :   0.9746 B(  2-C ,  3-C ) :   1.7521 B(  2-C ,  4-N ) :   1.0911
B(  3-C ,  7-H ) :   1.0078 B(  3-C ,  8-H ) :   0.9971 B(  4-N ,  5-H ) :   0.9306
B(  4-N ,  6-H ) :   0.9241

Dispersion correction           -0.000195866
FINAL SINGLE POINT ENERGY      -212.530196066971

DIPOLE MOMENT
-------------
                                X             Y             Z
Electronic contribution:     -1.49060      -0.43255       2.06958
Nuclear contribution   :      1.56827      -0.21459      -2.46657
                        -----------------------------------------
Total Dipole Moment    :      0.07766      -0.64714      -0.39699
                        -----------------------------------------
Magnitude (a.u.)       :      0.76317
Magnitude (Debye)      :      1.93982

Rotational constants in cm-1:     0.294070     0.127722     0.097792
Rotational constants in MHz :  8815.983970  3829.010547  2931.715816

                             ****ORCA TERMINATED NORMALLY****
TOTAL RUN TIME: 0 days 0 hours 0 minutes 29 seconds 84 msec
