                         Program Version 5.0.0 -  RELEASE  -
|  1> !M062X D3Zero RIJCOSX def2-TZVP def2/J TightSCF
|  2> *xyz 0 1
|  3> C          4.36645       -0.13321       -1.41606
|  4> C          4.50829       -0.93187       -2.72425
|  5> C          3.05650       -0.32080       -0.70738
|  6> N          2.38983        0.71129       -0.24391
|  7> C          2.51600       -1.50772       -0.55023
|  8> H          2.96768       -2.32291       -0.95631
|  9> H          1.54987       -1.49063       -0.24988
| 10> H          2.74307        1.64947       -0.41280
| 11> H          1.44036        0.50278        0.03703
| 12> H          4.48784        0.93300       -1.61157
| 13> H          5.16967       -0.41443       -0.72982
| 14> H          5.46700       -0.73824       -3.15818
| 15> H          3.74074       -0.63528       -3.40821
| 16> H          4.41574       -1.97727       -2.51573
| 17> *
| 18>
| 19> %MaxCore 64000
| 20>
| 21> %pal nprocs 4
| 22> end
| 23>
| 24> %scf
| 25>   MaxIter 150
| 26> end
| 27>
| 28>
| 29>                          ****END OF INPUT****

CARTESIAN COORDINATES (ANGSTROEM)
---------------------------------
  C      4.366450   -0.133210   -1.416060
  C      4.508290   -0.931870   -2.724250
  C      3.056500   -0.320800   -0.707380
  N      2.389830    0.711290   -0.243910
  C      2.516000   -1.507720   -0.550230
  H      2.967680   -2.322910   -0.956310
  H      1.549870   -1.490630   -0.249880
  H      2.743070    1.649470   -0.412800
  H      1.440360    0.502780    0.037030
  H      4.487840    0.933000   -1.611570
  H      5.169670   -0.414430   -0.729820
  H      5.467000   -0.738240   -3.158180
  H      3.740740   -0.635280   -3.408210
  H      4.415740   -1.977270   -2.515730

 Total Charge           Charge          ....    0
 Multiplicity           Mult            ....    1
 Number of Electrons    NEL             ....   40
 Basis Dimension        Dim             ....  209

ORBITAL ENERGIES
----------------

  NO   OCC          E(Eh)            E(eV)
   0   2.0000     -14.744737      -401.2247
   1   2.0000     -10.553533      -287.1762
   2   2.0000     -10.537071      -286.7283
   3   2.0000     -10.519357      -286.2463
   4   2.0000     -10.463374      -284.7229
   5   2.0000      -1.042072       -28.3562
   6   2.0000      -0.877428       -23.8760
   7   2.0000      -0.805603       -21.9216
   8   2.0000      -0.732789       -19.9402
   9   2.0000      -0.630913       -17.1680
  10   2.0000      -0.605435       -16.4747
  11   2.0000      -0.549556       -14.9542
  12   2.0000      -0.519912       -14.1475
  13   2.0000      -0.473415       -12.8823
  14   2.0000      -0.456874       -12.4322
  15   2.0000      -0.445962       -12.1352
  16   2.0000      -0.419734       -11.4215
  17   2.0000      -0.402759       -10.9596
  18   2.0000      -0.391000       -10.6396
  19   2.0000      -0.240915        -6.5556
  20   0.0000       0.060437         1.6446
  21   0.0000       0.074579         2.0294
  22   0.0000       0.101008         2.7486
  23   0.0000       0.102967         2.8019
  24   0.0000       0.127461         3.4684

MULLIKEN ATOMIC CHARGES
-----------------------
   0 C :   -0.295067
   1 C :   -0.403742
   2 C :    0.322727
   3 N :   -0.520648
   4 C :   -0.432158
   5 H :    0.091294
   6 H :    0.080212
   7 H :    0.240566
   8 H :    0.238648
   9 H :    0.111521
  10 H :    0.154966
  11 H :    0.133623
  12 H :    0.142565
  13 H :    0.135492
Sum of atomic charges:    0.0000000

LOEWDIN ATOMIC CHARGES
----------------------
   0 C :   -0.239220
   1 C :   -0.289644
   2 C :   -0.372988
   3 N :   -0.010504
   4 C :   -0.278617
   5 H :    0.103976
   6 H :    0.100264
   7 H :    0.170859
   8 H :    0.179535
   9 H :    0.134232
  10 H :    0.149477
  11 H :    0.114732
  12 H :    0.119720
  13 H :    0.118180

  Mayer bond orders larger than 0.100000
B(  0-C ,  1-C ) :   0.9536 B(  0-C ,  2-C ) :   0.9079 B(  0-C ,  9-H ) :   0.9851
B(  0-C , 10-H ) :   0.9757 B(  1-C , 11-H ) :   0.9775 B(  1-C , 12-H ) :   0.9745
B(  1-C , 13-H ) :   0.9741 B(  2-C ,  3-N ) :   1.1068 B(  2-C ,  4-C ) :   1.7267
B(  3-N ,  7-H ) :   0.9265 B(  3-N ,  8-H ) :   0.9240 B(  4-C ,  5-H ) :   1.0178
B(  4-C ,  6-H ) :   0.9932

Dispersion correction           -0.000196402
FINAL SINGLE POINT ENERGY      -212.528902556838

DIPOLE MOMENT
-------------
                                X             Y             Z
Electronic contribution:     -1.60070       1.47351       2.34336
Nuclear contribution   :      1.59749      -0.72853      -2.53752
                        -----------------------------------------
Total Dipole Moment    :     -0.00321       0.74498      -0.19416
                        -----------------------------------------
Magnitude (a.u.)       :      0.76987
Magnitude (Debye)      :      1.95686

Rotational constants in cm-1:     0.304597     0.124127     0.096828
Rotational constants in MHz :  9131.600925  3721.227051  2902.830760

                             ****ORCA TERMINATED NORMALLY****
TOTAL RUN TIME: 0 days 0 hours 0 minutes 33 seconds 147 msec
