                         Program Version 5.0.0 -  RELEASE  -
|  1> !wB97X-D3 RIJCOSX def2-TZVP def2/J TightSCF
|  2> *xyz -1 1
|  3> C          2.49556        1.81615       -2.13636
|  4> C          1.87218        0.42790       -2.07750
|  5> H          2.61427       -0.36583       -2.19889
|  6> H          1.38995        0.27309       -1.11236
|  7> S          0.57902        0.14047       -3.29794
|  8> O          0.22886       -1.24687       -3.12787
|  9> O         -0.43927        1.11897       -3.01455
| 10> O          1.24788        0.40347       -4.59565
| 11> H          2.96535        1.95613       -3.08747
| 12> H          3.22581        1.91242       -1.36024
| 13> H          1.73350        2.55528       -2.00274
| 14> *
| 15>
| 16> %MaxCore 64000
| 17>
| 18> %pal nprocs 4
| 19> end
| 20>
| 21> %scf
| 22>   MaxIter 150
| 23> end
| 24>
| 25>
| 26>                          ****END OF INPUT****

CARTESIAN COORDINATES (ANGSTROEM)
---------------------------------
  C      2.495560    1.816150   -2.136360
  C      1.872180    0.427900   -2.077500
  H      2.614270   -0.365830   -2.198890
  H      1.389950    0.273090   -1.112360
  S      0.579020    0.140470   -3.297940
  O      0.228860   -1.246870   -3.127870
  O     -0.439270    1.118970   -3.014550
  O      1.247880    0.403470   -4.595650
  H      2.965350    1.956130   -3.087470
  H      3.225810    1.912420   -1.360240
  H      1.733500    2.555280   -2.002740

 Total Charge           Charge          ....   -1
 Multiplicity           Mult            ....    1
 Number of Electrons    NEL             ....   58
 Basis Dimension        Dim             ....  222

ORBITAL ENERGIES
----------------

  NO   OCC          E(Eh)            E(eV)
   0   2.0000     -88.927454     -2419.8391
   1   2.0000     -19.004290      -517.1330
   2   2.0000     -19.004157      -517.1294
   3   2.0000     -18.988768      -516.7106
   4   2.0000     -10.129974      -275.6506
   5   2.0000     -10.123738      -275.4809
   6   2.0000      -7.990252      -217.4258
   7   2.0000      -5.944599      -161.7608
   8   2.0000      -5.943232      -161.7236
   9   2.0000      -5.942913      -161.7149
  10   2.0000      -1.036162       -28.1954
  11   2.0000      -0.906164       -24.6580
  12   2.0000      -0.879420       -23.9302
  13   2.0000      -0.743986       -20.2449
  14   2.0000      -0.612213       -16.6592
  15   2.0000      -0.482111       -13.1189
  16   2.0000      -0.414797       -11.2872
  17   2.0000      -0.413229       -11.2445
  18   2.0000      -0.370950       -10.0941
  19   2.0000      -0.358467        -9.7544
  20   2.0000      -0.348312        -9.4781
  21   2.0000      -0.321872        -8.7586
  22   2.0000      -0.302638        -8.2352
  23   2.0000      -0.245536        -6.6814
  24   2.0000      -0.244269        -6.6469
  25   2.0000      -0.208698        -5.6790
  26   2.0000      -0.196862        -5.3569
  27   2.0000      -0.187518        -5.1026
  28   2.0000      -0.153590        -4.1794
  29   0.0000       0.255517         6.9530
  30   0.0000       0.298110         8.1120
  31   0.0000       0.315203         8.5771
  32   0.0000       0.319642         8.6979
  33   0.0000       0.348821         9.4919

MULLIKEN ATOMIC CHARGES
-----------------------
   0 C :   -0.326564
   1 C :   -0.237988
   2 H :    0.082060
   3 H :    0.071487
   4 S :    0.859418
   5 O :   -0.559995
   6 O :   -0.563538
   7 O :   -0.612825
   8 H :    0.113280
   9 H :    0.062665
  10 H :    0.111998
Sum of atomic charges:   -1.0000000

LOEWDIN ATOMIC CHARGES
----------------------
   0 C :   -0.342331
   1 C :   -0.429864
   2 H :    0.116453
   3 H :    0.115221
   4 S :    0.407574
   5 O :   -0.379428
   6 O :   -0.378766
   7 O :   -0.435213
   8 H :    0.114226
   9 H :    0.097925
  10 H :    0.114204

  Mayer bond orders larger than 0.100000
B(  0-C ,  1-C ) :   0.9669 B(  0-C ,  8-H ) :   0.9755 B(  0-C ,  9-H ) :   0.9712
B(  0-C , 10-H ) :   0.9779 B(  1-C ,  2-H ) :   0.9654 B(  1-C ,  3-H ) :   0.9643
B(  1-C ,  4-S ) :   0.8814 B(  4-S ,  5-O ) :   1.8212 B(  4-S ,  6-O ) :   1.7821
B(  4-S ,  7-O ) :   1.7219

Dispersion correction           -0.002932987
FINAL SINGLE POINT ENERGY      -703.219525518354

DIPOLE MOMENT
-------------
                                X             Y             Z
Electronic contribution:     -5.70131      -3.60432      -4.09530
Nuclear contribution   :      6.89220       4.11756       5.35566
                        -----------------------------------------
Total Dipole Moment    :      1.19088       0.51324       1.26036
                        -----------------------------------------
Magnitude (a.u.)       :      1.80834
Magnitude (Debye)      :      4.59645

Rotational constants in cm-1:     0.162183     0.084017     0.082390
Rotational constants in MHz :  4862.117324  2518.774315  2469.980309

                             ****ORCA TERMINATED NORMALLY****
TOTAL RUN TIME: 0 days 0 hours 0 minutes 40 seconds 399 msec
