                         Program Version 5.0.0 -  RELEASE  -
|  1> !wB97X-D3 RIJCOSX def2-TZVP def2/J TightSCF
|  2> *xyz 1 1
|  3> C          3.38093        2.08304       -3.35013
|  4> N          4.53592        1.18245       -3.42852
|  5> C          2.49556        1.81615       -2.13636
|  6> C          4.67196        0.12227       -4.22060
|  7> N          5.86602       -0.50785       -4.22428
|  8> N          3.69888       -0.31284       -4.98699
|  9> H          2.73141       -0.05009       -4.84900
| 10> H          3.89005       -1.05517       -5.64373
| 11> H          5.25193        1.30346       -2.72101
| 12> H          6.69516       -0.06232       -3.85160
| 13> H          5.97538       -1.39688       -4.69141
| 14> H          2.80646        1.98651       -4.26848
| 15> H          3.77871        3.09828       -3.30738
| 16> H          2.11090        0.81901       -2.18783
| 17> H          1.68276        2.51198       -2.12786
| 18> H          3.07216        1.93031       -1.24227
| 19> *
| 20>
| 21> %MaxCore 64000
| 22>
| 23> %pal nprocs 4
| 24> end
| 25>
| 26> %scf
| 27>   MaxIter 150
| 28> end
| 29>
| 30>
| 31>                          ****END OF INPUT****

CARTESIAN COORDINATES (ANGSTROEM)
---------------------------------
  C      3.380930    2.083040   -3.350130
  N      4.535920    1.182450   -3.428520
  C      2.495560    1.816150   -2.136360
  C      4.671960    0.122270   -4.220600
  N      5.866020   -0.507850   -4.224280
  N      3.698880   -0.312840   -4.986990
  H      2.731410   -0.050090   -4.849000
  H      3.890050   -1.055170   -5.643730
  H      5.251930    1.303460   -2.721010
  H      6.695160   -0.062320   -3.851600
  H      5.975380   -1.396880   -4.691410
  H      2.806460    1.986510   -4.268480
  H      3.778710    3.098280   -3.307380
  H      2.110900    0.819010   -2.187830
  H      1.682760    2.511980   -2.127860
  H      3.072160    1.930310   -1.242270

 Total Charge           Charge          ....    1
 Multiplicity           Mult            ....    1
 Number of Electrons    NEL             ....   48
 Basis Dimension        Dim             ....  246

ORBITAL ENERGIES
----------------

  NO   OCC          E(Eh)            E(eV)
   0   2.0000     -14.646905      -398.5626
   1   2.0000     -14.643040      -398.4574
   2   2.0000     -14.638841      -398.3431
   3   2.0000     -10.613503      -288.8081
   4   2.0000     -10.480209      -285.1810
   5   2.0000     -10.406906      -283.1863
   6   2.0000      -1.331551       -36.2333
   7   2.0000      -1.219623       -33.1876
   8   2.0000      -1.204366       -32.7725
   9   2.0000      -1.044351       -28.4182
  10   2.0000      -0.950169       -25.8554
  11   2.0000      -0.910470       -24.7751
  12   2.0000      -0.889641       -24.2084
  13   2.0000      -0.844812       -22.9885
  14   2.0000      -0.795214       -21.6389
  15   2.0000      -0.790516       -21.5110
  16   2.0000      -0.740754       -20.1569
  17   2.0000      -0.731965       -19.9178
  18   2.0000      -0.702336       -19.1115
  19   2.0000      -0.654378       -17.8065
  20   2.0000      -0.625130       -17.0106
  21   2.0000      -0.608008       -16.5447
  22   2.0000      -0.571772       -15.5587
  23   2.0000      -0.537444       -14.6246
  24   0.0000      -0.080579        -2.1927
  25   0.0000      -0.065897        -1.7932
  26   0.0000      -0.033196        -0.9033
  27   0.0000      -0.023726        -0.6456
  28   0.0000      -0.003822        -0.1040

MULLIKEN ATOMIC CHARGES
-----------------------
   0 C :   -0.185009
   1 N :   -0.305758
   2 C :   -0.302066
   3 C :    0.541361
   4 N :   -0.489141
   5 N :   -0.464112
   6 H :    0.310706
   7 H :    0.296360
   8 H :    0.273048
   9 H :    0.304391
  10 H :    0.297507
  11 H :    0.135564
  12 H :    0.170025
  13 H :    0.116160
  14 H :    0.163291
  15 H :    0.137675
Sum of atomic charges:    1.0000000

LOEWDIN ATOMIC CHARGES
----------------------
   0 C :   -0.276796
   1 N :    0.163359
   2 C :   -0.282999
   3 C :   -0.399378
   4 N :    0.043093
   5 N :    0.079095
   6 H :    0.200889
   7 H :    0.201624
   8 H :    0.211755
   9 H :    0.197232
  10 H :    0.194193
  11 H :    0.137459
  12 H :    0.149309
  13 H :    0.119639
  14 H :    0.135802
  15 H :    0.125723

  Mayer bond orders larger than 0.100000
B(  0-C ,  1-N ) :   0.8689 B(  0-C ,  2-C ) :   0.9880 B(  0-C , 11-H ) :   0.9762
B(  0-C , 12-H ) :   0.9581 B(  1-N ,  3-C ) :   1.3830 B(  1-N ,  8-H ) :   0.8992
B(  2-C , 13-H ) :   0.9578 B(  2-C , 14-H ) :   0.9707 B(  2-C , 15-H ) :   0.9722
B(  3-C ,  4-N ) :   1.2887 B(  3-C ,  5-N ) :   1.3393 B(  4-N ,  9-H ) :   0.8915
B(  4-N , 10-H ) :   0.8946 B(  5-N ,  6-H ) :   0.8863 B(  5-N ,  7-H ) :   0.8932

Dispersion correction           -0.003697503
FINAL SINGLE POINT ENERGY      -284.431152921078

DIPOLE MOMENT
-------------
                                X             Y             Z
Electronic contribution:      3.58477      -2.67395      -2.83348
Nuclear contribution   :     -2.93277       1.85779       2.25966
                        -----------------------------------------
Total Dipole Moment    :      0.65201      -0.81616      -0.57381
                        -----------------------------------------
Magnitude (a.u.)       :      1.19184
Magnitude (Debye)      :      3.02942

Rotational constants in cm-1:     0.245511     0.068839     0.059711
Rotational constants in MHz :  7360.233487  2063.743353  1790.088408

                             ****ORCA TERMINATED NORMALLY****
TOTAL RUN TIME: 0 days 0 hours 0 minutes 51 seconds 547 msec
