                         Program Version 5.0.0 -  RELEASE  -
|  1> !wB97X-D3 RIJCOSX def2-TZVP def2/J TightSCF
|  2> *xyz 0 1
|  3> C          2.49556        1.81615       -2.13636
|  4> C          1.87218        0.42790       -2.07750
|  5> H          2.61427       -0.36583       -2.19889
|  6> H          1.38995        0.27309       -1.11236
|  7> S          0.57902        0.14047       -3.29794
|  8> F          0.22886       -1.24687       -3.12787
|  9> O         -0.43927        1.11897       -3.01455
| 10> O          1.24788        0.40347       -4.59565
| 11> H          2.96535        1.95613       -3.08747
| 12> H          3.22581        1.91242       -1.36024
| 13> H          1.73350        2.55528       -2.00274
| 14> *
| 15>
| 16> %MaxCore 64000
| 17>
| 18> %pal nprocs 4
| 19> end
| 20>
| 21> %scf
| 22>   MaxIter 150
| 23> end
| 24>
| 25>
| 26>                          ****END OF INPUT****

CARTESIAN COORDINATES (ANGSTROEM)
---------------------------------
  C      2.495560    1.816150   -2.136360
  C      1.872180    0.427900   -2.077500
  H      2.614270   -0.365830   -2.198890
  H      1.389950    0.273090   -1.112360
  S      0.579020    0.140470   -3.297940
  F      0.228860   -1.246870   -3.127870
  O     -0.439270    1.118970   -3.014550
  O      1.247880    0.403470   -4.595650
  H      2.965350    1.956130   -3.087470
  H      3.225810    1.912420   -1.360240
  H      1.733500    2.555280   -2.002740

 Total Charge           Charge          ....    0
 Multiplicity           Mult            ....    1
 Number of Electrons    NEL             ....   58
 Basis Dimension        Dim             ....  222

ORBITAL ENERGIES
----------------

  NO   OCC          E(Eh)            E(eV)
   0   2.0000     -89.194668     -2427.1103
   1   2.0000     -24.909404      -677.8193
   2   2.0000     -19.243999      -523.6558
   3   2.0000     -19.228697      -523.2394
   4   2.0000     -10.335006      -281.2298
   5   2.0000     -10.289190      -279.9831
   6   2.0000      -8.258129      -224.7151
   7   2.0000      -6.215408      -169.1298
   8   2.0000      -6.209139      -168.9593
   9   2.0000      -6.208757      -168.9489
  10   2.0000      -1.503278       -40.9063
  11   2.0000      -1.221737       -33.2452
  12   2.0000      -1.118516       -30.4364
  13   2.0000      -0.936718       -25.4894
  14   2.0000      -0.848613       -23.0919
  15   2.0000      -0.784046       -21.3350
  16   2.0000      -0.694913       -18.9095
  17   2.0000      -0.693511       -18.8714
  18   2.0000      -0.659990       -17.9592
  19   2.0000      -0.595048       -16.1921
  20   2.0000      -0.583751       -15.8847
  21   2.0000      -0.541697       -14.7403
  22   2.0000      -0.526528       -14.3275
  23   2.0000      -0.505123       -13.7451
  24   2.0000      -0.483473       -13.1560
  25   2.0000      -0.481769       -13.1096
  26   2.0000      -0.429700       -11.6927
  27   2.0000      -0.414835       -11.2882
  28   2.0000      -0.400475       -10.8975
  29   0.0000       0.104643         2.8475
  30   0.0000       0.119068         3.2400
  31   0.0000       0.146247         3.9796
  32   0.0000       0.152988         4.1630
  33   0.0000       0.158087         4.3018

MULLIKEN ATOMIC CHARGES
-----------------------
   0 C :   -0.358306
   1 C :   -0.247867
   2 H :    0.142461
   3 H :    0.136854
   4 S :    0.880102
   5 F :   -0.095715
   6 O :   -0.416712
   7 O :   -0.464268
   8 H :    0.148406
   9 H :    0.129001
  10 H :    0.146043
Sum of atomic charges:    0.0000000

LOEWDIN ATOMIC CHARGES
----------------------
   0 C :   -0.302578
   1 C :   -0.397615
   2 H :    0.135533
   3 H :    0.135420
   4 S :    0.529882
   5 F :    0.101184
   6 O :   -0.263204
   7 O :   -0.317266
   8 H :    0.127341
   9 H :    0.124196
  10 H :    0.127107

  Mayer bond orders larger than 0.100000
B(  0-C ,  1-C ) :   0.9848 B(  0-C ,  8-H ) :   0.9688 B(  0-C ,  9-H ) :   0.9632
B(  0-C , 10-H ) :   0.9693 B(  1-C ,  2-H ) :   0.9415 B(  1-C ,  3-H ) :   0.9422
B(  1-C ,  4-S ) :   0.9203 B(  4-S ,  5-F ) :   1.1517 B(  4-S ,  6-O ) :   1.9239
B(  4-S ,  7-O ) :   1.8656

Dispersion correction           -0.002931511
FINAL SINGLE POINT ENERGY      -727.737929150004

DIPOLE MOMENT
-------------
                                X             Y             Z
Electronic contribution:     -6.83242      -6.43915      -4.08719
Nuclear contribution   :      7.60530       5.82028       5.38743
                        -----------------------------------------
Total Dipole Moment    :      0.77287      -0.61887       1.30025
                        -----------------------------------------
Magnitude (a.u.)       :      1.63431
Magnitude (Debye)      :      4.15409

Rotational constants in cm-1:     0.157861     0.081452     0.078859
Rotational constants in MHz :  4732.562506  2441.865430  2364.129821

                             ****ORCA TERMINATED NORMALLY****
TOTAL RUN TIME: 0 days 0 hours 0 minutes 36 seconds 624 msec
