                         Program Version 5.0.0 -  RELEASE  -
|  1> !wB97X-D3 RIJCOSX def2-TZVP def2/J TightSCF
|  2> *xyz 0 1
|  3> C          3.38093        2.08304       -3.35013
|  4> C          4.53592        1.18245       -3.42852
|  5> C          2.49556        1.81615       -2.13636
|  6> C          4.67196        0.12227       -4.22060
|  7> N          5.86602       -0.50785       -4.22428
|  8> N          3.69888       -0.31284       -4.98699
|  9> H          2.73141       -0.05009       -4.84900
| 10> H          3.89005       -1.05517       -5.64373
| 11> H          5.25193        1.30346       -2.72101
| 12> H          6.69516       -0.06232       -3.85160
| 13> H          5.97538       -1.39688       -4.69141
| 14> H          2.80646        1.98651       -4.26848
| 15> H          3.77871        3.09828       -3.30738
| 16> H          2.11090        0.81901       -2.18783
| 17> H          1.68276        2.51198       -2.12786
| 18> H          3.07216        1.93031       -1.24227
| 19> *
| 20>
| 21> %MaxCore 64000
| 22>
| 23> %pal nprocs 4
| 24> end
| 25>
| 26> %scf
| 27>   MaxIter 150
| 28> end
| 29>
| 30>
| 31>                          ****END OF INPUT****

CARTESIAN COORDINATES (ANGSTROEM)
---------------------------------
  C      3.380930    2.083040   -3.350130
  C      4.535920    1.182450   -3.428520
  C      2.495560    1.816150   -2.136360
  C      4.671960    0.122270   -4.220600
  N      5.866020   -0.507850   -4.224280
  N      3.698880   -0.312840   -4.986990
  H      2.731410   -0.050090   -4.849000
  H      3.890050   -1.055170   -5.643730
  H      5.251930    1.303460   -2.721010
  H      6.695160   -0.062320   -3.851600
  H      5.975380   -1.396880   -4.691410
  H      2.806460    1.986510   -4.268480
  H      3.778710    3.098280   -3.307380
  H      2.110900    0.819010   -2.187830
  H      1.682760    2.511980   -2.127860
  H      3.072160    1.930310   -1.242270

 Total Charge           Charge          ....    0
 Multiplicity           Mult            ....    1
 Number of Electrons    NEL             ....   48
 Basis Dimension        Dim             ....  246

ORBITAL ENERGIES
----------------

  NO   OCC          E(Eh)            E(eV)
   0   2.0000     -14.421529      -392.4298
   1   2.0000     -14.413803      -392.2195
   2   2.0000     -10.317716      -280.7593
   3   2.0000     -10.244979      -278.7801
   4   2.0000     -10.235327      -278.5174
   5   2.0000     -10.190498      -277.2976
   6   2.0000      -1.076812       -29.3016
   7   2.0000      -0.982423       -26.7331
   8   2.0000      -0.884895       -24.0792
   9   2.0000      -0.805298       -21.9133
  10   2.0000      -0.724131       -19.7046
  11   2.0000      -0.681551       -18.5460
  12   2.0000      -0.644689       -17.5429
  13   2.0000      -0.607112       -16.5203
  14   2.0000      -0.576401       -15.6847
  15   2.0000      -0.539320       -14.6757
  16   2.0000      -0.512440       -13.9442
  17   2.0000      -0.491250       -13.3676
  18   2.0000      -0.472721       -12.8634
  19   2.0000      -0.443649       -12.0723
  20   2.0000      -0.417746       -11.3674
  21   2.0000      -0.410992       -11.1837
  22   2.0000      -0.357434        -9.7263
  23   2.0000      -0.240723        -6.5504
  24   0.0000       0.102365         2.7855
  25   0.0000       0.129039         3.5113
  26   0.0000       0.148964         4.0535
  27   0.0000       0.159383         4.3370
  28   0.0000       0.173170         4.7122

MULLIKEN ATOMIC CHARGES
-----------------------
   0 C :   -0.180097
   1 C :   -0.365200
   2 C :   -0.282637
   3 C :    0.404713
   4 N :   -0.538590
   5 N :   -0.539975
   6 H :    0.260803
   7 H :    0.227746
   8 H :    0.092685
   9 H :    0.257652
  10 H :    0.222311
  11 H :    0.062052
  12 H :    0.089929
  13 H :    0.088640
  14 H :    0.099451
  15 H :    0.100517
Sum of atomic charges:   -0.0000000

LOEWDIN ATOMIC CHARGES
----------------------
   0 C :   -0.304566
   1 C :   -0.280101
   2 C :   -0.304338
   3 C :   -0.460124
   4 N :   -0.034159
   5 N :   -0.003161
   6 H :    0.177737
   7 H :    0.165259
   8 H :    0.118640
   9 H :    0.175803
  10 H :    0.156543
  11 H :    0.126218
  12 H :    0.135503
  13 H :    0.109727
  14 H :    0.107613
  15 H :    0.113406

  Mayer bond orders larger than 0.100000
B(  0-C ,  1-C ) :   1.0226 B(  0-C ,  2-C ) :   0.9610 B(  0-C , 11-H ) :   0.9889
B(  0-C , 12-H ) :   0.9849 B(  1-C ,  3-C ) :   1.6777 B(  1-C ,  8-H ) :   0.9956
B(  2-C , 13-H ) :   0.9776 B(  2-C , 14-H ) :   0.9825 B(  2-C , 15-H ) :   0.9848
B(  3-C ,  4-N ) :   1.1073 B(  3-C ,  5-N ) :   1.1240 B(  4-N ,  9-H ) :   0.9177
B(  4-N , 10-H ) :   0.9273 B(  5-N ,  6-H ) :   0.9175 B(  5-N ,  7-H ) :   0.9256

Dispersion correction           -0.003690831
FINAL SINGLE POINT ENERGY      -267.944128836433

DIPOLE MOMENT
-------------
                                X             Y             Z
Electronic contribution:      3.00958      -2.86081      -2.94004
Nuclear contribution   :     -2.84307       1.95814       2.32378
                        -----------------------------------------
Total Dipole Moment    :      0.16651      -0.90267      -0.61626
                        -----------------------------------------
Magnitude (a.u.)       :      1.10559
Magnitude (Debye)      :      2.81018

Rotational constants in cm-1:     0.248902     0.068887     0.059904
Rotational constants in MHz :  7461.898926  2065.183281  1795.882140

                             ****ORCA TERMINATED NORMALLY****
TOTAL RUN TIME: 0 days 0 hours 0 minutes 49 seconds 108 msec
