                         Program Version 5.0.0 -  RELEASE  -
|  1> !wB97X-D3 RIJCOSX def2-TZVP def2/J TightSCF
|  2> *xyz 0 1
|  3> C          2.49556        1.81615       -2.13636
|  4> C          1.87218        0.42790       -2.07750
|  5> H          2.61427       -0.36583       -2.19889
|  6> H          1.38995        0.27309       -1.11236
|  7> S          0.57902        0.14047       -3.29794
|  8> O          0.22886       -1.24687       -3.12787
|  9> F         -0.43927        1.11897       -3.01455
| 10> O          1.24788        0.40347       -4.59565
| 11> H          2.96535        1.95613       -3.08747
| 12> H          3.22581        1.91242       -1.36024
| 13> H          1.73350        2.55528       -2.00274
| 14> *
| 15>
| 16> %MaxCore 64000
| 17>
| 18> %pal nprocs 4
| 19> end
| 20>
| 21> %scf
| 22>   MaxIter 150
| 23> end
| 24>
| 25>
| 26>                          ****END OF INPUT****

CARTESIAN COORDINATES (ANGSTROEM)
---------------------------------
  C      2.495560    1.816150   -2.136360
  C      1.872180    0.427900   -2.077500
  H      2.614270   -0.365830   -2.198890
  H      1.389950    0.273090   -1.112360
  S      0.579020    0.140470   -3.297940
  O      0.228860   -1.246870   -3.127870
  F     -0.439270    1.118970   -3.014550
  O      1.247880    0.403470   -4.595650
  H      2.965350    1.956130   -3.087470
  H      3.225810    1.912420   -1.360240
  H      1.733500    2.555280   -2.002740

 Total Charge           Charge          ....    0
 Multiplicity           Mult            ....    1
 Number of Electrons    NEL             ....   58
 Basis Dimension        Dim             ....  222

ORBITAL ENERGIES
----------------

  NO   OCC          E(Eh)            E(eV)
   0   2.0000     -89.194849     -2427.1152
   1   2.0000     -24.909448      -677.8205
   2   2.0000     -19.244424      -523.6674
   3   2.0000     -19.229420      -523.2591
   4   2.0000     -10.334987      -281.2293
   5   2.0000     -10.292401      -280.0705
   6   2.0000      -8.258274      -224.7191
   7   2.0000      -6.215695      -169.1376
   8   2.0000      -6.209281      -168.9631
   9   2.0000      -6.208783      -168.9496
  10   2.0000      -1.503704       -40.9179
  11   2.0000      -1.221275       -33.2326
  12   2.0000      -1.119561       -30.4648
  13   2.0000      -0.939823       -25.5739
  14   2.0000      -0.844773       -22.9874
  15   2.0000      -0.788755       -21.4631
  16   2.0000      -0.704065       -19.1586
  17   2.0000      -0.693547       -18.8724
  18   2.0000      -0.652875       -17.7656
  19   2.0000      -0.594721       -16.1832
  20   2.0000      -0.580131       -15.7862
  21   2.0000      -0.552225       -15.0268
  22   2.0000      -0.530822       -14.4444
  23   2.0000      -0.505081       -13.7439
  24   2.0000      -0.494133       -13.4460
  25   2.0000      -0.475039       -12.9265
  26   2.0000      -0.429001       -11.6737
  27   2.0000      -0.414740       -11.2856
  28   2.0000      -0.402561       -10.9542
  29   0.0000       0.095393         2.5958
  30   0.0000       0.127674         3.4742
  31   0.0000       0.140623         3.8266
  32   0.0000       0.151330         4.1179
  33   0.0000       0.162690         4.4270

MULLIKEN ATOMIC CHARGES
-----------------------
   0 C :   -0.354658
   1 C :   -0.258398
   2 H :    0.167612
   3 H :    0.138097
   4 S :    0.878727
   5 O :   -0.412702
   6 F :   -0.098250
   7 O :   -0.464928
   8 H :    0.153747
   9 H :    0.130304
  10 H :    0.120450
Sum of atomic charges:    0.0000000

LOEWDIN ATOMIC CHARGES
----------------------
   0 C :   -0.315841
   1 C :   -0.391978
   2 H :    0.149607
   3 H :    0.135452
   4 S :    0.530709
   5 O :   -0.262985
   6 F :    0.102391
   7 O :   -0.316628
   8 H :    0.126852
   9 H :    0.123888
  10 H :    0.118533

  Mayer bond orders larger than 0.100000
B(  0-C ,  1-C ) :   0.9710 B(  0-C ,  8-H ) :   0.9672 B(  0-C ,  9-H ) :   0.9655
B(  0-C , 10-H ) :   0.9730 B(  1-C ,  2-H ) :   0.9438 B(  1-C ,  3-H ) :   0.9487
B(  1-C ,  4-S ) :   0.9139 B(  4-S ,  5-O ) :   1.9465 B(  4-S ,  6-F ) :   1.1426
B(  4-S ,  7-O ) :   1.8625

Dispersion correction           -0.002903666
FINAL SINGLE POINT ENERGY      -727.737969254145

DIPOLE MOMENT
-------------
                                X             Y             Z
Electronic contribution:     -7.96114      -2.40351      -3.88706
Nuclear contribution   :      8.30151       3.35500       5.26935
                        -----------------------------------------
Total Dipole Moment    :      0.34037       0.95149       1.38229
                        -----------------------------------------
Magnitude (a.u.)       :      1.71228
Magnitude (Debye)      :      4.35227

Rotational constants in cm-1:     0.152913     0.083043     0.080351
Rotational constants in MHz :  4584.227971  2489.580280  2408.872860

                             ****ORCA TERMINATED NORMALLY****
TOTAL RUN TIME: 0 days 0 hours 0 minutes 37 seconds 595 msec
