                         Program Version 5.0.0 -  RELEASE  -
|  1> !wB97X-D3 RIJCOSX def2-TZVP def2/J TightSCF
|  2> *xyz 0 1
|  3> C          3.38093        2.08304       -3.35013
|  4> N          4.53592        1.18245       -3.42852
|  5> C          2.49556        1.81615       -2.13636
|  6> C          4.67196        0.12227       -4.22060
|  7> C          5.86602       -0.50785       -4.22428
|  8> N          3.69888       -0.31284       -4.98699
|  9> H          2.73141       -0.05009       -4.84900
| 10> H          3.89005       -1.05517       -5.64373
| 11> H          5.25193        1.30346       -2.72101
| 12> H          6.69516       -0.06232       -3.85160
| 13> H          5.97538       -1.39688       -4.69141
| 14> H          2.80646        1.98651       -4.26848
| 15> H          3.77871        3.09828       -3.30738
| 16> H          2.11090        0.81901       -2.18783
| 17> H          1.68276        2.51198       -2.12786
| 18> H          3.07216        1.93031       -1.24227
| 19> *
| 20>
| 21> %MaxCore 64000
| 22>
| 23> %pal nprocs 4
| 24> end
| 25>
| 26> %scf
| 27>   MaxIter 150
| 28> end
| 29>
| 30>
| 31>                          ****END OF INPUT****

CARTESIAN COORDINATES (ANGSTROEM)
---------------------------------
  C      3.380930    2.083040   -3.350130
  N      4.535920    1.182450   -3.428520
  C      2.495560    1.816150   -2.136360
  C      4.671960    0.122270   -4.220600
  C      5.866020   -0.507850   -4.224280
  N      3.698880   -0.312840   -4.986990
  H      2.731410   -0.050090   -4.849000
  H      3.890050   -1.055170   -5.643730
  H      5.251930    1.303460   -2.721010
  H      6.695160   -0.062320   -3.851600
  H      5.975380   -1.396880   -4.691410
  H      2.806460    1.986510   -4.268480
  H      3.778710    3.098280   -3.307380
  H      2.110900    0.819010   -2.187830
  H      1.682760    2.511980   -2.127860
  H      3.072160    1.930310   -1.242270

 Total Charge           Charge          ....    0
 Multiplicity           Mult            ....    1
 Number of Electrons    NEL             ....   48
 Basis Dimension        Dim             ....  246

ORBITAL ENERGIES
----------------

  NO   OCC          E(Eh)            E(eV)
   0   2.0000     -14.422289      -392.4504
   1   2.0000     -14.419945      -392.3866
   2   2.0000     -10.323141      -280.9069
   3   2.0000     -10.314863      -280.6817
   4   2.0000     -10.265876      -279.3487
   5   2.0000     -10.177538      -276.9449
   6   2.0000      -1.085128       -29.5278
   7   2.0000      -1.002486       -27.2790
   8   2.0000      -0.886738       -24.1294
   9   2.0000      -0.809410       -22.0252
  10   2.0000      -0.737373       -20.0649
  11   2.0000      -0.708005       -19.2658
  12   2.0000      -0.646210       -17.5843
  13   2.0000      -0.598416       -16.2837
  14   2.0000      -0.580042       -15.7838
  15   2.0000      -0.545020       -14.8307
  16   2.0000      -0.527954       -14.3664
  17   2.0000      -0.499596       -13.5947
  18   2.0000      -0.484293       -13.1783
  19   2.0000      -0.462379       -12.5820
  20   2.0000      -0.457688       -12.4543
  21   2.0000      -0.447894       -12.1878
  22   2.0000      -0.345843        -9.4109
  23   2.0000      -0.242105        -6.5880
  24   0.0000       0.099943         2.7196
  25   0.0000       0.132591         3.6080
  26   0.0000       0.142110         3.8670
  27   0.0000       0.160489         4.3671
  28   0.0000       0.167057         4.5459

MULLIKEN ATOMIC CHARGES
-----------------------
   0 C :   -0.150518
   1 N :   -0.354839
   2 C :   -0.282273
   3 C :    0.471802
   4 C :   -0.621404
   5 N :   -0.536666
   6 H :    0.235855
   7 H :    0.257859
   8 H :    0.235755
   9 H :    0.106858
  10 H :    0.093206
  11 H :    0.106220
  12 H :    0.114639
  13 H :    0.106534
  14 H :    0.110084
  15 H :    0.106888
Sum of atomic charges:   -0.0000000

LOEWDIN ATOMIC CHARGES
----------------------
   0 C :   -0.306442
   1 N :    0.114683
   2 C :   -0.306341
   3 C :   -0.463934
   4 C :   -0.364477
   5 N :    0.001775
   6 H :    0.162883
   7 H :    0.182267
   8 H :    0.195490
   9 H :    0.092738
  10 H :    0.090578
  11 H :    0.127254
  12 H :    0.128611
  13 H :    0.114243
  14 H :    0.115866
  15 H :    0.114808

  Mayer bond orders larger than 0.100000
B(  0-C ,  1-N ) :   0.9254 B(  0-C ,  2-C ) :   0.9669 B(  0-C , 11-H ) :   0.9855
B(  0-C , 12-H ) :   0.9783 B(  1-N ,  3-C ) :   1.1871 B(  1-N ,  8-H ) :   0.9224
B(  2-C , 13-H ) :   0.9713 B(  2-C , 14-H ) :   0.9771 B(  2-C , 15-H ) :   0.9784
B(  3-C ,  4-C ) :   1.5325 B(  3-C ,  5-N ) :   1.1393 B(  4-C ,  9-H ) :   1.0137
B(  4-C , 10-H ) :   1.0169 B(  5-N ,  6-H ) :   0.9216 B(  5-N ,  7-H ) :   0.9181

Dispersion correction           -0.003724561
FINAL SINGLE POINT ENERGY      -267.934228588093

DIPOLE MOMENT
-------------
                                X             Y             Z
Electronic contribution:      1.45699      -1.08979      -2.04773
Nuclear contribution   :     -2.56090       1.59955       2.15496
                        -----------------------------------------
Total Dipole Moment    :     -1.10391       0.50976       0.10724
                        -----------------------------------------
Magnitude (a.u.)       :      1.22065
Magnitude (Debye)      :      3.10264

Rotational constants in cm-1:     0.249834     0.071381     0.061833
Rotational constants in MHz :  7489.842787  2139.945635  1853.706310

                             ****ORCA TERMINATED NORMALLY****
TOTAL RUN TIME: 0 days 0 hours 0 minutes 50 seconds 496 msec
