                         Program Version 5.0.0 -  RELEASE  -
|  1> !wB97X-D3 RIJCOSX def2-TZVP def2/J TightSCF
|  2> *xyz 0 1
|  3> C          2.49556        1.81615       -2.13636
|  4> C          1.87218        0.42790       -2.07750
|  5> H          2.61427       -0.36583       -2.19889
|  6> H          1.38995        0.27309       -1.11236
|  7> S          0.57902        0.14047       -3.29794
|  8> O          0.22886       -1.24687       -3.12787
|  9> O         -0.43927        1.11897       -3.01455
| 10> F          1.24788        0.40347       -4.59565
| 11> H          2.96535        1.95613       -3.08747
| 12> H          3.22581        1.91242       -1.36024
| 13> H          1.73350        2.55528       -2.00274
| 14> *
| 15>
| 16> %MaxCore 64000
| 17>
| 18> %pal nprocs 4
| 19> end
| 20>
| 21> %scf
| 22>   MaxIter 150
| 23> end
| 24>
| 25>
| 26>                          ****END OF INPUT****

CARTESIAN COORDINATES (ANGSTROEM)
---------------------------------
  C      2.495560    1.816150   -2.136360
  C      1.872180    0.427900   -2.077500
  H      2.614270   -0.365830   -2.198890
  H      1.389950    0.273090   -1.112360
  S      0.579020    0.140470   -3.297940
  O      0.228860   -1.246870   -3.127870
  O     -0.439270    1.118970   -3.014550
  F      1.247880    0.403470   -4.595650
  H      2.965350    1.956130   -3.087470
  H      3.225810    1.912420   -1.360240
  H      1.733500    2.555280   -2.002740

 Total Charge           Charge          ....    0
 Multiplicity           Mult            ....    1
 Number of Electrons    NEL             ....   58
 Basis Dimension        Dim             ....  222

ORBITAL ENERGIES
----------------

  NO   OCC          E(Eh)            E(eV)
   0   2.0000     -89.192550     -2427.0527
   1   2.0000     -24.886548      -677.1974
   2   2.0000     -19.244169      -523.6605
   3   2.0000     -19.243917      -523.6536
   4   2.0000     -10.333958      -281.2013
   5   2.0000     -10.292971      -280.0860
   6   2.0000      -8.255987      -224.6568
   7   2.0000      -6.213478      -169.0773
   8   2.0000      -6.207127      -168.9045
   9   2.0000      -6.206442      -168.8859
  10   2.0000      -1.467306       -39.9274
  11   2.0000      -1.232210       -33.5301
  12   2.0000      -1.140804       -31.0429
  13   2.0000      -0.939248       -25.5582
  14   2.0000      -0.831232       -22.6190
  15   2.0000      -0.781205       -21.2577
  16   2.0000      -0.685827       -18.6623
  17   2.0000      -0.668341       -18.1865
  18   2.0000      -0.650637       -17.7047
  19   2.0000      -0.596293       -16.2260
  20   2.0000      -0.577105       -15.7038
  21   2.0000      -0.556115       -15.1326
  22   2.0000      -0.535337       -14.5673
  23   2.0000      -0.506689       -13.7877
  24   2.0000      -0.499702       -13.5976
  25   2.0000      -0.477098       -12.9825
  26   2.0000      -0.438450       -11.9308
  27   2.0000      -0.424439       -11.5496
  28   2.0000      -0.417973       -11.3736
  29   0.0000       0.096386         2.6228
  30   0.0000       0.134130         3.6499
  31   0.0000       0.143209         3.8969
  32   0.0000       0.153120         4.1666
  33   0.0000       0.162598         4.4245

MULLIKEN ATOMIC CHARGES
-----------------------
   0 C :   -0.358695
   1 C :   -0.260219
   2 H :    0.149207
   3 H :    0.158487
   4 S :    0.884517
   5 O :   -0.420981
   6 O :   -0.426612
   7 F :   -0.131666
   8 H :    0.125169
   9 H :    0.130905
  10 H :    0.149888
Sum of atomic charges:   -0.0000000

LOEWDIN ATOMIC CHARGES
----------------------
   0 C :   -0.316538
   1 C :   -0.391527
   2 H :    0.137766
   3 H :    0.148408
   4 S :    0.536559
   5 O :   -0.266872
   6 O :   -0.266759
   7 F :    0.049759
   8 H :    0.119022
   9 H :    0.124202
  10 H :    0.125979

  Mayer bond orders larger than 0.100000
B(  0-C ,  1-C ) :   0.9711 B(  0-C ,  8-H ) :   0.9729 B(  0-C ,  9-H ) :   0.9661
B(  0-C , 10-H ) :   0.9680 B(  1-C ,  2-H ) :   0.9475 B(  1-C ,  3-H ) :   0.9455
B(  1-C ,  4-S ) :   0.9143 B(  4-S ,  5-O ) :   1.9447 B(  4-S ,  6-O ) :   1.9190
B(  4-S ,  7-F ) :   1.0996

Dispersion correction           -0.002901460
FINAL SINGLE POINT ENERGY      -727.756698079656

DIPOLE MOMENT
-------------
                                X             Y             Z
Electronic contribution:     -5.07313      -3.61549      -6.59544
Nuclear contribution   :      6.54345       4.10057       6.91691
                        -----------------------------------------
Total Dipole Moment    :      1.47032       0.48508       0.32147
                        -----------------------------------------
Magnitude (a.u.)       :      1.58129
Magnitude (Debye)      :      4.01933

Rotational constants in cm-1:     0.152835     0.082826     0.080611
Rotational constants in MHz :  4581.878371  2483.049050  2416.647141

                             ****ORCA TERMINATED NORMALLY****
TOTAL RUN TIME: 0 days 0 hours 0 minutes 39 seconds 96 msec
