                         Program Version 5.0.0 -  RELEASE  -
|  1> !wB97X-D3 RIJCOSX def2-TZVP def2/J TightSCF
|  2> *xyz 0 1
|  3> C          3.38093        2.08304       -3.35013
|  4> N          4.53592        1.18245       -3.42852
|  5> C          2.49556        1.81615       -2.13636
|  6> C          4.67196        0.12227       -4.22060
|  7> N          5.86602       -0.50785       -4.22428
|  8> C          3.69888       -0.31284       -4.98699
|  9> H          2.73141       -0.05009       -4.84900
| 10> H          3.89005       -1.05517       -5.64373
| 11> H          5.25193        1.30346       -2.72101
| 12> H          6.69516       -0.06232       -3.85160
| 13> H          5.97538       -1.39688       -4.69141
| 14> H          2.80646        1.98651       -4.26848
| 15> H          3.77871        3.09828       -3.30738
| 16> H          2.11090        0.81901       -2.18783
| 17> H          1.68276        2.51198       -2.12786
| 18> H          3.07216        1.93031       -1.24227
| 19> *
| 20>
| 21> %MaxCore 64000
| 22>
| 23> %pal nprocs 4
| 24> end
| 25>
| 26> %scf
| 27>   MaxIter 150
| 28> end
| 29>
| 30>
| 31>                          ****END OF INPUT****

CARTESIAN COORDINATES (ANGSTROEM)
---------------------------------
  C      3.380930    2.083040   -3.350130
  N      4.535920    1.182450   -3.428520
  C      2.495560    1.816150   -2.136360
  C      4.671960    0.122270   -4.220600
  N      5.866020   -0.507850   -4.224280
  C      3.698880   -0.312840   -4.986990
  H      2.731410   -0.050090   -4.849000
  H      3.890050   -1.055170   -5.643730
  H      5.251930    1.303460   -2.721010
  H      6.695160   -0.062320   -3.851600
  H      5.975380   -1.396880   -4.691410
  H      2.806460    1.986510   -4.268480
  H      3.778710    3.098280   -3.307380
  H      2.110900    0.819010   -2.187830
  H      1.682760    2.511980   -2.127860
  H      3.072160    1.930310   -1.242270

 Total Charge           Charge          ....    0
 Multiplicity           Mult            ....    1
 Number of Electrons    NEL             ....   48
 Basis Dimension        Dim             ....  246

ORBITAL ENERGIES
----------------

  NO   OCC          E(Eh)            E(eV)
   0   2.0000     -14.419811      -392.3830
   1   2.0000     -14.415187      -392.2572
   2   2.0000     -10.319875      -280.8181
   3   2.0000     -10.306154      -280.4447
   4   2.0000     -10.257832      -279.1298
   5   2.0000     -10.181145      -277.0430
   6   2.0000      -1.078258       -29.3409
   7   2.0000      -0.993052       -27.0223
   8   2.0000      -0.871170       -23.7057
   9   2.0000      -0.823886       -22.4191
  10   2.0000      -0.748505       -20.3679
  11   2.0000      -0.669426       -18.2160
  12   2.0000      -0.645241       -17.5579
  13   2.0000      -0.615295       -16.7430
  14   2.0000      -0.555518       -15.1164
  15   2.0000      -0.548260       -14.9189
  16   2.0000      -0.519668       -14.1409
  17   2.0000      -0.497735       -13.5441
  18   2.0000      -0.474992       -12.9252
  19   2.0000      -0.469743       -12.7824
  20   2.0000      -0.448871       -12.2144
  21   2.0000      -0.442950       -12.0533
  22   2.0000      -0.338108        -9.2004
  23   2.0000      -0.254559        -6.9269
  24   0.0000       0.107181         2.9166
  25   0.0000       0.129788         3.5317
  26   0.0000       0.149376         4.0647
  27   0.0000       0.161309         4.3894
  28   0.0000       0.173615         4.7243

MULLIKEN ATOMIC CHARGES
-----------------------
   0 C :   -0.105650
   1 N :   -0.377778
   2 C :   -0.309119
   3 C :    0.467872
   4 N :   -0.556548
   5 C :   -0.581109
   6 H :    0.112665
   7 H :    0.088741
   8 H :    0.203444
   9 H :    0.229408
  10 H :    0.255866
  11 H :    0.132307
  12 H :    0.106028
  13 H :    0.127152
  14 H :    0.109994
  15 H :    0.096726
Sum of atomic charges:    0.0000000

LOEWDIN ATOMIC CHARGES
----------------------
   0 C :   -0.290318
   1 N :    0.107872
   2 C :   -0.304774
   3 C :   -0.459897
   4 N :   -0.031532
   5 C :   -0.338747
   6 H :    0.097805
   7 H :    0.097625
   8 H :    0.177607
   9 H :    0.158863
  10 H :    0.174219
  11 H :    0.137899
  12 H :    0.126324
  13 H :    0.119477
  14 H :    0.116254
  15 H :    0.111323

  Mayer bond orders larger than 0.100000
B(  0-C ,  1-N ) :   0.8986 B(  0-C ,  2-C ) :   0.9722 B(  0-C , 11-H ) :   0.9744
B(  0-C , 12-H ) :   0.9789 B(  1-N ,  3-C ) :   1.1575 B(  1-N ,  8-H ) :   0.9300
B(  2-C , 13-H ) :   0.9748 B(  2-C , 14-H ) :   0.9783 B(  2-C , 15-H ) :   0.9788
B(  3-C ,  4-N ) :   1.0921 B(  3-C ,  5-C ) :   1.6021 B(  4-N ,  9-H ) :   0.9249
B(  4-N , 10-H ) :   0.9207 B(  5-C ,  6-H ) :   1.0056 B(  5-C ,  7-H ) :   1.0156

Dispersion correction           -0.003700597
FINAL SINGLE POINT ENERGY      -267.939008752724

DIPOLE MOMENT
-------------
                                X             Y             Z
Electronic contribution:      3.73091      -1.31506      -1.31707
Nuclear contribution   :     -3.02065       1.64092       1.99316
                        -----------------------------------------
Total Dipole Moment    :      0.71026       0.32586       0.67609
                        -----------------------------------------
Magnitude (a.u.)       :      1.03332
Magnitude (Debye)      :      2.62649

Rotational constants in cm-1:     0.259304     0.069422     0.060943
Rotational constants in MHz :  7773.747720  2081.225169  1827.013389

                             ****ORCA TERMINATED NORMALLY****
TOTAL RUN TIME: 0 days 0 hours 0 minutes 50 seconds 526 msec
