                         Program Version 5.0.0 -  RELEASE  -
|  1> !wB97X-D3 RIJCOSX def2-TZVP def2/J TightSCF xyzfile
|  2>
|  3> *xyzfile 0 1 D1.xyz
|  4>
|  5> %MaxCore 64000
|  6>
|  7> %pal nprocs 18
|  8> end
|  9>
| 10> %scf
| 11>   MaxIter 150
| 12> end
| 13>
| 14>
| 15>                          ****END OF INPUT****

CARTESIAN COORDINATES (ANGSTROEM)
---------------------------------
  C      3.380928    2.083045   -3.350127
  C      4.535924    1.182447   -3.428518
  C      2.495557    1.816150   -2.136364
  C      1.872181    0.427903   -2.077497
  H      2.614270   -0.365825   -2.198894
  H      1.389953    0.273087   -1.112360
  S      0.579024    0.140472   -3.297943
  C      4.671956    0.122273   -4.220598
  N      5.866023   -0.507849   -4.224284
  N      3.698881   -0.312844   -4.986988
  H      2.731405   -0.050091   -4.849000
  H      3.890046   -1.055172   -5.643730
  H      5.251933    1.303459   -2.721014
  H      6.695165   -0.062322   -3.851596
  H      5.975383   -1.396884   -4.691414
  F      0.228860   -1.246868   -3.127871
  O     -0.439269    1.118966   -3.014550
  O      1.247881    0.403474   -4.595647
  H      1.697003    2.561969   -2.141109
  H      3.080787    1.987436   -1.225838
  H      2.806463    1.986511   -4.268484
  H      3.778714    3.098282   -3.307383

 Total Charge           Charge          ....    0
 Multiplicity           Mult            ....    1
 Number of Electrons    NEL             ....   96
 Basis Dimension        Dim             ....  413

ORBITAL ENERGIES
----------------

  NO   OCC          E(Eh)            E(eV)
   0   2.0000     -89.204711     -2427.3836
   1   2.0000     -24.916647      -678.0164
   2   2.0000     -19.251908      -523.8710
   3   2.0000     -19.246850      -523.7334
   4   2.0000     -14.411442      -392.1553
   5   2.0000     -14.394818      -391.7029
   6   2.0000     -10.326801      -281.0065
   7   2.0000     -10.315022      -280.6860
   8   2.0000     -10.282867      -279.8110
   9   2.0000     -10.248535      -278.8768
  10   2.0000     -10.189570      -277.2723
  11   2.0000      -8.268442      -224.9957
  12   2.0000      -6.225675      -169.4092
  13   2.0000      -6.219575      -169.2432
  14   2.0000      -6.218915      -169.2253
  15   2.0000      -1.510738       -41.1093
  16   2.0000      -1.234560       -33.5941
  17   2.0000      -1.138754       -30.9871
  18   2.0000      -1.067696       -29.0535
  19   2.0000      -0.973270       -26.4840
  20   2.0000      -0.940515       -25.5927
  21   2.0000      -0.878016       -23.8920
  22   2.0000      -0.837603       -22.7923
  23   2.0000      -0.791754       -21.5447
  24   2.0000      -0.735741       -20.0205
  25   2.0000      -0.705224       -19.1901
  26   2.0000      -0.695110       -18.9149
  27   2.0000      -0.685646       -18.6574
  28   2.0000      -0.656655       -17.8685
  29   2.0000      -0.637084       -17.3359
  30   2.0000      -0.616283       -16.7699
  31   2.0000      -0.590605       -16.0712
  32   2.0000      -0.585101       -15.9214
  33   2.0000      -0.567447       -15.4410
  34   2.0000      -0.550343       -14.9756
  35   2.0000      -0.534581       -14.5467
  36   2.0000      -0.503614       -13.7040
  37   2.0000      -0.501225       -13.6390
  38   2.0000      -0.489117       -13.3096
  39   2.0000      -0.477894       -13.0042
  40   2.0000      -0.452026       -12.3003
  41   2.0000      -0.447308       -12.1719
  42   2.0000      -0.430710       -11.7202
  43   2.0000      -0.427303       -11.6275
  44   2.0000      -0.411987       -11.2107
  45   2.0000      -0.402688       -10.9577
  46   2.0000      -0.347284        -9.4501
  47   2.0000      -0.241009        -6.5582
  48   0.0000       0.100583         2.7370
  49   0.0000       0.112952         3.0736
  50   0.0000       0.122079         3.3219
  51   0.0000       0.143615         3.9080
  52   0.0000       0.148875         4.0511

MULLIKEN ATOMIC CHARGES
-----------------------
   0 C :   -0.223048
   1 C :   -0.412903
   2 C :   -0.169682
   3 C :   -0.328078
   4 H :    0.184208
   5 H :    0.155812
   6 S :    0.902792
   7 C :    0.380955
   8 N :   -0.537737
   9 N :   -0.529671
  10 H :    0.264980
  11 H :    0.214209
  12 H :    0.088861
  13 H :    0.254642
  14 H :    0.222980
  15 F :   -0.092354
  16 O :   -0.404289
  17 O :   -0.471656
  18 H :    0.133115
  19 H :    0.114394
  20 H :    0.151387
  21 H :    0.101084
Sum of atomic charges:   -0.0000000

LOEWDIN ATOMIC CHARGES
----------------------
   0 C :   -0.281231
   1 C :   -0.294765
   2 C :   -0.274250
   3 C :   -0.367322
   4 H :    0.145721
   5 H :    0.139414
   6 S :    0.554820
   7 C :   -0.466574
   8 N :   -0.034097
   9 N :   -0.001969
  10 H :    0.133047
  11 H :    0.160399
  12 H :    0.116449
  13 H :    0.173741
  14 H :    0.156661
  15 F :    0.104956
  16 O :   -0.251171
  17 O :   -0.287833
  18 H :    0.143142
  19 H :    0.145890
  20 H :    0.144289
  21 H :    0.140684

  Mayer bond orders larger than 0.100000
B(  0-C ,  1-C ) :   0.9791 B(  0-C ,  2-C ) :   0.9580 B(  0-C , 20-H ) :   0.9910
B(  0-C , 21-H ) :   0.9843 B(  1-C ,  7-C ) :   1.6384 B(  1-C , 12-H ) :   0.9989
B(  2-C ,  3-C ) :   0.9707 B(  2-C , 18-H ) :   0.9657 B(  2-C , 19-H ) :   0.9610
B(  3-C ,  4-H ) :   0.9321 B(  3-C ,  5-H ) :   0.9454 B(  3-C ,  6-S ) :   0.9374
B(  6-S , 15-F ) :   1.1554 B(  6-S , 16-O ) :   1.9500 B(  6-S , 17-O ) :   1.7266
B(  7-C ,  8-N ) :   1.1158 B(  7-C ,  9-N ) :   1.1808 B(  8-N , 13-H ) :   0.9188
B(  8-N , 14-H ) :   0.9262 B(  9-N , 10-H ) :   0.8409 B(  9-N , 11-H ) :   0.9308
B( 10-H , 17-O ) :   0.1307

Dispersion correction           -0.009842530
FINAL SINGLE POINT ENERGY      -955.169226361877

DIPOLE MOMENT
-------------
                                X             Y             Z
Electronic contribution:    -15.30152      -6.80125      -1.17861
Nuclear contribution   :     15.92508       5.34175       1.81950
                        -----------------------------------------
Total Dipole Moment    :      0.62356      -1.45950       0.64089
                        -----------------------------------------
Magnitude (a.u.)       :      1.71164
Magnitude (Debye)      :      4.35064

Rotational constants in cm-1:     0.058561     0.020662     0.017762
Rotational constants in MHz :  1755.621534   619.433801   532.501507

                             ****ORCA TERMINATED NORMALLY****
TOTAL RUN TIME: 0 days 0 hours 0 minutes 53 seconds 802 msec
