                         Program Version 5.0.0 -  RELEASE  -
|  1> !wB97X-D3 RIJCOSX def2-TZVP def2/J TightSCF xyzfile
|  2>
|  3> *xyzfile 0 1 D4.xyz
|  4>
|  5> %MaxCore 64000
|  6>
|  7> %pal nprocs 18
|  8> end
|  9>
| 10> %scf
| 11>   MaxIter 150
| 12> end
| 13>
| 14>
| 15>                          ****END OF INPUT****

CARTESIAN COORDINATES (ANGSTROEM)
---------------------------------
  C      3.380928    2.083045   -3.350127
  C      4.535924    1.182447   -3.428518
  C      2.495557    1.816150   -2.136364
  C      1.872181    0.427903   -2.077497
  H      2.614270   -0.365825   -2.198894
  H      1.389953    0.273087   -1.112360
  S      0.579024    0.140472   -3.297943
  C      4.671956    0.122273   -4.220598
  N      5.866023   -0.507849   -4.224284
  N      3.698881   -0.312844   -4.986988
  H      2.731405   -0.050091   -4.849000
  H      3.890046   -1.055172   -5.643730
  H      5.251933    1.303459   -2.721014
  H      6.695165   -0.062322   -3.851596
  H      5.975383   -1.396884   -4.691414
  O      0.228860   -1.246868   -3.127871
  F     -0.439269    1.118966   -3.014550
  O      1.247881    0.403474   -4.595647
  H      1.697003    2.561969   -2.141109
  H      3.080787    1.987436   -1.225838
  H      2.806463    1.986511   -4.268484
  H      3.778714    3.098282   -3.307383

 Total Charge           Charge          ....    0
 Multiplicity           Mult            ....    1
 Number of Electrons    NEL             ....   96
 Basis Dimension        Dim             ....  413

ORBITAL ENERGIES
----------------

  NO   OCC          E(Eh)            E(eV)
   0   2.0000     -89.205067     -2427.3933
   1   2.0000     -24.916213      -678.0046
   2   2.0000     -19.252451      -523.8858
   3   2.0000     -19.246149      -523.7143
   4   2.0000     -14.410682      -392.1346
   5   2.0000     -14.393929      -391.6787
   6   2.0000     -10.326356      -280.9944
   7   2.0000     -10.315159      -280.6898
   8   2.0000     -10.285288      -279.8769
   9   2.0000     -10.250812      -278.9388
  10   2.0000     -10.189798      -277.2785
  11   2.0000      -8.268655      -225.0015
  12   2.0000      -6.225977      -169.4174
  13   2.0000      -6.219807      -169.2496
  14   2.0000      -6.219062      -169.2293
  15   2.0000      -1.510267       -41.0964
  16   2.0000      -1.234298       -33.5870
  17   2.0000      -1.138910       -30.9913
  18   2.0000      -1.066790       -29.0288
  19   2.0000      -0.972229       -26.4557
  20   2.0000      -0.943318       -25.6690
  21   2.0000      -0.875966       -23.8363
  22   2.0000      -0.837028       -22.7767
  23   2.0000      -0.793848       -21.6017
  24   2.0000      -0.734426       -19.9847
  25   2.0000      -0.708576       -19.2813
  26   2.0000      -0.699140       -19.0246
  27   2.0000      -0.684938       -18.6381
  28   2.0000      -0.652951       -17.7677
  29   2.0000      -0.634315       -17.2606
  30   2.0000      -0.615249       -16.7418
  31   2.0000      -0.587552       -15.9881
  32   2.0000      -0.581001       -15.8098
  33   2.0000      -0.574732       -15.6392
  34   2.0000      -0.551893       -15.0178
  35   2.0000      -0.537903       -14.6371
  36   2.0000      -0.506544       -13.7838
  37   2.0000      -0.498133       -13.5549
  38   2.0000      -0.496499       -13.5104
  39   2.0000      -0.475611       -12.9420
  40   2.0000      -0.453635       -12.3440
  41   2.0000      -0.442291       -12.0354
  42   2.0000      -0.434779       -11.8309
  43   2.0000      -0.426766       -11.6129
  44   2.0000      -0.418726       -11.3941
  45   2.0000      -0.399685       -10.8760
  46   2.0000      -0.345975        -9.4145
  47   2.0000      -0.241090        -6.5604
  48   0.0000       0.095589         2.6011
  49   0.0000       0.118063         3.2127
  50   0.0000       0.121847         3.3156
  51   0.0000       0.135230         3.6798
  52   0.0000       0.151783         4.1302

MULLIKEN ATOMIC CHARGES
-----------------------
   0 C :   -0.208525
   1 C :   -0.419935
   2 C :   -0.174498
   3 C :   -0.332696
   4 H :    0.204413
   5 H :    0.156604
   6 S :    0.901948
   7 C :    0.379831
   8 N :   -0.537113
   9 N :   -0.522835
  10 H :    0.275125
  11 H :    0.216866
  12 H :    0.090004
  13 H :    0.254007
  14 H :    0.225302
  15 O :   -0.405253
  16 F :   -0.090876
  17 O :   -0.480438
  18 H :    0.107416
  19 H :    0.115024
  20 H :    0.145304
  21 H :    0.100325
Sum of atomic charges:    0.0000000

LOEWDIN ATOMIC CHARGES
----------------------
   0 C :   -0.285241
   1 C :   -0.296714
   2 C :   -0.286549
   3 C :   -0.361648
   4 H :    0.158323
   5 H :    0.139299
   6 S :    0.555814
   7 C :   -0.463945
   8 N :   -0.032405
   9 N :    0.005303
  10 H :    0.138181
  11 H :    0.162319
  12 H :    0.116551
  13 H :    0.173669
  14 H :    0.157710
  15 O :   -0.255651
  16 F :    0.109705
  17 O :   -0.294037
  18 H :    0.132597
  19 H :    0.144640
  20 H :    0.142290
  21 H :    0.139788

  Mayer bond orders larger than 0.100000
B(  0-C ,  1-C ) :   0.9834 B(  0-C ,  2-C ) :   0.9424 B(  0-C , 20-H ) :   0.9898
B(  0-C , 21-H ) :   0.9841 B(  1-C ,  7-C ) :   1.6310 B(  1-C , 12-H ) :   0.9988
B(  2-C ,  3-C ) :   0.9562 B(  2-C , 18-H ) :   0.9762 B(  2-C , 19-H ) :   0.9629
B(  3-C ,  4-H ) :   0.9327 B(  3-C ,  5-H ) :   0.9538 B(  3-C ,  6-S ) :   0.9329
B(  6-S , 15-O ) :   1.9542 B(  6-S , 16-F ) :   1.1587 B(  6-S , 17-O ) :   1.7269
B(  7-C ,  8-N ) :   1.1172 B(  7-C ,  9-N ) :   1.1922 B(  8-N , 13-H ) :   0.9187
B(  8-N , 14-H ) :   0.9254 B(  9-N , 10-H ) :   0.8490 B(  9-N , 11-H ) :   0.9300
B( 10-H , 17-O ) :   0.1085

Dispersion correction           -0.009839859
FINAL SINGLE POINT ENERGY      -955.169674835078

DIPOLE MOMENT
-------------
                                X             Y             Z
Electronic contribution:    -16.42426      -2.72363      -1.00066
Nuclear contribution   :     16.65743       2.74852       1.69529
                        -----------------------------------------
Total Dipole Moment    :      0.23317       0.02488       0.69463
                        -----------------------------------------
Magnitude (a.u.)       :      0.73314
Magnitude (Debye)      :      1.86349

Rotational constants in cm-1:     0.059907     0.020458     0.017675
Rotational constants in MHz :  1795.978106   613.328205   529.885290

                             ****ORCA TERMINATED NORMALLY****
TOTAL RUN TIME: 0 days 0 hours 0 minutes 57 seconds 799 msec
