                         Program Version 5.0.0 -  RELEASE  -
|  1> !wB97X-D3 RIJCOSX def2-TZVP def2/J TightSCF xyzfile
|  2>
|  3> *xyzfile 0 1 D5.xyz
|  4>
|  5> %MaxCore 64000
|  6>
|  7> %pal nprocs 18
|  8> end
|  9>
| 10> %scf
| 11>   MaxIter 150
| 12> end
| 13>
| 14>
| 15>                          ****END OF INPUT****

CARTESIAN COORDINATES (ANGSTROEM)
---------------------------------
  C      3.380928    2.083045   -3.350127
  N      4.535924    1.182447   -3.428518
  C      2.495557    1.816150   -2.136364
  C      1.872181    0.427903   -2.077497
  H      2.614270   -0.365825   -2.198894
  H      1.389953    0.273087   -1.112360
  S      0.579024    0.140472   -3.297943
  C      4.671956    0.122273   -4.220598
  C      5.866023   -0.507849   -4.224284
  N      3.698881   -0.312844   -4.986988
  H      2.731405   -0.050091   -4.849000
  H      3.890046   -1.055172   -5.643730
  H      5.251933    1.303459   -2.721014
  H      6.695165   -0.062322   -3.851596
  H      5.975383   -1.396884   -4.691414
  O      0.228860   -1.246868   -3.127871
  F     -0.439269    1.118966   -3.014550
  O      1.247881    0.403474   -4.595647
  H      1.697003    2.561969   -2.141109
  H      3.080787    1.987436   -1.225838
  H      2.806463    1.986511   -4.268484
  H      3.778714    3.098282   -3.307383

 Total Charge           Charge          ....    0
 Multiplicity           Mult            ....    1
 Number of Electrons    NEL             ....   96
 Basis Dimension        Dim             ....  413

ORBITAL ENERGIES
----------------

  NO   OCC          E(Eh)            E(eV)
   0   2.0000     -89.218840     -2427.7681
   1   2.0000     -24.929463      -678.3652
   2   2.0000     -19.264662      -524.2181
   3   2.0000     -19.259213      -524.0698
   4   2.0000     -14.422238      -392.4490
   5   2.0000     -14.391450      -391.6113
   6   2.0000     -10.346388      -281.5395
   7   2.0000     -10.320344      -280.8308
   8   2.0000     -10.314624      -280.6752
   9   2.0000     -10.314508      -280.6720
  10   2.0000     -10.170155      -276.7440
  11   2.0000      -8.282327      -225.3736
  12   2.0000      -6.239620      -169.7887
  13   2.0000      -6.233500      -169.6222
  14   2.0000      -6.232792      -169.6029
  15   2.0000      -1.523580       -41.4587
  16   2.0000      -1.246803       -33.9272
  17   2.0000      -1.151469       -31.3331
  18   2.0000      -1.078609       -29.3504
  19   2.0000      -0.995722       -27.0950
  20   2.0000      -0.954627       -25.9767
  21   2.0000      -0.882933       -24.0258
  22   2.0000      -0.839843       -22.8533
  23   2.0000      -0.800874       -21.7929
  24   2.0000      -0.746209       -20.3054
  25   2.0000      -0.718881       -19.5617
  26   2.0000      -0.716564       -19.4987
  27   2.0000      -0.700635       -19.0652
  28   2.0000      -0.678900       -18.4738
  29   2.0000      -0.643380       -17.5073
  30   2.0000      -0.611084       -16.6285
  31   2.0000      -0.599015       -16.3000
  32   2.0000      -0.588367       -16.0103
  33   2.0000      -0.579388       -15.7659
  34   2.0000      -0.560475       -15.2513
  35   2.0000      -0.549423       -14.9506
  36   2.0000      -0.518137       -14.0992
  37   2.0000      -0.510759       -13.8985
  38   2.0000      -0.504050       -13.7159
  39   2.0000      -0.487611       -13.2686
  40   2.0000      -0.478653       -13.0248
  41   2.0000      -0.460346       -12.5266
  42   2.0000      -0.448382       -12.2011
  43   2.0000      -0.437279       -11.8990
  44   2.0000      -0.432674       -11.7737
  45   2.0000      -0.426624       -11.6090
  46   2.0000      -0.338777        -9.2186
  47   2.0000      -0.235605        -6.4111
  48   0.0000       0.082415         2.2426
  49   0.0000       0.101760         2.7690
  50   0.0000       0.120042         3.2665
  51   0.0000       0.131579         3.5804
  52   0.0000       0.135395         3.6843

MULLIKEN ATOMIC CHARGES
-----------------------
   0 C :   -0.199384
   1 N :   -0.362342
   2 C :   -0.199619
   3 C :   -0.324741
   4 H :    0.210900
   5 H :    0.164411
   6 S :    0.900028
   7 C :    0.432412
   8 C :   -0.632530
   9 N :   -0.520320
  10 H :    0.260585
  11 H :    0.245069
  12 H :    0.232542
  13 H :    0.101907
  14 H :    0.094688
  15 O :   -0.394653
  16 F :   -0.089669
  17 O :   -0.474434
  18 H :    0.117587
  19 H :    0.128248
  20 H :    0.181694
  21 H :    0.127620
Sum of atomic charges:    0.0000000

LOEWDIN ATOMIC CHARGES
----------------------
   0 C :   -0.285435
   1 N :    0.113216
   2 C :   -0.293836
   3 C :   -0.361415
   4 H :    0.161522
   5 H :    0.142671
   6 S :    0.554060
   7 C :   -0.476835
   8 C :   -0.373819
   9 N :    0.005233
  10 H :    0.129201
  11 H :    0.178628
  12 H :    0.193555
  13 H :    0.090047
  14 H :    0.090735
  15 O :   -0.246573
  16 F :    0.110538
  17 O :   -0.291640
  18 H :    0.140024
  19 H :    0.145735
  20 H :    0.141032
  21 H :    0.133357

  Mayer bond orders larger than 0.100000
B(  0-C ,  1-N ) :   0.9028 B(  0-C ,  2-C ) :   0.9491 B(  0-C , 20-H ) :   0.9764
B(  0-C , 21-H ) :   0.9808 B(  1-N ,  7-C ) :   1.1556 B(  1-N , 12-H ) :   0.9233
B(  2-C ,  3-C ) :   0.9581 B(  2-C , 18-H ) :   0.9734 B(  2-C , 19-H ) :   0.9595
B(  3-C ,  4-H ) :   0.9287 B(  3-C ,  5-H ) :   0.9517 B(  3-C ,  6-S ) :   0.9281
B(  6-S , 15-O ) :   1.9636 B(  6-S , 16-F ) :   1.1585 B(  6-S , 17-O ) :   1.7309
B(  7-C ,  8-C ) :   1.5283 B(  7-C ,  9-N ) :   1.1929 B(  8-C , 13-H ) :   1.0141
B(  8-C , 14-H ) :   1.0160 B(  9-N , 10-H ) :   0.8578 B(  9-N , 11-H ) :   0.9260

Dispersion correction           -0.009879548
FINAL SINGLE POINT ENERGY      -955.153681957956

DIPOLE MOMENT
-------------
                                X             Y             Z
Electronic contribution:    -17.94681      -1.18014      -0.17120
Nuclear contribution   :     16.78714       2.58368       1.61768
                        -----------------------------------------
Total Dipole Moment    :     -1.15967       1.40354       1.44648
                        -----------------------------------------
Magnitude (a.u.)       :      2.32531
Magnitude (Debye)      :      5.91047

Rotational constants in cm-1:     0.059928     0.020911     0.017993
Rotational constants in MHz :  1796.610847   626.896941   539.414615

                             ****ORCA TERMINATED NORMALLY****
TOTAL RUN TIME: 0 days 0 hours 0 minutes 42 seconds 257 msec
