                         Program Version 5.0.0 -  RELEASE  -
|  1> !wB97X-D3 RIJCOSX def2-TZVP def2/J TightSCF xyzfile
|  2>
|  3> *xyzfile 0 1 D9.xyz
|  4>
|  5> %MaxCore 64000
|  6>
|  7> %pal nprocs 18
|  8> end
|  9>
| 10> %scf
| 11>   MaxIter 150
| 12> end
| 13>
| 14>
| 15>                          ****END OF INPUT****

CARTESIAN COORDINATES (ANGSTROEM)
---------------------------------
  C      3.380928    2.083045   -3.350127
  N      4.535924    1.182447   -3.428518
  C      2.495557    1.816150   -2.136364
  C      1.872181    0.427903   -2.077497
  H      2.614270   -0.365825   -2.198894
  H      1.389953    0.273087   -1.112360
  S      0.579024    0.140472   -3.297943
  C      4.671956    0.122273   -4.220598
  N      5.866023   -0.507849   -4.224284
  C      3.698881   -0.312844   -4.986988
  H      2.731405   -0.050091   -4.849000
  H      3.890046   -1.055172   -5.643730
  H      5.251933    1.303459   -2.721014
  H      6.695165   -0.062322   -3.851596
  H      5.975383   -1.396884   -4.691414
  O      0.228860   -1.246868   -3.127871
  O     -0.439269    1.118966   -3.014550
  F      1.247881    0.403474   -4.595647
  H      1.697003    2.561969   -2.141109
  H      3.080787    1.987436   -1.225838
  H      2.806463    1.986511   -4.268484
  H      3.778714    3.098282   -3.307383

 Total Charge           Charge          ....    0
 Multiplicity           Mult            ....    1
 Number of Electrons    NEL             ....   96
 Basis Dimension        Dim             ....  413

ORBITAL ENERGIES
----------------

  NO   OCC          E(Eh)            E(eV)
   0   2.0000     -89.189745     -2426.9764
   1   2.0000     -24.884287      -677.1359
   2   2.0000     -19.242003      -523.6015
   3   2.0000     -19.240307      -523.5554
   4   2.0000     -14.436371      -392.8336
   5   2.0000     -14.424698      -392.5160
   6   2.0000     -10.331020      -281.1214
   7   2.0000     -10.328119      -281.0424
   8   2.0000     -10.327151      -281.0161
   9   2.0000     -10.304915      -280.4110
  10   2.0000     -10.184522      -277.1349
  11   2.0000      -8.253341      -224.5848
  12   2.0000      -6.210923      -169.0078
  13   2.0000      -6.204434      -168.8312
  14   2.0000      -6.203700      -168.8112
  15   2.0000      -1.470960       -40.0268
  16   2.0000      -1.230007       -33.4702
  17   2.0000      -1.137768       -30.9602
  18   2.0000      -1.092876       -29.7387
  19   2.0000      -1.008466       -27.4418
  20   2.0000      -0.941577       -25.6216
  21   2.0000      -0.863326       -23.4923
  22   2.0000      -0.843435       -22.9510
  23   2.0000      -0.804920       -21.9030
  24   2.0000      -0.761450       -20.7201
  25   2.0000      -0.693955       -18.8835
  26   2.0000      -0.688687       -18.7401
  27   2.0000      -0.668337       -18.1864
  28   2.0000      -0.658160       -17.9094
  29   2.0000      -0.646617       -17.5953
  30   2.0000      -0.619538       -16.8585
  31   2.0000      -0.598058       -16.2740
  32   2.0000      -0.580923       -15.8077
  33   2.0000      -0.566416       -15.4130
  34   2.0000      -0.560701       -15.2575
  35   2.0000      -0.545029       -14.8310
  36   2.0000      -0.516328       -14.0500
  37   2.0000      -0.507277       -13.8037
  38   2.0000      -0.496829       -13.5194
  39   2.0000      -0.480006       -13.0616
  40   2.0000      -0.476287       -12.9604
  41   2.0000      -0.467414       -12.7190
  42   2.0000      -0.451942       -12.2980
  43   2.0000      -0.434147       -11.8137
  44   2.0000      -0.420124       -11.4321
  45   2.0000      -0.413440       -11.2503
  46   2.0000      -0.352708        -9.5977
  47   2.0000      -0.266217        -7.2441
  48   0.0000       0.091119         2.4795
  49   0.0000       0.109568         2.9815
  50   0.0000       0.122276         3.3273
  51   0.0000       0.141393         3.8475
  52   0.0000       0.145599         3.9620

MULLIKEN ATOMIC CHARGES
-----------------------
   0 C :   -0.177894
   1 N :   -0.381353
   2 C :   -0.215160
   3 C :   -0.308274
   4 H :    0.190244
   5 H :    0.172088
   6 S :    0.888439
   7 C :    0.462638
   8 N :   -0.556348
   9 C :   -0.575441
  10 H :    0.099642
  11 H :    0.093227
  12 H :    0.207920
  13 H :    0.231018
  14 H :    0.259670
  15 O :   -0.417306
  16 O :   -0.427609
  17 F :   -0.108124
  18 H :    0.145224
  19 H :    0.116116
  20 H :    0.171835
  21 H :    0.129446
Sum of atomic charges:   -0.0000000

LOEWDIN ATOMIC CHARGES
----------------------
   0 C :   -0.269116
   1 N :    0.108918
   2 C :   -0.293159
   3 C :   -0.361341
   4 H :    0.149181
   5 H :    0.150573
   6 S :    0.548016
   7 C :   -0.469886
   8 N :   -0.029032
   9 C :   -0.340208
  10 H :    0.077609
  11 H :    0.099352
  12 H :    0.179253
  13 H :    0.159302
  14 H :    0.175981
  15 O :   -0.260366
  16 O :   -0.266862
  17 F :    0.074818
  18 H :    0.148791
  19 H :    0.142009
  20 H :    0.141022
  21 H :    0.135144

  Mayer bond orders larger than 0.100000
B(  0-C ,  1-N ) :   0.8688 B(  0-C ,  2-C ) :   0.9762 B(  0-C , 20-H ) :   0.9789
B(  0-C , 21-H ) :   0.9797 B(  1-N ,  7-C ) :   1.1504 B(  1-N , 12-H ) :   0.9260
B(  2-C ,  3-C ) :   0.9630 B(  2-C , 18-H ) :   0.9672 B(  2-C , 19-H ) :   0.9609
B(  3-C ,  4-H ) :   0.9411 B(  3-C ,  5-H ) :   0.9452 B(  3-C ,  6-S ) :   0.9186
B(  6-S , 15-O ) :   1.9440 B(  6-S , 16-O ) :   1.9212 B(  6-S , 17-F ) :   1.0722
B(  7-C ,  8-N ) :   1.0864 B(  7-C ,  9-C ) :   1.5740 B(  8-N , 13-H ) :   0.9248
B(  8-N , 14-H ) :   0.9188 B(  9-C , 10-H ) :   1.0376 B(  9-C , 11-H ) :   1.0154

Dispersion correction           -0.009826618
FINAL SINGLE POINT ENERGY      -955.157002746230

DIPOLE MOMENT
-------------
                                X             Y             Z
Electronic contribution:    -12.58844      -2.63583      -2.40514
Nuclear contribution   :     14.72648       3.38697       3.27638
                        -----------------------------------------
Total Dipole Moment    :      2.13804       0.75113       0.87124
                        -----------------------------------------
Magnitude (a.u.)       :      2.42786
Magnitude (Debye)      :      6.17112

Rotational constants in cm-1:     0.059651     0.020833     0.018010
Rotational constants in MHz :  1788.283887   624.555661   539.921162

                             ****ORCA TERMINATED NORMALLY****
TOTAL RUN TIME: 0 days 0 hours 0 minutes 43 seconds 599 msec
