                         Program Version 5.0.0 -  RELEASE  -
|  1> !PBE D3BJ RIJCOSX def2-SVPD def2/J TightSCF
|  2> *xyz -1 1
|  3> C         -0.50835        1.72268       -4.12430
|  4> S         -1.32861        0.14674       -4.43578
|  5> O         -2.57135        0.47573       -5.06834
|  6> O         -1.51496       -0.40051       -3.06342
|  7> O         -0.37793       -0.62756       -5.20114
|  8> H         -0.31967        2.21655       -5.05456
|  9> H          0.41835        1.54859       -3.61852
| 10> H         -1.13714        2.33776       -3.51504
| 11> *
| 12> %MaxCore 64000
| 13>
| 14> %pal nprocs 4
| 15> end
| 16>
| 17> %scf
| 18>   MaxIter 150
| 19> end
| 20>
| 21>
| 22>                          ****END OF INPUT****

CARTESIAN COORDINATES (ANGSTROEM)
---------------------------------
  C     -0.508350    1.722680   -4.124300
  S     -1.328610    0.146740   -4.435780
  O     -2.571350    0.475730   -5.068340
  O     -1.514960   -0.400510   -3.063420
  O     -0.377930   -0.627560   -5.201140
  H     -0.319670    2.216550   -5.054560
  H      0.418350    1.548590   -3.618520
  H     -1.137140    2.337760   -3.515040

 Total Charge           Charge          ....   -1
 Multiplicity           Mult            ....    1
 Number of Electrons    NEL             ....   50
 Basis Dimension        Dim             ....  140

ORBITAL ENERGIES
----------------

  NO   OCC          E(Eh)            E(eV)
   0   2.0000     -88.054379     -2396.0815
   1   2.0000     -18.547758      -504.7101
   2   2.0000     -18.545048      -504.6364
   3   2.0000     -18.530533      -504.2414
   4   2.0000      -9.741662      -265.0841
   5   2.0000      -7.658582      -208.4006
   6   2.0000      -5.685580      -154.7125
   7   2.0000      -5.685351      -154.7063
   8   2.0000      -5.685013      -154.6971
   9   2.0000      -0.841592       -22.9009
  10   2.0000      -0.710423       -19.3316
  11   2.0000      -0.680718       -18.5233
  12   2.0000      -0.503876       -13.7112
  13   2.0000      -0.325188        -8.8488
  14   2.0000      -0.249408        -6.7867
  15   2.0000      -0.236610        -6.4385
  16   2.0000      -0.236011        -6.4222
  17   2.0000      -0.198123        -5.3912
  18   2.0000      -0.195905        -5.3309
  19   2.0000      -0.104754        -2.8505
  20   2.0000      -0.103682        -2.8213
  21   2.0000      -0.072890        -1.9834
  22   2.0000      -0.068491        -1.8637
  23   2.0000      -0.053224        -1.4483
  24   2.0000      -0.019159        -0.5213
  25   0.0000       0.137389         3.7385
  26   0.0000       0.172505         4.6941
  27   0.0000       0.173369         4.7176
  28   0.0000       0.175201         4.7674
  29   0.0000       0.198688         5.4066

MULLIKEN ATOMIC CHARGES
-----------------------
   0 C :    0.503118
   1 S :    0.933061
   2 O :   -0.694975
   3 O :   -0.761718
   4 O :   -0.710416
   5 H :   -0.098692
   6 H :   -0.084364
   7 H :   -0.086016
Sum of atomic charges:   -1.0000000

LOEWDIN ATOMIC CHARGES
----------------------
   0 C :    0.048609
   1 S :    0.779594
   2 O :   -0.553701
   3 O :   -0.584252
   4 O :   -0.559649
   5 H :   -0.045846
   6 H :   -0.042111
   7 H :   -0.042643

  Mayer bond orders larger than 0.100000
B(  0-C ,  1-S ) :   0.9349 B(  0-C ,  5-H ) :   0.9233 B(  0-C ,  6-H ) :   0.9235
B(  0-C ,  7-H ) :   0.9233 B(  1-S ,  2-O ) :   1.3844 B(  1-S ,  3-O ) :   1.3398
B(  1-S ,  4-O ) :   1.3733 B(  1-S ,  5-H ) :   0.1120 B(  1-S ,  6-H ) :   0.1206
B(  1-S ,  7-H ) :   0.1190

Dispersion correction           -0.006312712
FINAL SINGLE POINT ENERGY      -663.051769146547

DIPOLE MOMENT
-------------
                                X             Y             Z
Electronic contribution:     -2.03356      -3.83016      -0.91114
Nuclear contribution   :      2.60425       5.03732       0.91691
                        -----------------------------------------
Total Dipole Moment    :      0.57069       1.20716       0.00576
                        -----------------------------------------
Magnitude (a.u.)       :      1.33527
Magnitude (Debye)      :      3.39399

Rotational constants in cm-1:     0.171343     0.157827     0.155747
Rotational constants in MHz :  5136.740483  4731.521814  4669.189064

                             ****ORCA TERMINATED NORMALLY****
TOTAL RUN TIME: 0 days 0 hours 0 minutes 4 seconds 639 msec
