                         Program Version 5.0.0 -  RELEASE  -
|  1> !PBE D3BJ RIJCOSX def2-SVPD def2/J TightSCF
|  2> *xyz 1 1
|  3> C          1.36401        0.46874       -2.81376
|  4> N          0.42884        0.32140       -1.65531
|  5> H          0.74858       -0.40054       -1.00134
|  6> H         -0.46105        0.02333       -2.07773
|  7> H          0.31026        1.20137       -1.13495
|  8> H          0.99872        1.22859       -3.47261
|  9> H          1.42772       -0.46011       -3.34109
| 10> H          2.33442        0.74312       -2.45611
| 11> *
| 12> %MaxCore 64000
| 13>
| 14> %pal nprocs 4
| 15> end
| 16>
| 17> %scf
| 18>   MaxIter 150
| 19> end
| 20>
| 21>
| 22>                          ****END OF INPUT****

CARTESIAN COORDINATES (ANGSTROEM)
---------------------------------
  C      1.364010    0.468740   -2.813760
  N      0.428840    0.321400   -1.655310
  H      0.748580   -0.400540   -1.001340
  H     -0.461050    0.023330   -2.077730
  H      0.310260    1.201370   -1.134950
  H      0.998720    1.228590   -3.472610
  H      1.427720   -0.460110   -3.341090
  H      2.334420    0.743120   -2.456110

 Total Charge           Charge          ....    1
 Multiplicity           Mult            ....    1
 Number of Electrons    NEL             ....   18
 Basis Dimension        Dim             ....   88

ORBITAL ENERGIES
----------------

  NO   OCC          E(Eh)            E(eV)
   0   2.0000     -14.348930      -390.4542
   1   2.0000     -10.154200      -276.3098
   2   2.0000      -1.139340       -31.0030
   3   2.0000      -0.868633       -23.6367
   4   2.0000      -0.763254       -20.7692
   5   2.0000      -0.758621       -20.6431
   6   2.0000      -0.667854       -18.1732
   7   2.0000      -0.583285       -15.8720
   8   2.0000      -0.581309       -15.8182
   9   0.0000      -0.228328        -6.2131
  10   0.0000      -0.164168        -4.4672
  11   0.0000      -0.160711        -4.3732
  12   0.0000      -0.151493        -4.1223
  13   0.0000      -0.109225        -2.9722

MULLIKEN ATOMIC CHARGES
-----------------------
   0 C :    0.960838
   1 N :   -0.768923
   2 H :    0.343688
   3 H :    0.382442
   4 H :    0.347733
   5 H :   -0.081729
   6 H :   -0.077807
   7 H :   -0.106242
Sum of atomic charges:    1.0000000

LOEWDIN ATOMIC CHARGES
----------------------
   0 C :    0.280553
   1 N :    0.323366
   2 H :    0.105499
   3 H :    0.105482
   4 H :    0.110299
   5 H :    0.025686
   6 H :    0.025913
   7 H :    0.023202

  Mayer bond orders larger than 0.100000
B(  0-C ,  1-N ) :   0.8590 B(  0-C ,  5-H ) :   0.8821 B(  0-C ,  6-H ) :   0.8791
B(  0-C ,  7-H ) :   0.9076 B(  1-N ,  2-H ) :   0.7875 B(  1-N ,  3-H ) :   0.7406
B(  1-N ,  4-H ) :   0.7811 B(  1-N ,  5-H ) :   0.1010 B(  1-N ,  6-H ) :   0.1011

Dispersion correction           -0.003368707
FINAL SINGLE POINT ENERGY       -96.017473015557

DIPOLE MOMENT
-------------
                                X             Y             Z
Electronic contribution:     -0.68002      -0.09436       0.88254
Nuclear contribution   :      0.14628      -0.00095      -0.25828
                        -----------------------------------------
Total Dipole Moment    :     -0.53374      -0.09530       0.62427
                        -----------------------------------------
Magnitude (a.u.)       :      0.82684
Magnitude (Debye)      :      2.10167

Rotational constants in cm-1:     2.853706     0.682028     0.680630
Rotational constants in MHz : 85551.942317 20446.672693 20404.761959

                             ****ORCA TERMINATED NORMALLY****
TOTAL RUN TIME: 0 days 0 hours 0 minutes 2 seconds 701 msec
