                         Program Version 5.0.0 -  RELEASE  -
|  1> !PBE D3BJ RIJCOSX def2-SVPD def2/J TightSCF
|  2> *xyz 0 1
|  3> C         -0.50835        1.72268       -4.12430
|  4> S         -1.32861        0.14674       -4.43578
|  5> F         -2.57135        0.47573       -5.06834
|  6> O         -1.51496       -0.40051       -3.06342
|  7> O         -0.37793       -0.62756       -5.20114
|  8> H         -0.31967        2.21655       -5.05456
|  9> H          0.41835        1.54859       -3.61852
| 10> H         -1.13714        2.33776       -3.51504
| 11> *
| 12> %MaxCore 64000
| 13>
| 14> %pal nprocs 4
| 15> end
| 16>
| 17> %scf
| 18>   MaxIter 150
| 19> end
| 20>
| 21>
| 22>                          ****END OF INPUT****

CARTESIAN COORDINATES (ANGSTROEM)
---------------------------------
  C     -0.508350    1.722680   -4.124300
  S     -1.328610    0.146740   -4.435780
  F     -2.571350    0.475730   -5.068340
  O     -1.514960   -0.400510   -3.063420
  O     -0.377930   -0.627560   -5.201140
  H     -0.319670    2.216550   -5.054560
  H      0.418350    1.548590   -3.618520
  H     -1.137140    2.337760   -3.515040

 Total Charge           Charge          ....    0
 Multiplicity           Mult            ....    1
 Number of Electrons    NEL             ....   50
 Basis Dimension        Dim             ....  140

ORBITAL ENERGIES
----------------

  NO   OCC          E(Eh)            E(eV)
   0   2.0000     -88.317757     -2403.2484
   1   2.0000     -24.397788      -663.8976
   2   2.0000     -18.783083      -511.1137
   3   2.0000     -18.768079      -510.7054
   4   2.0000      -9.951013      -270.7808
   5   2.0000      -7.922673      -215.5869
   6   2.0000      -5.954010      -162.0168
   7   2.0000      -5.947241      -161.8327
   8   2.0000      -5.946064      -161.8006
   9   2.0000      -1.284773       -34.9605
  10   2.0000      -1.021626       -27.7999
  11   2.0000      -0.919831       -25.0299
  12   2.0000      -0.727110       -19.7857
  13   2.0000      -0.659623       -17.9493
  14   2.0000      -0.549835       -14.9618
  15   2.0000      -0.533501       -14.5173
  16   2.0000      -0.502064       -13.6618
  17   2.0000      -0.428822       -11.6688
  18   2.0000      -0.428379       -11.6568
  19   2.0000      -0.418351       -11.3839
  20   2.0000      -0.392906       -10.6915
  21   2.0000      -0.342733        -9.3262
  22   2.0000      -0.297721        -8.1014
  23   2.0000      -0.282220        -7.6796
  24   2.0000      -0.263723        -7.1763
  25   0.0000      -0.035307        -0.9608
  26   0.0000       0.003328         0.0905
  27   0.0000       0.007242         0.1971
  28   0.0000       0.029582         0.8050
  29   0.0000       0.031314         0.8521

MULLIKEN ATOMIC CHARGES
-----------------------
   0 C :    0.494634
   1 S :    1.116957
   2 F :   -0.324445
   3 O :   -0.616125
   4 O :   -0.570511
   5 H :   -0.037394
   6 H :   -0.036175
   7 H :   -0.026941
Sum of atomic charges:   -0.0000000

LOEWDIN ATOMIC CHARGES
----------------------
   0 C :    0.116784
   1 S :    1.054301
   2 F :   -0.236720
   3 O :   -0.461576
   4 O :   -0.438986
   5 H :   -0.017669
   6 H :   -0.001022
   7 H :   -0.015112

  Mayer bond orders larger than 0.100000
B(  0-C ,  1-S ) :   0.9978 B(  0-C ,  5-H ) :   0.9120 B(  0-C ,  6-H ) :   0.9127
B(  0-C ,  7-H ) :   0.9128 B(  1-S ,  2-F ) :   0.7619 B(  1-S ,  3-O ) :   1.5363
B(  1-S ,  4-O ) :   1.5693 B(  1-S ,  6-H ) :   0.1177

Dispersion correction           -0.005929360
FINAL SINGLE POINT ENERGY      -687.519145839727

DIPOLE MOMENT
-------------
                                X             Y             Z
Electronic contribution:     -4.04413      -3.25931      -1.97273
Nuclear contribution   :      3.90013       4.80063       1.59574
                        -----------------------------------------
Total Dipole Moment    :     -0.14400       1.54132      -0.37699
                        -----------------------------------------
Magnitude (a.u.)       :      1.59328
Magnitude (Debye)      :      4.04979

Rotational constants in cm-1:     0.163395     0.155047     0.147447
Rotational constants in MHz :  4898.460101  4648.206837  4420.340547

                             ****ORCA TERMINATED NORMALLY****
TOTAL RUN TIME: 0 days 0 hours 0 minutes 4 seconds 478 msec
