                         Program Version 5.0.0 -  RELEASE  -
|  1> !PBE D3BJ RIJCOSX def2-SVPD def2/J TightSCF
|  2> *xyz 0 1
|  3> C          1.36401        0.46874       -2.81376
|  4> C          0.42884        0.32140       -1.65531
|  5> H          0.74858       -0.40054       -1.00134
|  6> H         -0.46105        0.02333       -2.07773
|  7> H          0.31026        1.20137       -1.13495
|  8> H          0.99872        1.22859       -3.47261
|  9> H          1.42772       -0.46011       -3.34109
| 10> H          2.33442        0.74312       -2.45611
| 11> *
| 12> %MaxCore 64000
| 13>
| 14> %pal nprocs 4
| 15> end
| 16>
| 17> %scf
| 18>   MaxIter 150
| 19> end
| 20>
| 21>
| 22>                          ****END OF INPUT****

CARTESIAN COORDINATES (ANGSTROEM)
---------------------------------
  C      1.364010    0.468740   -2.813760
  C      0.428840    0.321400   -1.655310
  H      0.748580   -0.400540   -1.001340
  H     -0.461050    0.023330   -2.077730
  H      0.310260    1.201370   -1.134950
  H      0.998720    1.228590   -3.472610
  H      1.427720   -0.460110   -3.341090
  H      2.334420    0.743120   -2.456110

 Total Charge           Charge          ....    0
 Multiplicity           Mult            ....    1
 Number of Electrons    NEL             ....   18
 Basis Dimension        Dim             ....   88

ORBITAL ENERGIES
----------------

  NO   OCC          E(Eh)            E(eV)
   0   2.0000      -9.874007      -268.6854
   1   2.0000      -9.861681      -268.3500
   2   2.0000      -0.691378       -18.8133
   3   2.0000      -0.552366       -15.0306
   4   2.0000      -0.402523       -10.9532
   5   2.0000      -0.398867       -10.8537
   6   2.0000      -0.324879        -8.8404
   7   2.0000      -0.304034        -8.2732
   8   2.0000      -0.300387        -8.1740
   9   0.0000       0.011652         0.3171
  10   0.0000       0.045636         1.2418
  11   0.0000       0.082972         2.2578
  12   0.0000       0.083671         2.2768
  13   0.0000       0.102283         2.7833

MULLIKEN ATOMIC CHARGES
-----------------------
   0 C :    0.221039
   1 C :    0.579049
   2 H :   -0.204239
   3 H :   -0.151840
   4 H :   -0.197931
   5 H :   -0.077657
   6 H :   -0.074561
   7 H :   -0.093860
Sum of atomic charges:    0.0000000

LOEWDIN ATOMIC CHARGES
----------------------
   0 C :    0.074203
   1 C :    0.083642
   2 H :   -0.036418
   3 H :   -0.034686
   4 H :   -0.032506
   5 H :   -0.017035
   6 H :   -0.016625
   7 H :   -0.020575

  Mayer bond orders larger than 0.100000
B(  0-C ,  1-C ) :   1.5005 B(  0-C ,  2-H ) :   0.1750 B(  0-C ,  3-H ) :   0.2130
B(  0-C ,  4-H ) :   0.1699 B(  0-C ,  5-H ) :   0.8525 B(  0-C ,  6-H ) :   0.8492
B(  0-C ,  7-H ) :   0.8879 B(  1-C ,  2-H ) :   0.7800 B(  1-C ,  3-H ) :   0.7746
B(  1-C ,  4-H ) :   0.7914 B(  1-C ,  5-H ) :   0.1625 B(  1-C ,  6-H ) :   0.1651
B(  1-C ,  7-H ) :   0.1487

Dispersion correction           -0.003360225
FINAL SINGLE POINT ENERGY       -79.632686729063

DIPOLE MOMENT
-------------
                                X             Y             Z
Electronic contribution:     -0.00153       0.01874       0.06986
Nuclear contribution   :     -0.01491      -0.02598      -0.05743
                        -----------------------------------------
Total Dipole Moment    :     -0.01644      -0.00724       0.01244
                        -----------------------------------------
Magnitude (a.u.)       :      0.02185
Magnitude (Debye)      :      0.05554

Rotational constants in cm-1:     2.853707     0.712330     0.710805
Rotational constants in MHz : 85551.986377 21355.123158 21309.410122

                             ****ORCA TERMINATED NORMALLY****
TOTAL RUN TIME: 0 days 0 hours 0 minutes 2 seconds 768 msec
