                         Program Version 5.0.0 -  RELEASE  -
|  1> !PBE D3BJ RIJCOSX def2-SVPD def2/J TightSCF
|  2> *xyz 0 1
|  3> C         -0.50835        1.72268       -4.12430
|  4> S         -1.32861        0.14674       -4.43578
|  5> O         -2.57135        0.47573       -5.06834
|  6> F         -1.51496       -0.40051       -3.06342
|  7> O         -0.37793       -0.62756       -5.20114
|  8> H         -0.31967        2.21655       -5.05456
|  9> H          0.41835        1.54859       -3.61852
| 10> H         -1.13714        2.33776       -3.51504
| 11> *
| 12> %MaxCore 64000
| 13>
| 14> %pal nprocs 4
| 15> end
| 16>
| 17> %scf
| 18>   MaxIter 150
| 19> end
| 20>
| 21>
| 22>                          ****END OF INPUT****

CARTESIAN COORDINATES (ANGSTROEM)
---------------------------------
  C     -0.508350    1.722680   -4.124300
  S     -1.328610    0.146740   -4.435780
  O     -2.571350    0.475730   -5.068340
  F     -1.514960   -0.400510   -3.063420
  O     -0.377930   -0.627560   -5.201140
  H     -0.319670    2.216550   -5.054560
  H      0.418350    1.548590   -3.618520
  H     -1.137140    2.337760   -3.515040

 Total Charge           Charge          ....    0
 Multiplicity           Mult            ....    1
 Number of Electrons    NEL             ....   50
 Basis Dimension        Dim             ....  140

ORBITAL ENERGIES
----------------

  NO   OCC          E(Eh)            E(eV)
   0   2.0000     -88.314319     -2403.1548
   1   2.0000     -24.370632      -663.1586
   2   2.0000     -18.785179      -511.1707
   3   2.0000     -18.782302      -511.0924
   4   2.0000      -9.949897      -270.7505
   5   2.0000      -7.919355      -215.4966
   6   2.0000      -5.950274      -161.9152
   7   2.0000      -5.944287      -161.7523
   8   2.0000      -5.943019      -161.7178
   9   2.0000      -1.238643       -33.7052
  10   2.0000      -1.035362       -28.1736
  11   2.0000      -0.945016       -25.7152
  12   2.0000      -0.724724       -19.7207
  13   2.0000      -0.637700       -17.3527
  14   2.0000      -0.530805       -14.4439
  15   2.0000      -0.502494       -13.6736
  16   2.0000      -0.495809       -13.4916
  17   2.0000      -0.431011       -11.7284
  18   2.0000      -0.427751       -11.6397
  19   2.0000      -0.414291       -11.2734
  20   2.0000      -0.399488       -10.8706
  21   2.0000      -0.351488        -9.5645
  22   2.0000      -0.304095        -8.2748
  23   2.0000      -0.299296        -8.1443
  24   2.0000      -0.281777        -7.6676
  25   0.0000      -0.032063        -0.8725
  26   0.0000       0.004320         0.1176
  27   0.0000       0.008747         0.2380
  28   0.0000       0.032217         0.8767
  29   0.0000       0.033339         0.9072

MULLIKEN ATOMIC CHARGES
-----------------------
   0 C :    0.491553
   1 S :    1.127383
   2 O :   -0.572244
   3 F :   -0.358205
   4 O :   -0.584922
   5 H :   -0.047147
   6 H :   -0.027437
   7 H :   -0.028980
Sum of atomic charges:   -0.0000000

LOEWDIN ATOMIC CHARGES
----------------------
   0 C :    0.117726
   1 S :    1.051302
   2 O :   -0.434389
   3 F :   -0.261552
   4 O :   -0.439538
   5 H :   -0.003428
   6 H :   -0.014823
   7 H :   -0.015298

  Mayer bond orders larger than 0.100000
B(  0-C ,  1-S ) :   0.9945 B(  0-C ,  5-H ) :   0.9110 B(  0-C ,  6-H ) :   0.9148
B(  0-C ,  7-H ) :   0.9143 B(  1-S ,  2-O ) :   1.5761 B(  1-S ,  3-F ) :   0.6980
B(  1-S ,  4-O ) :   1.5660 B(  1-S ,  5-H ) :   0.1116 B(  2-O ,  4-O ) :   0.1138

Dispersion correction           -0.005928098
FINAL SINGLE POINT ENERGY      -687.542505409462

DIPOLE MOMENT
-------------
                                X             Y             Z
Electronic contribution:     -2.32796      -4.69435       1.31659
Nuclear contribution   :      2.84473       5.67605      -0.40731
                        -----------------------------------------
Total Dipole Moment    :      0.51677       0.98171       0.90928
                        -----------------------------------------
Magnitude (a.u.)       :      1.43443
Magnitude (Debye)      :      3.64603

Rotational constants in cm-1:     0.162669     0.154016     0.148818
Rotational constants in MHz :  4876.699308  4617.284822  4461.441982

                             ****ORCA TERMINATED NORMALLY****
TOTAL RUN TIME: 0 days 0 hours 0 minutes 5 seconds 52 msec
