                         Program Version 5.0.0 -  RELEASE  -
|  1> !PBE D3BJ RIJCOSX def2-SVPD def2/J TightSCF
|  2> *xyz 0 1
|  3> C         -0.50835        1.72268       -4.12430
|  4> S         -1.32861        0.14674       -4.43578
|  5> O         -2.57135        0.47573       -5.06834
|  6> O         -1.51496       -0.40051       -3.06342
|  7> F         -0.37793       -0.62756       -5.20114
|  8> H         -0.31967        2.21655       -5.05456
|  9> H          0.41835        1.54859       -3.61852
| 10> H         -1.13714        2.33776       -3.51504
| 11> *
| 12> %MaxCore 64000
| 13>
| 14> %pal nprocs 4
| 15> end
| 16>
| 17> %scf
| 18>   MaxIter 150
| 19> end
| 20>
| 21>
| 22>                          ****END OF INPUT****

CARTESIAN COORDINATES (ANGSTROEM)
---------------------------------
  C     -0.508350    1.722680   -4.124300
  S     -1.328610    0.146740   -4.435780
  O     -2.571350    0.475730   -5.068340
  O     -1.514960   -0.400510   -3.063420
  F     -0.377930   -0.627560   -5.201140
  H     -0.319670    2.216550   -5.054560
  H      0.418350    1.548590   -3.618520
  H     -1.137140    2.337760   -3.515040

 Total Charge           Charge          ....    0
 Multiplicity           Mult            ....    1
 Number of Electrons    NEL             ....   50
 Basis Dimension        Dim             ....  140

ORBITAL ENERGIES
----------------

  NO   OCC          E(Eh)            E(eV)
   0   2.0000     -88.316860     -2403.2239
   1   2.0000     -24.392555      -663.7552
   2   2.0000     -18.785780      -511.1871
   3   2.0000     -18.767901      -510.7006
   4   2.0000      -9.950911      -270.7781
   5   2.0000      -7.921850      -215.5645
   6   2.0000      -5.953081      -161.9916
   7   2.0000      -5.946508      -161.8127
   8   2.0000      -5.945289      -161.7795
   9   2.0000      -1.274640       -34.6847
  10   2.0000      -1.027168       -27.9507
  11   2.0000      -0.922464       -25.1015
  12   2.0000      -0.726574       -19.7711
  13   2.0000      -0.655325       -17.8323
  14   2.0000      -0.545077       -14.8323
  15   2.0000      -0.526788       -14.3346
  16   2.0000      -0.500873       -13.6294
  17   2.0000      -0.429844       -11.6967
  18   2.0000      -0.428668       -11.6647
  19   2.0000      -0.417906       -11.3718
  20   2.0000      -0.394314       -10.7298
  21   2.0000      -0.345892        -9.4122
  22   2.0000      -0.301453        -8.2029
  23   2.0000      -0.282474        -7.6865
  24   2.0000      -0.265505        -7.2247
  25   0.0000      -0.035627        -0.9695
  26   0.0000       0.003481         0.0947
  27   0.0000       0.006971         0.1897
  28   0.0000       0.029988         0.8160
  29   0.0000       0.031775         0.8646

MULLIKEN ATOMIC CHARGES
-----------------------
   0 C :    0.494236
   1 S :    1.117599
   2 O :   -0.559583
   3 O :   -0.617779
   4 F :   -0.333544
   5 H :   -0.037536
   6 H :   -0.026158
   7 H :   -0.037236
Sum of atomic charges:    0.0000000

LOEWDIN ATOMIC CHARGES
----------------------
   0 C :    0.117109
   1 S :    1.053894
   2 O :   -0.433821
   3 O :   -0.461509
   4 F :   -0.241955
   5 H :   -0.017617
   6 H :   -0.014757
   7 H :   -0.001345

  Mayer bond orders larger than 0.100000
B(  0-C ,  1-S ) :   0.9973 B(  0-C ,  5-H ) :   0.9123 B(  0-C ,  6-H ) :   0.9134
B(  0-C ,  7-H ) :   0.9124 B(  1-S ,  2-O ) :   1.5789 B(  1-S ,  3-O ) :   1.5358
B(  1-S ,  4-F ) :   0.7474 B(  1-S ,  7-H ) :   0.1166

Dispersion correction           -0.005929304
FINAL SINGLE POINT ENERGY      -687.523375692869

DIPOLE MOMENT
-------------
                                X             Y             Z
Electronic contribution:     -0.47367      -5.05504      -2.18959
Nuclear contribution   :      1.70876       5.90289       1.72841
                        -----------------------------------------
Total Dipole Moment    :      1.23509       0.84785      -0.46117
                        -----------------------------------------
Magnitude (a.u.)       :      1.56748
Magnitude (Debye)      :      3.98421

Rotational constants in cm-1:     0.163253     0.155214     0.147311
Rotational constants in MHz :  4894.200006  4653.189727  4416.272537

                             ****ORCA TERMINATED NORMALLY****
TOTAL RUN TIME: 0 days 0 hours 0 minutes 4 seconds 589 msec
