                         Program Version 5.0.0 -  RELEASE  -
|  1> !TPSS D3BJ RIJCOSX def2-TZVPD def2/J TightSCF
|  2> *xyz -1 1
|  3> C         -0.05517        1.61942       -3.78858
|  4> C          1.22302        2.46987       -3.75691
|  5> H          1.11470        3.25807       -4.53300
|  6> H          1.23773        3.01124       -2.79216
|  7> O          2.35381        1.71203       -3.93448
|  8> H         -0.10198        1.08015       -4.71156
|  9> H         -0.91014        2.25726       -3.70441
| 10> H         -0.04403        0.92826       -2.97183
| 11> *
| 12>
| 13> %MaxCore 64000
| 14>
| 15> %pal nprocs 4
| 16> end
| 17>
| 18> %scf
| 19>   MaxIter 150
| 20> end
| 21>
| 22>
| 23>                          ****END OF INPUT****

CARTESIAN COORDINATES (ANGSTROEM)
---------------------------------
  C     -0.055170    1.619420   -3.788580
  C      1.223020    2.469870   -3.756910
  H      1.114700    3.258070   -4.533000
  H      1.237730    3.011240   -2.792160
  O      2.353810    1.712030   -3.934480
  H     -0.101980    1.080150   -4.711560
  H     -0.910140    2.257260   -3.704410
  H     -0.044030    0.928260   -2.971830

 Total Charge           Charge          ....   -1
 Multiplicity           Mult            ....    1
 Number of Electrons    NEL             ....   26
 Basis Dimension        Dim             ....  159

ORBITAL ENERGIES
----------------

  NO   OCC          E(Eh)            E(eV)
   0   2.0000     -18.560516      -505.0573
   1   2.0000      -9.800719      -266.6911
   2   2.0000      -9.776777      -266.0396
   3   2.0000      -0.620152       -16.8752
   4   2.0000      -0.473759       -12.8916
   5   2.0000      -0.328735        -8.9453
   6   2.0000      -0.211418        -5.7530
   7   2.0000      -0.189093        -5.1455
   8   2.0000      -0.136237        -3.7072
   9   2.0000      -0.122912        -3.3446
  10   2.0000      -0.075000        -2.0409
  11   2.0000       0.063099         1.7170
  12   2.0000       0.065557         1.7839
  13   0.0000       0.146396         3.9836
  14   0.0000       0.169003         4.5988
  15   0.0000       0.193919         5.2768
  16   0.0000       0.197617         5.3774
  17   0.0000       0.218423         5.9436

MULLIKEN ATOMIC CHARGES
-----------------------
   0 C :   -1.065667
   1 C :   -0.041503
   2 H :    0.139315
   3 H :    0.138576
   4 O :   -1.016039
   5 H :    0.244505
   6 H :    0.351802
   7 H :    0.249012
Sum of atomic charges:   -1.0000000

LOEWDIN ATOMIC CHARGES
----------------------
   0 C :   -0.174875
   1 C :   -0.607309
   2 H :    0.047597
   3 H :    0.046687
   4 O :   -0.399466
   5 H :    0.035120
   6 H :    0.018179
   7 H :    0.034067

  Mayer bond orders larger than 0.100000
B(  0-C ,  1-C ) :   0.9392 B(  0-C ,  4-O ) :   0.6544 B(  0-C ,  5-H ) :   0.9780
B(  0-C ,  6-H ) :   0.9248 B(  0-C ,  7-H ) :   0.9712 B(  1-C ,  2-H ) :   1.0468
B(  1-C ,  3-H ) :   1.0495 B(  1-C ,  4-O ) :   0.6409 B(  4-O ,  6-H ) :  -0.1079

Dispersion correction           -0.004557862
FINAL SINGLE POINT ENERGY      -154.514847973170

DIPOLE MOMENT
-------------
                                X             Y             Z
Electronic contribution:      2.98042      -0.55070      -0.26770
Nuclear contribution   :     -4.28298       0.81046       0.39340
                        -----------------------------------------
Total Dipole Moment    :     -1.30255       0.25977       0.12570
                        -----------------------------------------
Magnitude (a.u.)       :      1.33414
Magnitude (Debye)      :      3.39111

Rotational constants in cm-1:     1.266793     0.328147     0.288309
Rotational constants in MHz : 37977.512300  9837.594308  8643.275638

                             ****ORCA TERMINATED NORMALLY****
TOTAL RUN TIME: 0 days 0 hours 0 minutes 12 seconds 28 msec
