                         Program Version 5.0.0 -  RELEASE  -
|  1> !TPSS D3BJ RIJCOSX def2-TZVPD def2/J TightSCF
|  2> *xyz 1 1
|  3> C          1.63556       -1.67040       -5.29211
|  4> C          0.33848       -1.50091       -4.50540
|  5> N          2.48451       -0.50741       -5.14039
|  6> H          1.39834       -1.82924       -6.35259
|  7> H          2.15586       -2.56540       -4.93209
|  8> C          3.45115       -0.14953       -5.95259
|  9> N          3.92267        1.08956       -5.85071
| 10> N          3.96616       -1.00618       -6.86788
| 11> H          3.52139       -1.90647       -6.99527
| 12> H          4.44482       -0.62347       -7.67035
| 13> H          2.25200        0.24080       -4.49879
| 14> H          3.46428        1.64078       -5.13639
| 15> H          4.83447        1.31375       -6.22465
| 16> H         -0.17658       -0.62881       -4.85045
| 17> H          0.56384       -1.39374       -3.46490
| 18> H         -0.28102       -2.36136       -4.64938
| 19> *
| 20>
| 21> %MaxCore 64000
| 22>
| 23> %pal nprocs 4
| 24> end
| 25>
| 26> %scf
| 27>   MaxIter 150
| 28> end
| 29>
| 30>
| 31>                          ****END OF INPUT****

CARTESIAN COORDINATES (ANGSTROEM)
---------------------------------
  C      1.635560   -1.670400   -5.292110
  C      0.338480   -1.500910   -4.505400
  N      2.484510   -0.507410   -5.140390
  H      1.398340   -1.829240   -6.352590
  H      2.155860   -2.565400   -4.932090
  C      3.451150   -0.149530   -5.952590
  N      3.922670    1.089560   -5.850710
  N      3.966160   -1.006180   -6.867880
  H      3.521390   -1.906470   -6.995270
  H      4.444820   -0.623470   -7.670350
  H      2.252000    0.240800   -4.498790
  H      3.464280    1.640780   -5.136390
  H      4.834470    1.313750   -6.224650
  H     -0.176580   -0.628810   -4.850450
  H      0.563840   -1.393740   -3.464900
  H     -0.281020   -2.361360   -4.649380

 Total Charge           Charge          ....    1
 Multiplicity           Mult            ....    1
 Number of Electrons    NEL             ....   48
 Basis Dimension        Dim             ....  312

ORBITAL ENERGIES
----------------

  NO   OCC          E(Eh)            E(eV)
   0   2.0000     -14.326862      -389.8537
   1   2.0000     -14.323525      -389.7629
   2   2.0000     -14.321864      -389.7177
   3   2.0000     -10.305650      -280.4310
   4   2.0000     -10.195884      -277.4441
   5   2.0000     -10.125852      -275.5384
   6   2.0000      -1.150746       -31.3134
   7   2.0000      -1.044718       -28.4282
   8   2.0000      -1.032589       -28.0982
   9   2.0000      -0.880624       -23.9630
  10   2.0000      -0.782106       -21.2822
  11   2.0000      -0.765085       -20.8190
  12   2.0000      -0.728098       -19.8125
  13   2.0000      -0.699350       -19.0303
  14   2.0000      -0.645081       -17.5535
  15   2.0000      -0.641055       -17.4440
  16   2.0000      -0.616819       -16.7845
  17   2.0000      -0.600371       -16.3369
  18   2.0000      -0.560304       -15.2466
  19   2.0000      -0.509720       -13.8702
  20   2.0000      -0.494769       -13.4634
  21   2.0000      -0.485673       -13.2158
  22   2.0000      -0.438542       -11.9333
  23   2.0000      -0.418390       -11.3850
  24   0.0000      -0.197340        -5.3699
  25   0.0000      -0.176097        -4.7918
  26   0.0000      -0.145381        -3.9560
  27   0.0000      -0.129384        -3.5207
  28   0.0000      -0.113354        -3.0845

MULLIKEN ATOMIC CHARGES
-----------------------
   0 C :   -0.294585
   1 C :   -1.187535
   2 N :   -0.139346
   3 H :    0.335664
   4 H :    0.330682
   5 C :    0.784439
   6 N :   -0.339966
   7 N :   -0.384818
   8 H :    0.227978
   9 H :    0.208423
  10 H :    0.166187
  11 H :    0.188103
  12 H :    0.213345
  13 H :    0.346615
  14 H :    0.316717
  15 H :    0.228095
Sum of atomic charges:    1.0000000

LOEWDIN ATOMIC CHARGES
----------------------
   0 C :   -0.209502
   1 C :   -0.050972
   2 N :    0.086052
   3 H :    0.127043
   4 H :    0.130279
   5 C :   -0.442828
   6 N :    0.208859
   7 N :    0.219508
   8 H :    0.120115
   9 H :    0.134507
  10 H :    0.163155
  11 H :    0.135107
  12 H :    0.141405
  13 H :    0.077241
  14 H :    0.077540
  15 H :    0.082491

  Mayer bond orders larger than 0.100000
B(  0-C ,  1-C ) :   1.0501 B(  0-C ,  2-N ) :   0.9902 B(  0-C ,  3-H ) :   0.7449
B(  0-C ,  4-H ) :   0.7749 B(  1-C , 13-H ) :   0.8959 B(  1-C , 14-H ) :   0.9159
B(  1-C , 15-H ) :   1.0116 B(  2-N ,  5-C ) :   1.1786 B(  2-N ,  6-N ) :   0.1129
B(  2-N , 10-H ) :   0.9850 B(  5-C ,  6-N ) :   1.0657 B(  5-C ,  7-N ) :   1.1086
B(  6-N , 11-H ) :   0.9765 B(  6-N , 12-H ) :   0.9848 B(  7-N ,  8-H ) :   0.9350
B(  7-N ,  9-H ) :   0.9880

Dispersion correction           -0.014773120
FINAL SINGLE POINT ENERGY      -284.557534928868

DIPOLE MOMENT
-------------
                                X             Y             Z
Electronic contribution:      4.68623       2.46118      -1.69487
Nuclear contribution   :     -3.96322      -1.85512       1.24891
                        -----------------------------------------
Total Dipole Moment    :      0.72301       0.60607      -0.44597
                        -----------------------------------------
Magnitude (a.u.)       :      1.04353
Magnitude (Debye)      :      2.65244

Rotational constants in cm-1:     0.261404     0.067000     0.054949
Rotational constants in MHz :  7836.702504  2008.609425  1647.329138

                             ****ORCA TERMINATED NORMALLY****
TOTAL RUN TIME: 0 days 0 hours 0 minutes 28 seconds 366 msec
