                         Program Version 5.0.0 -  RELEASE  -
|  1> !TPSS D3BJ RIJCOSX def2-TZVPD def2/J TightSCF xyzfile
|  2>
|  3> *xyzfile 0 1 B.xyz
|  4>
|  5> %MaxCore 64000
|  6>
|  7> %pal nprocs 4
|  8> end
|  9>
| 10> %scf
| 11>   MaxIter 150
| 12> end
| 13>
| 14>
| 15>                          ****END OF INPUT****

CARTESIAN COORDINATES (ANGSTROEM)
---------------------------------
  C      1.635557   -1.670396   -5.292109
  C      0.338484   -1.500907   -4.505398
  N      2.484511   -0.507410   -5.140392
  C     -0.684873   -0.528026   -5.099889
  C     -0.290406    0.951335   -5.153423
  H      0.607991    1.070692   -5.764412
  C     -0.055168    1.619420   -3.788577
  H     -1.080912    1.483775   -5.689436
  H      0.045006    0.862302   -3.003015
  H     -0.922936    2.230329   -3.517028
  C      1.223022    2.469865   -3.756911
  H      1.114701    3.258074   -4.532999
  H      1.237732    3.011242   -2.792157
  O      2.353815    1.712032   -3.934477
  H      1.398337   -1.829239   -6.352591
  H      2.155864   -2.565398   -4.932091
  C      3.451149   -0.149530   -5.952589
  N      3.922667    1.089559   -5.850711
  N      3.966162   -1.006183   -6.867880
  H      3.521391   -1.906467   -6.995270
  H      4.444824   -0.623472   -7.670348
  H      2.251995    0.240804   -4.498792
  H      3.464277    1.640782   -5.136392
  H      4.834470    1.313745   -6.224653
  H     -0.937999   -0.869056   -6.110838
  H     -1.604638   -0.622496   -4.513132
  H      0.594887   -1.211578   -3.482312
  H     -0.126530   -2.487656   -4.434176

 Total Charge           Charge          ....    0
 Multiplicity           Mult            ....    1
 Number of Electrons    NEL             ....   88
 Basis Dimension        Dim             ....  563

ORBITAL ENERGIES
----------------

  NO   OCC          E(Eh)            E(eV)
   0   2.0000     -18.755763      -510.3703
   1   2.0000     -14.157800      -385.2533
   2   2.0000     -14.116628      -384.1330
   3   2.0000     -14.115562      -384.1040
   4   2.0000     -10.118038      -275.3258
   5   2.0000     -10.037427      -273.1323
   6   2.0000      -9.989104      -271.8173
   7   2.0000      -9.976014      -271.4611
   8   2.0000      -9.964412      -271.1454
   9   2.0000      -9.958039      -270.9720
  10   2.0000      -9.940248      -270.4879
  11   2.0000      -0.963133       -26.2082
  12   2.0000      -0.865461       -23.5504
  13   2.0000      -0.845981       -23.0203
  14   2.0000      -0.820031       -22.3142
  15   2.0000      -0.742209       -20.1965
  16   2.0000      -0.690959       -18.8020
  17   2.0000      -0.637764       -17.3545
  18   2.0000      -0.602116       -16.3844
  19   2.0000      -0.576905       -15.6984
  20   2.0000      -0.549252       -14.9459
  21   2.0000      -0.531640       -14.4667
  22   2.0000      -0.515685       -14.0325
  23   2.0000      -0.482383       -13.1263
  24   2.0000      -0.464178       -12.6309
  25   2.0000      -0.451630       -12.2895
  26   2.0000      -0.444660       -12.0998
  27   2.0000      -0.433717       -11.8021
  28   2.0000      -0.397356       -10.8126
  29   2.0000      -0.384693       -10.4680
  30   2.0000      -0.374406       -10.1881
  31   2.0000      -0.372131       -10.1262
  32   2.0000      -0.345688        -9.4066
  33   2.0000      -0.328160        -8.9297
  34   2.0000      -0.321372        -8.7450
  35   2.0000      -0.300710        -8.1827
  36   2.0000      -0.284123        -7.7314
  37   2.0000      -0.272450        -7.4137
  38   2.0000      -0.266692        -7.2571
  39   2.0000      -0.261129        -7.1057
  40   2.0000      -0.254545        -6.9265
  41   2.0000      -0.228522        -6.2184
  42   2.0000      -0.141326        -3.8457
  43   2.0000      -0.133900        -3.6436
  44   0.0000      -0.033514        -0.9120
  45   0.0000      -0.017772        -0.4836
  46   0.0000      -0.005043        -0.1372
  47   0.0000       0.010017         0.2726
  48   0.0000       0.018640         0.5072

MULLIKEN ATOMIC CHARGES
-----------------------
   0 C :   -0.565511
   1 C :   -0.554166
   2 N :   -0.188790
   3 C :   -0.254776
   4 C :   -0.473434
   5 H :    0.340646
   6 C :   -0.358692
   7 H :    0.127945
   8 H :    0.203408
   9 H :    0.161317
  10 C :   -0.155655
  11 H :    0.171575
  12 H :    0.141004
  13 O :   -1.183352
  14 H :    0.340199
  15 H :    0.297927
  16 C :    0.738829
  17 N :   -0.339505
  18 N :   -0.456465
  19 H :    0.210676
  20 H :    0.177698
  21 H :    0.531951
  22 H :    0.366297
  23 H :    0.128237
  24 H :    0.174225
  25 H :    0.062538
  26 H :    0.296465
  27 H :    0.059408
Sum of atomic charges:    0.0000000

LOEWDIN ATOMIC CHARGES
----------------------
   0 C :   -0.176422
   1 C :   -0.182781
   2 N :    0.089515
   3 C :   -0.202073
   4 C :   -0.206786
   5 H :    0.097645
   6 C :   -0.193595
   7 H :    0.102263
   8 H :    0.096557
   9 H :    0.098889
  10 C :   -0.399901
  11 H :    0.097561
  12 H :    0.090891
  13 O :   -0.307507
  14 H :    0.116651
  15 H :    0.116670
  16 C :   -0.461080
  17 N :    0.187974
  18 N :    0.175621
  19 H :    0.098917
  20 H :    0.110957
  21 H :    0.057633
  22 H :    0.050019
  23 H :    0.117199
  24 H :    0.102179
  25 H :    0.106994
  26 H :    0.109378
  27 H :    0.106632

  Mayer bond orders larger than 0.100000
B(  0-C ,  1-C ) :   1.2594 B(  0-C ,  2-N ) :   1.0885 B(  0-C , 14-H ) :   0.7570
B(  0-C , 15-H ) :   0.7980 B(  0-C , 16-C ) :  -0.1965 B(  0-C , 18-N ) :   0.1203
B(  1-C ,  3-C ) :   1.0670 B(  1-C ,  6-C ) :   0.1155 B(  1-C , 26-H ) :   0.8465
B(  1-C , 27-H ) :   1.0064 B(  2-N , 16-C ) :   1.3043 B(  2-N , 21-H ) :   0.6399
B(  3-C ,  4-C ) :   0.9980 B(  3-C ,  6-C ) :   0.1911 B(  3-C , 24-H ) :   0.8695
B(  3-C , 25-H ) :   1.0074 B(  4-C ,  5-H ) :   0.9166 B(  4-C ,  6-C ) :   0.8329
B(  4-C ,  7-H ) :   0.9129 B(  4-C , 10-C ) :   0.2701 B(  6-C ,  8-H ) :   0.9098
B(  6-C ,  9-H ) :   0.9857 B(  6-C , 10-C ) :   0.9492 B(  6-C , 13-O ) :   0.1177
B( 10-C , 11-H ) :   1.0072 B( 10-C , 12-H ) :   0.9294 B( 10-C , 13-O ) :   0.8539
B( 13-O , 22-H ) :   0.1237 B( 16-C , 17-N ) :   1.1453 B( 16-C , 18-N ) :   1.0016
B( 17-N , 22-H ) :   0.7421 B( 17-N , 23-H ) :   1.0545 B( 18-N , 19-H ) :   0.9579
B( 18-N , 20-H ) :   1.0165

Dispersion correction           -0.036076016
FINAL SINGLE POINT ENERGY      -516.749646922845

DIPOLE MOMENT
-------------
                                X             Y             Z
Electronic contribution:      8.36378      -0.87390      -2.17268
Nuclear contribution   :     -7.46499      -1.05836       0.01518
                        -----------------------------------------
Total Dipole Moment    :      0.89879      -1.93226      -2.15750
                        -----------------------------------------
Magnitude (a.u.)       :      3.03253
Magnitude (Debye)      :      7.70808

Rotational constants in cm-1:     0.044680     0.028958     0.019773
Rotational constants in MHz :  1339.486245   868.136755   592.791310

                             ****ORCA TERMINATED NORMALLY****
TOTAL RUN TIME: 0 days 0 hours 1 minutes 38 seconds 310 msec
