                         Program Version 5.0.0 -  RELEASE  -
|  1> !TPSS D3BJ RIJCOSX def2-TZVPD def2/J TightSCF
|  2> *xyz 0 1
|  3> C         -0.05517        1.61942       -3.78858
|  4> C          1.22302        2.46987       -3.75691
|  5> H          1.11470        3.25807       -4.53300
|  6> H          1.23773        3.01124       -2.79216
|  7> F          2.35381        1.71203       -3.93448
|  8> H         -0.10198        1.08015       -4.71156
|  9> H         -0.91014        2.25726       -3.70441
| 10> H         -0.04403        0.92826       -2.97183
| 11> *
| 12>
| 13> %MaxCore 64000
| 14>
| 15> %pal nprocs 4
| 16> end
| 17>
| 18> %scf
| 19>   MaxIter 150
| 20> end
| 21>
| 22>
| 23>                          ****END OF INPUT****

CARTESIAN COORDINATES (ANGSTROEM)
---------------------------------
  C     -0.055170    1.619420   -3.788580
  C      1.223020    2.469870   -3.756910
  H      1.114700    3.258070   -4.533000
  H      1.237730    3.011240   -2.792160
  F      2.353810    1.712030   -3.934480
  H     -0.101980    1.080150   -4.711560
  H     -0.910140    2.257260   -3.704410
  H     -0.044030    0.928260   -2.971830

 Total Charge           Charge          ....    0
 Multiplicity           Mult            ....    1
 Number of Electrons    NEL             ....   26
 Basis Dimension        Dim             ....  159

ORBITAL ENERGIES
----------------

  NO   OCC          E(Eh)            E(eV)
   0   2.0000     -24.396859      -663.8723
   1   2.0000     -10.061918      -273.7987
   2   2.0000      -9.980459      -271.5821
   3   2.0000      -1.121161       -30.5083
   4   2.0000      -0.709787       -19.3143
   5   2.0000      -0.581971       -15.8362
   6   2.0000      -0.459103       -12.4928
   7   2.0000      -0.447297       -12.1716
   8   2.0000      -0.406562       -11.0631
   9   2.0000      -0.362829        -9.8731
  10   2.0000      -0.360640        -9.8135
  11   2.0000      -0.291310        -7.9269
  12   2.0000      -0.290292        -7.8993
  13   0.0000       0.000716         0.0195
  14   0.0000       0.028054         0.7634
  15   0.0000       0.041141         1.1195
  16   0.0000       0.047003         1.2790
  17   0.0000       0.071838         1.9548

MULLIKEN ATOMIC CHARGES
-----------------------
   0 C :   -0.733693
   1 C :    0.039105
   2 H :    0.159228
   3 H :    0.156380
   4 F :   -0.303205
   5 H :    0.210859
   6 H :    0.261206
   7 H :    0.210120
Sum of atomic charges:   -0.0000000

LOEWDIN ATOMIC CHARGES
----------------------
   0 C :   -0.078129
   1 C :   -0.287610
   2 H :    0.108644
   3 H :    0.106739
   4 F :   -0.037096
   5 H :    0.062081
   6 H :    0.064089
   7 H :    0.061281

  Mayer bond orders larger than 0.100000
B(  0-C ,  1-C ) :   1.0066 B(  0-C ,  4-F ) :   0.1049 B(  0-C ,  5-H ) :   0.9585
B(  0-C ,  6-H ) :   0.9229 B(  0-C ,  7-H ) :   0.9569 B(  1-C ,  2-H ) :   0.9592
B(  1-C ,  3-H ) :   0.9628 B(  1-C ,  4-F ) :   0.7742

Dispersion correction           -0.004203502
FINAL SINGLE POINT ENERGY      -179.159412385622

DIPOLE MOMENT
-------------
                                X             Y             Z
Electronic contribution:      5.05232      -0.75581      -0.43645
Nuclear contribution   :     -5.66833       1.07099       0.52006
                        -----------------------------------------
Total Dipole Moment    :     -0.61601       0.31518       0.08361
                        -----------------------------------------
Magnitude (a.u.)       :      0.69699
Magnitude (Debye)      :      1.77161

Rotational constants in cm-1:     1.245689     0.305293     0.269541
Rotational constants in MHz : 37344.801915  9152.442838  8080.640229

                             ****ORCA TERMINATED NORMALLY****
TOTAL RUN TIME: 0 days 0 hours 0 minutes 8 seconds 853 msec
