                         Program Version 5.0.0 -  RELEASE  -
|  1> !TPSS D3BJ RIJCOSX def2-TZVPD def2/J TightSCF
|  2> *xyz 0 1
|  3> C          1.63556       -1.67040       -5.29211
|  4> C          0.33848       -1.50091       -4.50540
|  5> C          2.48451       -0.50741       -5.14039
|  6> H          1.39834       -1.82924       -6.35259
|  7> H          2.15586       -2.56540       -4.93209
|  8> C          3.45115       -0.14953       -5.95259
|  9> N          3.92267        1.08956       -5.85071
| 10> N          3.96616       -1.00618       -6.86788
| 11> H          3.52139       -1.90647       -6.99527
| 12> H          4.44482       -0.62347       -7.67035
| 13> H          2.25200        0.24080       -4.49879
| 14> H          3.46428        1.64078       -5.13639
| 15> H          4.83447        1.31375       -6.22465
| 16> H         -0.17658       -0.62881       -4.85045
| 17> H          0.56384       -1.39374       -3.46490
| 18> H         -0.28102       -2.36136       -4.64938
| 19> *
| 20>
| 21> %MaxCore 64000
| 22>
| 23> %pal nprocs 4
| 24> end
| 25>
| 26> %scf
| 27>   MaxIter 150
| 28> end
| 29>
| 30>
| 31>                          ****END OF INPUT****

CARTESIAN COORDINATES (ANGSTROEM)
---------------------------------
  C      1.635560   -1.670400   -5.292110
  C      0.338480   -1.500910   -4.505400
  C      2.484510   -0.507410   -5.140390
  H      1.398340   -1.829240   -6.352590
  H      2.155860   -2.565400   -4.932090
  C      3.451150   -0.149530   -5.952590
  N      3.922670    1.089560   -5.850710
  N      3.966160   -1.006180   -6.867880
  H      3.521390   -1.906470   -6.995270
  H      4.444820   -0.623470   -7.670350
  H      2.252000    0.240800   -4.498790
  H      3.464280    1.640780   -5.136390
  H      4.834470    1.313750   -6.224650
  H     -0.176580   -0.628810   -4.850450
  H      0.563840   -1.393740   -3.464900
  H     -0.281020   -2.361360   -4.649380

 Total Charge           Charge          ....    0
 Multiplicity           Mult            ....    1
 Number of Electrons    NEL             ....   48
 Basis Dimension        Dim             ....  312

ORBITAL ENERGIES
----------------

  NO   OCC          E(Eh)            E(eV)
   0   2.0000     -14.103216      -383.7680
   1   2.0000     -14.098690      -383.6448
   2   2.0000     -10.017109      -272.5794
   3   2.0000      -9.963072      -271.1090
   4   2.0000      -9.953909      -270.8596
   5   2.0000      -9.907162      -269.5876
   6   2.0000      -0.893138       -24.3035
   7   2.0000      -0.811746       -22.0887
   8   2.0000      -0.718831       -19.5604
   9   2.0000      -0.643981       -17.5236
  10   2.0000      -0.562676       -15.3112
  11   2.0000      -0.532654       -14.4942
  12   2.0000      -0.488372       -13.2893
  13   2.0000      -0.468958       -12.7610
  14   2.0000      -0.424348       -11.5471
  15   2.0000      -0.399262       -10.8645
  16   2.0000      -0.385906       -10.5010
  17   2.0000      -0.354302        -9.6411
  18   2.0000      -0.337487        -9.1835
  19   2.0000      -0.304509        -8.2861
  20   2.0000      -0.294843        -8.0231
  21   2.0000      -0.293106        -7.9758
  22   2.0000      -0.224372        -6.1055
  23   2.0000      -0.134751        -3.6668
  24   0.0000      -0.010372        -0.2822
  25   0.0000       0.013086         0.3561
  26   0.0000       0.019229         0.5233
  27   0.0000       0.038750         1.0544
  28   0.0000       0.041886         1.1398

MULLIKEN ATOMIC CHARGES
-----------------------
   0 C :   -0.132890
   1 C :   -1.254623
   2 C :   -0.804899
   3 H :    0.240597
   4 H :    0.210085
   5 C :    0.802149
   6 N :   -0.470474
   7 N :   -0.507337
   8 H :    0.189325
   9 H :    0.163083
  10 H :    0.359227
  11 H :    0.168847
  12 H :    0.157432
  13 H :    0.340071
  14 H :    0.295348
  15 H :    0.244059
Sum of atomic charges:    0.0000000

LOEWDIN ATOMIC CHARGES
----------------------
   0 C :   -0.287237
   1 C :   -0.106201
   2 C :   -0.148918
   3 H :    0.103232
   4 H :    0.103953
   5 C :   -0.544879
   6 N :    0.105858
   7 N :    0.132679
   8 H :    0.092520
   9 H :    0.092878
  10 H :    0.067280
  11 H :    0.106401
  12 H :    0.097325
  13 H :    0.064664
  14 H :    0.064005
  15 H :    0.056441

  Mayer bond orders larger than 0.100000
B(  0-C ,  1-C ) :   0.9249 B(  0-C ,  2-C ) :   0.9369 B(  0-C ,  3-H ) :   0.8043
B(  0-C ,  4-H ) :   0.8309 B(  0-C ,  5-C ) :   0.1940 B(  1-C ,  2-C ) :   0.2575
B(  1-C , 13-H ) :   0.9096 B(  1-C , 14-H ) :   0.9463 B(  1-C , 15-H ) :   0.9830
B(  2-C ,  5-C ) :   1.1826 B(  2-C ,  7-N ) :   0.1080 B(  2-C , 10-H ) :   0.8677
B(  5-C ,  6-N ) :   0.9856 B(  5-C ,  7-N ) :   0.8501 B(  5-C , 10-H ) :  -0.1758
B(  6-N , 11-H ) :   0.9862 B(  6-N , 12-H ) :   1.0631 B(  7-N ,  8-H ) :   0.9550
B(  7-N ,  9-H ) :   1.0423

Dispersion correction           -0.015386113
FINAL SINGLE POINT ENERGY      -268.068756127629

DIPOLE MOMENT
-------------
                                X             Y             Z
Electronic contribution:      4.52226       2.16298      -1.89038
Nuclear contribution   :     -3.99655      -1.83277       1.34879
                        -----------------------------------------
Total Dipole Moment    :      0.52572       0.33021      -0.54160
                        -----------------------------------------
Magnitude (a.u.)       :      0.82386
Magnitude (Debye)      :      2.09408

Rotational constants in cm-1:     0.262971     0.067064     0.055026
Rotational constants in MHz :  7883.664566  2010.513309  1649.636654

                             ****ORCA TERMINATED NORMALLY****
TOTAL RUN TIME: 0 days 0 hours 0 minutes 29 seconds 871 msec
