                         Program Version 5.0.0 -  RELEASE  -
|  1> !TPSS D3BJ RIJCOSX def2-TZVPD def2/J TightSCF
|  2> *xyz 0 1
|  3> C          1.63556       -1.67040       -5.29211
|  4> C          0.33848       -1.50091       -4.50540
|  5> N          2.48451       -0.50741       -5.14039
|  6> H          1.39834       -1.82924       -6.35259
|  7> H          2.15586       -2.56540       -4.93209
|  8> C          3.45115       -0.14953       -5.95259
|  9> C          3.92267        1.08956       -5.85071
| 10> N          3.96616       -1.00618       -6.86788
| 11> H          3.52139       -1.90647       -6.99527
| 12> H          4.44482       -0.62347       -7.67035
| 13> H          2.25200        0.24080       -4.49879
| 14> H          3.46428        1.64078       -5.13639
| 15> H          4.83447        1.31375       -6.22465
| 16> H         -0.17658       -0.62881       -4.85045
| 17> H          0.56384       -1.39374       -3.46490
| 18> H         -0.28102       -2.36136       -4.64938
| 19> *
| 20>
| 21> %MaxCore 64000
| 22>
| 23> %pal nprocs 4
| 24> end
| 25>
| 26> %scf
| 27>   MaxIter 150
| 28> end
| 29>
| 30>
| 31>                          ****END OF INPUT****

CARTESIAN COORDINATES (ANGSTROEM)
---------------------------------
  C      1.635560   -1.670400   -5.292110
  C      0.338480   -1.500910   -4.505400
  N      2.484510   -0.507410   -5.140390
  H      1.398340   -1.829240   -6.352590
  H      2.155860   -2.565400   -4.932090
  C      3.451150   -0.149530   -5.952590
  C      3.922670    1.089560   -5.850710
  N      3.966160   -1.006180   -6.867880
  H      3.521390   -1.906470   -6.995270
  H      4.444820   -0.623470   -7.670350
  H      2.252000    0.240800   -4.498790
  H      3.464280    1.640780   -5.136390
  H      4.834470    1.313750   -6.224650
  H     -0.176580   -0.628810   -4.850450
  H      0.563840   -1.393740   -3.464900
  H     -0.281020   -2.361360   -4.649380

 Total Charge           Charge          ....    0
 Multiplicity           Mult            ....    1
 Number of Electrons    NEL             ....   48
 Basis Dimension        Dim             ....  312

ORBITAL ENERGIES
----------------

  NO   OCC          E(Eh)            E(eV)
   0   2.0000     -14.101925      -383.7329
   1   2.0000     -14.101116      -383.7109
   2   2.0000     -10.028007      -272.8759
   3   2.0000     -10.020256      -272.6650
   4   2.0000      -9.986126      -271.7363
   5   2.0000      -9.894614      -269.2461
   6   2.0000      -0.904335       -24.6082
   7   2.0000      -0.823297       -22.4031
   8   2.0000      -0.722436       -19.6585
   9   2.0000      -0.648810       -17.6550
  10   2.0000      -0.581049       -15.8111
  11   2.0000      -0.547783       -14.9059
  12   2.0000      -0.488236       -13.2856
  13   2.0000      -0.454226       -12.3601
  14   2.0000      -0.438293       -11.9265
  15   2.0000      -0.421793       -11.4776
  16   2.0000      -0.379972       -10.3396
  17   2.0000      -0.356850        -9.7104
  18   2.0000      -0.341634        -9.2963
  19   2.0000      -0.339104        -9.2275
  20   2.0000      -0.336178        -9.1479
  21   2.0000      -0.310999        -8.4627
  22   2.0000      -0.219705        -5.9785
  23   2.0000      -0.131451        -3.5770
  24   0.0000      -0.010581        -0.2879
  25   0.0000       0.007923         0.2156
  26   0.0000       0.015795         0.4298
  27   0.0000       0.036841         1.0025
  28   0.0000       0.044509         1.2112

MULLIKEN ATOMIC CHARGES
-----------------------
   0 C :   -0.201479
   1 C :   -1.163933
   2 N :   -0.217120
   3 H :    0.308873
   4 H :    0.249590
   5 C :    0.865995
   6 C :   -1.273648
   7 N :   -0.481009
   8 H :    0.188676
   9 H :    0.188387
  10 H :    0.128350
  11 H :    0.300019
  12 H :    0.277353
  13 H :    0.315166
  14 H :    0.288069
  15 H :    0.226711
Sum of atomic charges:   -0.0000000

LOEWDIN ATOMIC CHARGES
----------------------
   0 C :   -0.248268
   1 C :   -0.080945
   2 N :    0.015751
   3 H :    0.110712
   4 H :    0.109743
   5 C :   -0.564561
   6 C :   -0.005437
   7 N :    0.126184
   8 H :    0.083679
   9 H :    0.105411
  10 H :    0.140981
  11 H :    0.004473
  12 H :    0.005693
  13 H :    0.067498
  14 H :    0.065415
  15 H :    0.063671

  Mayer bond orders larger than 0.100000
B(  0-C ,  1-C ) :   0.9754 B(  0-C ,  2-N ) :   0.9110 B(  0-C ,  3-H ) :   0.7835
B(  0-C ,  4-H ) :   0.8411 B(  1-C , 13-H ) :   0.9356 B(  1-C , 14-H ) :   0.9379
B(  1-C , 15-H ) :   1.0039 B(  2-N ,  5-C ) :   1.0486 B(  2-N ,  6-C ) :   0.1078
B(  2-N , 10-H ) :   0.9572 B(  5-C ,  6-C ) :   1.0716 B(  5-C ,  7-N ) :   0.9509
B(  6-C , 11-H ) :   0.9556 B(  6-C , 12-H ) :   1.0277 B(  7-N ,  8-H ) :   0.9757
B(  7-N ,  9-H ) :   0.9993

Dispersion correction           -0.015236663
FINAL SINGLE POINT ENERGY      -268.059672547258

DIPOLE MOMENT
-------------
                                X             Y             Z
Electronic contribution:      2.97033       0.56180      -1.27492
Nuclear contribution   :     -3.69145      -1.49398       1.19810
                        -----------------------------------------
Total Dipole Moment    :     -0.72112      -0.93218      -0.07682
                        -----------------------------------------
Magnitude (a.u.)       :      1.18105
Magnitude (Debye)      :      3.00199

Rotational constants in cm-1:     0.270790     0.068966     0.056679
Rotational constants in MHz :  8118.084803  2067.559423  1699.196934

                             ****ORCA TERMINATED NORMALLY****
TOTAL RUN TIME: 0 days 0 hours 0 minutes 30 seconds 621 msec
