                         Program Version 5.0.0 -  RELEASE  -
|  1> !TPSS D3BJ RIJCOSX def2-TZVPD def2/J TightSCF
|  2> *xyz 0 1
|  3> C          1.63556       -1.67040       -5.29211
|  4> C          0.33848       -1.50091       -4.50540
|  5> N          2.48451       -0.50741       -5.14039
|  6> H          1.39834       -1.82924       -6.35259
|  7> H          2.15586       -2.56540       -4.93209
|  8> C          3.45115       -0.14953       -5.95259
|  9> N          3.92267        1.08956       -5.85071
| 10> C          3.96616       -1.00618       -6.86788
| 11> H          3.52139       -1.90647       -6.99527
| 12> H          4.44482       -0.62347       -7.67035
| 13> H          2.25200        0.24080       -4.49879
| 14> H          3.46428        1.64078       -5.13639
| 15> H          4.83447        1.31375       -6.22465
| 16> H         -0.17658       -0.62881       -4.85045
| 17> H          0.56384       -1.39374       -3.46490
| 18> H         -0.28102       -2.36136       -4.64938
| 19> *
| 20>
| 21> %MaxCore 64000
| 22>
| 23> %pal nprocs 4
| 24> end
| 25>
| 26> %scf
| 27>   MaxIter 150
| 28> end
| 29>
| 30>
| 31>                          ****END OF INPUT****

CARTESIAN COORDINATES (ANGSTROEM)
---------------------------------
  C      1.635560   -1.670400   -5.292110
  C      0.338480   -1.500910   -4.505400
  N      2.484510   -0.507410   -5.140390
  H      1.398340   -1.829240   -6.352590
  H      2.155860   -2.565400   -4.932090
  C      3.451150   -0.149530   -5.952590
  N      3.922670    1.089560   -5.850710
  C      3.966160   -1.006180   -6.867880
  H      3.521390   -1.906470   -6.995270
  H      4.444820   -0.623470   -7.670350
  H      2.252000    0.240800   -4.498790
  H      3.464280    1.640780   -5.136390
  H      4.834470    1.313750   -6.224650
  H     -0.176580   -0.628810   -4.850450
  H      0.563840   -1.393740   -3.464900
  H     -0.281020   -2.361360   -4.649380

 Total Charge           Charge          ....    0
 Multiplicity           Mult            ....    1
 Number of Electrons    NEL             ....   48
 Basis Dimension        Dim             ....  312

ORBITAL ENERGIES
----------------

  NO   OCC          E(Eh)            E(eV)
   0   2.0000     -14.108071      -383.9001
   1   2.0000     -14.103494      -383.7756
   2   2.0000     -10.021901      -272.7098
   3   2.0000     -10.021757      -272.7059
   4   2.0000      -9.982444      -271.6361
   5   2.0000      -9.896799      -269.3056
   6   2.0000      -0.912611       -24.8334
   7   2.0000      -0.828026       -22.5317
   8   2.0000      -0.710048       -19.3214
   9   2.0000      -0.648764       -17.6538
  10   2.0000      -0.596560       -16.2332
  11   2.0000      -0.521978       -14.2038
  12   2.0000      -0.489981       -13.3331
  13   2.0000      -0.480804       -13.0834
  14   2.0000      -0.432472       -11.7682
  15   2.0000      -0.425845       -11.5878
  16   2.0000      -0.361960        -9.8494
  17   2.0000      -0.357188        -9.7196
  18   2.0000      -0.351646        -9.5688
  19   2.0000      -0.333052        -9.0628
  20   2.0000      -0.325057        -8.8452
  21   2.0000      -0.313110        -8.5202
  22   2.0000      -0.214775        -5.8443
  23   2.0000      -0.136328        -3.7097
  24   0.0000      -0.012820        -0.3489
  25   0.0000       0.004626         0.1259
  26   0.0000       0.020178         0.5491
  27   0.0000       0.038134         1.0377
  28   0.0000       0.040447         1.1006

MULLIKEN ATOMIC CHARGES
-----------------------
   0 C :   -0.288913
   1 C :   -1.115166
   2 N :   -0.251818
   3 H :    0.305843
   4 H :    0.315094
   5 C :    0.887047
   6 N :   -0.450653
   7 C :   -1.331737
   8 H :    0.360376
   9 H :    0.262520
  10 H :    0.161550
  11 H :    0.138019
  12 H :    0.180302
  13 H :    0.315866
  14 H :    0.288137
  15 H :    0.223533
Sum of atomic charges:    0.0000000

LOEWDIN ATOMIC CHARGES
----------------------
   0 C :   -0.239409
   1 C :   -0.082778
   2 N :    0.015042
   3 H :    0.116516
   4 H :    0.116633
   5 C :   -0.574873
   6 N :    0.117036
   7 C :    0.008201
   8 H :   -0.010645
   9 H :    0.000627
  10 H :    0.133947
  11 H :    0.095567
  12 H :    0.112258
  13 H :    0.064823
  14 H :    0.062800
  15 H :    0.064254

  Mayer bond orders larger than 0.100000
B(  0-C ,  1-C ) :   0.9185 B(  0-C ,  2-N ) :   0.9659 B(  0-C ,  3-H ) :   0.8201
B(  0-C ,  4-H ) :   0.8185 B(  0-C ,  7-C ) :   0.1753 B(  1-C , 13-H ) :   0.9376
B(  1-C , 14-H ) :   0.9317 B(  1-C , 15-H ) :   1.0098 B(  2-N ,  5-C ) :   0.9893
B(  2-N , 10-H ) :   1.0102 B(  5-C ,  6-N ) :   0.8818 B(  5-C ,  7-C ) :   1.2371
B(  6-N ,  7-C ) :   0.1041 B(  6-N , 11-H ) :   1.0441 B(  6-N , 12-H ) :   1.0127
B(  7-C ,  8-H ) :   0.8651 B(  7-C ,  9-H ) :   1.0784

Dispersion correction           -0.015294532
FINAL SINGLE POINT ENERGY      -268.060281304236

DIPOLE MOMENT
-------------
                                X             Y             Z
Electronic contribution:      3.02833       2.60422      -0.22132
Nuclear contribution   :     -3.68222      -1.93858       0.98231
                        -----------------------------------------
Total Dipole Moment    :     -0.65389       0.66564       0.76099
                        -----------------------------------------
Magnitude (a.u.)       :      1.20406
Magnitude (Debye)      :      3.06048

Rotational constants in cm-1:     0.275407     0.068040     0.056255
Rotational constants in MHz :  8256.498401  2039.796466  1686.484500

                             ****ORCA TERMINATED NORMALLY****
TOTAL RUN TIME: 0 days 0 hours 0 minutes 31 seconds 259 msec
