                         Program Version 5.0.0 -  RELEASE  -
|  1> !TPSS D3BJ RIJCOSX def2-TZVPD def2/J TightSCF xyzfile
|  2>
|  3> *xyzfile 0 1 D1.xyz
|  4>
|  5> %MaxCore 64000
|  6>
|  7> %pal nprocs 4
|  8> end
|  9>
| 10> %scf
| 11>   MaxIter 150
| 12> end
| 13>
| 14>
| 15>                          ****END OF INPUT****

CARTESIAN COORDINATES (ANGSTROEM)
---------------------------------
  C      1.635557   -1.670396   -5.292109
  C      0.338484   -1.500907   -4.505398
  C      2.484511   -0.507410   -5.140392
  C     -0.684873   -0.528026   -5.099889
  C     -0.290406    0.951335   -5.153423
  H      0.607991    1.070692   -5.764412
  C     -0.055168    1.619420   -3.788577
  H     -1.080912    1.483775   -5.689436
  H      0.045006    0.862302   -3.003015
  H     -0.922936    2.230329   -3.517028
  C      1.223022    2.469865   -3.756911
  H      1.114701    3.258074   -4.532999
  H      1.237732    3.011242   -2.792157
  F      2.353815    1.712032   -3.934477
  H      1.398337   -1.829239   -6.352591
  H      2.155864   -2.565398   -4.932091
  C      3.451149   -0.149530   -5.952589
  N      3.922667    1.089559   -5.850711
  N      3.966162   -1.006183   -6.867880
  H      3.521391   -1.906467   -6.995270
  H      4.444824   -0.623472   -7.670348
  H      2.251995    0.240804   -4.498792
  H      3.464277    1.640782   -5.136392
  H      4.834470    1.313745   -6.224653
  H     -0.937999   -0.869056   -6.110838
  H     -1.604638   -0.622496   -4.513132
  H      0.594887   -1.211578   -3.482312
  H     -0.126530   -2.487656   -4.434176

 Total Charge           Charge          ....    0
 Multiplicity           Mult            ....    1
 Number of Electrons    NEL             ....   88
 Basis Dimension        Dim             ....  563

ORBITAL ENERGIES
----------------

  NO   OCC          E(Eh)            E(eV)
   0   2.0000     -24.424265      -664.6181
   1   2.0000     -14.089292      -383.3891
   2   2.0000     -14.074387      -382.9836
   3   2.0000     -10.071541      -274.0606
   4   2.0000      -9.999700      -272.1057
   5   2.0000      -9.991472      -271.8818
   6   2.0000      -9.974639      -271.4237
   7   2.0000      -9.971814      -271.3468
   8   2.0000      -9.962384      -271.0902
   9   2.0000      -9.952740      -270.8278
  10   2.0000      -9.880903      -268.8730
  11   2.0000      -1.158098       -31.5134
  12   2.0000      -0.876208       -23.8428
  13   2.0000      -0.795621       -21.6500
  14   2.0000      -0.750306       -20.4169
  15   2.0000      -0.718400       -19.5487
  16   2.0000      -0.671493       -18.2723
  17   2.0000      -0.637607       -17.3502
  18   2.0000      -0.589226       -16.0336
  19   2.0000      -0.557981       -15.1834
  20   2.0000      -0.529673       -14.4131
  21   2.0000      -0.508233       -13.8297
  22   2.0000      -0.485991       -13.2245
  23   2.0000      -0.476197       -12.9580
  24   2.0000      -0.458111       -12.4658
  25   2.0000      -0.454772       -12.3750
  26   2.0000      -0.436775       -11.8853
  27   2.0000      -0.415056       -11.2942
  28   2.0000      -0.397388       -10.8135
  29   2.0000      -0.396669       -10.7939
  30   2.0000      -0.374913       -10.2019
  31   2.0000      -0.360040        -9.7972
  32   2.0000      -0.348234        -9.4759
  33   2.0000      -0.336504        -9.1567
  34   2.0000      -0.322572        -8.7776
  35   2.0000      -0.317492        -8.6394
  36   2.0000      -0.312047        -8.4912
  37   2.0000      -0.298198        -8.1144
  38   2.0000      -0.282284        -7.6813
  39   2.0000      -0.274287        -7.4637
  40   2.0000      -0.267015        -7.2658
  41   2.0000      -0.254671        -6.9300
  42   2.0000      -0.208524        -5.6742
  43   2.0000      -0.117974        -3.2102
  44   0.0000      -0.005523        -0.1503
  45   0.0000       0.001881         0.0512
  46   0.0000       0.010660         0.2901
  47   0.0000       0.018433         0.5016
  48   0.0000       0.026508         0.7213

MULLIKEN ATOMIC CHARGES
-----------------------
   0 C :   -0.161993
   1 C :   -0.606926
   2 C :   -1.545809
   3 C :   -0.335339
   4 C :   -0.495774
   5 H :    0.499322
   6 C :   -0.397053
   7 H :    0.138241
   8 H :    0.269582
   9 H :    0.144411
  10 C :   -0.017637
  11 H :    0.202989
  12 H :    0.137313
  13 F :   -0.482803
  14 H :    0.276033
  15 H :    0.230599
  16 C :    0.074723
  17 N :   -0.520178
  18 N :   -0.540164
  19 H :    0.189715
  20 H :    0.161110
  21 H :    1.847057
  22 H :    0.358512
  23 H :    0.071079
  24 H :    0.169805
  25 H :    0.052302
  26 H :    0.207995
  27 H :    0.072887
Sum of atomic charges:    0.0000000

LOEWDIN ATOMIC CHARGES
----------------------
   0 C :   -0.223987
   1 C :   -0.206552
   2 C :   -0.139869
   3 C :   -0.196797
   4 C :   -0.201386
   5 H :    0.102769
   6 C :   -0.165651
   7 H :    0.103278
   8 H :    0.105346
   9 H :    0.112500
  10 C :   -0.194533
  11 H :    0.126717
  12 H :    0.116516
  13 F :   -0.067585
  14 H :    0.107417
  15 H :    0.105491
  16 C :   -0.528938
  17 N :    0.117938
  18 N :    0.131567
  19 H :    0.089793
  20 H :    0.089294
  21 H :    0.033849
  22 H :    0.071270
  23 H :    0.097450
  24 H :    0.107026
  25 H :    0.103919
  26 H :    0.102396
  27 H :    0.100761

  Mayer bond orders larger than 0.100000
B(  0-C ,  1-C ) :   1.2436 B(  0-C ,  2-C ) :   0.3338 B(  0-C , 14-H ) :   0.7715
B(  0-C , 15-H ) :   0.9492 B(  0-C , 16-C ) :   0.1085 B(  0-C , 21-H ) :   0.1021
B(  1-C ,  2-C ) :   0.4902 B(  1-C ,  3-C ) :   1.1265 B(  1-C , 21-H ) :  -0.2056
B(  1-C , 26-H ) :   0.8743 B(  1-C , 27-H ) :   1.0018 B(  2-C ,  4-C ) :   0.2901
B(  2-C , 13-F ) :   0.4558 B(  2-C , 14-H ) :  -0.2455 B(  2-C , 15-H ) :  -0.1065
B(  2-C , 16-C ) :   2.5116 B(  2-C , 21-H ) :  -1.4033 B(  3-C ,  4-C ) :   1.0439
B(  3-C ,  6-C ) :   0.2322 B(  3-C , 24-H ) :   0.8718 B(  3-C , 25-H ) :   1.0139
B(  4-C ,  5-H ) :   0.7964 B(  4-C ,  6-C ) :   0.7674 B(  4-C ,  7-H ) :   0.8795
B(  4-C , 10-C ) :   0.2762 B(  4-C , 21-H ) :  -0.2084 B(  6-C ,  8-H ) :   0.9181
B(  6-C ,  9-H ) :   0.9540 B(  6-C , 10-C ) :   1.0002 B(  6-C , 13-F ) :   0.1020
B( 10-C , 11-H ) :   0.9486 B( 10-C , 12-H ) :   0.9159 B( 10-C , 13-F ) :   0.7766
B( 13-F , 16-C ) :   0.1240 B( 13-F , 21-H ) :  -0.7395 B( 14-H , 21-H ) :   0.1405
B( 16-C , 17-N ) :   0.9889 B( 16-C , 18-N ) :   0.7460 B( 16-C , 21-H ) :  -0.7298
B( 17-N , 22-H ) :   0.7979 B( 17-N , 23-H ) :   1.1556 B( 18-N , 19-H ) :   0.9781
B( 18-N , 20-H ) :   1.0495

Dispersion correction           -0.036033147
FINAL SINGLE POINT ENERGY      -524.669753659220

DIPOLE MOMENT
-------------
                                X             Y             Z
Electronic contribution:      7.86746       3.81995       1.15561
Nuclear contribution   :     -8.11591      -2.99033      -1.35383
                        -----------------------------------------
Total Dipole Moment    :     -0.24844       0.82963      -0.19823
                        -----------------------------------------
Magnitude (a.u.)       :      0.88843
Magnitude (Debye)      :      2.25820

Rotational constants in cm-1:     0.043530     0.028984     0.019589
Rotational constants in MHz :  1305.007140   868.923804   587.262638

                             ****ORCA TERMINATED NORMALLY****
TOTAL RUN TIME: 0 days 0 hours 1 minutes 34 seconds 465 msec
