                         Program Version 5.0.0 -  RELEASE  -
|  1> !TPSS D3BJ RIJCOSX def2-TZVPD def2/J TightSCF xyzfile
|  2>
|  3> *xyzfile 0 1 D2.xyz
|  4>
|  5> %MaxCore 64000
|  6>
|  7> %pal nprocs 4
|  8> end
|  9>
| 10> %scf
| 11>   MaxIter 150
| 12> end
| 13>
| 14>
| 15>                          ****END OF INPUT****

CARTESIAN COORDINATES (ANGSTROEM)
---------------------------------
  C      1.635557   -1.670396   -5.292109
  C      0.338484   -1.500907   -4.505398
  N      2.484511   -0.507410   -5.140392
  C     -0.684873   -0.528026   -5.099889
  C     -0.290406    0.951335   -5.153423
  H      0.607991    1.070692   -5.764412
  C     -0.055168    1.619420   -3.788577
  H     -1.080912    1.483775   -5.689436
  H      0.045006    0.862302   -3.003015
  H     -0.922936    2.230329   -3.517028
  C      1.223022    2.469865   -3.756911
  H      1.114701    3.258074   -4.532999
  H      1.237732    3.011242   -2.792157
  F      2.353815    1.712032   -3.934477
  H      1.398337   -1.829239   -6.352591
  H      2.155864   -2.565398   -4.932091
  C      3.451149   -0.149530   -5.952589
  C      3.922667    1.089559   -5.850711
  N      3.966162   -1.006183   -6.867880
  H      3.521391   -1.906467   -6.995270
  H      4.444824   -0.623472   -7.670348
  H      2.251995    0.240804   -4.498792
  H      3.464277    1.640782   -5.136392
  H      4.834470    1.313745   -6.224653
  H     -0.937999   -0.869056   -6.110838
  H     -1.604638   -0.622496   -4.513132
  H      0.594887   -1.211578   -3.482312
  H     -0.126530   -2.487656   -4.434176

 Total Charge           Charge          ....    0
 Multiplicity           Mult            ....    1
 Number of Electrons    NEL             ....   88
 Basis Dimension        Dim             ....  563

ORBITAL ENERGIES
----------------

  NO   OCC          E(Eh)            E(eV)
   0   2.0000     -24.425719      -664.6576
   1   2.0000     -14.086871      -383.3233
   2   2.0000     -14.075560      -383.0154
   3   2.0000     -10.073216      -274.1061
   4   2.0000     -10.014823      -272.5172
   5   2.0000     -10.002970      -272.1947
   6   2.0000     -10.000004      -272.1139
   7   2.0000      -9.989588      -271.8305
   8   2.0000      -9.989112      -271.8176
   9   2.0000      -9.987145      -271.7640
  10   2.0000      -9.870578      -268.5921
  11   2.0000      -1.158964       -31.5370
  12   2.0000      -0.887376       -24.1467
  13   2.0000      -0.809225       -22.0201
  14   2.0000      -0.760613       -20.6973
  15   2.0000      -0.720849       -19.6153
  16   2.0000      -0.682001       -18.5582
  17   2.0000      -0.632095       -17.2002
  18   2.0000      -0.600310       -16.3353
  19   2.0000      -0.572977       -15.5915
  20   2.0000      -0.536636       -14.6026
  21   2.0000      -0.522257       -14.2113
  22   2.0000      -0.494467       -13.4551
  23   2.0000      -0.469006       -12.7623
  24   2.0000      -0.461331       -12.5535
  25   2.0000      -0.453537       -12.3414
  26   2.0000      -0.443063       -12.0564
  27   2.0000      -0.428089       -11.6489
  28   2.0000      -0.410334       -11.1658
  29   2.0000      -0.399046       -10.8586
  30   2.0000      -0.382557       -10.4099
  31   2.0000      -0.367567       -10.0020
  32   2.0000      -0.360072        -9.7980
  33   2.0000      -0.339644        -9.2422
  34   2.0000      -0.333027        -9.0621
  35   2.0000      -0.325750        -8.8641
  36   2.0000      -0.313806        -8.5391
  37   2.0000      -0.309046        -8.4096
  38   2.0000      -0.296463        -8.0672
  39   2.0000      -0.288409        -7.8480
  40   2.0000      -0.284803        -7.7499
  41   2.0000      -0.281997        -7.6735
  42   2.0000      -0.202739        -5.5168
  43   2.0000      -0.115079        -3.1315
  44   0.0000      -0.009603        -0.2613
  45   0.0000       0.000110         0.0030
  46   0.0000       0.008682         0.2363
  47   0.0000       0.011684         0.3179
  48   0.0000       0.026435         0.7193

MULLIKEN ATOMIC CHARGES
-----------------------
   0 C :   -0.434306
   1 C :   -0.640831
   2 N :   -0.342899
   3 C :   -0.204846
   4 C :   -0.630642
   5 H :    0.465908
   6 C :   -0.354335
   7 H :    0.118461
   8 H :    0.261729
   9 H :    0.146571
  10 C :   -0.057504
  11 H :    0.204575
  12 H :    0.148752
  13 F :   -0.492675
  14 H :    0.335317
  15 H :    0.263857
  16 C :    0.826164
  17 C :   -1.677307
  18 N :   -0.534964
  19 H :    0.195688
  20 H :    0.172343
  21 H :    0.522543
  22 H :    0.877306
  23 H :    0.261639
  24 H :    0.183962
  25 H :    0.060293
  26 H :    0.283604
  27 H :    0.041595
Sum of atomic charges:   -0.0000000

LOEWDIN ATOMIC CHARGES
----------------------
   0 C :   -0.192354
   1 C :   -0.188476
   2 N :    0.031857
   3 C :   -0.197493
   4 C :   -0.199626
   5 H :    0.103680
   6 C :   -0.166938
   7 H :    0.106511
   8 H :    0.103475
   9 H :    0.113554
  10 C :   -0.193154
  11 H :    0.129817
  12 H :    0.118158
  13 F :   -0.065471
  14 H :    0.114474
  15 H :    0.110871
  16 C :   -0.548913
  17 C :    0.006152
  18 N :    0.125031
  19 H :    0.081136
  20 H :    0.102383
  21 H :    0.087230
  22 H :   -0.013907
  23 H :    0.008322
  24 H :    0.107969
  25 H :    0.106338
  26 H :    0.103357
  27 H :    0.106017

  Mayer bond orders larger than 0.100000
B(  0-C ,  1-C ) :   1.2100 B(  0-C ,  2-N ) :   1.0816 B(  0-C , 14-H ) :   0.7500
B(  0-C , 15-H ) :   0.8143 B(  0-C , 16-C ) :  -0.1478 B(  0-C , 18-N ) :   0.1042
B(  1-C ,  3-C ) :   1.0536 B(  1-C ,  6-C ) :   0.1126 B(  1-C , 26-H ) :   0.8492
B(  1-C , 27-H ) :   1.0287 B(  2-N ,  4-C ) :   0.1223 B(  2-N , 16-C ) :   1.0472
B(  2-N , 21-H ) :   0.6277 B(  3-C ,  4-C ) :   1.0355 B(  3-C ,  6-C ) :   0.1852
B(  3-C , 24-H ) :   0.8629 B(  3-C , 25-H ) :   1.0070 B(  4-C ,  5-H ) :   0.7890
B(  4-C ,  6-C ) :   0.8007 B(  4-C ,  7-H ) :   0.9346 B(  4-C , 10-C ) :   0.2962
B(  6-C ,  8-H ) :   0.9284 B(  6-C ,  9-H ) :   0.9525 B(  6-C , 10-C ) :   0.9979
B(  6-C , 13-F ) :   0.1091 B( 10-C , 11-H ) :   0.9497 B( 10-C , 12-H ) :   0.9154
B( 10-C , 13-F ) :   0.7597 B( 13-F , 17-C ) :   0.1941 B( 13-F , 22-H ) :  -0.2016
B( 16-C , 17-C ) :   1.2448 B( 16-C , 18-N ) :   0.8562 B( 16-C , 23-H ) :  -0.1175
B( 17-C , 18-N ) :   0.1297 B( 17-C , 22-H ) :   0.3454 B( 17-C , 23-H ) :   1.1098
B( 18-N , 19-H ) :   0.9828 B( 18-N , 20-H ) :   1.0235 B( 22-H , 23-H ) :   0.1091

Dispersion correction           -0.035766880
FINAL SINGLE POINT ENERGY      -524.662767023955

DIPOLE MOMENT
-------------
                                X             Y             Z
Electronic contribution:      6.39374       2.43987       1.72068
Nuclear contribution   :     -7.85451      -2.70006      -1.48294
                        -----------------------------------------
Total Dipole Moment    :     -1.46077      -0.26019       0.23773
                        -----------------------------------------
Magnitude (a.u.)       :      1.50269
Magnitude (Debye)      :      3.81952

Rotational constants in cm-1:     0.044065     0.029250     0.019826
Rotational constants in MHz :  1321.026981   876.903192   594.367265

                             ****ORCA TERMINATED NORMALLY****
TOTAL RUN TIME: 0 days 0 hours 1 minutes 38 seconds 497 msec
