                         Program Version 5.0.0 -  RELEASE  -
|  1> !TPSS D3BJ RIJCOSX def2-TZVPD def2/J TightSCF xyzfile
|  2>
|  3> *xyzfile 0 1 D3.xyz
|  4>
|  5> %MaxCore 64000
|  6>
|  7> %pal nprocs 4
|  8> end
|  9>
| 10> %scf
| 11>   MaxIter 150
| 12> end
| 13>
| 14>
| 15>                          ****END OF INPUT****

CARTESIAN COORDINATES (ANGSTROEM)
---------------------------------
  C      1.635557   -1.670396   -5.292109
  C      0.338484   -1.500907   -4.505398
  N      2.484511   -0.507410   -5.140392
  C     -0.684873   -0.528026   -5.099889
  C     -0.290406    0.951335   -5.153423
  H      0.607991    1.070692   -5.764412
  C     -0.055168    1.619420   -3.788577
  H     -1.080912    1.483775   -5.689436
  H      0.045006    0.862302   -3.003015
  H     -0.922936    2.230329   -3.517028
  C      1.223022    2.469865   -3.756911
  H      1.114701    3.258074   -4.532999
  H      1.237732    3.011242   -2.792157
  F      2.353815    1.712032   -3.934477
  H      1.398337   -1.829239   -6.352591
  H      2.155864   -2.565398   -4.932091
  C      3.451149   -0.149530   -5.952589
  N      3.922667    1.089559   -5.850711
  C      3.966162   -1.006183   -6.867880
  H      3.521391   -1.906467   -6.995270
  H      4.444824   -0.623472   -7.670348
  H      2.251995    0.240804   -4.498792
  H      3.464277    1.640782   -5.136392
  H      4.834470    1.313745   -6.224653
  H     -0.937999   -0.869056   -6.110838
  H     -1.604638   -0.622496   -4.513132
  H      0.594887   -1.211578   -3.482312
  H     -0.126530   -2.487656   -4.434176

 Total Charge           Charge          ....    0
 Multiplicity           Mult            ....    1
 Number of Electrons    NEL             ....   88
 Basis Dimension        Dim             ....  563

ORBITAL ENERGIES
----------------

  NO   OCC          E(Eh)            E(eV)
   0   2.0000     -24.453348      -665.4094
   1   2.0000     -14.078847      -383.1049
   2   2.0000     -14.075982      -383.0269
   3   2.0000     -10.090247      -274.5696
   4   2.0000     -10.009775      -272.3798
   5   2.0000     -10.008219      -272.3375
   6   2.0000     -10.003104      -272.1983
   7   2.0000      -9.993168      -271.9279
   8   2.0000      -9.990225      -271.8479
   9   2.0000      -9.987329      -271.7691
  10   2.0000      -9.880120      -268.8517
  11   2.0000      -1.185674       -32.2638
  12   2.0000      -0.891977       -24.2719
  13   2.0000      -0.809186       -22.0191
  14   2.0000      -0.765780       -20.8379
  15   2.0000      -0.724435       -19.7129
  16   2.0000      -0.675681       -18.3862
  17   2.0000      -0.639239       -17.3946
  18   2.0000      -0.609515       -16.5858
  19   2.0000      -0.584989       -15.9184
  20   2.0000      -0.532789       -14.4979
  21   2.0000      -0.520565       -14.1653
  22   2.0000      -0.510488       -13.8911
  23   2.0000      -0.481831       -13.1113
  24   2.0000      -0.480419       -13.0729
  25   2.0000      -0.451693       -12.2912
  26   2.0000      -0.445657       -12.1269
  27   2.0000      -0.431772       -11.7491
  28   2.0000      -0.421073       -11.4580
  29   2.0000      -0.395162       -10.7529
  30   2.0000      -0.386400       -10.5145
  31   2.0000      -0.375660       -10.2222
  32   2.0000      -0.361416        -9.8346
  33   2.0000      -0.339781        -9.2459
  34   2.0000      -0.337023        -9.1709
  35   2.0000      -0.325008        -8.8439
  36   2.0000      -0.321398        -8.7457
  37   2.0000      -0.315317        -8.5802
  38   2.0000      -0.305960        -8.3256
  39   2.0000      -0.297807        -8.1037
  40   2.0000      -0.289952        -7.8900
  41   2.0000      -0.284909        -7.7528
  42   2.0000      -0.193613        -5.2685
  43   2.0000      -0.119291        -3.2461
  44   0.0000      -0.014454        -0.3933
  45   0.0000       0.000915         0.0249
  46   0.0000       0.005718         0.1556
  47   0.0000       0.008955         0.2437
  48   0.0000       0.019130         0.5205

MULLIKEN ATOMIC CHARGES
-----------------------
   0 C :   -0.568174
   1 C :   -0.616378
   2 N :   -0.328613
   3 C :   -0.209104
   4 C :   -0.597539
   5 H :    0.420934
   6 C :   -0.340101
   7 H :    0.112756
   8 H :    0.258503
   9 H :    0.150351
  10 C :   -0.024107
  11 H :    0.207078
  12 H :    0.137136
  13 F :   -0.506073
  14 H :    0.348494
  15 H :    0.332288
  16 C :    0.658536
  17 N :   -0.454459
  18 C :   -1.368759
  19 H :    0.426489
  20 H :    0.273242
  21 H :    0.621727
  22 H :    0.368312
  23 H :    0.108008
  24 H :    0.195708
  25 H :    0.059433
  26 H :    0.297532
  27 H :    0.036781
Sum of atomic charges:   -0.0000000

LOEWDIN ATOMIC CHARGES
----------------------
   0 C :   -0.184435
   1 C :   -0.188007
   2 N :    0.030839
   3 C :   -0.196307
   4 C :   -0.200341
   5 H :    0.103486
   6 C :   -0.165554
   7 H :    0.106771
   8 H :    0.104904
   9 H :    0.115469
  10 C :   -0.189806
  11 H :    0.130262
  12 H :    0.120195
  13 F :   -0.057014
  14 H :    0.119474
  15 H :    0.117499
  16 C :   -0.565061
  17 N :    0.125376
  18 C :    0.005803
  19 H :   -0.014206
  20 H :   -0.003623
  21 H :    0.083551
  22 H :    0.063979
  23 H :    0.112063
  24 H :    0.109799
  25 H :    0.106335
  26 H :    0.101423
  27 H :    0.107126

  Mayer bond orders larger than 0.100000
B(  0-C ,  1-C ) :   1.1519 B(  0-C ,  2-N ) :   1.1630 B(  0-C , 14-H ) :   0.7931
B(  0-C , 15-H ) :   0.7972 B(  0-C , 18-C ) :   0.2784 B(  1-C ,  3-C ) :   1.0399
B(  1-C ,  6-C ) :   0.1129 B(  1-C , 26-H ) :   0.8353 B(  1-C , 27-H ) :   1.0478
B(  2-N ,  4-C ) :   0.1098 B(  2-N , 16-C ) :   1.1339 B(  2-N , 21-H ) :   0.5579
B(  3-C ,  4-C ) :   1.0449 B(  3-C ,  6-C ) :   0.1791 B(  3-C , 24-H ) :   0.8577
B(  3-C , 25-H ) :   1.0095 B(  4-C ,  5-H ) :   0.8385 B(  4-C ,  6-C ) :   0.7910
B(  4-C ,  7-H ) :   0.9308 B(  4-C , 10-C ) :   0.3074 B(  6-C ,  8-H ) :   0.9373
B(  6-C ,  9-H ) :   0.9500 B(  6-C , 10-C ) :   0.9964 B(  6-C , 13-F ) :   0.1057
B( 10-C , 11-H ) :   0.9489 B( 10-C , 12-H ) :   0.9183 B( 10-C , 13-F ) :   0.7345
B( 13-F , 21-H ) :  -0.1074 B( 16-C , 17-N ) :   0.9434 B( 16-C , 18-C ) :   1.2242
B( 16-C , 20-H ) :  -0.1149 B( 17-N , 22-H ) :   0.8061 B( 17-N , 23-H ) :   1.0789
B( 18-C , 19-H ) :   0.7991 B( 18-C , 20-H ) :   1.1117

Dispersion correction           -0.035699327
FINAL SINGLE POINT ENERGY      -524.673596240116

DIPOLE MOMENT
-------------
                                X             Y             Z
Electronic contribution:      6.28847       4.42647       2.80001
Nuclear contribution   :     -7.84660      -3.08098      -1.66782
                        -----------------------------------------
Total Dipole Moment    :     -1.55813       1.34549       1.13218
                        -----------------------------------------
Magnitude (a.u.)       :      2.34946
Magnitude (Debye)      :      5.97185

Rotational constants in cm-1:     0.043547     0.029898     0.020008
Rotational constants in MHz :  1305.520367   896.323854   599.829375

                             ****ORCA TERMINATED NORMALLY****
TOTAL RUN TIME: 0 days 0 hours 1 minutes 37 seconds 311 msec
