                         Program Version 5.0.0 -  RELEASE  -
|  1> !B3LYP D3BJ RIJCOSX def2-TZVPD def2/J TightSCF
|  2> *xyz -1 1
|  3> C          0.70466        1.44313       -4.50363
|  4> C          1.72854        1.42432       -5.63944
|  5> H          2.64672        1.95379       -5.38105
|  6> H          1.29992        1.93061       -6.50361
|  7> S          2.25263       -0.18811       -6.27184
|  8> O          3.56261       -0.44446       -5.63155
|  9> O          2.34494       -0.03374       -7.69650
| 10> O          1.26606       -1.15918       -5.80536
| 11> H         -0.17385        0.91270       -4.80656
| 12> H          0.44778        2.45562       -4.27173
| 13> H          1.12367        0.97423       -3.63791
| 14> *
| 15>
| 16> %MaxCore 64000
| 17>
| 18> %pal nprocs 4
| 19> end
| 20>
| 21> %scf
| 22>   MaxIter 150
| 23> end
| 24>
| 25>
| 26>                          ****END OF INPUT****

CARTESIAN COORDINATES (ANGSTROEM)
---------------------------------
  C      0.704660    1.443130   -4.503630
  C      1.728540    1.424320   -5.639440
  H      2.646720    1.953790   -5.381050
  H      1.299920    1.930610   -6.503610
  S      2.252630   -0.188110   -6.271840
  O      3.562610   -0.444460   -5.631550
  O      2.344940   -0.033740   -7.696500
  O      1.266060   -1.159180   -5.805360
  H     -0.173850    0.912700   -4.806560
  H      0.447780    2.455620   -4.271730
  H      1.123670    0.974230   -3.637910

 Total Charge           Charge          ....   -1
 Multiplicity           Mult            ....    1
 Number of Electrons    NEL             ....   58
 Basis Dimension        Dim             ....  285

ORBITAL ENERGIES
----------------

  NO   OCC          E(Eh)            E(eV)
   0   2.0000     -88.837929     -2417.4029
   1   2.0000     -18.907513      -514.4996
   2   2.0000     -18.900713      -514.3145
   3   2.0000     -18.892286      -514.0852
   4   2.0000     -10.029607      -272.9195
   5   2.0000     -10.025536      -272.8087
   6   2.0000      -7.881364      -214.4628
   7   2.0000      -5.844921      -159.0484
   8   2.0000      -5.843861      -159.0195
   9   2.0000      -5.843612      -159.0128
  10   2.0000      -0.922129       -25.0924
  11   2.0000      -0.793075       -21.5807
  12   2.0000      -0.770302       -20.9610
  13   2.0000      -0.631191       -17.1756
  14   2.0000      -0.507103       -13.7990
  15   2.0000      -0.380342       -10.3496
  16   2.0000      -0.318083        -8.6555
  17   2.0000      -0.311762        -8.4835
  18   2.0000      -0.273906        -7.4534
  19   2.0000      -0.257256        -7.0003
  20   2.0000      -0.256275        -6.9736
  21   2.0000      -0.226903        -6.1744
  22   2.0000      -0.219420        -5.9707
  23   2.0000      -0.150662        -4.0997
  24   2.0000      -0.148998        -4.0544
  25   2.0000      -0.115390        -3.1399
  26   2.0000      -0.109333        -2.9751
  27   2.0000      -0.098677        -2.6851
  28   2.0000      -0.063560        -1.7296
  29   0.0000       0.120447         3.2775
  30   0.0000       0.145322         3.9544
  31   0.0000       0.152394         4.1468
  32   0.0000       0.161944         4.4067
  33   0.0000       0.176997         4.8163

MULLIKEN ATOMIC CHARGES
-----------------------
   0 C :   -0.975384
   1 C :   -0.395026
   2 H :    0.249045
   3 H :    0.242865
   4 S :    1.253208
   5 O :   -0.755946
   6 O :   -0.710048
   7 O :   -0.735230
   8 H :    0.263881
   9 H :    0.298514
  10 H :    0.264121
Sum of atomic charges:   -1.0000000

LOEWDIN ATOMIC CHARGES
----------------------
   0 C :   -0.142845
   1 C :   -0.315223
   2 H :    0.077057
   3 H :    0.071328
   4 S :    0.360555
   5 O :   -0.425276
   6 O :   -0.388144
   7 O :   -0.399218
   8 H :    0.054821
   9 H :    0.046612
  10 H :    0.060333

  Mayer bond orders larger than 0.100000
B(  0-C ,  1-C ) :   0.5951 B(  0-C ,  8-H ) :   1.0017 B(  0-C ,  9-H ) :   0.9400
B(  0-C , 10-H ) :   0.9886 B(  1-C ,  2-H ) :   0.9824 B(  1-C ,  3-H ) :   0.9795
B(  1-C ,  4-S ) :   0.8998 B(  1-C ,  5-O ) :   0.1275 B(  1-C ,  6-O ) :   0.1315
B(  4-S ,  5-O ) :   1.4615 B(  4-S ,  6-O ) :   1.4958 B(  4-S ,  7-O ) :   1.4678

Dispersion correction           -0.016511522
FINAL SINGLE POINT ENERGY      -703.120266617523

DIPOLE MOMENT
-------------
                                X             Y             Z
Electronic contribution:      3.64696      -5.62388      -4.30074
Nuclear contribution   :     -4.50297       7.24642       5.01775
                        -----------------------------------------
Total Dipole Moment    :     -0.85601       1.62254       0.71702
                        -----------------------------------------
Magnitude (a.u.)       :      1.96964
Magnitude (Debye)      :      5.00643

Rotational constants in cm-1:     0.162459     0.081286     0.079601
Rotational constants in MHz :  4870.394399  2436.893583  2386.374948

                             ****ORCA TERMINATED NORMALLY****
TOTAL RUN TIME: 0 days 0 hours 0 minutes 37 seconds 800 msec
