                         Program Version 5.0.0 -  RELEASE  -
|  1> !B3LYP D3BJ RIJCOSX def2-TZVPD def2/J TightSCF
|  2> *xyz 1 1
|  3> C          2.91632       -1.24259       -1.54313
|  4> C          3.46659       -1.59097       -2.88908
|  5> N          4.65227       -1.14316       -3.25969
|  6> N          2.75226       -2.29204       -3.72803
|  7> H          1.77836       -2.48960       -3.51274
|  8> H          2.94861       -2.20854       -4.71681
|  9> H          5.14672       -0.51251       -2.63385
| 10> H          4.78303       -1.00720       -4.25350
| 11> C          2.80408        0.29070       -1.35924
| 12> H          1.94047       -1.71653       -1.44116
| 13> H          3.55857       -1.66343       -0.76637
| 14> H          2.17393        0.69633       -2.12297
| 15> H          3.77707        0.73043       -1.42880
| 16> H          2.38369        0.50492       -0.39889
| 17> *
| 18>
| 19> %MaxCore 64000
| 20>
| 21> %pal nprocs 4
| 22> end
| 23>
| 24> %scf
| 25>   MaxIter 150
| 26> end
| 27>
| 28>
| 29>                          ****END OF INPUT****

CARTESIAN COORDINATES (ANGSTROEM)
---------------------------------
  C      2.916320   -1.242590   -1.543130
  C      3.466590   -1.590970   -2.889080
  N      4.652270   -1.143160   -3.259690
  N      2.752260   -2.292040   -3.728030
  H      1.778360   -2.489600   -3.512740
  H      2.948610   -2.208540   -4.716810
  H      5.146720   -0.512510   -2.633850
  H      4.783030   -1.007200   -4.253500
  C      2.804080    0.290700   -1.359240
  H      1.940470   -1.716530   -1.441160
  H      3.558570   -1.663430   -0.766370
  H      2.173930    0.696330   -2.122970
  H      3.777070    0.730430   -1.428800
  H      2.383690    0.504920   -0.398890

 Total Charge           Charge          ....    1
 Multiplicity           Mult            ....    1
 Number of Electrons    NEL             ....   40
 Basis Dimension        Dim             ....  266

ORBITAL ENERGIES
----------------

  NO   OCC          E(Eh)            E(eV)
   0   2.0000     -14.563872      -396.3031
   1   2.0000     -14.558453      -396.1556
   2   2.0000     -10.492471      -285.5147
   3   2.0000     -10.371012      -282.2096
   4   2.0000     -10.330241      -281.1001
   5   2.0000      -1.210836       -32.9485
   6   2.0000      -1.112565       -30.2744
   7   2.0000      -0.970986       -26.4219
   8   2.0000      -0.864828       -23.5332
   9   2.0000      -0.817773       -22.2527
  10   2.0000      -0.769785       -20.9469
  11   2.0000      -0.753628       -20.5072
  12   2.0000      -0.700121       -19.0513
  13   2.0000      -0.664142       -18.0722
  14   2.0000      -0.626528       -17.0487
  15   2.0000      -0.600597       -16.3431
  16   2.0000      -0.554402       -15.0861
  17   2.0000      -0.544734       -14.8230
  18   2.0000      -0.532678       -14.4949
  19   2.0000      -0.499457       -13.5909
  20   0.0000      -0.224166        -6.0999
  21   0.0000      -0.171185        -4.6582
  22   0.0000      -0.130711        -3.5568
  23   0.0000      -0.125803        -3.4233
  24   0.0000      -0.098070        -2.6686

MULLIKEN ATOMIC CHARGES
-----------------------
   0 C :   -0.241757
   1 C :    0.526740
   2 N :   -0.305889
   3 N :   -0.263042
   4 H :    0.243258
   5 H :    0.214898
   6 H :    0.238769
   7 H :    0.214053
   8 C :   -1.114316
   9 H :    0.252015
  10 H :    0.267207
  11 H :    0.342604
  12 H :    0.333431
  13 H :    0.292028
Sum of atomic charges:    1.0000000

LOEWDIN ATOMIC CHARGES
----------------------
   0 C :   -0.132386
   1 C :   -0.364668
   2 N :    0.229443
   3 N :    0.233923
   4 H :    0.150552
   5 H :    0.145994
   6 H :    0.143301
   7 H :    0.145258
   8 C :   -0.043932
   9 H :    0.120979
  10 H :    0.136630
  11 H :    0.082573
  12 H :    0.066682
  13 H :    0.085652

  Mayer bond orders larger than 0.100000
B(  0-C ,  1-C ) :   0.8531 B(  0-C ,  8-C ) :   0.6186 B(  0-C ,  9-H ) :   0.9615
B(  0-C , 10-H ) :   0.9526 B(  1-C ,  2-N ) :   1.2415 B(  1-C ,  3-N ) :   1.3189
B(  2-N ,  6-H ) :   0.9160 B(  2-N ,  7-H ) :   0.9702 B(  3-N ,  4-H ) :   0.9280
B(  3-N ,  5-H ) :   0.9567 B(  8-C , 11-H ) :   0.9502 B(  8-C , 12-H ) :   0.9049
B(  8-C , 13-H ) :   0.9992

Dispersion correction           -0.016830365
FINAL SINGLE POINT ENERGY      -228.987236684691

DIPOLE MOMENT
-------------
                                X             Y             Z
Electronic contribution:      1.30909      -2.84631      -2.75787
Nuclear contribution   :     -1.30215       2.77761       1.84194
                        -----------------------------------------
Total Dipole Moment    :      0.00695      -0.06870      -0.91594
                        -----------------------------------------
Magnitude (a.u.)       :      0.91854
Magnitude (Debye)      :      2.33473

Rotational constants in cm-1:     0.267442     0.127541     0.099068
Rotational constants in MHz :  8017.703171  3823.592522  2969.992494

                             ****ORCA TERMINATED NORMALLY****
TOTAL RUN TIME: 0 days 0 hours 0 minutes 36 seconds 785 msec
