                         Program Version 5.0.0 -  RELEASE  -
|  1> !B3LYP D3BJ RIJCOSX def2-TZVPD def2/J TightSCF xyzfile
|  2>
|  3> *xyzfile 0 1 B.xyz
|  4>
|  5> %MaxCore 64000
|  6>
|  7> %pal nprocs 4
|  8> end
|  9>
| 10> %scf
| 11>   MaxIter 150
| 12> end
| 13>
| 14>
| 15>                          ****END OF INPUT****

CARTESIAN COORDINATES (ANGSTROEM)
---------------------------------
  C      2.916324   -1.242589   -1.543125
  C      0.704661    1.443129   -4.503630
  C      1.728539    1.424320   -5.639443
  H      2.646718    1.953794   -5.381054
  H      1.299916    1.930613   -6.503614
  S      2.252625   -0.188115   -6.271840
  C      3.466585   -1.590971   -2.889082
  N      4.652275   -1.143164   -3.259692
  N      2.752264   -2.292043   -3.728029
  H      1.778364   -2.489604   -3.512738
  H      2.948612   -2.208544   -4.716813
  H      5.146723   -0.512508   -2.633852
  H      4.783030   -1.007203   -4.253498
  O      3.562607   -0.444464   -5.631552
  O      2.344944   -0.033742   -7.696501
  C      2.804084    0.290698   -1.359243
  C      1.052550    0.695659   -3.214915
  H     -0.232483    1.032925   -4.884449
  H      0.511700    2.495794   -4.267966
  C      2.388380    1.093669   -2.597108
  H      3.763425    0.674718   -0.999889
  H      2.094788    0.461222   -0.545756
  O      1.266058   -1.159177   -5.805365
  H      3.167316    1.013242   -3.359430
  H      2.357690    2.149375   -2.310997
  H      1.039284   -0.368429   -3.449329
  H      0.250787    0.865605   -2.488283
  H      1.940472   -1.716529   -1.441161
  H      3.558569   -1.663433   -0.766371

 Total Charge           Charge          ....    0
 Multiplicity           Mult            ....    1
 Number of Electrons    NEL             ....  112
 Basis Dimension        Dim             ....  643

ORBITAL ENERGIES
----------------

  NO   OCC          E(Eh)            E(eV)
   0   2.0000     -88.992656     -2421.6133
   1   2.0000     -19.064566      -518.7732
   2   2.0000     -19.057868      -518.5910
   3   2.0000     -19.049253      -518.3565
   4   2.0000     -14.387692      -391.5090
   5   2.0000     -14.387046      -391.4914
   6   2.0000     -10.327441      -281.0240
   7   2.0000     -10.233401      -278.4650
   8   2.0000     -10.212014      -277.8830
   9   2.0000     -10.183597      -277.1098
  10   2.0000     -10.170819      -276.7621
  11   2.0000     -10.166867      -276.6545
  12   2.0000     -10.164965      -276.6028
  13   2.0000      -8.036519      -218.6848
  14   2.0000      -6.000001      -163.2683
  15   2.0000      -5.999478      -163.2541
  16   2.0000      -5.998236      -163.2203
  17   2.0000      -1.080198       -29.3937
  18   2.0000      -1.041137       -28.3308
  19   2.0000      -0.945791       -25.7363
  20   2.0000      -0.942841       -25.6560
  21   2.0000      -0.939030       -25.5523
  22   2.0000      -0.846356       -23.0305
  23   2.0000      -0.800083       -21.7714
  24   2.0000      -0.753516       -20.5042
  25   2.0000      -0.701088       -19.0776
  26   2.0000      -0.673017       -18.3137
  27   2.0000      -0.637999       -17.3608
  28   2.0000      -0.602912       -16.4061
  29   2.0000      -0.592174       -16.1139
  30   2.0000      -0.581842       -15.8327
  31   2.0000      -0.537283       -14.6202
  32   2.0000      -0.525908       -14.3107
  33   2.0000      -0.515084       -14.0161
  34   2.0000      -0.497074       -13.5261
  35   2.0000      -0.471568       -12.8320
  36   2.0000      -0.463932       -12.6242
  37   2.0000      -0.445378       -12.1194
  38   2.0000      -0.434567       -11.8252
  39   2.0000      -0.431391       -11.7387
  40   2.0000      -0.426103       -11.5948
  41   2.0000      -0.415140       -11.2965
  42   2.0000      -0.404777       -11.0145
  43   2.0000      -0.386719       -10.5232
  44   2.0000      -0.378569       -10.3014
  45   2.0000      -0.374551       -10.1920
  46   2.0000      -0.347751        -9.4628
  47   2.0000      -0.340646        -9.2694
  48   2.0000      -0.328438        -8.9372
  49   2.0000      -0.326650        -8.8886
  50   2.0000      -0.307402        -8.3648
  51   2.0000      -0.303955        -8.2710
  52   2.0000      -0.268997        -7.3198
  53   2.0000      -0.263402        -7.1675
  54   2.0000      -0.255507        -6.9527
  55   2.0000      -0.226410        -6.1609
  56   0.0000      -0.062109        -1.6901
  57   0.0000      -0.028997        -0.7890
  58   0.0000      -0.007835        -0.2132
  59   0.0000       0.005440         0.1480
  60   0.0000       0.011890         0.3235

MULLIKEN ATOMIC CHARGES
-----------------------
   0 C :   -0.443421
   1 C :   -0.489269
   2 C :   -0.825418
   3 H :    0.329053
   4 H :    0.269024
   5 S :    1.368389
   6 C :    0.361566
   7 N :   -0.291816
   8 N :   -0.263381
   9 H :    0.233459
  10 H :    0.273972
  11 H :    0.221104
  12 H :    0.323234
  13 O :   -0.876816
  14 O :   -0.655364
  15 C :   -0.576152
  16 C :   -0.322062
  17 H :    0.270559
  18 H :    0.249690
  19 C :   -0.426786
  20 H :    0.322743
  21 H :    0.250241
  22 O :   -0.814425
  23 H :    0.315334
  24 H :    0.274384
  25 H :    0.199994
  26 H :    0.247726
  27 H :    0.252057
  28 H :    0.222382
Sum of atomic charges:   -0.0000000

LOEWDIN ATOMIC CHARGES
----------------------
   0 C :   -0.100063
   1 C :   -0.218435
   2 C :   -0.236882
   3 H :    0.089268
   4 H :    0.092832
   5 S :    0.440805
   6 C :   -0.382843
   7 N :    0.211284
   8 N :    0.224017
   9 H :    0.135440
  10 H :    0.095696
  11 H :    0.136250
  12 H :    0.097111
  13 O :   -0.409025
  14 O :   -0.325203
  15 C :   -0.175945
  16 C :   -0.203950
  17 H :    0.110874
  18 H :    0.110414
  19 C :   -0.201124
  20 H :    0.105255
  21 H :    0.113570
  22 O :   -0.363737
  23 H :    0.093393
  24 H :    0.120475
  25 H :    0.080482
  26 H :    0.116821
  27 H :    0.118045
  28 H :    0.125175

  Mayer bond orders larger than 0.100000
B(  0-C ,  6-C ) :   0.8707 B(  0-C , 15-C ) :   0.8179 B(  0-C , 19-C ) :  -0.1384
B(  0-C , 27-H ) :   0.9642 B(  0-C , 28-H ) :   0.9947 B(  1-C ,  2-C ) :   0.8236
B(  1-C , 16-C ) :   0.9292 B(  1-C , 17-H ) :   0.9068 B(  1-C , 18-H ) :   0.9462
B(  1-C , 19-C ) :   0.1735 B(  2-C ,  3-H ) :   0.8651 B(  2-C ,  4-H ) :   0.9934
B(  2-C ,  5-S ) :   0.8913 B(  2-C , 13-O ) :   0.1782 B(  2-C , 14-O ) :   0.1885
B(  2-C , 19-C ) :   0.1042 B(  5-S , 13-O ) :   1.4176 B(  5-S , 14-O ) :   1.3537
B(  5-S , 22-O ) :   1.3200 B(  6-C ,  7-N ) :   1.3075 B(  6-C ,  8-N ) :   1.4151
B(  6-C , 13-O ) :  -0.1093 B(  6-C , 15-C ) :   0.1135 B(  6-C , 19-C ) :   0.1016
B(  7-N , 11-H ) :   0.8899 B(  7-N , 12-H ) :   0.8285 B(  8-N ,  9-H ) :   0.8708
B(  8-N , 10-H ) :   0.8250 B( 13-O , 22-O ) :   0.1189 B( 15-C , 16-C ) :   0.2055
B( 15-C , 19-C ) :   0.8379 B( 15-C , 20-H ) :   0.8777 B( 15-C , 21-H ) :   0.9436
B( 16-C , 19-C ) :   0.4617 B( 16-C , 25-H ) :   1.0638 B( 16-C , 26-H ) :   0.9134
B( 19-C , 23-H ) :   1.0312 B( 19-C , 24-H ) :   0.9255

Dispersion correction           -0.060656136
FINAL SINGLE POINT ENERGY     -1009.683916620414

DIPOLE MOMENT
-------------
                                X             Y             Z
Electronic contribution:      2.75616      -6.28862     -13.33914
Nuclear contribution   :     -1.90023       6.18953      17.82209
                        -----------------------------------------
Total Dipole Moment    :      0.85593      -0.09909       4.48295
                        -----------------------------------------
Magnitude (a.u.)       :      4.56500
Magnitude (Debye)      :     11.60331

Rotational constants in cm-1:     0.036337     0.018755     0.015005
Rotational constants in MHz :  1089.341704   562.266628   449.834770

                             ****ORCA TERMINATED NORMALLY****
TOTAL RUN TIME: 0 days 0 hours 5 minutes 19 seconds 414 msec
