                         Program Version 5.0.0 -  RELEASE  -
|  1> !B3LYP D3BJ RIJCOSX def2-TZVPD def2/J TightSCF
|  2> *xyz 0 1
|  3> C          0.70466        1.44313       -4.50363
|  4> C          1.72854        1.42432       -5.63944
|  5> H          2.64672        1.95379       -5.38105
|  6> H          1.29992        1.93061       -6.50361
|  7> S          2.25263       -0.18811       -6.27184
|  8> F          3.56261       -0.44446       -5.63155
|  9> O          2.34494       -0.03374       -7.69650
| 10> O          1.26606       -1.15918       -5.80536
| 11> H         -0.17385        0.91270       -4.80656
| 12> H          0.44778        2.45562       -4.27173
| 13> H          1.12367        0.97423       -3.63791
| 14> *
| 15>
| 16> %MaxCore 64000
| 17>
| 18> %pal nprocs 4
| 19> end
| 20>
| 21> %scf
| 22>   MaxIter 150
| 23> end
| 24>
| 25>
| 26>                          ****END OF INPUT****

CARTESIAN COORDINATES (ANGSTROEM)
---------------------------------
  C      0.704660    1.443130   -4.503630
  C      1.728540    1.424320   -5.639440
  H      2.646720    1.953790   -5.381050
  H      1.299920    1.930610   -6.503610
  S      2.252630   -0.188110   -6.271840
  F      3.562610   -0.444460   -5.631550
  O      2.344940   -0.033740   -7.696500
  O      1.266060   -1.159180   -5.805360
  H     -0.173850    0.912700   -4.806560
  H      0.447780    2.455620   -4.271730
  H      1.123670    0.974230   -3.637910

 Total Charge           Charge          ....    0
 Multiplicity           Mult            ....    1
 Number of Electrons    NEL             ....   58
 Basis Dimension        Dim             ....  285

ORBITAL ENERGIES
----------------

  NO   OCC          E(Eh)            E(eV)
   0   2.0000     -89.097775     -2424.4737
   1   2.0000     -24.783257      -674.3867
   2   2.0000     -19.141758      -520.8737
   3   2.0000     -19.134476      -520.6756
   4   2.0000     -10.230568      -278.3879
   5   2.0000     -10.187088      -277.2047
   6   2.0000      -8.141691      -221.5467
   7   2.0000      -6.108556      -166.2223
   8   2.0000      -6.102272      -166.0513
   9   2.0000      -6.101693      -166.0355
  10   2.0000      -1.353270       -36.8244
  11   2.0000      -1.113104       -30.2891
  12   2.0000      -1.020806       -27.7775
  13   2.0000      -0.820376       -22.3236
  14   2.0000      -0.725434       -19.7401
  15   2.0000      -0.670566       -18.2470
  16   2.0000      -0.576293       -15.6817
  17   2.0000      -0.564245       -15.3539
  18   2.0000      -0.551252       -15.0003
  19   2.0000      -0.492960       -13.4141
  20   2.0000      -0.480992       -13.0885
  21   2.0000      -0.456277       -12.4159
  22   2.0000      -0.432762       -11.7760
  23   2.0000      -0.405131       -11.0242
  24   2.0000      -0.400778       -10.9057
  25   2.0000      -0.385566       -10.4918
  26   2.0000      -0.338510        -9.2113
  27   2.0000      -0.333676        -9.0798
  28   2.0000      -0.319519        -8.6946
  29   0.0000      -0.012296        -0.3346
  30   0.0000       0.010443         0.2842
  31   0.0000       0.021990         0.5984
  32   0.0000       0.024501         0.6667
  33   0.0000       0.039725         1.0810

MULLIKEN ATOMIC CHARGES
-----------------------
   0 C :   -0.999096
   1 C :   -0.396296
   2 H :    0.336183
   3 H :    0.283357
   4 S :    1.205302
   5 F :   -0.179252
   6 O :   -0.571627
   7 O :   -0.589539
   8 H :    0.299638
   9 H :    0.313011
  10 H :    0.298320
Sum of atomic charges:    0.0000000

LOEWDIN ATOMIC CHARGES
----------------------
   0 C :   -0.104210
   1 C :   -0.267612
   2 H :    0.094533
   3 H :    0.098118
   4 S :    0.608732
   5 F :   -0.086874
   6 O :   -0.272125
   7 O :   -0.284918
   8 H :    0.070778
   9 H :    0.071847
  10 H :    0.071732

  Mayer bond orders larger than 0.100000
B(  0-C ,  1-C ) :   0.6556 B(  0-C ,  8-H ) :   0.9833 B(  0-C ,  9-H ) :   0.9421
B(  0-C , 10-H ) :   0.9518 B(  1-C ,  2-H ) :   0.8795 B(  1-C ,  3-H ) :   0.9597
B(  1-C ,  4-S ) :   0.8904 B(  1-C ,  6-O ) :   0.1105 B(  4-S ,  5-F ) :   0.9830
B(  4-S ,  6-O ) :   1.6889 B(  4-S ,  7-O ) :   1.6611

Dispersion correction           -0.015746827
FINAL SINGLE POINT ENERGY      -727.654289519488

DIPOLE MOMENT
-------------
                                X             Y             Z
Electronic contribution:      6.29433      -6.48592      -3.70368
Nuclear contribution   :     -6.09914       7.80989       4.64238
                        -----------------------------------------
Total Dipole Moment    :      0.19519       1.32397       0.93870
                        -----------------------------------------
Magnitude (a.u.)       :      1.63467
Magnitude (Debye)      :      4.15501

Rotational constants in cm-1:     0.154372     0.078826     0.078033
Rotational constants in MHz :  4627.943144  2363.154585  2339.382767

                             ****ORCA TERMINATED NORMALLY****
TOTAL RUN TIME: 0 days 0 hours 0 minutes 42 seconds 134 msec
