                         Program Version 5.0.0 -  RELEASE  -
|  1> !B3LYP D3BJ RIJCOSX def2-TZVPD def2/J TightSCF
|  2> *xyz 0 1
|  3> C          2.91632       -1.24259       -1.54313
|  4> C          3.46659       -1.59097       -2.88908
|  5> C          4.65227       -1.14316       -3.25969
|  6> N          2.75226       -2.29204       -3.72803
|  7> H          1.77836       -2.48960       -3.51274
|  8> H          2.94861       -2.20854       -4.71681
|  9> H          5.14672       -0.51251       -2.63385
| 10> H          4.78303       -1.00720       -4.25350
| 11> C          2.80408        0.29070       -1.35924
| 12> H          1.94047       -1.71653       -1.44116
| 13> H          3.55857       -1.66343       -0.76637
| 14> H          2.17393        0.69633       -2.12297
| 15> H          3.77707        0.73043       -1.42880
| 16> H          2.38369        0.50492       -0.39889
| 17> *
| 18>
| 19> %MaxCore 64000
| 20>
| 21> %pal nprocs 4
| 22> end
| 23>
| 24> %scf
| 25>   MaxIter 150
| 26> end
| 27>
| 28>
| 29>                          ****END OF INPUT****

CARTESIAN COORDINATES (ANGSTROEM)
---------------------------------
  C      2.916320   -1.242590   -1.543130
  C      3.466590   -1.590970   -2.889080
  C      4.652270   -1.143160   -3.259690
  N      2.752260   -2.292040   -3.728030
  H      1.778360   -2.489600   -3.512740
  H      2.948610   -2.208540   -4.716810
  H      5.146720   -0.512510   -2.633850
  H      4.783030   -1.007200   -4.253500
  C      2.804080    0.290700   -1.359240
  H      1.940470   -1.716530   -1.441160
  H      3.558570   -1.663430   -0.766370
  H      2.173930    0.696330   -2.122970
  H      3.777070    0.730430   -1.428800
  H      2.383690    0.504920   -0.398890

 Total Charge           Charge          ....    0
 Multiplicity           Mult            ....    1
 Number of Electrons    NEL             ....   40
 Basis Dimension        Dim             ....  266

ORBITAL ENERGIES
----------------

  NO   OCC          E(Eh)            E(eV)
   0   2.0000     -14.319419      -389.6512
   1   2.0000     -10.188614      -277.2463
   2   2.0000     -10.171529      -276.7814
   3   2.0000     -10.154499      -276.3180
   4   2.0000     -10.096478      -274.7391
   5   2.0000      -0.938121       -25.5276
   6   2.0000      -0.781292       -21.2600
   7   2.0000      -0.712543       -19.3893
   8   2.0000      -0.644117       -17.5273
   9   2.0000      -0.566168       -15.4062
  10   2.0000      -0.522876       -14.2282
  11   2.0000      -0.479654       -13.0520
  12   2.0000      -0.449428       -12.2296
  13   2.0000      -0.411240       -11.1904
  14   2.0000      -0.390930       -10.6377
  15   2.0000      -0.378075       -10.2880
  16   2.0000      -0.357594        -9.7306
  17   2.0000      -0.345254        -9.3948
  18   2.0000      -0.327825        -8.9206
  19   2.0000      -0.190485        -5.1834
  20   0.0000       0.001120         0.0305
  21   0.0000       0.019439         0.5290
  22   0.0000       0.031524         0.8578
  23   0.0000       0.038715         1.0535
  24   0.0000       0.049651         1.3511

MULLIKEN ATOMIC CHARGES
-----------------------
   0 C :   -0.198531
   1 C :    0.483710
   2 C :   -1.044742
   3 N :   -0.336236
   4 H :    0.181661
   5 H :    0.157331
   6 H :    0.298635
   7 H :    0.237923
   8 C :   -1.062480
   9 H :    0.217870
  10 H :    0.214510
  11 H :    0.290286
  12 H :    0.288288
  13 H :    0.271777
Sum of atomic charges:    0.0000000

LOEWDIN ATOMIC CHARGES
----------------------
   0 C :   -0.184243
   1 C :   -0.501420
   2 C :    0.013434
   3 N :    0.104844
   4 H :    0.104115
   5 H :    0.109725
   6 H :    0.018309
   7 H :    0.020571
   8 C :   -0.082024
   9 H :    0.097777
  10 H :    0.113117
  11 H :    0.069278
  12 H :    0.057393
  13 H :    0.059126

  Mayer bond orders larger than 0.100000
B(  0-C ,  1-C ) :   0.7144 B(  0-C ,  8-C ) :   0.5903 B(  0-C ,  9-H ) :   1.0560
B(  0-C , 10-H ) :   0.9440 B(  1-C ,  2-C ) :   1.4256 B(  1-C ,  3-N ) :   1.0993
B(  1-C ,  9-H ) :  -0.1274 B(  2-C ,  3-N ) :   0.1114 B(  2-C ,  6-H ) :   0.9307
B(  2-C ,  7-H ) :   1.0681 B(  3-N ,  4-H ) :   0.9832 B(  3-N ,  5-H ) :   0.9735
B(  8-C , 11-H ) :   0.9671 B(  8-C , 12-H ) :   0.9810 B(  8-C , 13-H ) :   0.9795

Dispersion correction           -0.017601889
FINAL SINGLE POINT ENERGY      -212.513536656112

DIPOLE MOMENT
-------------
                                X             Y             Z
Electronic contribution:      0.10247      -2.72832      -1.80897
Nuclear contribution   :     -0.99366       2.78648       1.68526
                        -----------------------------------------
Total Dipole Moment    :     -0.89118       0.05816      -0.12371
                        -----------------------------------------
Magnitude (a.u.)       :      0.90161
Magnitude (Debye)      :      2.29170

Rotational constants in cm-1:     0.282898     0.128664     0.101801
Rotational constants in MHz :  8481.061354  3857.240210  3051.924245

                             ****ORCA TERMINATED NORMALLY****
TOTAL RUN TIME: 0 days 0 hours 0 minutes 40 seconds 108 msec
