                         Program Version 5.0.0 -  RELEASE  -
|  1> !B3LYP D3BJ RIJCOSX def2-TZVPD def2/J TightSCF
|  2> *xyz 0 1
|  3> C          0.70466        1.44313       -4.50363
|  4> C          1.72854        1.42432       -5.63944
|  5> H          2.64672        1.95379       -5.38105
|  6> H          1.29992        1.93061       -6.50361
|  7> S          2.25263       -0.18811       -6.27184
|  8> O          3.56261       -0.44446       -5.63155
|  9> F          2.34494       -0.03374       -7.69650
| 10> O          1.26606       -1.15918       -5.80536
| 11> H         -0.17385        0.91270       -4.80656
| 12> H          0.44778        2.45562       -4.27173
| 13> H          1.12367        0.97423       -3.63791
| 14> *
| 15>
| 16> %MaxCore 64000
| 17>
| 18> %pal nprocs 4
| 19> end
| 20>
| 21> %scf
| 22>   MaxIter 150
| 23> end
| 24>
| 25>
| 26>                          ****END OF INPUT****

CARTESIAN COORDINATES (ANGSTROEM)
---------------------------------
  C      0.704660    1.443130   -4.503630
  C      1.728540    1.424320   -5.639440
  H      2.646720    1.953790   -5.381050
  H      1.299920    1.930610   -6.503610
  S      2.252630   -0.188110   -6.271840
  O      3.562610   -0.444460   -5.631550
  F      2.344940   -0.033740   -7.696500
  O      1.266060   -1.159180   -5.805360
  H     -0.173850    0.912700   -4.806560
  H      0.447780    2.455620   -4.271730
  H      1.123670    0.974230   -3.637910

 Total Charge           Charge          ....    0
 Multiplicity           Mult            ....    1
 Number of Electrons    NEL             ....   58
 Basis Dimension        Dim             ....  285

ORBITAL ENERGIES
----------------

  NO   OCC          E(Eh)            E(eV)
   0   2.0000     -89.100179     -2424.5391
   1   2.0000     -24.806495      -675.0190
   2   2.0000     -19.134886      -520.6867
   3   2.0000     -19.126783      -520.4662
   4   2.0000     -10.231625      -278.4167
   5   2.0000     -10.187796      -277.2240
   6   2.0000      -8.144060      -221.6111
   7   2.0000      -6.110809      -166.2836
   8   2.0000      -6.104513      -166.1122
   9   2.0000      -6.104146      -166.1023
  10   2.0000      -1.391081       -37.8532
  11   2.0000      -1.098724       -29.8978
  12   2.0000      -1.001163       -27.2430
  13   2.0000      -0.821373       -22.3507
  14   2.0000      -0.740670       -20.1546
  15   2.0000      -0.678586       -18.4653
  16   2.0000      -0.592707       -16.1284
  17   2.0000      -0.590886       -16.0788
  18   2.0000      -0.555796       -15.1240
  19   2.0000      -0.493721       -13.4348
  20   2.0000      -0.481624       -13.1057
  21   2.0000      -0.445598       -12.1253
  22   2.0000      -0.429998       -11.7008
  23   2.0000      -0.407665       -11.0931
  24   2.0000      -0.392587       -10.6828
  25   2.0000      -0.382761       -10.4154
  26   2.0000      -0.331978        -9.0336
  27   2.0000      -0.322299        -8.7702
  28   2.0000      -0.303959        -8.2712
  29   0.0000      -0.012628        -0.3436
  30   0.0000       0.005620         0.1529
  31   0.0000       0.022296         0.6067
  32   0.0000       0.024812         0.6752
  33   0.0000       0.040239         1.0950

MULLIKEN ATOMIC CHARGES
-----------------------
   0 C :   -1.026604
   1 C :   -0.387045
   2 H :    0.301030
   3 H :    0.310956
   4 S :    1.200168
   5 O :   -0.599004
   6 F :   -0.135927
   7 O :   -0.586032
   8 H :    0.300410
   9 H :    0.313980
  10 H :    0.308069
Sum of atomic charges:   -0.0000000

LOEWDIN ATOMIC CHARGES
----------------------
   0 C :   -0.098647
   1 C :   -0.272276
   2 H :    0.098263
   3 H :    0.088450
   4 S :    0.607675
   5 O :   -0.305118
   6 F :   -0.051833
   7 O :   -0.285666
   8 H :    0.069606
   9 H :    0.072910
  10 H :    0.076636

  Mayer bond orders larger than 0.100000
B(  0-C ,  1-C ) :   0.6742 B(  0-C ,  8-H ) :   0.9680 B(  0-C ,  9-H ) :   0.9320
B(  0-C , 10-H ) :   0.9613 B(  1-C ,  2-H ) :   0.9539 B(  1-C ,  3-H ) :   0.8895
B(  1-C ,  4-S ) :   0.8887 B(  4-S ,  5-O ) :   1.6552 B(  4-S ,  6-F ) :   1.0258
B(  4-S ,  7-O ) :   1.6662

Dispersion correction           -0.015767031
FINAL SINGLE POINT ENERGY      -727.634999726046

DIPOLE MOMENT
-------------
                                X             Y             Z
Electronic contribution:      4.20469      -5.79170      -7.19946
Nuclear contribution   :     -4.83029       7.38191       6.79413
                        -----------------------------------------
Total Dipole Moment    :     -0.62560       1.59021      -0.40533
                        -----------------------------------------
Magnitude (a.u.)       :      1.75626
Magnitude (Debye)      :      4.46405

Rotational constants in cm-1:     0.156575     0.079070     0.076729
Rotational constants in MHz :  4694.010604  2370.444114  2300.280155

                             ****ORCA TERMINATED NORMALLY****
TOTAL RUN TIME: 0 days 0 hours 0 minutes 42 seconds 92 msec
