                         Program Version 5.0.0 -  RELEASE  -
|  1> !B3LYP D3BJ RIJCOSX def2-TZVPD def2/J TightSCF
|  2> *xyz 0 1
|  3> C          2.91632       -1.24259       -1.54313
|  4> C          3.46659       -1.59097       -2.88908
|  5> N          4.65227       -1.14316       -3.25969
|  6> C          2.75226       -2.29204       -3.72803
|  7> H          1.77836       -2.48960       -3.51274
|  8> H          2.94861       -2.20854       -4.71681
|  9> H          5.14672       -0.51251       -2.63385
| 10> H          4.78303       -1.00720       -4.25350
| 11> C          2.80408        0.29070       -1.35924
| 12> H          1.94047       -1.71653       -1.44116
| 13> H          3.55857       -1.66343       -0.76637
| 14> H          2.17393        0.69633       -2.12297
| 15> H          3.77707        0.73043       -1.42880
| 16> H          2.38369        0.50492       -0.39889
| 17> *
| 18>
| 19> %MaxCore 64000
| 20>
| 21> %pal nprocs 4
| 22> end
| 23>
| 24> %scf
| 25>   MaxIter 150
| 26> end
| 27>
| 28>
| 29>                          ****END OF INPUT****

CARTESIAN COORDINATES (ANGSTROEM)
---------------------------------
  C      2.916320   -1.242590   -1.543130
  C      3.466590   -1.590970   -2.889080
  N      4.652270   -1.143160   -3.259690
  C      2.752260   -2.292040   -3.728030
  H      1.778360   -2.489600   -3.512740
  H      2.948610   -2.208540   -4.716810
  H      5.146720   -0.512510   -2.633850
  H      4.783030   -1.007200   -4.253500
  C      2.804080    0.290700   -1.359240
  H      1.940470   -1.716530   -1.441160
  H      3.558570   -1.663430   -0.766370
  H      2.173930    0.696330   -2.122970
  H      3.777070    0.730430   -1.428800
  H      2.383690    0.504920   -0.398890

 Total Charge           Charge          ....    0
 Multiplicity           Mult            ....    1
 Number of Electrons    NEL             ....   40
 Basis Dimension        Dim             ....  266

ORBITAL ENERGIES
----------------

  NO   OCC          E(Eh)            E(eV)
   0   2.0000     -14.315354      -389.5406
   1   2.0000     -10.187182      -277.2073
   2   2.0000     -10.169814      -276.7347
   3   2.0000     -10.159324      -276.4493
   4   2.0000     -10.100158      -274.8393
   5   2.0000      -0.932875       -25.3848
   6   2.0000      -0.778848       -21.1935
   7   2.0000      -0.723490       -19.6872
   8   2.0000      -0.636787       -17.3279
   9   2.0000      -0.565426       -15.3860
  10   2.0000      -0.526981       -14.3399
  11   2.0000      -0.476315       -12.9612
  12   2.0000      -0.437841       -11.9142
  13   2.0000      -0.434252       -11.8166
  14   2.0000      -0.389489       -10.5985
  15   2.0000      -0.381349       -10.3770
  16   2.0000      -0.358962        -9.7679
  17   2.0000      -0.343100        -9.3362
  18   2.0000      -0.322533        -8.7766
  19   2.0000      -0.197310        -5.3691
  20   0.0000      -0.000476        -0.0129
  21   0.0000       0.021599         0.5877
  22   0.0000       0.034021         0.9257
  23   0.0000       0.038920         1.0591
  24   0.0000       0.047993         1.3060

MULLIKEN ATOMIC CHARGES
-----------------------
   0 C :   -0.247557
   1 C :    0.565750
   2 N :   -0.391941
   3 C :   -0.991463
   4 H :    0.250642
   5 H :    0.259959
   6 H :    0.172961
   7 H :    0.158708
   8 C :   -1.059556
   9 H :    0.181790
  10 H :    0.239767
  11 H :    0.301428
  12 H :    0.286054
  13 H :    0.273459
Sum of atomic charges:   -0.0000000

LOEWDIN ATOMIC CHARGES
----------------------
   0 C :   -0.186989
   1 C :   -0.502655
   2 N :    0.104926
   3 C :    0.018724
   4 H :    0.021890
   5 H :    0.021545
   6 H :    0.100645
   7 H :    0.109547
   8 C :   -0.083445
   9 H :    0.105086
  10 H :    0.108794
  11 H :    0.070424
  12 H :    0.050595
  13 H :    0.060914

  Mayer bond orders larger than 0.100000
B(  0-C ,  1-C ) :   0.8427 B(  0-C ,  8-C ) :   0.6214 B(  0-C ,  9-H ) :   1.0009
B(  0-C , 10-H ) :   0.9254 B(  1-C ,  2-N ) :   0.9924 B(  1-C ,  3-C ) :   1.3981
B(  2-N ,  6-H ) :   0.9605 B(  2-N ,  7-H ) :   0.9861 B(  3-C ,  4-H ) :   1.0014
B(  3-C ,  5-H ) :   1.0397 B(  8-C , 11-H ) :   1.0006 B(  8-C , 12-H ) :   0.9458
B(  8-C , 13-H ) :   0.9962

Dispersion correction           -0.017548372
FINAL SINGLE POINT ENERGY      -212.517220339766

DIPOLE MOMENT
-------------
                                X             Y             Z
Electronic contribution:      1.72609      -1.73840      -1.40620
Nuclear contribution   :     -1.43372       2.52039       1.57679
                        -----------------------------------------
Total Dipole Moment    :      0.29237       0.78199       0.17059
                        -----------------------------------------
Magnitude (a.u.)       :      0.85211
Magnitude (Debye)      :      2.16589

Rotational constants in cm-1:     0.274962     0.131786     0.102554
Rotational constants in MHz :  8243.150005  3950.846092  3074.493018

                             ****ORCA TERMINATED NORMALLY****
TOTAL RUN TIME: 0 days 0 hours 0 minutes 39 seconds 820 msec
