                         Program Version 5.0.0 -  RELEASE  -
|  1> !B3LYP D3BJ RIJCOSX def2-TZVPD def2/J TightSCF
|  2> *xyz 0 1
|  3> C          0.70466        1.44313       -4.50363
|  4> C          1.72854        1.42432       -5.63944
|  5> H          2.64672        1.95379       -5.38105
|  6> H          1.29992        1.93061       -6.50361
|  7> S          2.25263       -0.18811       -6.27184
|  8> O          3.56261       -0.44446       -5.63155
|  9> O          2.34494       -0.03374       -7.69650
| 10> F          1.26606       -1.15918       -5.80536
| 11> H         -0.17385        0.91270       -4.80656
| 12> H          0.44778        2.45562       -4.27173
| 13> H          1.12367        0.97423       -3.63791
| 14> *
| 15>
| 16> %MaxCore 64000
| 17>
| 18> %pal nprocs 4
| 19> end
| 20>
| 21> %scf
| 22>   MaxIter 150
| 23> end
| 24>
| 25>
| 26>                          ****END OF INPUT****

CARTESIAN COORDINATES (ANGSTROEM)
---------------------------------
  C      0.704660    1.443130   -4.503630
  C      1.728540    1.424320   -5.639440
  H      2.646720    1.953790   -5.381050
  H      1.299920    1.930610   -6.503610
  S      2.252630   -0.188110   -6.271840
  O      3.562610   -0.444460   -5.631550
  O      2.344940   -0.033740   -7.696500
  F      1.266060   -1.159180   -5.805360
  H     -0.173850    0.912700   -4.806560
  H      0.447780    2.455620   -4.271730
  H      1.123670    0.974230   -3.637910

 Total Charge           Charge          ....    0
 Multiplicity           Mult            ....    1
 Number of Electrons    NEL             ....   58
 Basis Dimension        Dim             ....  285

ORBITAL ENERGIES
----------------

  NO   OCC          E(Eh)            E(eV)
   0   2.0000     -89.098616     -2424.4966
   1   2.0000     -24.794042      -674.6802
   2   2.0000     -19.141901      -520.8776
   3   2.0000     -19.126308      -520.4533
   4   2.0000     -10.230531      -278.3869
   5   2.0000     -10.194743      -277.4131
   6   2.0000      -8.142547      -221.5700
   7   2.0000      -6.109478      -166.2473
   8   2.0000      -6.102847      -166.0669
   9   2.0000      -6.102698      -166.0628
  10   2.0000      -1.369904       -37.2770
  11   2.0000      -1.108925       -30.1754
  12   2.0000      -1.009151       -27.4604
  13   2.0000      -0.824336       -22.4313
  14   2.0000      -0.729651       -19.8548
  15   2.0000      -0.679259       -18.4836
  16   2.0000      -0.591399       -16.0928
  17   2.0000      -0.576802       -15.6956
  18   2.0000      -0.545670       -14.8484
  19   2.0000      -0.497261       -13.5312
  20   2.0000      -0.475663       -12.9434
  21   2.0000      -0.450665       -12.2632
  22   2.0000      -0.445094       -12.1116
  23   2.0000      -0.414527       -11.2799
  24   2.0000      -0.398580       -10.8459
  25   2.0000      -0.386562       -10.5189
  26   2.0000      -0.337800        -9.1920
  27   2.0000      -0.323219        -8.7952
  28   2.0000      -0.310373        -8.4457
  29   0.0000      -0.018303        -0.4981
  30   0.0000       0.016023         0.4360
  31   0.0000       0.019740         0.5372
  32   0.0000       0.026897         0.7319
  33   0.0000       0.038231         1.0403

MULLIKEN ATOMIC CHARGES
-----------------------
   0 C :   -1.082454
   1 C :   -0.309655
   2 H :    0.290965
   3 H :    0.293774
   4 S :    1.205682
   5 O :   -0.605296
   6 O :   -0.565546
   7 F :   -0.171880
   8 H :    0.322873
   9 H :    0.301517
  10 H :    0.320020
Sum of atomic charges:   -0.0000000

LOEWDIN ATOMIC CHARGES
----------------------
   0 C :   -0.106967
   1 C :   -0.264164
   2 H :    0.104467
   3 H :    0.094250
   4 S :    0.606622
   5 O :   -0.306348
   6 O :   -0.271426
   7 F :   -0.068241
   8 H :    0.066612
   9 H :    0.072456
  10 H :    0.072739

  Mayer bond orders larger than 0.100000
B(  0-C ,  1-C ) :   0.6055 B(  0-C ,  8-H ) :   0.9382 B(  0-C ,  9-H ) :   0.9615
B(  0-C , 10-H ) :   0.9585 B(  1-C ,  2-H ) :   0.9452 B(  1-C ,  3-H ) :   0.9445
B(  1-C ,  4-S ) :   0.8713 B(  1-C ,  6-O ) :   0.1034 B(  4-S ,  5-O ) :   1.6524
B(  4-S ,  6-O ) :   1.6933 B(  4-S ,  7-F ) :   1.0026

Dispersion correction           -0.015668358
FINAL SINGLE POINT ENERGY      -727.644647675032

DIPOLE MOMENT
-------------
                                X             Y             Z
Electronic contribution:      2.38327      -7.65860      -3.99985
Nuclear contribution   :     -3.70606       8.55465       4.82350
                        -----------------------------------------
Total Dipole Moment    :     -1.32279       0.89605       0.82365
                        -----------------------------------------
Magnitude (a.u.)       :      1.79752
Magnitude (Debye)      :      4.56894

Rotational constants in cm-1:     0.153201     0.080978     0.077494
Rotational constants in MHz :  4592.852844  2427.650814  2323.207507

                             ****ORCA TERMINATED NORMALLY****
TOTAL RUN TIME: 0 days 0 hours 0 minutes 42 seconds 426 msec
