                         Program Version 5.0.0 -  RELEASE  -
|  1> !B3LYP D3BJ RIJCOSX def2-TZVPD def2/J TightSCF xyzfile
|  2>
|  3> *xyzfile 0 1 D1.xyz
|  4>
|  5> %MaxCore 64000
|  6>
|  7> %pal nprocs 4
|  8> end
|  9>
| 10> %scf
| 11>   MaxIter 150
| 12> end
| 13>
| 14>
| 15>                          ****END OF INPUT****

CARTESIAN COORDINATES (ANGSTROEM)
---------------------------------
  C      2.916324   -1.242589   -1.543125
  C      0.704661    1.443129   -4.503630
  C      1.728539    1.424320   -5.639443
  H      2.646718    1.953794   -5.381054
  H      1.299916    1.930613   -6.503614
  S      2.252625   -0.188115   -6.271840
  C      3.466585   -1.590971   -2.889082
  C      4.652275   -1.143164   -3.259692
  N      2.752264   -2.292043   -3.728029
  H      1.778364   -2.489604   -3.512738
  H      2.948612   -2.208544   -4.716813
  H      5.146723   -0.512508   -2.633852
  H      4.783030   -1.007203   -4.253498
  F      3.562607   -0.444464   -5.631552
  O      2.344944   -0.033742   -7.696501
  C      2.804084    0.290698   -1.359243
  C      1.052550    0.695659   -3.214915
  H     -0.232483    1.032925   -4.884449
  H      0.511700    2.495794   -4.267966
  C      2.388380    1.093669   -2.597108
  H      3.763425    0.674718   -0.999889
  H      2.094788    0.461222   -0.545756
  O      1.266058   -1.159177   -5.805365
  H      3.167316    1.013242   -3.359430
  H      2.357690    2.149375   -2.310997
  H      1.039284   -0.368429   -3.449329
  H      0.250787    0.865605   -2.488283
  H      1.940472   -1.716529   -1.441161
  H      3.558569   -1.663433   -0.766371

 Total Charge           Charge          ....    0
 Multiplicity           Mult            ....    1
 Number of Electrons    NEL             ....  112
 Basis Dimension        Dim             ....  643

ORBITAL ENERGIES
----------------

  NO   OCC          E(Eh)            E(eV)
   0   2.0000     -89.105005     -2424.6704
   1   2.0000     -24.791494      -674.6108
   2   2.0000     -19.148467      -521.0563
   3   2.0000     -19.144253      -520.9416
   4   2.0000     -14.310621      -389.4118
   5   2.0000     -10.232401      -278.4378
   6   2.0000     -10.197946      -277.5002
   7   2.0000     -10.186955      -277.2011
   8   2.0000     -10.175579      -276.8916
   9   2.0000     -10.173554      -276.8365
  10   2.0000     -10.172239      -276.8007
  11   2.0000     -10.171123      -276.7703
  12   2.0000     -10.093771      -274.6655
  13   2.0000      -8.149379      -221.7559
  14   2.0000      -6.116319      -166.4335
  15   2.0000      -6.109836      -166.2571
  16   2.0000      -6.109301      -166.2425
  17   2.0000      -1.365209       -37.1492
  18   2.0000      -1.122307       -30.5395
  19   2.0000      -1.031448       -28.0671
  20   2.0000      -0.934797       -25.4371
  21   2.0000      -0.840087       -22.8599
  22   2.0000      -0.803819       -21.8730
  23   2.0000      -0.763995       -20.7894
  24   2.0000      -0.734782       -19.9944
  25   2.0000      -0.701106       -19.0781
  26   2.0000      -0.687897       -18.7186
  27   2.0000      -0.635062       -17.2809
  28   2.0000      -0.598066       -16.2742
  29   2.0000      -0.581557       -15.8250
  30   2.0000      -0.573086       -15.5945
  31   2.0000      -0.563897       -15.3444
  32   2.0000      -0.550102       -14.9690
  33   2.0000      -0.516098       -14.0437
  34   2.0000      -0.500346       -13.6151
  35   2.0000      -0.492570       -13.4035
  36   2.0000      -0.478834       -13.0297
  37   2.0000      -0.473670       -12.8892
  38   2.0000      -0.462820       -12.5940
  39   2.0000      -0.445535       -12.1236
  40   2.0000      -0.434786       -11.8311
  41   2.0000      -0.424092       -11.5401
  42   2.0000      -0.402355       -10.9486
  43   2.0000      -0.395928       -10.7738
  44   2.0000      -0.387494       -10.5443
  45   2.0000      -0.383654       -10.4397
  46   2.0000      -0.376474       -10.2444
  47   2.0000      -0.359457        -9.7813
  48   2.0000      -0.353961        -9.6318
  49   2.0000      -0.344579        -9.3765
  50   2.0000      -0.340960        -9.2780
  51   2.0000      -0.330604        -8.9962
  52   2.0000      -0.326780        -8.8921
  53   2.0000      -0.323280        -8.7969
  54   2.0000      -0.317538        -8.6406
  55   2.0000      -0.187440        -5.1005
  56   0.0000      -0.010710        -0.2914
  57   0.0000       0.002299         0.0625
  58   0.0000       0.006183         0.1682
  59   0.0000       0.008944         0.2434
  60   0.0000       0.019601         0.5334

MULLIKEN ATOMIC CHARGES
-----------------------
   0 C :   -0.604232
   1 C :   -0.438039
   2 C :   -0.807607
   3 H :    0.425848
   4 H :    0.278255
   5 S :    1.250299
   6 C :    0.395131
   7 C :   -1.177682
   8 N :   -0.321288
   9 H :    0.222499
  10 H :    0.152915
  11 H :    0.339263
  12 H :    0.456998
  13 F :   -0.208949
  14 O :   -0.565807
  15 C :   -0.525139
  16 C :   -0.411988
  17 H :    0.268150
  18 H :    0.278749
  19 C :   -0.458359
  20 H :    0.289461
  21 H :    0.262050
  22 O :   -0.673181
  23 H :    0.314635
  24 H :    0.265169
  25 H :    0.264144
  26 H :    0.246250
  27 H :    0.264312
  28 H :    0.218143
Sum of atomic charges:   -0.0000000

LOEWDIN ATOMIC CHARGES
----------------------
   0 C :   -0.129594
   1 C :   -0.210453
   2 C :   -0.208091
   3 H :    0.100347
   4 H :    0.104282
   5 S :    0.634169
   6 C :   -0.490673
   7 C :    0.009847
   8 N :    0.116813
   9 H :    0.109551
  10 H :    0.076773
  11 H :    0.032376
  12 H :    0.008949
  13 F :   -0.111332
  14 O :   -0.257152
  15 C :   -0.179560
  16 C :   -0.200958
  17 H :    0.113334
  18 H :    0.118545
  19 C :   -0.203538
  20 H :    0.106513
  21 H :    0.105877
  22 O :   -0.279503
  23 H :    0.089488
  24 H :    0.116090
  25 H :    0.083904
  26 H :    0.120318
  27 H :    0.105845
  28 H :    0.117835

  Mayer bond orders larger than 0.100000
B(  0-C ,  6-C ) :   0.7891 B(  0-C , 15-C ) :   0.8945 B(  0-C , 16-C ) :   0.1066
B(  0-C , 27-H ) :   0.9589 B(  0-C , 28-H ) :   0.9792 B(  1-C ,  2-C ) :   0.8014
B(  1-C , 16-C ) :   0.8796 B(  1-C , 17-H ) :   0.9313 B(  1-C , 18-H ) :   0.9308
B(  1-C , 19-C ) :   0.1349 B(  2-C ,  3-H ) :   0.7726 B(  2-C ,  4-H ) :   0.9830
B(  2-C ,  5-S ) :   0.9013 B(  2-C , 14-O ) :   0.1446 B(  2-C , 19-C ) :   0.1342
B(  5-S , 13-F ) :   1.0741 B(  5-S , 14-O ) :   1.4688 B(  5-S , 22-O ) :   1.5514
B(  6-C ,  7-C ) :   1.4924 B(  6-C ,  8-N ) :   0.8988 B(  6-C , 11-H ) :  -0.1104
B(  6-C , 12-H ) :  -0.1103 B(  7-C , 11-H ) :   0.9982 B(  7-C , 12-H ) :   0.7869
B(  8-N ,  9-H ) :   0.8311 B(  8-N , 10-H ) :   0.8957 B( 15-C , 16-C ) :   0.1964
B( 15-C , 19-C ) :   0.9986 B( 15-C , 20-H ) :   0.8758 B( 15-C , 21-H ) :   0.9295
B( 16-C , 19-C ) :   0.4516 B( 16-C , 25-H ) :   1.0929 B( 16-C , 26-H ) :   0.8944
B( 19-C , 23-H ) :   1.0121 B( 19-C , 24-H ) :   0.9048

Dispersion correction           -0.060347903
FINAL SINGLE POINT ENERGY     -1017.567738129382

DIPOLE MOMENT
-------------
                                X             Y             Z
Electronic contribution:      2.14429      -4.95107     -18.57734
Nuclear contribution   :     -2.89481       6.29550      19.36835
                        -----------------------------------------
Total Dipole Moment    :     -0.75053       1.34443       0.79101
                        -----------------------------------------
Magnitude (a.u.)       :      1.73103
Magnitude (Debye)      :      4.39994

Rotational constants in cm-1:     0.036515     0.018832     0.015081
Rotational constants in MHz :  1094.679513   564.567051   452.109105

                             ****ORCA TERMINATED NORMALLY****
TOTAL RUN TIME: 0 days 0 hours 5 minutes 23 seconds 505 msec
