                         Program Version 5.0.0 -  RELEASE  -
|  1> !B3LYP D3BJ RIJCOSX def2-TZVPD def2/J TightSCF xyzfile
|  2>
|  3> *xyzfile 0 1 D2.xyz
|  4>
|  5> %MaxCore 64000
|  6>
|  7> %pal nprocs 4
|  8> end
|  9>
| 10> %scf
| 11>   MaxIter 150
| 12> end
| 13>
| 14>
| 15>                          ****END OF INPUT****

CARTESIAN COORDINATES (ANGSTROEM)
---------------------------------
  C      2.916324   -1.242589   -1.543125
  C      0.704661    1.443129   -4.503630
  C      1.728539    1.424320   -5.639443
  H      2.646718    1.953794   -5.381054
  H      1.299916    1.930613   -6.503614
  S      2.252625   -0.188115   -6.271840
  C      3.466585   -1.590971   -2.889082
  N      4.652275   -1.143164   -3.259692
  C      2.752264   -2.292043   -3.728029
  H      1.778364   -2.489604   -3.512738
  H      2.948612   -2.208544   -4.716813
  H      5.146723   -0.512508   -2.633852
  H      4.783030   -1.007203   -4.253498
  F      3.562607   -0.444464   -5.631552
  O      2.344944   -0.033742   -7.696501
  C      2.804084    0.290698   -1.359243
  C      1.052550    0.695659   -3.214915
  H     -0.232483    1.032925   -4.884449
  H      0.511700    2.495794   -4.267966
  C      2.388380    1.093669   -2.597108
  H      3.763425    0.674718   -0.999889
  H      2.094788    0.461222   -0.545756
  O      1.266058   -1.159177   -5.805365
  H      3.167316    1.013242   -3.359430
  H      2.357690    2.149375   -2.310997
  H      1.039284   -0.368429   -3.449329
  H      0.250787    0.865605   -2.488283
  H      1.940472   -1.716529   -1.441161
  H      3.558569   -1.663433   -0.766371

 Total Charge           Charge          ....    0
 Multiplicity           Mult            ....    1
 Number of Electrons    NEL             ....  112
 Basis Dimension        Dim             ....  643

ORBITAL ENERGIES
----------------

  NO   OCC          E(Eh)            E(eV)
   0   2.0000     -89.099003     -2424.5071
   1   2.0000     -24.789514      -674.5570
   2   2.0000     -19.143569      -520.9230
   3   2.0000     -19.133394      -520.6461
   4   2.0000     -14.313254      -389.4835
   5   2.0000     -10.229061      -278.3469
   6   2.0000     -10.193970      -277.3920
   7   2.0000     -10.182867      -277.0899
   8   2.0000     -10.176375      -276.9132
   9   2.0000     -10.174478      -276.8616
  10   2.0000     -10.169845      -276.7356
  11   2.0000     -10.169655      -276.7304
  12   2.0000     -10.095591      -274.7150
  13   2.0000      -8.143282      -221.5900
  14   2.0000      -6.110384      -166.2720
  15   2.0000      -6.103611      -166.0877
  16   2.0000      -6.103156      -166.0753
  17   2.0000      -1.362882       -37.0859
  18   2.0000      -1.115453       -30.3530
  19   2.0000      -1.022607       -27.8266
  20   2.0000      -0.933629       -25.4053
  21   2.0000      -0.836741       -22.7689
  22   2.0000      -0.801788       -21.8177
  23   2.0000      -0.762099       -20.7378
  24   2.0000      -0.735285       -20.0081
  25   2.0000      -0.710796       -19.3417
  26   2.0000      -0.681015       -18.5314
  27   2.0000      -0.629254       -17.1229
  28   2.0000      -0.596638       -16.2353
  29   2.0000      -0.576367       -15.6837
  30   2.0000      -0.571967       -15.5640
  31   2.0000      -0.559808       -15.2332
  32   2.0000      -0.549913       -14.9639
  33   2.0000      -0.524065       -14.2605
  34   2.0000      -0.494308       -13.4508
  35   2.0000      -0.491505       -13.3745
  36   2.0000      -0.478600       -13.0234
  37   2.0000      -0.466556       -12.6956
  38   2.0000      -0.453431       -12.3385
  39   2.0000      -0.445783       -12.1304
  40   2.0000      -0.437075       -11.8934
  41   2.0000      -0.418973       -11.4008
  42   2.0000      -0.405674       -11.0389
  43   2.0000      -0.392087       -10.6692
  44   2.0000      -0.388004       -10.5581
  45   2.0000      -0.383061       -10.4236
  46   2.0000      -0.369187       -10.0461
  47   2.0000      -0.358713        -9.7611
  48   2.0000      -0.349300        -9.5049
  49   2.0000      -0.337132        -9.1738
  50   2.0000      -0.335045        -9.1170
  51   2.0000      -0.329092        -8.9551
  52   2.0000      -0.323268        -8.7966
  53   2.0000      -0.317303        -8.6342
  54   2.0000      -0.314916        -8.5693
  55   2.0000      -0.194297        -5.2871
  56   0.0000      -0.013695        -0.3727
  57   0.0000       0.001673         0.0455
  58   0.0000       0.002983         0.0812
  59   0.0000       0.010530         0.2865
  60   0.0000       0.028724         0.7816

MULLIKEN ATOMIC CHARGES
-----------------------
   0 C :   -0.565968
   1 C :   -0.442499
   2 C :   -0.817055
   3 H :    0.408984
   4 H :    0.282461
   5 S :    1.277755
   6 C :    0.410987
   7 N :   -0.330740
   8 C :   -1.266049
   9 H :    0.358150
  10 H :    0.506778
  11 H :    0.202010
  12 H :    0.235112
  13 F :   -0.228291
  14 O :   -0.580117
  15 C :   -0.619758
  16 C :   -0.378308
  17 H :    0.286683
  18 H :    0.273392
  19 C :   -0.341627
  20 H :    0.304681
  21 H :    0.213051
  22 O :   -0.637015
  23 H :    0.263765
  24 H :    0.268462
  25 H :    0.261791
  26 H :    0.231427
  27 H :    0.213899
  28 H :    0.208039
Sum of atomic charges:   -0.0000000

LOEWDIN ATOMIC CHARGES
----------------------
   0 C :   -0.132061
   1 C :   -0.210054
   2 C :   -0.209966
   3 H :    0.097380
   4 H :    0.103747
   5 S :    0.634676
   6 C :   -0.489614
   7 N :    0.112899
   8 C :    0.006277
   9 H :    0.038777
  10 H :    0.004793
  11 H :    0.111100
  12 H :    0.088212
  13 F :   -0.115386
  14 O :   -0.258933
  15 C :   -0.183411
  16 C :   -0.198568
  17 H :    0.114182
  18 H :    0.117220
  19 C :   -0.204606
  20 H :    0.100442
  21 H :    0.106990
  22 O :   -0.269664
  23 H :    0.087272
  24 H :    0.115287
  25 H :    0.087346
  26 H :    0.120505
  27 H :    0.112307
  28 H :    0.112852

  Mayer bond orders larger than 0.100000
B(  0-C ,  6-C ) :   0.8258 B(  0-C , 15-C ) :   0.8577 B(  0-C , 16-C ) :   0.1431
B(  0-C , 19-C ) :  -0.1449 B(  0-C , 27-H ) :   0.9798 B(  0-C , 28-H ) :   0.9746
B(  1-C ,  2-C ) :   0.8129 B(  1-C , 16-C ) :   0.8518 B(  1-C , 17-H ) :   0.9057
B(  1-C , 18-H ) :   0.9392 B(  1-C , 19-C ) :   0.1437 B(  2-C ,  3-H ) :   0.7825
B(  2-C ,  4-H ) :   0.9803 B(  2-C ,  5-S ) :   0.9036 B(  2-C , 14-O ) :   0.1487
B(  2-C , 19-C ) :   0.1501 B(  5-S , 13-F ) :   1.0941 B(  5-S , 14-O ) :   1.4571
B(  5-S , 22-O ) :   1.5986 B(  6-C ,  7-N ) :   0.9384 B(  6-C ,  8-C ) :   1.5604
B(  6-C ,  9-H ) :  -0.1072 B(  6-C , 10-H ) :  -0.1845 B(  7-N , 11-H ) :   0.8573
B(  7-N , 12-H ) :   0.8615 B(  8-C ,  9-H ) :   0.9429 B(  8-C , 10-H ) :   0.8144
B( 15-C , 16-C ) :   0.2106 B( 15-C , 19-C ) :   0.9192 B( 15-C , 20-H ) :   0.8979
B( 15-C , 21-H ) :   0.9576 B( 16-C , 19-C ) :   0.4246 B( 16-C , 23-H ) :  -0.1257
B( 16-C , 25-H ) :   1.1471 B( 16-C , 26-H ) :   0.8894 B( 19-C , 23-H ) :   1.0287
B( 19-C , 24-H ) :   0.9267 B( 19-C , 25-H ) :  -0.1016

Dispersion correction           -0.060475685
FINAL SINGLE POINT ENERGY     -1017.567890301900

DIPOLE MOMENT
-------------
                                X             Y             Z
Electronic contribution:      3.44642      -4.26345     -18.25226
Nuclear contribution   :     -3.13969       6.14743      19.30799
                        -----------------------------------------
Total Dipole Moment    :      0.30673       1.88398       1.05573
                        -----------------------------------------
Magnitude (a.u.)       :      2.18129
Magnitude (Debye)      :      5.54441

Rotational constants in cm-1:     0.036460     0.018762     0.015014
Rotational constants in MHz :  1093.039020   562.475626   450.105862

                             ****ORCA TERMINATED NORMALLY****
TOTAL RUN TIME: 0 days 0 hours 6 minutes 40 seconds 451 msec
