                         Program Version 5.0.0 -  RELEASE  -
|  1> !B3LYP D3BJ RIJCOSX def2-TZVPD def2/J TightSCF xyzfile
|  2>
|  3> *xyzfile 0 1 D3.xyz
|  4>
|  5> %MaxCore 64000
|  6>
|  7> %pal nprocs 4
|  8> end
|  9>
| 10> %scf
| 11>   MaxIter 150
| 12> end
| 13>
| 14>
| 15>                          ****END OF INPUT****

CARTESIAN COORDINATES (ANGSTROEM)
---------------------------------
  C      2.916324   -1.242589   -1.543125
  C      0.704661    1.443129   -4.503630
  C      1.728539    1.424320   -5.639443
  H      2.646718    1.953794   -5.381054
  H      1.299916    1.930613   -6.503614
  S      2.252625   -0.188115   -6.271840
  C      3.466585   -1.590971   -2.889082
  C      4.652275   -1.143164   -3.259692
  N      2.752264   -2.292043   -3.728029
  H      1.778364   -2.489604   -3.512738
  H      2.948612   -2.208544   -4.716813
  H      5.146723   -0.512508   -2.633852
  H      4.783030   -1.007203   -4.253498
  O      3.562607   -0.444464   -5.631552
  F      2.344944   -0.033742   -7.696501
  C      2.804084    0.290698   -1.359243
  C      1.052550    0.695659   -3.214915
  H     -0.232483    1.032925   -4.884449
  H      0.511700    2.495794   -4.267966
  C      2.388380    1.093669   -2.597108
  H      3.763425    0.674718   -0.999889
  H      2.094788    0.461222   -0.545756
  O      1.266058   -1.159177   -5.805365
  H      3.167316    1.013242   -3.359430
  H      2.357690    2.149375   -2.310997
  H      1.039284   -0.368429   -3.449329
  H      0.250787    0.865605   -2.488283
  H      1.940472   -1.716529   -1.441161
  H      3.558569   -1.663433   -0.766371

 Total Charge           Charge          ....    0
 Multiplicity           Mult            ....    1
 Number of Electrons    NEL             ....  112
 Basis Dimension        Dim             ....  643

ORBITAL ENERGIES
----------------

  NO   OCC          E(Eh)            E(eV)
   0   2.0000     -89.111329     -2424.8425
   1   2.0000     -24.815449      -675.2627
   2   2.0000     -19.148507      -521.0574
   3   2.0000     -19.139347      -520.8081
   4   2.0000     -14.287276      -388.7765
   5   2.0000     -10.235998      -278.5357
   6   2.0000     -10.199461      -277.5414
   7   2.0000     -10.169433      -276.7243
   8   2.0000     -10.164237      -276.5829
   9   2.0000     -10.161263      -276.5020
  10   2.0000     -10.159403      -276.4514
  11   2.0000     -10.156991      -276.3858
  12   2.0000     -10.068452      -273.9765
  13   2.0000      -8.155750      -221.9292
  14   2.0000      -6.122434      -166.5999
  15   2.0000      -6.116185      -166.4299
  16   2.0000      -6.115800      -166.4194
  17   2.0000      -1.400390       -38.1066
  18   2.0000      -1.115352       -30.3503
  19   2.0000      -1.018015       -27.7016
  20   2.0000      -0.911772       -24.8106
  21   2.0000      -0.839276       -22.8379
  22   2.0000      -0.795362       -21.6429
  23   2.0000      -0.763619       -20.7791
  24   2.0000      -0.729322       -19.8459
  25   2.0000      -0.699052       -19.0222
  26   2.0000      -0.673401       -18.3242
  27   2.0000      -0.633925       -17.2500
  28   2.0000      -0.603372       -16.4186
  29   2.0000      -0.598634       -16.2897
  30   2.0000      -0.573624       -15.6091
  31   2.0000      -0.563972       -15.3465
  32   2.0000      -0.536522       -14.5995
  33   2.0000      -0.504366       -13.7245
  34   2.0000      -0.496051       -13.4982
  35   2.0000      -0.494277       -13.4500
  36   2.0000      -0.477012       -12.9802
  37   2.0000      -0.469017       -12.7626
  38   2.0000      -0.449962       -12.2441
  39   2.0000      -0.436637       -11.8815
  40   2.0000      -0.427228       -11.6255
  41   2.0000      -0.413586       -11.2542
  42   2.0000      -0.401717       -10.9313
  43   2.0000      -0.385606       -10.4929
  44   2.0000      -0.380409       -10.3515
  45   2.0000      -0.364666        -9.9231
  46   2.0000      -0.359846        -9.7919
  47   2.0000      -0.351389        -9.5618
  48   2.0000      -0.343006        -9.3337
  49   2.0000      -0.336497        -9.1565
  50   2.0000      -0.329295        -8.9606
  51   2.0000      -0.322622        -8.7790
  52   2.0000      -0.316743        -8.6190
  53   2.0000      -0.308690        -8.3999
  54   2.0000      -0.299823        -8.1586
  55   2.0000      -0.164444        -4.4747
  56   0.0000      -0.017952        -0.4885
  57   0.0000      -0.001837        -0.0500
  58   0.0000       0.009966         0.2712
  59   0.0000       0.013761         0.3745
  60   0.0000       0.022205         0.6042

MULLIKEN ATOMIC CHARGES
-----------------------
   0 C :   -0.606765
   1 C :   -0.467273
   2 C :   -0.837498
   3 H :    0.364141
   4 H :    0.356905
   5 S :    1.261547
   6 C :    0.365069
   7 C :   -1.181357
   8 N :   -0.343378
   9 H :    0.216247
  10 H :    0.214192
  11 H :    0.318630
  12 H :    0.497136
  13 O :   -0.657504
  14 F :   -0.084950
  15 C :   -0.500707
  16 C :   -0.374405
  17 H :    0.252518
  18 H :    0.267073
  19 C :   -0.538653
  20 H :    0.287156
  21 H :    0.260305
  22 O :   -0.677499
  23 H :    0.381135
  24 H :    0.257961
  25 H :    0.245278
  26 H :    0.251264
  27 H :    0.260459
  28 H :    0.212974
Sum of atomic charges:   -0.0000000

LOEWDIN ATOMIC CHARGES
----------------------
   0 C :   -0.133155
   1 C :   -0.207903
   2 C :   -0.211060
   3 H :    0.103927
   4 H :    0.095102
   5 S :    0.656338
   6 C :   -0.492927
   7 C :    0.007669
   8 N :    0.113061
   9 H :    0.104336
  10 H :    0.073322
  11 H :    0.029453
  12 H :    0.000437
  13 O :   -0.309430
  14 F :   -0.039948
  15 C :   -0.181435
  16 C :   -0.197748
  17 H :    0.111460
  18 H :    0.119584
  19 C :   -0.201837
  20 H :    0.105682
  21 H :    0.103349
  22 O :   -0.279890
  23 H :    0.093318
  24 H :    0.114024
  25 H :    0.085692
  26 H :    0.119740
  27 H :    0.103447
  28 H :    0.115394

  Mayer bond orders larger than 0.100000
B(  0-C ,  6-C ) :   0.7793 B(  0-C ,  7-C ) :  -0.1016 B(  0-C , 15-C ) :   0.8944
B(  0-C , 16-C ) :   0.1108 B(  0-C , 27-H ) :   0.9639 B(  0-C , 28-H ) :   0.9816
B(  1-C ,  2-C ) :   0.8652 B(  1-C , 16-C ) :   0.8677 B(  1-C , 17-H ) :   0.9265
B(  1-C , 18-H ) :   0.9261 B(  1-C , 19-C ) :   0.1638 B(  2-C ,  3-H ) :   0.8789
B(  2-C ,  4-H ) :   0.8616 B(  2-C ,  5-S ) :   0.8946 B(  2-C , 13-O ) :   0.1559
B(  2-C , 19-C ) :   0.1263 B(  5-S , 13-O ) :   1.6845 B(  5-S , 14-F ) :   0.8852
B(  5-S , 22-O ) :   1.5868 B(  6-C ,  7-C ) :   1.5359 B(  6-C ,  8-N ) :   0.9281
B(  6-C , 11-H ) :  -0.1184 B(  6-C , 12-H ) :  -0.1047 B(  7-C , 11-H ) :   1.0289
B(  7-C , 12-H ) :   0.7561 B(  8-N ,  9-H ) :   0.8342 B(  8-N , 10-H ) :   0.8409
B( 13-O , 22-O ) :   0.1380 B( 15-C , 16-C ) :   0.2037 B( 15-C , 19-C ) :   0.9782
B( 15-C , 20-H ) :   0.8765 B( 15-C , 21-H ) :   0.9322 B( 16-C , 19-C ) :   0.4623
B( 16-C , 25-H ) :   1.0954 B( 16-C , 26-H ) :   0.9020 B( 19-C , 23-H ) :   0.9669
B( 19-C , 24-H ) :   0.9207

Dispersion correction           -0.061017745
FINAL SINGLE POINT ENERGY     -1017.550979041617

DIPOLE MOMENT
-------------
                                X             Y             Z
Electronic contribution:      0.04940      -4.15791     -22.52176
Nuclear contribution   :     -1.50273       5.82595      21.72909
                        -----------------------------------------
Total Dipole Moment    :     -1.45333       1.66803      -0.79267
                        -----------------------------------------
Magnitude (a.u.)       :      2.35007
Magnitude (Debye)      :      5.97340

Rotational constants in cm-1:     0.036883     0.018294     0.014745
Rotational constants in MHz :  1105.724679   548.429785   442.050481

                             ****ORCA TERMINATED NORMALLY****
TOTAL RUN TIME: 0 days 0 hours 6 minutes 0 seconds 685 msec
