                         Program Version 5.0.0 -  RELEASE  -
|  1> !B3LYP D3BJ RIJCOSX def2-TZVPD def2/J TightSCF xyzfile
|  2>
|  3> *xyzfile 0 1 D4.xyz
|  4>
|  5> %MaxCore 64000
|  6>
|  7> %pal nprocs 4
|  8> end
|  9>
| 10> %scf
| 11>   MaxIter 150
| 12> end
| 13>
| 14>
| 15>                          ****END OF INPUT****

CARTESIAN COORDINATES (ANGSTROEM)
---------------------------------
  C      2.916324   -1.242589   -1.543125
  C      0.704661    1.443129   -4.503630
  C      1.728539    1.424320   -5.639443
  H      2.646718    1.953794   -5.381054
  H      1.299916    1.930613   -6.503614
  S      2.252625   -0.188115   -6.271840
  C      3.466585   -1.590971   -2.889082
  N      4.652275   -1.143164   -3.259692
  C      2.752264   -2.292043   -3.728029
  H      1.778364   -2.489604   -3.512738
  H      2.948612   -2.208544   -4.716813
  H      5.146723   -0.512508   -2.633852
  H      4.783030   -1.007203   -4.253498
  O      3.562607   -0.444464   -5.631552
  F      2.344944   -0.033742   -7.696501
  C      2.804084    0.290698   -1.359243
  C      1.052550    0.695659   -3.214915
  H     -0.232483    1.032925   -4.884449
  H      0.511700    2.495794   -4.267966
  C      2.388380    1.093669   -2.597108
  H      3.763425    0.674718   -0.999889
  H      2.094788    0.461222   -0.545756
  O      1.266058   -1.159177   -5.805365
  H      3.167316    1.013242   -3.359430
  H      2.357690    2.149375   -2.310997
  H      1.039284   -0.368429   -3.449329
  H      0.250787    0.865605   -2.488283
  H      1.940472   -1.716529   -1.441161
  H      3.558569   -1.663433   -0.766371

 Total Charge           Charge          ....    0
 Multiplicity           Mult            ....    1
 Number of Electrons    NEL             ....  112
 Basis Dimension        Dim             ....  643

ORBITAL ENERGIES
----------------

  NO   OCC          E(Eh)            E(eV)
   0   2.0000     -89.107419     -2424.7361
   1   2.0000     -24.811781      -675.1629
   2   2.0000     -19.139756      -520.8192
   3   2.0000     -19.136170      -520.7217
   4   2.0000     -14.286303      -388.7501
   5   2.0000     -10.232842      -278.4498
   6   2.0000     -10.195685      -277.4387
   7   2.0000     -10.164220      -276.5825
   8   2.0000     -10.163630      -276.5664
   9   2.0000     -10.162480      -276.5351
  10   2.0000     -10.161697      -276.5138
  11   2.0000     -10.154848      -276.3275
  12   2.0000     -10.072473      -274.0859
  13   2.0000      -8.151490      -221.8133
  14   2.0000      -6.118191      -166.4844
  15   2.0000      -6.111879      -166.3127
  16   2.0000      -6.111660      -166.3067
  17   2.0000      -1.396600       -38.0034
  18   2.0000      -1.108584       -30.1661
  19   2.0000      -1.012395       -27.5487
  20   2.0000      -0.908059       -24.7095
  21   2.0000      -0.835770       -22.7425
  22   2.0000      -0.793994       -21.6057
  23   2.0000      -0.758947       -20.6520
  24   2.0000      -0.729137       -19.8408
  25   2.0000      -0.705725       -19.2038
  26   2.0000      -0.671277       -18.2664
  27   2.0000      -0.626715       -17.0538
  28   2.0000      -0.600249       -16.3336
  29   2.0000      -0.594488       -16.1768
  30   2.0000      -0.570926       -15.5357
  31   2.0000      -0.562791       -15.3143
  32   2.0000      -0.534911       -14.5557
  33   2.0000      -0.507484       -13.8094
  34   2.0000      -0.495755       -13.4902
  35   2.0000      -0.492742       -13.4082
  36   2.0000      -0.469584       -12.7780
  37   2.0000      -0.455656       -12.3990
  38   2.0000      -0.450959       -12.2712
  39   2.0000      -0.440504       -11.9867
  40   2.0000      -0.426870       -11.6157
  41   2.0000      -0.408883       -11.1263
  42   2.0000      -0.400216       -10.8904
  43   2.0000      -0.383878       -10.4459
  44   2.0000      -0.378506       -10.2997
  45   2.0000      -0.370886       -10.0923
  46   2.0000      -0.358510        -9.7555
  47   2.0000      -0.350477        -9.5370
  48   2.0000      -0.340103        -9.2547
  49   2.0000      -0.329687        -8.9712
  50   2.0000      -0.325001        -8.8437
  51   2.0000      -0.318828        -8.6758
  52   2.0000      -0.315637        -8.5889
  53   2.0000      -0.305106        -8.3024
  54   2.0000      -0.296318        -8.0632
  55   2.0000      -0.171877        -4.6770
  56   0.0000      -0.015981        -0.4349
  57   0.0000       0.000535         0.0145
  58   0.0000       0.007374         0.2006
  59   0.0000       0.015980         0.4348
  60   0.0000       0.025197         0.6857

MULLIKEN ATOMIC CHARGES
-----------------------
   0 C :   -0.570230
   1 C :   -0.469831
   2 C :   -0.842424
   3 H :    0.345132
   4 H :    0.360674
   5 S :    1.245707
   6 C :    0.397147
   7 N :   -0.332965
   8 C :   -1.261833
   9 H :    0.385236
  10 H :    0.497105
  11 H :    0.198407
  12 H :    0.277823
  13 O :   -0.680275
  14 F :   -0.090118
  15 C :   -0.594165
  16 C :   -0.320535
  17 H :    0.271722
  18 H :    0.261398
  19 C :   -0.402976
  20 H :    0.302218
  21 H :    0.206804
  22 O :   -0.641787
  23 H :    0.323033
  24 H :    0.259063
  25 H :    0.232909
  26 H :    0.229798
  27 H :    0.210767
  28 H :    0.202196
Sum of atomic charges:   -0.0000000

LOEWDIN ATOMIC CHARGES
----------------------
   0 C :   -0.135377
   1 C :   -0.207506
   2 C :   -0.212820
   3 H :    0.101122
   4 H :    0.094654
   5 S :    0.657582
   6 C :   -0.490985
   7 N :    0.112644
   8 C :    0.000459
   9 H :    0.033721
  10 H :    0.001386
  11 H :    0.107138
  12 H :    0.077649
  13 O :   -0.316804
  14 F :   -0.040217
  15 C :   -0.184988
  16 C :   -0.195455
  17 H :    0.112268
  18 H :    0.118313
  19 C :   -0.203014
  20 H :    0.099702
  21 H :    0.104565
  22 O :   -0.267835
  23 H :    0.091080
  24 H :    0.113229
  25 H :    0.088925
  26 H :    0.119905
  27 H :    0.109968
  28 H :    0.110691

  Mayer bond orders larger than 0.100000
B(  0-C ,  6-C ) :   0.8363 B(  0-C , 15-C ) :   0.8616 B(  0-C , 16-C ) :   0.1480
B(  0-C , 19-C ) :  -0.1446 B(  0-C , 27-H ) :   0.9766 B(  0-C , 28-H ) :   0.9755
B(  1-C ,  2-C ) :   0.8845 B(  1-C , 16-C ) :   0.8420 B(  1-C , 17-H ) :   0.9001
B(  1-C , 18-H ) :   0.9317 B(  1-C , 19-C ) :   0.1723 B(  2-C ,  3-H ) :   0.8873
B(  2-C ,  4-H ) :   0.8620 B(  2-C ,  5-S ) :   0.8827 B(  2-C , 13-O ) :   0.1608
B(  2-C , 19-C ) :   0.1311 B(  2-C , 22-O ) :   0.1047 B(  5-S , 13-O ) :   1.7179
B(  5-S , 14-F ) :   0.8843 B(  5-S , 22-O ) :   1.6213 B(  6-C ,  7-N ) :   0.9408
B(  6-C ,  8-C ) :   1.5934 B(  6-C ,  9-H ) :  -0.1116 B(  6-C , 10-H ) :  -0.1676
B(  7-N , 11-H ) :   0.8527 B(  7-N , 12-H ) :   0.8369 B(  8-C ,  9-H ) :   0.9302
B(  8-C , 10-H ) :   0.8291 B( 13-O , 22-O ) :   0.1511 B( 15-C , 16-C ) :   0.2072
B( 15-C , 19-C ) :   0.9073 B( 15-C , 20-H ) :   0.8961 B( 15-C , 21-H ) :   0.9611
B( 16-C , 19-C ) :   0.4451 B( 16-C , 23-H ) :  -0.1032 B( 16-C , 25-H ) :   1.1544
B( 16-C , 26-H ) :   0.9044 B( 19-C , 23-H ) :   0.9946 B( 19-C , 24-H ) :   0.9464

Dispersion correction           -0.061142582
FINAL SINGLE POINT ENERGY     -1017.553898676633

DIPOLE MOMENT
-------------
                                X             Y             Z
Electronic contribution:      1.32698      -3.46652     -22.20382
Nuclear contribution   :     -1.74760       5.67788      21.66873
                        -----------------------------------------
Total Dipole Moment    :     -0.42062       2.21136      -0.53509
                        -----------------------------------------
Magnitude (a.u.)       :      2.31373
Magnitude (Debye)      :      5.88104

Rotational constants in cm-1:     0.036818     0.018222     0.014682
Rotational constants in MHz :  1103.783048   546.296792   440.157914

                             ****ORCA TERMINATED NORMALLY****
TOTAL RUN TIME: 0 days 0 hours 6 minutes 42 seconds 476 msec
