                         Program Version 5.0.0 -  RELEASE  -
|  1> !B3LYP D3BJ RIJCOSX def2-TZVPD def2/J TightSCF xyzfile
|  2>
|  3> *xyzfile 0 1 D5.xyz
|  4>
|  5> %MaxCore 64000
|  6>
|  7> %pal nprocs 4
|  8> end
|  9>
| 10> %scf
| 11>   MaxIter 150
| 12> end
| 13>
| 14>
| 15>                          ****END OF INPUT****

CARTESIAN COORDINATES (ANGSTROEM)
---------------------------------
  C      2.916324   -1.242589   -1.543125
  C      0.704661    1.443129   -4.503630
  C      1.728539    1.424320   -5.639443
  H      2.646718    1.953794   -5.381054
  H      1.299916    1.930613   -6.503614
  S      2.252625   -0.188115   -6.271840
  C      3.466585   -1.590971   -2.889082
  C      4.652275   -1.143164   -3.259692
  N      2.752264   -2.292043   -3.728029
  H      1.778364   -2.489604   -3.512738
  H      2.948612   -2.208544   -4.716813
  H      5.146723   -0.512508   -2.633852
  H      4.783030   -1.007203   -4.253498
  O      3.562607   -0.444464   -5.631552
  O      2.344944   -0.033742   -7.696501
  C      2.804084    0.290698   -1.359243
  C      1.052550    0.695659   -3.214915
  H     -0.232483    1.032925   -4.884449
  H      0.511700    2.495794   -4.267966
  C      2.388380    1.093669   -2.597108
  H      3.763425    0.674718   -0.999889
  H      2.094788    0.461222   -0.545756
  F      1.266058   -1.159177   -5.805365
  H      3.167316    1.013242   -3.359430
  H      2.357690    2.149375   -2.310997
  H      1.039284   -0.368429   -3.449329
  H      0.250787    0.865605   -2.488283
  H      1.940472   -1.716529   -1.441161
  H      3.558569   -1.663433   -0.766371

 Total Charge           Charge          ....    0
 Multiplicity           Mult            ....    1
 Number of Electrons    NEL             ....  112
 Basis Dimension        Dim             ....  643

ORBITAL ENERGIES
----------------

  NO   OCC          E(Eh)            E(eV)
   0   2.0000     -89.107113     -2424.7278
   1   2.0000     -24.805289      -674.9862
   2   2.0000     -19.149894      -521.0951
   3   2.0000     -19.135777      -520.7110
   4   2.0000     -14.304842      -389.2545
   5   2.0000     -10.233450      -278.4663
   6   2.0000     -10.204199      -277.6704
   7   2.0000     -10.181577      -277.0548
   8   2.0000     -10.174193      -276.8539
   9   2.0000     -10.168865      -276.7089
  10   2.0000     -10.167395      -276.6689
  11   2.0000     -10.166079      -276.6331
  12   2.0000     -10.078149      -274.2404
  13   2.0000      -8.151578      -221.8157
  14   2.0000      -6.118529      -166.4936
  15   2.0000      -6.111854      -166.3120
  16   2.0000      -6.111537      -166.3034
  17   2.0000      -1.382912       -37.6310
  18   2.0000      -1.119105       -30.4524
  19   2.0000      -1.022611       -27.8267
  20   2.0000      -0.927284       -25.2327
  21   2.0000      -0.844215       -22.9723
  22   2.0000      -0.800960       -21.7952
  23   2.0000      -0.763776       -20.7834
  24   2.0000      -0.729189       -19.8422
  25   2.0000      -0.706361       -19.2211
  26   2.0000      -0.679890       -18.5007
  27   2.0000      -0.639443       -17.4001
  28   2.0000      -0.603602       -16.4248
  29   2.0000      -0.594524       -16.1778
  30   2.0000      -0.579706       -15.7746
  31   2.0000      -0.558559       -15.1992
  32   2.0000      -0.545990       -14.8571
  33   2.0000      -0.512461       -13.9448
  34   2.0000      -0.499207       -13.5841
  35   2.0000      -0.494474       -13.4553
  36   2.0000      -0.478057       -13.0086
  37   2.0000      -0.471672       -12.8348
  38   2.0000      -0.457788       -12.4571
  39   2.0000      -0.448527       -12.2050
  40   2.0000      -0.433597       -11.7988
  41   2.0000      -0.419691       -11.4204
  42   2.0000      -0.404027       -10.9941
  43   2.0000      -0.390332       -10.6215
  44   2.0000      -0.389143       -10.5891
  45   2.0000      -0.378116       -10.2891
  46   2.0000      -0.371805       -10.1173
  47   2.0000      -0.353872        -9.6293
  48   2.0000      -0.351415        -9.5625
  49   2.0000      -0.341858        -9.3024
  50   2.0000      -0.334738        -9.1087
  51   2.0000      -0.329600        -8.9689
  52   2.0000      -0.323870        -8.8130
  53   2.0000      -0.311501        -8.4764
  54   2.0000      -0.308159        -8.3854
  55   2.0000      -0.176384        -4.7997
  56   0.0000      -0.021401        -0.5824
  57   0.0000       0.001287         0.0350
  58   0.0000       0.002845         0.0774
  59   0.0000       0.011316         0.3079
  60   0.0000       0.025077         0.6824

MULLIKEN ATOMIC CHARGES
-----------------------
   0 C :   -0.604054
   1 C :   -0.574772
   2 C :   -0.705099
   3 H :    0.387364
   4 H :    0.284513
   5 S :    1.252849
   6 C :    0.411301
   7 C :   -1.178459
   8 N :   -0.380496
   9 H :    0.228585
  10 H :    0.196306
  11 H :    0.320550
  12 H :    0.493827
  13 O :   -0.650132
  14 O :   -0.567758
  15 C :   -0.502033
  16 C :   -0.302887
  17 H :    0.264121
  18 H :    0.271291
  19 C :   -0.513233
  20 H :    0.290128
  21 H :    0.264177
  22 F :   -0.226540
  23 H :    0.362179
  24 H :    0.264979
  25 H :    0.198420
  26 H :    0.243913
  27 H :    0.260927
  28 H :    0.210034
Sum of atomic charges:    0.0000000

LOEWDIN ATOMIC CHARGES
----------------------
   0 C :   -0.133097
   1 C :   -0.216051
   2 C :   -0.203190
   3 H :    0.109775
   4 H :    0.100575
   5 S :    0.643756
   6 C :   -0.494254
   7 C :    0.016117
   8 N :    0.103952
   9 H :    0.102480
  10 H :    0.074560
  11 H :    0.032783
  12 H :    0.003536
  13 O :   -0.306820
  14 O :   -0.255105
  15 C :   -0.180472
  16 C :   -0.201920
  17 H :    0.109331
  18 H :    0.118842
  19 C :   -0.200087
  20 H :    0.106850
  21 H :    0.104044
  22 F :   -0.068232
  23 H :    0.094321
  24 H :    0.116120
  25 H :    0.082709
  26 H :    0.120051
  27 H :    0.102948
  28 H :    0.116479

  Mayer bond orders larger than 0.100000
B(  0-C ,  6-C ) :   0.7807 B(  0-C , 15-C ) :   0.8928 B(  0-C , 16-C ) :   0.1051
B(  0-C , 27-H ) :   0.9622 B(  0-C , 28-H ) :   0.9805 B(  1-C ,  2-C ) :   0.8392
B(  1-C , 16-C ) :   0.7992 B(  1-C , 17-H ) :   0.9650 B(  1-C , 18-H ) :   0.9245
B(  1-C , 19-C ) :   0.1620 B(  2-C ,  3-H ) :   0.8328 B(  2-C ,  4-H ) :   1.0025
B(  2-C ,  5-S ) :   0.8774 B(  2-C , 13-O ) :   0.1401 B(  2-C , 14-O ) :   0.1418
B(  2-C , 19-C ) :   0.1187 B(  5-S , 13-O ) :   1.6870 B(  5-S , 14-O ) :   1.5071
B(  5-S , 22-F ) :   0.9889 B(  6-C ,  7-C ) :   1.5429 B(  6-C ,  8-N ) :   0.9031
B(  6-C , 11-H ) :  -0.1111 B(  6-C , 12-H ) :  -0.1016 B(  7-C ,  8-N ) :   0.1006
B(  7-C , 11-H ) :   1.0255 B(  7-C , 12-H ) :   0.7583 B(  8-N ,  9-H ) :   0.8385
B(  8-N , 10-H ) :   0.8316 B( 15-C , 16-C ) :   0.2180 B( 15-C , 19-C ) :   0.9717
B( 15-C , 20-H ) :   0.8742 B( 15-C , 21-H ) :   0.9311 B( 16-C , 19-C ) :   0.4734
B( 16-C , 25-H ) :   1.0868 B( 16-C , 26-H ) :   0.9209 B( 19-C , 23-H ) :   0.9888
B( 19-C , 24-H ) :   0.9104

Dispersion correction           -0.060505844
FINAL SINGLE POINT ENERGY     -1017.555867212277

DIPOLE MOMENT
-------------
                                X             Y             Z
Electronic contribution:     -1.70953      -6.06267     -19.02040
Nuclear contribution   :     -0.26930       7.11259      19.56706
                        -----------------------------------------
Total Dipole Moment    :     -1.97883       1.04992       0.54666
                        -----------------------------------------
Magnitude (a.u.)       :      2.30585
Magnitude (Debye)      :      5.86101

Rotational constants in cm-1:     0.036519     0.018683     0.015073
Rotational constants in MHz :  1094.801738   560.111127   451.890222

                             ****ORCA TERMINATED NORMALLY****
TOTAL RUN TIME: 0 days 0 hours 5 minutes 58 seconds 221 msec
