                         Program Version 5.0.0 -  RELEASE  -
|  1> !B3LYP D3BJ RIJCOSX def2-TZVPD def2/J TightSCF xyzfile
|  2>
|  3> *xyzfile 0 1 D6.xyz
|  4>
|  5> %MaxCore 64000
|  6>
|  7> %pal nprocs 4
|  8> end
|  9>
| 10> %scf
| 11>   MaxIter 150
| 12> end
| 13>
| 14>
| 15>                          ****END OF INPUT****

CARTESIAN COORDINATES (ANGSTROEM)
---------------------------------
  C      2.916324   -1.242589   -1.543125
  C      0.704661    1.443129   -4.503630
  C      1.728539    1.424320   -5.639443
  H      2.646718    1.953794   -5.381054
  H      1.299916    1.930613   -6.503614
  S      2.252625   -0.188115   -6.271840
  C      3.466585   -1.590971   -2.889082
  N      4.652275   -1.143164   -3.259692
  C      2.752264   -2.292043   -3.728029
  H      1.778364   -2.489604   -3.512738
  H      2.948612   -2.208544   -4.716813
  H      5.146723   -0.512508   -2.633852
  H      4.783030   -1.007203   -4.253498
  O      3.562607   -0.444464   -5.631552
  O      2.344944   -0.033742   -7.696501
  C      2.804084    0.290698   -1.359243
  C      1.052550    0.695659   -3.214915
  H     -0.232483    1.032925   -4.884449
  H      0.511700    2.495794   -4.267966
  C      2.388380    1.093669   -2.597108
  H      3.763425    0.674718   -0.999889
  H      2.094788    0.461222   -0.545756
  F      1.266058   -1.159177   -5.805365
  H      3.167316    1.013242   -3.359430
  H      2.357690    2.149375   -2.310997
  H      1.039284   -0.368429   -3.449329
  H      0.250787    0.865605   -2.488283
  H      1.940472   -1.716529   -1.441161
  H      3.558569   -1.663433   -0.766371

 Total Charge           Charge          ....    0
 Multiplicity           Mult            ....    1
 Number of Electrons    NEL             ....  112
 Basis Dimension        Dim             ....  643

ORBITAL ENERGIES
----------------

  NO   OCC          E(Eh)            E(eV)
   0   2.0000     -89.104361     -2424.6529
   1   2.0000     -24.794861      -674.7025
   2   2.0000     -19.146297      -520.9972
   3   2.0000     -19.132069      -520.6101
   4   2.0000     -14.295690      -389.0055
   5   2.0000     -10.230670      -278.3907
   6   2.0000     -10.200571      -277.5717
   7   2.0000     -10.176300      -276.9112
   8   2.0000     -10.175652      -276.8936
   9   2.0000     -10.172864      -276.8177
  10   2.0000     -10.170771      -276.7608
  11   2.0000     -10.165202      -276.6092
  12   2.0000     -10.088123      -274.5118
  13   2.0000      -8.148338      -221.7275
  14   2.0000      -6.115164      -166.4021
  15   2.0000      -6.108825      -166.2296
  16   2.0000      -6.108398      -166.2180
  17   2.0000      -1.372276       -37.3415
  18   2.0000      -1.115072       -30.3426
  19   2.0000      -1.019029       -27.7292
  20   2.0000      -0.918211       -24.9858
  21   2.0000      -0.840999       -22.8847
  22   2.0000      -0.799534       -21.7564
  23   2.0000      -0.758431       -20.6380
  24   2.0000      -0.731759       -19.9122
  25   2.0000      -0.708946       -19.2914
  26   2.0000      -0.678225       -18.4554
  27   2.0000      -0.631870       -17.1940
  28   2.0000      -0.598072       -16.2744
  29   2.0000      -0.584120       -15.8947
  30   2.0000      -0.575005       -15.6467
  31   2.0000      -0.560677       -15.2568
  32   2.0000      -0.541852       -14.7446
  33   2.0000      -0.509577       -13.8663
  34   2.0000      -0.495716       -13.4891
  35   2.0000      -0.492017       -13.3885
  36   2.0000      -0.474859       -12.9216
  37   2.0000      -0.466020       -12.6811
  38   2.0000      -0.457778       -12.4568
  39   2.0000      -0.442842       -12.0504
  40   2.0000      -0.439095       -11.9484
  41   2.0000      -0.417298       -11.3553
  42   2.0000      -0.405652       -11.0384
  43   2.0000      -0.395003       -10.7486
  44   2.0000      -0.385596       -10.4926
  45   2.0000      -0.383833       -10.4446
  46   2.0000      -0.366899        -9.9838
  47   2.0000      -0.360653        -9.8139
  48   2.0000      -0.349847        -9.5198
  49   2.0000      -0.336854        -9.1663
  50   2.0000      -0.332785        -9.0555
  51   2.0000      -0.326042        -8.8721
  52   2.0000      -0.324544        -8.8313
  53   2.0000      -0.307997        -8.3810
  54   2.0000      -0.306101        -8.3294
  55   2.0000      -0.185684        -5.0527
  56   0.0000      -0.016708        -0.4547
  57   0.0000       0.002324         0.0632
  58   0.0000       0.006717         0.1828
  59   0.0000       0.011870         0.3230
  60   0.0000       0.027900         0.7592

MULLIKEN ATOMIC CHARGES
-----------------------
   0 C :   -0.551966
   1 C :   -0.571912
   2 C :   -0.720063
   3 H :    0.369271
   4 H :    0.292639
   5 S :    1.279545
   6 C :    0.431057
   7 N :   -0.328530
   8 C :   -1.409229
   9 H :    0.422136
  10 H :    0.550272
  11 H :    0.200231
  12 H :    0.270070
  13 O :   -0.684900
  14 O :   -0.575124
  15 C :   -0.601445
  16 C :   -0.251168
  17 H :    0.281078
  18 H :    0.266783
  19 C :   -0.380555
  20 H :    0.306041
  21 H :    0.210402
  22 F :   -0.207980
  23 H :    0.305652
  24 H :    0.265646
  25 H :    0.196010
  26 H :    0.225970
  27 H :    0.210837
  28 H :    0.199232
Sum of atomic charges:   -0.0000000

LOEWDIN ATOMIC CHARGES
----------------------
   0 C :   -0.133275
   1 C :   -0.215450
   2 C :   -0.204400
   3 H :    0.107228
   4 H :    0.100229
   5 S :    0.646968
   6 C :   -0.489637
   7 N :    0.119254
   8 C :   -0.007815
   9 H :    0.030410
  10 H :    0.000778
  11 H :    0.109851
  12 H :    0.080651
  13 O :   -0.315075
  14 O :   -0.255419
  15 C :   -0.183335
  16 C :   -0.199950
  17 H :    0.110233
  18 H :    0.117594
  19 C :   -0.201378
  20 H :    0.101136
  21 H :    0.105546
  22 F :   -0.060093
  23 H :    0.092044
  24 H :    0.115360
  25 H :    0.085906
  26 H :    0.120147
  27 H :    0.109880
  28 H :    0.112612

  Mayer bond orders larger than 0.100000
B(  0-C ,  6-C ) :   0.8437 B(  0-C , 15-C ) :   0.8578 B(  0-C , 16-C ) :   0.1480
B(  0-C , 19-C ) :  -0.1486 B(  0-C , 27-H ) :   0.9775 B(  0-C , 28-H ) :   0.9667
B(  1-C ,  2-C ) :   0.8519 B(  1-C , 16-C ) :   0.7708 B(  1-C , 17-H ) :   0.9366
B(  1-C , 18-H ) :   0.9298 B(  1-C , 19-C ) :   0.1702 B(  2-C ,  3-H ) :   0.8445
B(  2-C ,  4-H ) :   1.0016 B(  2-C ,  5-S ) :   0.8765 B(  2-C , 13-O ) :   0.1559
B(  2-C , 14-O ) :   0.1489 B(  2-C , 19-C ) :   0.1265 B(  5-S , 13-O ) :   1.7110
B(  5-S , 14-O ) :   1.4886 B(  5-S , 22-F ) :   1.0085 B(  6-C ,  7-N ) :   0.9752
B(  6-C ,  8-C ) :   1.5508 B(  6-C ,  9-H ) :  -0.1095 B(  6-C , 10-H ) :  -0.1380
B(  6-C , 13-O ) :  -0.1416 B(  7-N , 11-H ) :   0.8529 B(  7-N , 12-H ) :   0.8300
B(  8-C ,  9-H ) :   0.9093 B(  8-C , 10-H ) :   0.7368 B( 15-C , 16-C ) :   0.2187
B( 15-C , 19-C ) :   0.9082 B( 15-C , 20-H ) :   0.8944 B( 15-C , 21-H ) :   0.9603
B( 16-C , 19-C ) :   0.4474 B( 16-C , 23-H ) :  -0.1088 B( 16-C , 25-H ) :   1.1438
B( 16-C , 26-H ) :   0.9202 B( 19-C , 23-H ) :   1.0148 B( 19-C , 24-H ) :   0.9340

Dispersion correction           -0.060615395
FINAL SINGLE POINT ENERGY     -1017.565333412390

DIPOLE MOMENT
-------------
                                X             Y             Z
Electronic contribution:     -0.43616      -5.34862     -18.67229
Nuclear contribution   :     -0.51418       6.96452      19.50670
                        -----------------------------------------
Total Dipole Moment    :     -0.95034       1.61590       0.83442
                        -----------------------------------------
Magnitude (a.u.)       :      2.05196
Magnitude (Debye)      :      5.21566

Rotational constants in cm-1:     0.036455     0.018603     0.015008
Rotational constants in MHz :  1092.895336   557.693628   449.926016

                             ****ORCA TERMINATED NORMALLY****
TOTAL RUN TIME: 0 days 0 hours 5 minutes 19 seconds 15 msec
