                         Program Version 5.0.0 -  RELEASE  -
|  1> !CAM-B3LYP RIJCOSX def2-SVPD def2/J TightSCF
|  2>
|  3> *xyz -1 1
|  4> C          2.95263        1.86308       -3.57485
|  5> C          4.12921        0.89839       -3.41895
|  6> H          3.73369       -0.10060       -3.23763
|  7> H          4.71910        0.86256       -4.33901
|  8> C          5.01734        1.31521       -2.22130
|  9> O          4.73706        0.85411       -1.12283
| 10> O          5.92815        2.16811       -2.49136
| 11> H          2.35067        1.56005       -4.40594
| 12> H          3.32277        2.85258       -3.74453
| 13> H          2.36134        1.85149       -2.68315
| 14> *
| 15> %MaxCore 64000
| 16>
| 17> %pal nprocs 4
| 18> end
| 19>
| 20> %scf
| 21>   MaxIter 150
| 22> end
| 23>
| 24>
| 25>                          ****END OF INPUT****

CARTESIAN COORDINATES (ANGSTROEM)
---------------------------------
  C      2.952630    1.863080   -3.574850
  C      4.129210    0.898390   -3.418950
  H      3.733690   -0.100600   -3.237630
  H      4.719100    0.862560   -4.339010
  C      5.017340    1.315210   -2.221300
  O      4.737060    0.854110   -1.122830
  O      5.928150    2.168110   -2.491360
  H      2.350670    1.560050   -4.405940
  H      3.322770    2.852580   -3.744530
  H      2.361340    1.851490   -2.683150

 Total Charge           Charge          ....   -1
 Multiplicity           Mult            ....    1
 Number of Electrons    NEL             ....   40
 Basis Dimension        Dim             ....  146

ORBITAL ENERGIES
----------------

  NO   OCC          E(Eh)            E(eV)
   0   2.0000     -18.959429      -515.9123
   1   2.0000     -18.948118      -515.6045
   2   2.0000     -10.148748      -276.1615
   3   2.0000     -10.098910      -274.8053
   4   2.0000     -10.083687      -274.3911
   5   2.0000      -0.901526       -24.5318
   6   2.0000      -0.802082       -21.8258
   7   2.0000      -0.683385       -18.5958
   8   2.0000      -0.544500       -14.8166
   9   2.0000      -0.393481       -10.7072
  10   2.0000      -0.362875        -9.8743
  11   2.0000      -0.330271        -8.9871
  12   2.0000      -0.303241        -8.2516
  13   2.0000      -0.282395        -7.6844
  14   2.0000      -0.282083        -7.6759
  15   2.0000      -0.247161        -6.7256
  16   2.0000      -0.238534        -6.4909
  17   2.0000      -0.116730        -3.1764
  18   2.0000      -0.108946        -2.9646
  19   2.0000      -0.098802        -2.6885
  20   0.0000       0.184064         5.0086
  21   0.0000       0.216307         5.8860
  22   0.0000       0.230173         6.2633
  23   0.0000       0.253807         6.9064
  24   0.0000       0.275476         7.4961

MULLIKEN ATOMIC CHARGES
-----------------------
   0 C :    0.690270
   1 C :   -0.142474
   2 H :   -0.079881
   3 H :   -0.098766
   4 C :    0.380004
   5 O :   -0.614131
   6 O :   -0.719286
   7 H :   -0.159443
   8 H :   -0.130535
   9 H :   -0.125760
Sum of atomic charges:   -1.0000000

LOEWDIN ATOMIC CHARGES
----------------------
   0 C :    0.102097
   1 C :   -0.041307
   2 H :   -0.002363
   3 H :    0.002237
   4 C :   -0.316419
   5 O :   -0.304459
   6 O :   -0.350689
   7 H :   -0.042995
   8 H :   -0.023287
   9 H :   -0.022816

  Mayer bond orders larger than 0.100000
B(  0-C ,  1-C ) :   1.2982 B(  0-C ,  2-H ) :   0.1154 B(  0-C ,  3-H ) :   0.1065
B(  0-C ,  7-H ) :   0.8252 B(  0-C ,  8-H ) :   0.8139 B(  0-C ,  9-H ) :   0.8041
B(  1-C ,  2-H ) :   0.9108 B(  1-C ,  3-H ) :   0.9278 B(  1-C ,  4-C ) :   1.0094
B(  1-C ,  7-H ) :   0.1625 B(  1-C ,  8-H ) :   0.1963 B(  1-C ,  9-H ) :   0.2023
B(  2-H ,  4-C ) :   0.1129 B(  4-C ,  5-O ) :   1.5668 B(  4-C ,  6-O ) :   1.4786

FINAL SINGLE POINT ENERGY      -267.543962366721

DIPOLE MOMENT
-------------
                                X             Y             Z
Electronic contribution:      4.36672      -0.22509       3.84618
Nuclear contribution   :     -5.85873      -0.10793      -5.24103
                        -----------------------------------------
Total Dipole Moment    :     -1.49201      -0.33302      -1.39485
                        -----------------------------------------
Magnitude (a.u.)       :      2.06944
Magnitude (Debye)      :      5.26011

Rotational constants in cm-1:     0.292505     0.135951     0.110253
Rotational constants in MHz :  8769.065873  4075.717001  3305.311891

                             ****ORCA TERMINATED NORMALLY****
TOTAL RUN TIME: 0 days 0 hours 0 minutes 23 seconds 51 msec
