                         Program Version 5.0.0 -  RELEASE  -
|  1> !CAM-B3LYP RIJCOSX def2-SVPD def2/J TightSCF
|  2>
|  3> *xyz 1 1
|  4> C          3.34350        3.35457       -3.59200
|  5> C          2.95263        1.86308       -3.57485
|  6> C          4.25587        3.70385       -4.72605
|  7> N          3.73403        4.29378       -5.80077
|  8> N          5.51504        3.40725       -4.63718
|  9> H          6.14919        3.60120       -5.39905
| 10> H          5.81358        2.89950       -3.80879
| 11> H          2.74138        4.51311       -5.82470
| 12> H          4.28755        4.52126       -6.61434
| 13> H          3.86125        3.59725       -2.66298
| 14> H          2.44649        3.97346       -3.65656
| 15> H          2.44395        1.61721       -4.48352
| 16> H          2.30781        1.67290       -2.74242
| 17> H          3.83491        1.26414       -3.48670
| 18> *
| 19> %MaxCore 64000
| 20>
| 21> %pal nprocs 4
| 22> end
| 23>
| 24> %scf
| 25>   MaxIter 150
| 26> end
| 27>
| 28>
| 29>                          ****END OF INPUT****

CARTESIAN COORDINATES (ANGSTROEM)
---------------------------------
  C      3.343500    3.354570   -3.592000
  C      2.952630    1.863080   -3.574850
  C      4.255870    3.703850   -4.726050
  N      3.734030    4.293780   -5.800770
  N      5.515040    3.407250   -4.637180
  H      6.149190    3.601200   -5.399050
  H      5.813580    2.899500   -3.808790
  H      2.741380    4.513110   -5.824700
  H      4.287550    4.521260   -6.614340
  H      3.861250    3.597250   -2.662980
  H      2.446490    3.973460   -3.656560
  H      2.443950    1.617210   -4.483520
  H      2.307810    1.672900   -2.742420
  H      3.834910    1.264140   -3.486700

 Total Charge           Charge          ....    1
 Multiplicity           Mult            ....    1
 Number of Electrons    NEL             ....   40
 Basis Dimension        Dim             ....  172

ORBITAL ENERGIES
----------------

  NO   OCC          E(Eh)            E(eV)
   0   2.0000     -14.655828      -398.8054
   1   2.0000     -14.650918      -398.6717
   2   2.0000     -10.585963      -288.0587
   3   2.0000     -10.458356      -284.5863
   4   2.0000     -10.416109      -283.4367
   5   2.0000      -1.282859       -34.9084
   6   2.0000      -1.185088       -32.2479
   7   2.0000      -1.046518       -28.4772
   8   2.0000      -0.935367       -25.4526
   9   2.0000      -0.891424       -24.2569
  10   2.0000      -0.853656       -23.2292
  11   2.0000      -0.824002       -22.4222
  12   2.0000      -0.774601       -21.0780
  13   2.0000      -0.722502       -19.6603
  14   2.0000      -0.695403       -18.9229
  15   2.0000      -0.684542       -18.6273
  16   2.0000      -0.612602       -16.6697
  17   2.0000      -0.603886       -16.4326
  18   2.0000      -0.595711       -16.2101
  19   2.0000      -0.559244       -15.2178
  20   0.0000      -0.163655        -4.4533
  21   0.0000      -0.126294        -3.4366
  22   0.0000      -0.083250        -2.2653
  23   0.0000      -0.080154        -2.1811
  24   0.0000      -0.052914        -1.4399

MULLIKEN ATOMIC CHARGES
-----------------------
   0 C :   -0.168915
   1 C :    0.829854
   2 C :    0.559924
   3 N :    0.107380
   4 N :    0.282254
   5 H :   -0.184375
   6 H :    0.045386
   7 H :    0.020420
   8 H :   -0.158721
   9 H :   -0.030269
  10 H :   -0.065122
  11 H :   -0.107463
  12 H :   -0.042298
  13 H :   -0.088055
Sum of atomic charges:    1.0000000

LOEWDIN ATOMIC CHARGES
----------------------
   0 C :    0.010524
   1 C :    0.174492
   2 C :   -0.048999
   3 N :    0.285258
   4 N :    0.289859
   5 H :    0.053832
   6 H :    0.060229
   7 H :    0.051556
   8 H :    0.043416
   9 H :    0.045111
  10 H :    0.039037
  11 H :   -0.002264
  12 H :    0.007795
  13 H :   -0.009848

  Mayer bond orders larger than 0.100000
B(  0-C ,  1-C ) :   1.2521 B(  0-C ,  2-C ) :   1.1506 B(  0-C ,  9-H ) :   0.8721
B(  0-C , 10-H ) :   0.8738 B(  0-C , 11-H ) :   0.1716 B(  0-C , 12-H ) :   0.1671
B(  0-C , 13-H ) :   0.2047 B(  1-C , 11-H ) :   0.8153 B(  1-C , 12-H ) :   0.8159
B(  1-C , 13-H ) :   0.7573 B(  2-C ,  3-N ) :   1.0680 B(  2-C ,  4-N ) :   1.2729
B(  2-C ,  5-H ) :  -0.1418 B(  2-C ,  8-H ) :  -0.2011 B(  2-C , 10-H ) :   0.1468
B(  3-N ,  4-N ) :   0.1411 B(  3-N ,  7-H ) :   1.1011 B(  3-N ,  8-H ) :   1.3209
B(  4-N ,  5-H ) :   1.2775 B(  4-N ,  6-H ) :   1.0668 B(  5-H ,  6-H ) :  -0.1630
B(  7-H ,  8-H ) :  -0.1830 B( 11-H , 13-H ) :   0.1001

FINAL SINGLE POINT ENERGY      -228.756635253605

DIPOLE MOMENT
-------------
                                X             Y             Z
Electronic contribution:      2.37979       2.58056      -2.28156
Nuclear contribution   :     -1.74195      -2.09431       1.58516
                        -----------------------------------------
Total Dipole Moment    :      0.63784       0.48626      -0.69639
                        -----------------------------------------
Magnitude (a.u.)       :      1.06219
Magnitude (Debye)      :      2.69988

Rotational constants in cm-1:     0.258965     0.126500     0.098780
Rotational constants in MHz :  7763.584551  3792.383135  2961.336502

                             ****ORCA TERMINATED NORMALLY****
TOTAL RUN TIME: 0 days 0 hours 0 minutes 32 seconds 30 msec
