                         Program Version 5.0.0 -  RELEASE  -
|  1> !CAM-B3LYP RIJCOSX def2-SVPD def2/J TightSCF
|  2>
|  3> *xyz 0 1
|  4> C          2.95263        1.86308       -3.57485
|  5> C          4.12921        0.89839       -3.41895
|  6> H          3.73369       -0.10060       -3.23763
|  7> H          4.71910        0.86256       -4.33901
|  8> C          5.01734        1.31521       -2.22130
|  9> F          4.73706        0.85411       -1.12283
| 10> O          5.92815        2.16811       -2.49136
| 11> H          2.35067        1.56005       -4.40594
| 12> H          3.32277        2.85258       -3.74453
| 13> H          2.36134        1.85149       -2.68315
| 14> *
| 15> %MaxCore 64000
| 16>
| 17> %pal nprocs 4
| 18> end
| 19>
| 20> %scf
| 21>   MaxIter 150
| 22> end
| 23>
| 24>
| 25>                          ****END OF INPUT****

CARTESIAN COORDINATES (ANGSTROEM)
---------------------------------
  C      2.952630    1.863080   -3.574850
  C      4.129210    0.898390   -3.418950
  H      3.733690   -0.100600   -3.237630
  H      4.719100    0.862560   -4.339010
  C      5.017340    1.315210   -2.221300
  F      4.737060    0.854110   -1.122830
  O      5.928150    2.168110   -2.491360
  H      2.350670    1.560050   -4.405940
  H      3.322770    2.852580   -3.744530
  H      2.361340    1.851490   -2.683150

 Total Charge           Charge          ....    0
 Multiplicity           Mult            ....    1
 Number of Electrons    NEL             ....   40
 Basis Dimension        Dim             ....  146

ORBITAL ENERGIES
----------------

  NO   OCC          E(Eh)            E(eV)
   0   2.0000     -24.862210      -676.5351
   1   2.0000     -19.223355      -523.0941
   2   2.0000     -10.450451      -284.3712
   3   2.0000     -10.292582      -280.0754
   4   2.0000     -10.269384      -279.4441
   5   2.0000      -1.418299       -38.5939
   6   2.0000      -1.097463       -29.8635
   7   2.0000      -0.880996       -23.9731
   8   2.0000      -0.771533       -20.9945
   9   2.0000      -0.727317       -19.7913
  10   2.0000      -0.646035       -17.5795
  11   2.0000      -0.629854       -17.1392
  12   2.0000      -0.581362       -15.8197
  13   2.0000      -0.538734       -14.6597
  14   2.0000      -0.508415       -13.8347
  15   2.0000      -0.471986       -12.8434
  16   2.0000      -0.450112       -12.2482
  17   2.0000      -0.441328       -12.0092
  18   2.0000      -0.414912       -11.2903
  19   2.0000      -0.358451        -9.7540
  20   0.0000       0.013815         0.3759
  21   0.0000       0.042284         1.1506
  22   0.0000       0.073938         2.0120
  23   0.0000       0.083802         2.2804
  24   0.0000       0.106336         2.8936

MULLIKEN ATOMIC CHARGES
-----------------------
   0 C :    0.718066
   1 C :   -0.163053
   2 H :   -0.049906
   3 H :   -0.062374
   4 C :    0.703845
   5 F :   -0.321234
   6 O :   -0.485444
   7 H :   -0.115254
   8 H :   -0.109489
   9 H :   -0.115157
Sum of atomic charges:   -0.0000000

LOEWDIN ATOMIC CHARGES
----------------------
   0 C :    0.138892
   1 C :    0.006588
   2 H :    0.021237
   3 H :    0.035924
   4 C :   -0.020117
   5 F :   -0.004772
   6 O :   -0.149150
   7 H :   -0.011662
   8 H :   -0.006270
   9 H :   -0.010671

  Mayer bond orders larger than 0.100000
B(  0-C ,  1-C ) :   1.3075 B(  0-C ,  2-H ) :   0.1106 B(  0-C ,  3-H ) :   0.1008
B(  0-C ,  7-H ) :   0.8353 B(  0-C ,  8-H ) :   0.8174 B(  0-C ,  9-H ) :   0.7986
B(  1-C ,  2-H ) :   0.9065 B(  1-C ,  3-H ) :   0.9305 B(  1-C ,  4-C ) :   1.0501
B(  1-C ,  7-H ) :   0.1524 B(  1-C ,  8-H ) :   0.1764 B(  1-C ,  9-H ) :   0.1794
B(  4-C ,  5-F ) :   0.7997 B(  4-C ,  6-O ) :   1.8205 B(  5-F ,  6-O ) :   0.1205

FINAL SINGLE POINT ENERGY      -292.066626627367

DIPOLE MOMENT
-------------
                                X             Y             Z
Electronic contribution:      5.02400      -1.20152       6.50226
Nuclear contribution   :     -6.06116       0.51860      -6.80802
                        -----------------------------------------
Total Dipole Moment    :     -1.03715      -0.68292      -0.30576
                        -----------------------------------------
Magnitude (a.u.)       :      1.27889
Magnitude (Debye)      :      3.25067

Rotational constants in cm-1:     0.276196     0.132056     0.105465
Rotational constants in MHz :  8280.156449  3958.940601  3161.775929

                             ****ORCA TERMINATED NORMALLY****
TOTAL RUN TIME: 0 days 0 hours 0 minutes 23 seconds 738 msec
