                         Program Version 5.0.0 -  RELEASE  -
|  1> !CAM-B3LYP RIJCOSX def2-SVPD def2/J TightSCF
|  2>
|  3> *xyz 0 1
|  4> C          3.34350        3.35457       -3.59200
|  5> C          2.95263        1.86308       -3.57485
|  6> C          4.25587        3.70385       -4.72605
|  7> C          3.73403        4.29378       -5.80077
|  8> N          5.51504        3.40725       -4.63718
|  9> H          6.14919        3.60120       -5.39905
| 10> H          5.81358        2.89950       -3.80879
| 11> H          2.74138        4.51311       -5.82470
| 12> H          4.28755        4.52126       -6.61434
| 13> H          3.86125        3.59725       -2.66298
| 14> H          2.44649        3.97346       -3.65656
| 15> H          2.44395        1.61721       -4.48352
| 16> H          2.30781        1.67290       -2.74242
| 17> H          3.83491        1.26414       -3.48670
| 18> *
| 19> %MaxCore 64000
| 20>
| 21> %pal nprocs 4
| 22> end
| 23>
| 24> %scf
| 25>   MaxIter 150
| 26> end
| 27>
| 28>
| 29>                          ****END OF INPUT****

CARTESIAN COORDINATES (ANGSTROEM)
---------------------------------
  C      3.343500    3.354570   -3.592000
  C      2.952630    1.863080   -3.574850
  C      4.255870    3.703850   -4.726050
  C      3.734030    4.293780   -5.800770
  N      5.515040    3.407250   -4.637180
  H      6.149190    3.601200   -5.399050
  H      5.813580    2.899500   -3.808790
  H      2.741380    4.513110   -5.824700
  H      4.287550    4.521260   -6.614340
  H      3.861250    3.597250   -2.662980
  H      2.446490    3.973460   -3.656560
  H      2.443950    1.617210   -4.483520
  H      2.307810    1.672900   -2.742420
  H      3.834910    1.264140   -3.486700

 Total Charge           Charge          ....    0
 Multiplicity           Mult            ....    1
 Number of Electrons    NEL             ....   40
 Basis Dimension        Dim             ....  172

ORBITAL ENERGIES
----------------

  NO   OCC          E(Eh)            E(eV)
   0   2.0000     -14.408985      -392.0884
   1   2.0000     -10.279511      -279.7197
   2   2.0000     -10.258108      -279.1373
   3   2.0000     -10.245998      -278.8078
   4   2.0000     -10.190214      -277.2898
   5   2.0000      -1.013234       -27.5715
   6   2.0000      -0.854612       -23.2552
   7   2.0000      -0.788838       -21.4654
   8   2.0000      -0.709956       -19.3189
   9   2.0000      -0.642636       -17.4870
  10   2.0000      -0.604071       -16.4376
  11   2.0000      -0.551049       -14.9948
  12   2.0000      -0.508041       -13.8245
  13   2.0000      -0.491314       -13.3693
  14   2.0000      -0.462536       -12.5863
  15   2.0000      -0.450784       -12.2665
  16   2.0000      -0.420383       -11.4392
  17   2.0000      -0.400882       -10.9086
  18   2.0000      -0.398313       -10.8386
  19   2.0000      -0.246626        -6.7110
  20   0.0000       0.045970         1.2509
  21   0.0000       0.076434         2.0799
  22   0.0000       0.085056         2.3145
  23   0.0000       0.088588         2.4106
  24   0.0000       0.101982         2.7751

MULLIKEN ATOMIC CHARGES
-----------------------
   0 C :    0.002421
   1 C :    0.840550
   2 C :   -0.172552
   3 C :    0.597176
   4 N :    0.396157
   5 H :   -0.235332
   6 H :   -0.130870
   7 H :   -0.226754
   8 H :   -0.584779
   9 H :   -0.130971
  10 H :   -0.012391
  11 H :   -0.141709
  12 H :   -0.083393
  13 H :   -0.117553
Sum of atomic charges:   -0.0000000

LOEWDIN ATOMIC CHARGES
----------------------
   0 C :   -0.031298
   1 C :    0.136063
   2 C :   -0.273769
   3 C :    0.178226
   4 N :    0.173459
   5 H :    0.013346
   6 H :    0.007016
   7 H :   -0.086416
   8 H :   -0.093285
   9 H :    0.017137
  10 H :    0.021957
  11 H :   -0.015386
  12 H :   -0.020690
  13 H :   -0.026360

  Mayer bond orders larger than 0.100000
B(  0-C ,  1-C ) :   1.2262 B(  0-C ,  2-C ) :   1.1830 B(  0-C ,  3-C ) :   0.1767
B(  0-C ,  9-H ) :   0.8100 B(  0-C , 10-H ) :   0.8306 B(  0-C , 11-H ) :   0.1865
B(  0-C , 12-H ) :   0.1864 B(  0-C , 13-H ) :   0.2250 B(  1-C , 11-H ) :   0.8252
B(  1-C , 12-H ) :   0.7883 B(  1-C , 13-H ) :   0.7611 B(  2-C ,  3-C ) :   1.6454
B(  2-C ,  4-N ) :   1.3195 B(  2-C ,  8-H ) :   0.1704 B(  2-C ,  9-H ) :   0.1855
B(  2-C , 10-H ) :   0.1808 B(  3-C ,  4-N ) :   0.2434 B(  3-C ,  7-H ) :   0.9312
B(  3-C ,  8-H ) :   0.6268 B(  4-N ,  5-H ) :   1.2273 B(  4-N ,  6-H ) :   1.0870
B(  5-H ,  6-H ) :  -0.1318

FINAL SINGLE POINT ENERGY      -212.297608205246

DIPOLE MOMENT
-------------
                                X             Y             Z
Electronic contribution:      2.32962       1.47972      -0.85652
Nuclear contribution   :     -1.79713      -1.86925       1.28073
                        -----------------------------------------
Total Dipole Moment    :      0.53250      -0.38953       0.42421
                        -----------------------------------------
Magnitude (a.u.)       :      0.78437
Magnitude (Debye)      :      1.99372

Rotational constants in cm-1:     0.269040     0.129645     0.102087
Rotational constants in MHz :  8065.609820  3886.645139  3060.489045

                             ****ORCA TERMINATED NORMALLY****
TOTAL RUN TIME: 0 days 0 hours 0 minutes 30 seconds 461 msec
