                         Program Version 5.0.0 -  RELEASE  -
|  1> !CAM-B3LYP RIJCOSX def2-SVPD def2/J TightSCF
|  2>
|  3> *xyz 0 1
|  4> C          2.95263        1.86308       -3.57485
|  5> C          4.12921        0.89839       -3.41895
|  6> H          3.73369       -0.10060       -3.23763
|  7> H          4.71910        0.86256       -4.33901
|  8> C          5.01734        1.31521       -2.22130
|  9> O          4.73706        0.85411       -1.12283
| 10> F          5.92815        2.16811       -2.49136
| 11> H          2.35067        1.56005       -4.40594
| 12> H          3.32277        2.85258       -3.74453
| 13> H          2.36134        1.85149       -2.68315
| 14> *
| 15> %MaxCore 64000
| 16>
| 17> %pal nprocs 4
| 18> end
| 19>
| 20> %scf
| 21>   MaxIter 150
| 22> end
| 23>
| 24>
| 25>                          ****END OF INPUT****

CARTESIAN COORDINATES (ANGSTROEM)
---------------------------------
  C      2.952630    1.863080   -3.574850
  C      4.129210    0.898390   -3.418950
  H      3.733690   -0.100600   -3.237630
  H      4.719100    0.862560   -4.339010
  C      5.017340    1.315210   -2.221300
  O      4.737060    0.854110   -1.122830
  F      5.928150    2.168110   -2.491360
  H      2.350670    1.560050   -4.405940
  H      3.322770    2.852580   -3.744530
  H      2.361340    1.851490   -2.683150

 Total Charge           Charge          ....    0
 Multiplicity           Mult            ....    1
 Number of Electrons    NEL             ....   40
 Basis Dimension        Dim             ....  146

ORBITAL ENERGIES
----------------

  NO   OCC          E(Eh)            E(eV)
   0   2.0000     -24.841103      -675.9608
   1   2.0000     -19.233251      -523.3634
   2   2.0000     -10.446198      -284.2555
   3   2.0000     -10.292013      -280.0599
   4   2.0000     -10.269581      -279.4495
   5   2.0000      -1.377143       -37.4740
   6   2.0000      -1.131432       -30.7878
   7   2.0000      -0.880613       -23.9627
   8   2.0000      -0.759397       -20.6642
   9   2.0000      -0.714401       -19.4398
  10   2.0000      -0.624617       -16.9967
  11   2.0000      -0.610057       -16.6005
  12   2.0000      -0.581583       -15.8257
  13   2.0000      -0.538072       -14.6417
  14   2.0000      -0.512533       -13.9467
  15   2.0000      -0.477077       -12.9819
  16   2.0000      -0.457620       -12.4525
  17   2.0000      -0.441618       -12.0170
  18   2.0000      -0.430940       -11.7265
  19   2.0000      -0.369086       -10.0433
  20   0.0000       0.019061         0.5187
  21   0.0000       0.043507         1.1839
  22   0.0000       0.074409         2.0248
  23   0.0000       0.084764         2.3066
  24   0.0000       0.106268         2.8917

MULLIKEN ATOMIC CHARGES
-----------------------
   0 C :    0.717227
   1 C :   -0.158720
   2 H :   -0.045341
   3 H :   -0.069694
   4 C :    0.692420
   5 O :   -0.408028
   6 F :   -0.387481
   7 H :   -0.115680
   8 H :   -0.122733
   9 H :   -0.101971
Sum of atomic charges:   -0.0000000

LOEWDIN ATOMIC CHARGES
----------------------
   0 C :    0.138656
   1 C :    0.008152
   2 H :    0.031397
   3 H :    0.026435
   4 C :   -0.018351
   5 O :   -0.111619
   6 F :   -0.046023
   7 H :   -0.011709
   8 H :   -0.011144
   9 H :   -0.005796

  Mayer bond orders larger than 0.100000
B(  0-C ,  1-C ) :   1.3070 B(  0-C ,  2-H ) :   0.1063 B(  0-C ,  3-H ) :   0.1035
B(  0-C ,  7-H ) :   0.8367 B(  0-C ,  8-H ) :   0.8063 B(  0-C ,  9-H ) :   0.8090
B(  1-C ,  2-H ) :   0.9175 B(  1-C ,  3-H ) :   0.9229 B(  1-C ,  4-C ) :   1.0366
B(  1-C ,  7-H ) :   0.1521 B(  1-C ,  8-H ) :   0.1722 B(  1-C ,  9-H ) :   0.1831
B(  4-C ,  5-O ) :   1.8923 B(  4-C ,  6-F ) :   0.7235 B(  5-O ,  6-F ) :   0.1200

FINAL SINGLE POINT ENERGY      -292.083125702665

DIPOLE MOMENT
-------------
                                X             Y             Z
Electronic contribution:      7.02120       1.00124       4.20317
Nuclear contribution   :     -7.35982      -0.91407      -5.31589
                        -----------------------------------------
Total Dipole Moment    :     -0.33861       0.08717      -1.11272
                        -----------------------------------------
Magnitude (a.u.)       :      1.16637
Magnitude (Debye)      :      2.96467

Rotational constants in cm-1:     0.275433     0.132201     0.105422
Rotational constants in MHz :  8257.268192  3963.279062  3160.465566

                             ****ORCA TERMINATED NORMALLY****
TOTAL RUN TIME: 0 days 0 hours 0 minutes 26 seconds 204 msec
