                         Program Version 5.0.0 -  RELEASE  -
|  1> !CAM-B3LYP RIJCOSX def2-SVPD def2/J TightSCF
|  2>
|  3> *xyz 0 1
|  4> C          3.34350        3.35457       -3.59200
|  5> C          2.95263        1.86308       -3.57485
|  6> C          4.25587        3.70385       -4.72605
|  7> N          3.73403        4.29378       -5.80077
|  8> C          5.51504        3.40725       -4.63718
|  9> H          6.14919        3.60120       -5.39905
| 10> H          5.81358        2.89950       -3.80879
| 11> H          2.74138        4.51311       -5.82470
| 12> H          4.28755        4.52126       -6.61434
| 13> H          3.86125        3.59725       -2.66298
| 14> H          2.44649        3.97346       -3.65656
| 15> H          2.44395        1.61721       -4.48352
| 16> H          2.30781        1.67290       -2.74242
| 17> H          3.83491        1.26414       -3.48670
| 18> *
| 19> %MaxCore 64000
| 20>
| 21> %pal nprocs 4
| 22> end
| 23>
| 24> %scf
| 25>   MaxIter 150
| 26> end
| 27>
| 28>
| 29>                          ****END OF INPUT****

CARTESIAN COORDINATES (ANGSTROEM)
---------------------------------
  C      3.343500    3.354570   -3.592000
  C      2.952630    1.863080   -3.574850
  C      4.255870    3.703850   -4.726050
  N      3.734030    4.293780   -5.800770
  C      5.515040    3.407250   -4.637180
  H      6.149190    3.601200   -5.399050
  H      5.813580    2.899500   -3.808790
  H      2.741380    4.513110   -5.824700
  H      4.287550    4.521260   -6.614340
  H      3.861250    3.597250   -2.662980
  H      2.446490    3.973460   -3.656560
  H      2.443950    1.617210   -4.483520
  H      2.307810    1.672900   -2.742420
  H      3.834910    1.264140   -3.486700

 Total Charge           Charge          ....    0
 Multiplicity           Mult            ....    1
 Number of Electrons    NEL             ....   40
 Basis Dimension        Dim             ....  172

ORBITAL ENERGIES
----------------

  NO   OCC          E(Eh)            E(eV)
   0   2.0000     -14.404966      -391.9791
   1   2.0000     -10.276915      -279.6491
   2   2.0000     -10.257588      -279.1232
   3   2.0000     -10.243856      -278.7495
   4   2.0000     -10.189280      -277.2644
   5   2.0000      -0.998420       -27.1684
   6   2.0000      -0.857039       -23.3212
   7   2.0000      -0.792645       -21.5690
   8   2.0000      -0.711049       -19.3486
   9   2.0000      -0.636133       -17.3101
  10   2.0000      -0.591920       -16.1070
  11   2.0000      -0.554650       -15.0928
  12   2.0000      -0.510006       -13.8780
  13   2.0000      -0.484255       -13.1773
  14   2.0000      -0.462476       -12.5846
  15   2.0000      -0.451634       -12.2896
  16   2.0000      -0.415635       -11.3100
  17   2.0000      -0.404338       -11.0026
  18   2.0000      -0.395335       -10.7576
  19   2.0000      -0.251812        -6.8522
  20   0.0000       0.048063         1.3078
  21   0.0000       0.075679         2.0593
  22   0.0000       0.084794         2.3074
  23   0.0000       0.090220         2.4550
  24   0.0000       0.102912         2.8004

MULLIKEN ATOMIC CHARGES
-----------------------
   0 C :    0.012224
   1 C :    0.800474
   2 C :    0.018964
   3 N :    0.209724
   4 C :    0.553469
   5 H :   -0.537559
   6 H :   -0.202391
   7 H :   -0.125615
   8 H :   -0.216078
   9 H :    0.008210
  10 H :   -0.178326
  11 H :   -0.142192
  12 H :   -0.075083
  13 H :   -0.125820
Sum of atomic charges:   -0.0000000

LOEWDIN ATOMIC CHARGES
----------------------
   0 C :   -0.031614
   1 C :    0.137130
   2 C :   -0.264369
   3 N :    0.172382
   4 C :    0.168586
   5 H :   -0.081866
   6 H :   -0.072840
   7 H :   -0.004310
   8 H :    0.001467
   9 H :    0.024157
  10 H :    0.011853
  11 H :   -0.018129
  12 H :   -0.021477
  13 H :   -0.020969

  Mayer bond orders larger than 0.100000
B(  0-C ,  1-C ) :   1.2474 B(  0-C ,  2-C ) :   1.1035 B(  0-C ,  3-N ) :   0.1164
B(  0-C ,  4-C ) :   0.1946 B(  0-C ,  9-H ) :   0.8170 B(  0-C , 10-H ) :   0.8175
B(  0-C , 11-H ) :   0.1964 B(  0-C , 12-H ) :   0.1670 B(  0-C , 13-H ) :   0.2053
B(  1-C , 10-H ) :   0.1092 B(  1-C , 11-H ) :   0.8078 B(  1-C , 12-H ) :   0.7888
B(  1-C , 13-H ) :   0.8059 B(  2-C ,  3-N ) :   1.1380 B(  2-C ,  4-C ) :   1.7745
B(  2-C ,  5-H ) :   0.2338 B(  2-C ,  6-H ) :   0.1516 B(  2-C ,  8-H ) :  -0.1351
B(  2-C ,  9-H ) :   0.1363 B(  2-C , 10-H ) :   0.1644 B(  3-N ,  4-C ) :   0.2577
B(  3-N ,  7-H ) :   1.1059 B(  3-N ,  8-H ) :   1.2919 B(  4-C ,  5-H ) :   0.6311
B(  4-C ,  6-H ) :   0.7586 B(  7-H ,  8-H ) :  -0.1698

FINAL SINGLE POINT ENERGY      -212.297986895352

DIPOLE MOMENT
-------------
                                X             Y             Z
Electronic contribution:      0.78753       2.26717      -1.85835
Nuclear contribution   :     -1.38463      -2.07457       1.55023
                        -----------------------------------------
Total Dipole Moment    :     -0.59709       0.19260      -0.30812
                        -----------------------------------------
Magnitude (a.u.)       :      0.69897
Magnitude (Debye)      :      1.77663

Rotational constants in cm-1:     0.272312     0.128195     0.101724
Rotational constants in MHz :  8163.717141  3843.180148  3049.598073

                             ****ORCA TERMINATED NORMALLY****
TOTAL RUN TIME: 0 days 0 hours 0 minutes 31 seconds 913 msec
