                         Program Version 5.0.0 -  RELEASE  -
|  1> !CAM-B3LYP RIJCOSX def2-SVPD def2/J TightSCF xyzfile
|  2>
|  3> *xyzfile 0 1 D3.xyz
|  4>
|  5> %MaxCore 64000
|  6>
|  7> %pal nprocs 4
|  8> end
|  9>
| 10> %scf
| 11>   MaxIter 150
| 12> end
| 13>
| 14>
| 15>                          ****END OF INPUT****

CARTESIAN COORDINATES (ANGSTROEM)
---------------------------------
  C      3.343500    3.354571   -3.591998
  C      2.952633    1.863077   -3.574849
  C      4.129209    0.898394   -3.418950
  H      3.733687   -0.100605   -3.237633
  H      4.719095    0.862556   -4.339005
  C      5.017344    1.315212   -2.221305
  C      4.255868    3.703851   -4.726054
  C      3.734032    4.293783   -5.800770
  N      5.515039    3.407255   -4.637185
  H      6.149187    3.601203   -5.399053
  H      5.813584    2.899504   -3.808785
  H      2.741380    4.513109   -5.824701
  H      4.287548    4.521260   -6.614341
  H      2.278938    1.735250   -2.725496
  H      2.377466    1.625787   -4.475869
  O      4.737055    0.854112   -1.122825
  F      5.928146    2.168108   -2.491365
  H      3.861246    3.597252   -2.662979
  H      2.446493    3.973461   -3.656556

 Total Charge           Charge          ....    0
 Multiplicity           Mult            ....    1
 Number of Electrons    NEL             ....   70
 Basis Dimension        Dim             ....  266

ORBITAL ENERGIES
----------------

  NO   OCC          E(Eh)            E(eV)
   0   2.0000     -24.872306      -676.8099
   1   2.0000     -19.250290      -523.8270
   2   2.0000     -14.398477      -391.8025
   3   2.0000     -10.463356      -284.7224
   4   2.0000     -10.297150      -280.1997
   5   2.0000     -10.283942      -279.8403
   6   2.0000     -10.281978      -279.7868
   7   2.0000     -10.269980      -279.4604
   8   2.0000     -10.194041      -277.3940
   9   2.0000      -1.413887       -38.4738
  10   2.0000      -1.148074       -31.2407
  11   2.0000      -1.014937       -27.6178
  12   2.0000      -0.902996       -24.5718
  13   2.0000      -0.834975       -22.7208
  14   2.0000      -0.796169       -21.6649
  15   2.0000      -0.757655       -20.6169
  16   2.0000      -0.717336       -19.5197
  17   2.0000      -0.664922       -18.0935
  18   2.0000      -0.651315       -17.7232
  19   2.0000      -0.629172       -17.1206
  20   2.0000      -0.602001       -16.3813
  21   2.0000      -0.581315       -15.8184
  22   2.0000      -0.558668       -15.2021
  23   2.0000      -0.542844       -14.7715
  24   2.0000      -0.520872       -14.1736
  25   2.0000      -0.500137       -13.6094
  26   2.0000      -0.473469       -12.8837
  27   2.0000      -0.467287       -12.7155
  28   2.0000      -0.456239       -12.4149
  29   2.0000      -0.449137       -12.2216
  30   2.0000      -0.428625       -11.6635
  31   2.0000      -0.405536       -11.0352
  32   2.0000      -0.402383       -10.9494
  33   2.0000      -0.381537       -10.3821
  34   2.0000      -0.248866        -6.7720
  35   0.0000       0.003153         0.0858
  36   0.0000       0.041212         1.1214
  37   0.0000       0.063668         1.7325
  38   0.0000       0.069381         1.8879
  39   0.0000       0.071761         1.9527

MULLIKEN ATOMIC CHARGES
-----------------------
   0 C :    0.532131
   1 C :    0.147709
   2 C :    0.324114
   3 H :   -0.224770
   4 H :    0.094257
   5 C :    0.673615
   6 C :   -0.089724
   7 C :    0.463811
   8 N :    0.782127
   9 H :   -0.254442
  10 H :   -0.475622
  11 H :   -0.231754
  12 H :   -0.512508
  13 H :   -0.020456
  14 H :   -0.228588
  15 O :   -0.369553
  16 F :   -0.452364
  17 H :   -0.058384
  18 H :   -0.099598
Sum of atomic charges:    0.0000000

LOEWDIN ATOMIC CHARGES
----------------------
   0 C :    0.021135
   1 C :    0.002945
   2 C :    0.059472
   3 H :    0.033333
   4 H :    0.025012
   5 C :    0.006732
   6 C :   -0.249041
   7 C :    0.179106
   8 N :    0.202402
   9 H :    0.020309
  10 H :   -0.100545
  11 H :   -0.087242
  12 H :   -0.091015
  13 H :    0.029383
  14 H :    0.032821
  15 O :   -0.087524
  16 F :   -0.046817
  17 H :    0.020582
  18 H :    0.028950

  Mayer bond orders larger than 0.100000
B(  0-C ,  1-C ) :   1.1347 B(  0-C ,  6-C ) :   1.1363 B(  0-C ,  8-N ) :   0.1145
B(  0-C , 13-H ) :   0.1161 B(  0-C , 14-H ) :   0.1626 B(  0-C , 17-H ) :   0.5993
B(  0-C , 18-H ) :   0.7978 B(  1-C ,  2-C ) :   1.2513 B(  1-C ,  3-H ) :   0.1969
B(  1-C ,  4-H ) :   0.1719 B(  1-C , 13-H ) :   0.8261 B(  1-C , 14-H ) :   0.9158
B(  1-C , 17-H ) :   0.1821 B(  1-C , 18-H ) :   0.1572 B(  2-C ,  3-H ) :   0.7859
B(  2-C ,  4-H ) :   0.8162 B(  2-C ,  5-C ) :   1.0463 B(  2-C , 13-H ) :   0.1320
B(  2-C , 16-F ) :   0.1350 B(  3-H ,  5-C ) :   0.1488 B(  5-C , 15-O ) :   1.8984
B(  5-C , 16-F ) :   0.5971 B(  6-C ,  7-C ) :   1.5503 B(  6-C ,  8-N ) :   1.1429
B(  6-C ,  9-H ) :  -0.1146 B(  6-C , 12-H ) :   0.1665 B(  6-C , 17-H ) :   0.2105
B(  6-C , 18-H ) :   0.1876 B(  7-C ,  8-N ) :   0.1963 B(  7-C , 11-H ) :   0.9620
B(  7-C , 12-H ) :   0.5858 B(  8-N ,  9-H ) :   1.2117 B(  8-N , 10-H ) :   0.9084
B(  9-H , 10-H ) :  -0.2125 B( 10-H , 16-F ) :   0.1295 B( 15-O , 16-F ) :   0.1244

FINAL SINGLE POINT ENERGY      -463.912501051795

DIPOLE MOMENT
-------------
                                X             Y             Z
Electronic contribution:      7.43629      -3.58200       8.01557
Nuclear contribution   :     -7.21688       3.18902      -8.52197
                        -----------------------------------------
Total Dipole Moment    :      0.21941      -0.39298      -0.50640
                        -----------------------------------------
Magnitude (a.u.)       :      0.67751
Magnitude (Debye)      :      1.72209

Rotational constants in cm-1:     0.103917     0.036987     0.030872
Rotational constants in MHz :  3115.342573  1108.839114   925.506342

                             ****ORCA TERMINATED NORMALLY****
TOTAL RUN TIME: 0 days 0 hours 1 minutes 26 seconds 363 msec
