                         Program Version 5.0.0 -  RELEASE  -
|  1> !LC-PBE RIJCOSX def2-SVPD def2/J TightSCF
|  2> *xyz -1 1
|  3> C          4.99986       -1.59613       -5.92488
|  4> C          3.76678       -2.26611       -6.51175
|  5> C          2.49670       -1.84416       -5.73570
|  6> H          1.62642       -2.21743       -6.30895
|  7> H          2.48182       -2.45607       -4.79341
|  8> O          2.45973       -0.50920       -5.50576
|  9> H          3.88619       -3.35708       -6.53360
| 10> H          3.68560       -1.92217       -7.54713
| 11> H          5.86637       -1.89999       -6.47418
| 12> H          5.10830       -1.88372       -4.89997
| 13> H          4.89230       -0.53341       -5.98765
| 14> *
| 15>
| 16> %MaxCore 64000
| 17>
| 18> %pal nprocs 4
| 19> end
| 20>
| 21> %scf
| 22>   MaxIter 150
| 23> end
| 24>
| 25>
| 26>                          ****END OF INPUT****

CARTESIAN COORDINATES (ANGSTROEM)
---------------------------------
  C      4.999860   -1.596130   -5.924880
  C      3.766780   -2.266110   -6.511750
  C      2.496700   -1.844160   -5.735700
  H      1.626420   -2.217430   -6.308950
  H      2.481820   -2.456070   -4.793410
  O      2.459730   -0.509200   -5.505760
  H      3.886190   -3.357080   -6.533600
  H      3.685600   -1.922170   -7.547130
  H      5.866370   -1.899990   -6.474180
  H      5.108300   -1.883720   -4.899970
  H      4.892300   -0.533410   -5.987650

 Total Charge           Charge          ....   -1
 Multiplicity           Mult            ....    1
 Number of Electrons    NEL             ....   34
 Basis Dimension        Dim             ....  139

ORBITAL ENERGIES
----------------

  NO   OCC          E(Eh)            E(eV)
   0   2.0000     -18.652798      -507.5684
   1   2.0000      -9.942231      -270.5419
   2   2.0000      -9.935166      -270.3496
   3   2.0000      -9.933192      -270.2959
   4   2.0000      -0.847153       -23.0522
   5   2.0000      -0.746239       -20.3062
   6   2.0000      -0.621379       -16.9086
   7   2.0000      -0.512291       -13.9401
   8   2.0000      -0.418841       -11.3972
   9   2.0000      -0.408638       -11.1196
  10   2.0000      -0.349023        -9.4974
  11   2.0000      -0.320225        -8.7138
  12   2.0000      -0.289834        -7.8868
  13   2.0000      -0.277034        -7.5385
  14   2.0000      -0.245890        -6.6910
  15   2.0000      -0.098516        -2.6807
  16   2.0000      -0.094511        -2.5718
  17   0.0000       0.233561         6.3555
  18   0.0000       0.256903         6.9907
  19   0.0000       0.275045         7.4844
  20   0.0000       0.305314         8.3080
  21   0.0000       0.326924         8.8960

MULLIKEN ATOMIC CHARGES
-----------------------
   0 C :    0.382841
   1 C :   -0.552245
   2 C :    0.224001
   3 H :   -0.106493
   4 H :   -0.033981
   5 O :   -0.833014
   6 H :   -0.055854
   7 H :    0.010510
   8 H :   -0.052830
   9 H :   -0.028531
  10 H :    0.045596
Sum of atomic charges:   -1.0000000

LOEWDIN ATOMIC CHARGES
----------------------
   0 C :    0.045122
   1 C :   -0.140255
   2 C :   -0.251428
   3 H :   -0.019518
   4 H :   -0.009468
   5 O :   -0.558611
   6 H :    0.003088
   7 H :    0.011131
   8 H :   -0.037521
   9 H :   -0.017480
  10 H :   -0.025059

  Mayer bond orders larger than 0.100000
B(  0-C ,  1-C ) :   1.2888 B(  0-C ,  8-H ) :   0.8482 B(  0-C ,  9-H ) :   0.8634
B(  0-C , 10-H ) :   0.8484 B(  1-C ,  2-C ) :   1.0406 B(  1-C ,  3-H ) :   0.1032
B(  1-C ,  6-H ) :   1.0255 B(  1-C ,  7-H ) :   0.9667 B(  1-C ,  8-H ) :   0.1583
B(  1-C ,  9-H ) :   0.1547 B(  1-C , 10-H ) :   0.1674 B(  2-C ,  3-H ) :   0.9896
B(  2-C ,  4-H ) :   0.9576 B(  2-C ,  5-O ) :   1.3208

FINAL SINGLE POINT ENERGY      -192.999303988932

DIPOLE MOMENT
-------------
                                X             Y             Z
Electronic contribution:     -1.96036       1.84269       0.50583
Nuclear contribution   :      3.33375      -3.25054      -1.09297
                        -----------------------------------------
Total Dipole Moment    :      1.37340      -1.40785      -0.58714
                        -----------------------------------------
Magnitude (a.u.)       :      2.05256
Magnitude (Debye)      :      5.21718

Rotational constants in cm-1:     0.478390     0.193336     0.154822
Rotational constants in MHz : 14341.777399  5796.063993  4641.443060

                             ****ORCA TERMINATED NORMALLY****
TOTAL RUN TIME: 0 days 0 hours 0 minutes 11 seconds 81 msec
