                         Program Version 5.0.0 -  RELEASE  -
|  1> !LC-PBE RIJCOSX def2-SVPD def2/J TightSCF
|  2> *xyz 1 1
|  3> C          4.99986       -1.59613       -5.92488
|  4> N          5.28156       -1.97413       -4.53576
|  5> C          3.76678       -2.26611       -6.51175
|  6> C          2.49670       -1.84416       -5.73570
|  7> C          4.79250       -1.36132       -3.45730
|  8> N          3.93990       -0.37492       -3.55736
|  9> N          5.25986       -1.75422       -2.23913
| 10> H          5.92282       -2.52145       -2.18672
| 11> H          4.65468       -1.64040       -1.44202
| 12> H          5.70914       -2.87560       -4.38702
| 13> H          3.33010       -0.31764       -4.36125
| 14> H          3.69849        0.11447       -2.70833
| 15> H          4.84333       -0.51793       -5.94302
| 16> H          5.90170       -1.82250       -6.49647
| 17> H          3.88619       -3.35708       -6.53360
| 18> H          3.68560       -1.92217       -7.54713
| 19> H          1.64155       -2.32499       -6.16281
| 20> H          2.37707       -0.78268       -5.79763
| 21> H          2.59306       -2.13299       -4.70994
| 22> *
| 23>
| 24> %MaxCore 64000
| 25>
| 26> %pal nprocs 4
| 27> end
| 28>
| 29> %scf
| 30>   MaxIter 150
| 31> end
| 32>
| 33>
| 34>                          ****END OF INPUT****

CARTESIAN COORDINATES (ANGSTROEM)
---------------------------------
  C      4.999860   -1.596130   -5.924880
  N      5.281560   -1.974130   -4.535760
  C      3.766780   -2.266110   -6.511750
  C      2.496700   -1.844160   -5.735700
  C      4.792500   -1.361320   -3.457300
  N      3.939900   -0.374920   -3.557360
  N      5.259860   -1.754220   -2.239130
  H      5.922820   -2.521450   -2.186720
  H      4.654680   -1.640400   -1.442020
  H      5.709140   -2.875600   -4.387020
  H      3.330100   -0.317640   -4.361250
  H      3.698490    0.114470   -2.708330
  H      4.843330   -0.517930   -5.943020
  H      5.901700   -1.822500   -6.496470
  H      3.886190   -3.357080   -6.533600
  H      3.685600   -1.922170   -7.547130
  H      1.641550   -2.324990   -6.162810
  H      2.377070   -0.782680   -5.797630
  H      2.593060   -2.132990   -4.709940

 Total Charge           Charge          ....    1
 Multiplicity           Mult            ....    1
 Number of Electrons    NEL             ....   56
 Basis Dimension        Dim             ....  236

ORBITAL ENERGIES
----------------

  NO   OCC          E(Eh)            E(eV)
   0   2.0000     -14.453926      -393.3113
   1   2.0000     -14.450639      -393.2219
   2   2.0000     -14.446412      -393.1068
   3   2.0000     -10.470138      -284.9069
   4   2.0000     -10.329473      -281.0792
   5   2.0000     -10.278165      -279.6831
   6   2.0000     -10.264640      -279.3151
   7   2.0000      -1.385977       -37.7144
   8   2.0000      -1.266899       -34.4741
   9   2.0000      -1.251511       -34.0553
  10   2.0000      -1.117940       -30.4207
  11   2.0000      -1.031572       -28.0705
  12   2.0000      -0.982257       -26.7286
  13   2.0000      -0.943430       -25.6720
  14   2.0000      -0.916783       -24.9469
  15   2.0000      -0.882997       -24.0276
  16   2.0000      -0.841322       -22.8935
  17   2.0000      -0.830742       -22.6056
  18   2.0000      -0.789922       -21.4949
  19   2.0000      -0.777758       -21.1639
  20   2.0000      -0.750494       -20.4220
  21   2.0000      -0.721131       -19.6230
  22   2.0000      -0.697084       -18.9686
  23   2.0000      -0.655265       -17.8307
  24   2.0000      -0.631550       -17.1854
  25   2.0000      -0.625888       -17.0313
  26   2.0000      -0.605548       -16.4778
  27   2.0000      -0.573688       -15.6108
  28   0.0000      -0.082836        -2.2541
  29   0.0000      -0.066121        -1.7993
  30   0.0000      -0.035397        -0.9632
  31   0.0000      -0.026626        -0.7245
  32   0.0000      -0.010566        -0.2875

MULLIKEN ATOMIC CHARGES
-----------------------
   0 C :    0.490987
   1 N :   -0.445804
   2 C :   -0.193618
   3 C :    0.290411
   4 C :    1.153744
   5 N :    0.158429
   6 N :   -0.156878
   7 H :    0.014376
   8 H :    0.029771
   9 H :   -0.173176
  10 H :   -0.328694
  11 H :   -0.025463
  12 H :    0.111060
  13 H :   -0.204312
  14 H :   -0.020866
  15 H :    0.117517
  16 H :   -0.211518
  17 H :    0.240048
  18 H :    0.153989
Sum of atomic charges:    1.0000000

LOEWDIN ATOMIC CHARGES
----------------------
   0 C :    0.049339
   1 N :    0.046748
   2 C :   -0.050107
   3 C :    0.105672
   4 C :   -0.036269
   5 N :    0.281317
   6 N :    0.244316
   7 H :    0.041496
   8 H :    0.036479
   9 H :    0.065828
  10 H :   -0.027924
  11 H :    0.058104
  12 H :    0.044128
  13 H :    0.052275
  14 H :    0.045050
  15 H :    0.050063
  16 H :    0.013091
  17 H :   -0.001766
  18 H :   -0.017840

  Mayer bond orders larger than 0.100000
B(  0-C ,  1-N ) :   0.9603 B(  0-C ,  2-C ) :   1.1079 B(  0-C ,  9-H ) :  -0.1810
B(  0-C , 12-H ) :   0.7749 B(  0-C , 13-H ) :   1.0159 B(  0-C , 14-H ) :   0.1051
B(  1-N ,  4-C ) :   1.0414 B(  1-N ,  5-N ) :   0.1539 B(  1-N ,  6-N ) :   0.1952
B(  1-N ,  9-H ) :   1.3033 B(  1-N , 12-H ) :   0.1533 B(  1-N , 13-H ) :   0.1035
B(  2-C ,  3-C ) :   1.2671 B(  2-C , 14-H ) :   0.9928 B(  2-C , 15-H ) :   0.8961
B(  2-C , 16-H ) :   0.1418 B(  2-C , 18-H ) :   0.1189 B(  3-C , 10-H ) :   0.1696
B(  3-C , 16-H ) :   1.0484 B(  3-C , 17-H ) :   0.7081 B(  3-C , 18-H ) :   0.8263
B(  4-C ,  5-N ) :   1.0894 B(  4-C ,  6-N ) :   0.8405 B(  4-C ,  9-H ) :  -0.2106
B(  4-C , 10-H ) :  -0.1047 B(  4-C , 11-H ) :  -0.1119 B(  5-N ,  6-N ) :   0.1519
B(  5-N , 10-H ) :   1.1592 B(  5-N , 11-H ) :   1.1974 B(  6-N ,  7-H ) :   1.0796
B(  6-N ,  8-H ) :   1.1260 B(  7-H ,  8-H ) :  -0.1287 B( 10-H , 11-H ) :  -0.2021
B( 10-H , 17-H ) :   0.1614 B( 12-H , 13-H ) :  -0.1080

FINAL SINGLE POINT ENERGY      -322.461354568248

DIPOLE MOMENT
-------------
                                X             Y             Z
Electronic contribution:      3.86386       0.79582       4.84827
Nuclear contribution   :     -3.69451      -0.93313      -3.60402
                        -----------------------------------------
Total Dipole Moment    :      0.16935      -0.13731       1.24425
                        -----------------------------------------
Magnitude (a.u.)       :      1.26320
Magnitude (Debye)      :      3.21081

Rotational constants in cm-1:     0.152547     0.057272     0.048491
Rotational constants in MHz :  4573.230603  1716.968614  1453.721796

                             ****ORCA TERMINATED NORMALLY****
TOTAL RUN TIME: 0 days 0 hours 0 minutes 37 seconds 63 msec
