                         Program Version 5.0.0 -  RELEASE  -
|  1> !LC-PBE RIJCOSX def2-SVPD def2/J TightSCF
|  2> *xyz 0 1
|  3> C          4.99986       -1.59613       -5.92488
|  4> C          3.76678       -2.26611       -6.51175
|  5> C          2.49670       -1.84416       -5.73570
|  6> H          1.62642       -2.21743       -6.30895
|  7> H          2.48182       -2.45607       -4.79341
|  8> F          2.45973       -0.50920       -5.50576
|  9> H          3.88619       -3.35708       -6.53360
| 10> H          3.68560       -1.92217       -7.54713
| 11> H          5.86637       -1.89999       -6.47418
| 12> H          5.10830       -1.88372       -4.89997
| 13> H          4.89230       -0.53341       -5.98765
| 14> *
| 15>
| 16> %MaxCore 64000
| 17>
| 18> %pal nprocs 4
| 19> end
| 20>
| 21> %scf
| 22>   MaxIter 150
| 23> end
| 24>
| 25>
| 26>                          ****END OF INPUT****

CARTESIAN COORDINATES (ANGSTROEM)
---------------------------------
  C      4.999860   -1.596130   -5.924880
  C      3.766780   -2.266110   -6.511750
  C      2.496700   -1.844160   -5.735700
  H      1.626420   -2.217430   -6.308950
  H      2.481820   -2.456070   -4.793410
  F      2.459730   -0.509200   -5.505760
  H      3.886190   -3.357080   -6.533600
  H      3.685600   -1.922170   -7.547130
  H      5.866370   -1.899990   -6.474180
  H      5.108300   -1.883720   -4.899970
  H      4.892300   -0.533410   -5.987650

 Total Charge           Charge          ....    0
 Multiplicity           Mult            ....    1
 Number of Electrons    NEL             ....   34
 Basis Dimension        Dim             ....  139

ORBITAL ENERGIES
----------------

  NO   OCC          E(Eh)            E(eV)
   0   2.0000     -24.499178      -666.6565
   1   2.0000     -10.207839      -277.7694
   2   2.0000     -10.133521      -275.7471
   3   2.0000     -10.110027      -275.1078
   4   2.0000      -1.349557       -36.7233
   5   2.0000      -0.961564       -26.1655
   6   2.0000      -0.852072       -23.1861
   7   2.0000      -0.750698       -20.4275
   8   2.0000      -0.664768       -18.0893
   9   2.0000      -0.651263       -17.7218
  10   2.0000      -0.627437       -17.0734
  11   2.0000      -0.581366       -15.8198
  12   2.0000      -0.537214       -14.6183
  13   2.0000      -0.510030       -13.8786
  14   2.0000      -0.486698       -13.2437
  15   2.0000      -0.456996       -12.4355
  16   2.0000      -0.451285       -12.2801
  17   0.0000       0.091284         2.4840
  18   0.0000       0.115445         3.1414
  19   0.0000       0.125388         3.4120
  20   0.0000       0.147499         4.0137
  21   0.0000       0.170762         4.6467

MULLIKEN ATOMIC CHARGES
-----------------------
   0 C :    0.356476
   1 C :   -0.582368
   2 C :    0.493863
   3 H :    0.000609
   4 H :    0.071769
   5 F :   -0.405409
   6 H :   -0.007981
   7 H :    0.035655
   8 H :   -0.013157
   9 H :   -0.002523
  10 H :    0.053065
Sum of atomic charges:    0.0000000

LOEWDIN ATOMIC CHARGES
----------------------
   0 C :    0.080126
   1 C :   -0.091372
   2 C :    0.062630
   3 H :    0.039908
   4 H :    0.052042
   5 F :   -0.197040
   6 H :    0.038726
   7 H :    0.031891
   8 H :   -0.007144
   9 H :   -0.002962
  10 H :   -0.006805

  Mayer bond orders larger than 0.100000
B(  0-C ,  1-C ) :   1.3013 B(  0-C ,  8-H ) :   0.8773 B(  0-C ,  9-H ) :   0.8697
B(  0-C , 10-H ) :   0.8560 B(  1-C ,  2-C ) :   1.1566 B(  1-C ,  6-H ) :   1.0095
B(  1-C ,  7-H ) :   0.9694 B(  1-C ,  8-H ) :   0.1450 B(  1-C ,  9-H ) :   0.1382
B(  1-C , 10-H ) :   0.1361 B(  2-C ,  3-H ) :   0.9609 B(  2-C ,  4-H ) :   0.9200
B(  2-C ,  5-F ) :   0.8094

FINAL SINGLE POINT ENERGY      -217.584904048996

DIPOLE MOMENT
-------------
                                X             Y             Z
Electronic contribution:     -4.39633       3.81417       1.41193
Nuclear contribution   :      4.50596      -4.50325      -1.58424
                        -----------------------------------------
Total Dipole Moment    :      0.10963      -0.68908      -0.17231
                        -----------------------------------------
Magnitude (a.u.)       :      0.71871
Magnitude (Debye)      :      1.82681

Rotational constants in cm-1:     0.464063     0.182606     0.146573
Rotational constants in MHz : 13912.251583  5474.398056  4394.141907

                             ****ORCA TERMINATED NORMALLY****
TOTAL RUN TIME: 0 days 0 hours 0 minutes 9 seconds 769 msec
