                         Program Version 5.0.0 -  RELEASE  -
|  1> !LC-PBE RIJCOSX def2-SVPD def2/J TightSCF
|  2> *xyz 0 1
|  3> C          4.99986       -1.59613       -5.92488
|  4> C          5.28156       -1.97413       -4.53576
|  5> C          3.76678       -2.26611       -6.51175
|  6> C          2.49670       -1.84416       -5.73570
|  7> C          4.79250       -1.36132       -3.45730
|  8> N          3.93990       -0.37492       -3.55736
|  9> N          5.25986       -1.75422       -2.23913
| 10> H          5.92282       -2.52145       -2.18672
| 11> H          4.65468       -1.64040       -1.44202
| 12> H          5.70914       -2.87560       -4.38702
| 13> H          3.33010       -0.31764       -4.36125
| 14> H          3.69849        0.11447       -2.70833
| 15> H          4.84333       -0.51793       -5.94302
| 16> H          5.90170       -1.82250       -6.49647
| 17> H          3.88619       -3.35708       -6.53360
| 18> H          3.68560       -1.92217       -7.54713
| 19> H          1.64155       -2.32499       -6.16281
| 20> H          2.37707       -0.78268       -5.79763
| 21> H          2.59306       -2.13299       -4.70994
| 22> *
| 23>
| 24> %MaxCore 64000
| 25>
| 26> %pal nprocs 4
| 27> end
| 28>
| 29> %scf
| 30>   MaxIter 150
| 31> end
| 32>
| 33>
| 34>                          ****END OF INPUT****

CARTESIAN COORDINATES (ANGSTROEM)
---------------------------------
  C      4.999860   -1.596130   -5.924880
  C      5.281560   -1.974130   -4.535760
  C      3.766780   -2.266110   -6.511750
  C      2.496700   -1.844160   -5.735700
  C      4.792500   -1.361320   -3.457300
  N      3.939900   -0.374920   -3.557360
  N      5.259860   -1.754220   -2.239130
  H      5.922820   -2.521450   -2.186720
  H      4.654680   -1.640400   -1.442020
  H      5.709140   -2.875600   -4.387020
  H      3.330100   -0.317640   -4.361250
  H      3.698490    0.114470   -2.708330
  H      4.843330   -0.517930   -5.943020
  H      5.901700   -1.822500   -6.496470
  H      3.886190   -3.357080   -6.533600
  H      3.685600   -1.922170   -7.547130
  H      1.641550   -2.324990   -6.162810
  H      2.377070   -0.782680   -5.797630
  H      2.593060   -2.132990   -4.709940

 Total Charge           Charge          ....    0
 Multiplicity           Mult            ....    1
 Number of Electrons    NEL             ....   56
 Basis Dimension        Dim             ....  236

ORBITAL ENERGIES
----------------

  NO   OCC          E(Eh)            E(eV)
   0   2.0000     -14.228109      -387.1665
   1   2.0000     -14.224885      -387.0788
   2   2.0000     -10.174734      -276.8686
   3   2.0000     -10.111299      -275.1424
   4   2.0000     -10.107938      -275.0510
   5   2.0000     -10.099270      -274.8151
   6   2.0000     -10.052061      -273.5305
   7   2.0000      -1.131155       -30.7803
   8   2.0000      -1.030514       -28.0417
   9   2.0000      -0.963231       -26.2108
  10   2.0000      -0.889681       -24.2094
  11   2.0000      -0.820488       -22.3266
  12   2.0000      -0.759965       -20.6797
  13   2.0000      -0.713562       -19.4170
  14   2.0000      -0.692905       -18.8549
  15   2.0000      -0.654783       -17.8175
  16   2.0000      -0.622361       -16.9353
  17   2.0000      -0.592313       -16.1177
  18   2.0000      -0.580200       -15.7880
  19   2.0000      -0.560102       -15.2412
  20   2.0000      -0.531642       -14.4667
  21   2.0000      -0.509795       -13.8722
  22   2.0000      -0.489278       -13.3139
  23   2.0000      -0.466458       -12.6930
  24   2.0000      -0.447763       -12.1843
  25   2.0000      -0.442590       -12.0435
  26   2.0000      -0.396892       -10.8000
  27   2.0000      -0.279019        -7.5925
  28   0.0000       0.091058         2.4778
  29   0.0000       0.110872         3.0170
  30   0.0000       0.117833         3.2064
  31   0.0000       0.131247         3.5714
  32   0.0000       0.138786         3.7766

MULLIKEN ATOMIC CHARGES
-----------------------
   0 C :    0.001931
   1 C :   -0.289752
   2 C :   -0.202231
   3 C :    0.311417
   4 C :    0.761291
   5 N :    0.237273
   6 N :   -0.167583
   7 H :    0.005505
   8 H :   -0.044348
   9 H :   -0.249743
  10 H :   -0.366248
  11 H :   -0.150540
  12 H :    0.105149
  13 H :   -0.075659
  14 H :   -0.055988
  15 H :    0.035135
  16 H :   -0.217154
  17 H :    0.229349
  18 H :    0.132197
Sum of atomic charges:    0.0000000

LOEWDIN ATOMIC CHARGES
----------------------
   0 C :   -0.089479
   1 C :   -0.039312
   2 C :   -0.079924
   3 C :    0.088920
   4 C :   -0.230593
   5 N :    0.197616
   6 N :    0.163733
   7 H :    0.009514
   8 H :   -0.010853
   9 H :   -0.040024
  10 H :   -0.052979
  11 H :    0.012651
  12 H :    0.023930
  13 H :    0.026337
  14 H :    0.033811
  15 H :    0.025164
  16 H :   -0.008543
  17 H :   -0.011836
  18 H :   -0.018134

  Mayer bond orders larger than 0.100000
B(  0-C ,  1-C ) :   1.1752 B(  0-C ,  2-C ) :   1.1323 B(  0-C ,  9-H ) :   0.2081
B(  0-C , 12-H ) :   0.8055 B(  0-C , 13-H ) :   0.9446 B(  0-C , 14-H ) :   0.1391
B(  0-C , 15-H ) :   0.1043 B(  1-C ,  4-C ) :   1.6676 B(  1-C ,  5-N ) :   0.2487
B(  1-C ,  6-N ) :   0.2934 B(  1-C ,  9-H ) :   0.9354 B(  1-C , 12-H ) :   0.2073
B(  1-C , 13-H ) :   0.1315 B(  2-C ,  3-C ) :   1.2805 B(  2-C , 14-H ) :   0.9914
B(  2-C , 15-H ) :   0.8996 B(  2-C , 16-H ) :   0.1600 B(  2-C , 17-H ) :   0.1082
B(  2-C , 18-H ) :   0.1465 B(  3-C , 10-H ) :   0.1546 B(  3-C , 16-H ) :   0.9949
B(  3-C , 17-H ) :   0.7159 B(  3-C , 18-H ) :   0.8192 B(  4-C ,  5-N ) :   1.0045
B(  4-C ,  6-N ) :   0.7708 B(  4-C , 11-H ) :  -0.1232 B(  4-C , 12-H ) :  -0.1050
B(  5-N , 10-H ) :   1.1214 B(  5-N , 11-H ) :   1.2382 B(  6-N ,  7-H ) :   1.0975
B(  6-N ,  8-H ) :   1.1177 B(  7-H ,  8-H ) :  -0.1202 B( 10-H , 11-H ) :  -0.1881
B( 10-H , 17-H ) :   0.1578

FINAL SINGLE POINT ENERGY      -306.010940931754

DIPOLE MOMENT
-------------
                                X             Y             Z
Electronic contribution:      2.87153       1.02285       4.30129
Nuclear contribution   :     -3.49027      -1.01686      -3.60427
                        -----------------------------------------
Total Dipole Moment    :     -0.61874       0.00598       0.69702
                        -----------------------------------------
Magnitude (a.u.)       :      0.93205
Magnitude (Debye)      :      2.36908

Rotational constants in cm-1:     0.155200     0.057307     0.048781
Rotational constants in MHz :  4652.781345  1718.017305  1462.410307

                             ****ORCA TERMINATED NORMALLY****
TOTAL RUN TIME: 0 days 0 hours 0 minutes 39 seconds 576 msec
