                         Program Version 5.0.0 -  RELEASE  -
|  1> !LC-PBE RIJCOSX def2-SVPD def2/J TightSCF
|  2> *xyz 0 1
|  3> C          4.99986       -1.59613       -5.92488
|  4> N          5.28156       -1.97413       -4.53576
|  5> C          3.76678       -2.26611       -6.51175
|  6> C          2.49670       -1.84416       -5.73570
|  7> C          4.79250       -1.36132       -3.45730
|  8> C          3.93990       -0.37492       -3.55736
|  9> N          5.25986       -1.75422       -2.23913
| 10> H          5.92282       -2.52145       -2.18672
| 11> H          4.65468       -1.64040       -1.44202
| 12> H          5.70914       -2.87560       -4.38702
| 13> H          3.33010       -0.31764       -4.36125
| 14> H          3.69849        0.11447       -2.70833
| 15> H          4.84333       -0.51793       -5.94302
| 16> H          5.90170       -1.82250       -6.49647
| 17> H          3.88619       -3.35708       -6.53360
| 18> H          3.68560       -1.92217       -7.54713
| 19> H          1.64155       -2.32499       -6.16281
| 20> H          2.37707       -0.78268       -5.79763
| 21> H          2.59306       -2.13299       -4.70994
| 22> *
| 23>
| 24> %MaxCore 64000
| 25>
| 26> %pal nprocs 4
| 27> end
| 28>
| 29> %scf
| 30>   MaxIter 150
| 31> end
| 32>
| 33>
| 34>                          ****END OF INPUT****

CARTESIAN COORDINATES (ANGSTROEM)
---------------------------------
  C      4.999860   -1.596130   -5.924880
  N      5.281560   -1.974130   -4.535760
  C      3.766780   -2.266110   -6.511750
  C      2.496700   -1.844160   -5.735700
  C      4.792500   -1.361320   -3.457300
  C      3.939900   -0.374920   -3.557360
  N      5.259860   -1.754220   -2.239130
  H      5.922820   -2.521450   -2.186720
  H      4.654680   -1.640400   -1.442020
  H      5.709140   -2.875600   -4.387020
  H      3.330100   -0.317640   -4.361250
  H      3.698490    0.114470   -2.708330
  H      4.843330   -0.517930   -5.943020
  H      5.901700   -1.822500   -6.496470
  H      3.886190   -3.357080   -6.533600
  H      3.685600   -1.922170   -7.547130
  H      1.641550   -2.324990   -6.162810
  H      2.377070   -0.782680   -5.797630
  H      2.593060   -2.132990   -4.709940

 Total Charge           Charge          ....    0
 Multiplicity           Mult            ....    1
 Number of Electrons    NEL             ....   56
 Basis Dimension        Dim             ....  236

ORBITAL ENERGIES
----------------

  NO   OCC          E(Eh)            E(eV)
   0   2.0000     -14.232418      -387.2838
   1   2.0000     -14.226260      -387.1162
   2   2.0000     -10.177052      -276.9317
   3   2.0000     -10.155940      -276.3572
   4   2.0000     -10.124977      -275.5146
   5   2.0000     -10.103127      -274.9201
   6   2.0000     -10.037021      -273.1212
   7   2.0000      -1.133681       -30.8490
   8   2.0000      -1.044030       -28.4095
   9   2.0000      -0.946646       -25.7595
  10   2.0000      -0.889224       -24.1970
  11   2.0000      -0.842863       -22.9355
  12   2.0000      -0.762802       -20.7569
  13   2.0000      -0.713326       -19.4106
  14   2.0000      -0.687488       -18.7075
  15   2.0000      -0.659310       -17.9407
  16   2.0000      -0.610922       -16.6240
  17   2.0000      -0.606570       -16.5056
  18   2.0000      -0.574631       -15.6365
  19   2.0000      -0.543097       -14.7784
  20   2.0000      -0.529079       -14.3970
  21   2.0000      -0.516320       -14.0498
  22   2.0000      -0.511070       -13.9069
  23   2.0000      -0.474307       -12.9066
  24   2.0000      -0.470779       -12.8106
  25   2.0000      -0.456661       -12.4264
  26   2.0000      -0.380691       -10.3591
  27   2.0000      -0.291039        -7.9196
  28   0.0000       0.088643         2.4121
  29   0.0000       0.109736         2.9861
  30   0.0000       0.112268         3.0550
  31   0.0000       0.123930         3.3723
  32   0.0000       0.141609         3.8534

MULLIKEN ATOMIC CHARGES
-----------------------
   0 C :    0.483080
   1 N :   -0.467115
   2 C :   -0.221102
   3 C :    0.178493
   4 C :    0.686602
   5 C :    0.557890
   6 N :   -0.065216
   7 H :   -0.062480
   8 H :    0.031602
   9 H :   -0.271194
  10 H :   -0.858629
  11 H :   -0.318439
  12 H :    0.167246
  13 H :   -0.244413
  14 H :   -0.048380
  15 H :    0.060643
  16 H :   -0.280367
  17 H :    0.420712
  18 H :    0.251069
Sum of atomic charges:   -0.0000000

LOEWDIN ATOMIC CHARGES
----------------------
   0 C :    0.024058
   1 N :   -0.020210
   2 C :   -0.073267
   3 C :    0.090762
   4 C :   -0.233170
   5 C :    0.135388
   6 N :    0.168852
   7 H :   -0.004262
   8 H :    0.004658
   9 H :    0.028083
  10 H :   -0.135355
  11 H :   -0.073245
  12 H :    0.035844
  13 H :    0.029097
  14 H :    0.029108
  15 H :    0.029161
  16 H :   -0.010383
  17 H :   -0.007956
  18 H :   -0.017162

  Mayer bond orders larger than 0.100000
B(  0-C ,  1-N ) :   0.9768 B(  0-C ,  2-C ) :   1.0875 B(  0-C ,  9-H ) :  -0.1743
B(  0-C , 12-H ) :   0.7506 B(  0-C , 13-H ) :   1.0262 B(  0-C , 14-H ) :   0.1002
B(  1-N ,  4-C ) :   0.9259 B(  1-N ,  5-C ) :   0.2976 B(  1-N ,  6-N ) :   0.1428
B(  1-N ,  9-H ) :   1.3772 B(  1-N , 12-H ) :   0.1366 B(  1-N , 13-H ) :   0.1028
B(  2-C ,  3-C ) :   1.2841 B(  2-C , 12-H ) :   0.1106 B(  2-C , 14-H ) :   0.9950
B(  2-C , 15-H ) :   0.9079 B(  2-C , 16-H ) :   0.1470 B(  2-C , 18-H ) :   0.1157
B(  3-C , 10-H ) :   0.3277 B(  3-C , 16-H ) :   1.0589 B(  3-C , 17-H ) :   0.6153
B(  3-C , 18-H ) :   0.8114 B(  4-C ,  5-C ) :   1.8391 B(  4-C ,  6-N ) :   0.8514
B(  4-C ,  9-H ) :  -0.2418 B(  4-C , 11-H ) :   0.3310 B(  5-C ,  6-N ) :   0.2948
B(  5-C , 10-H ) :   0.5045 B(  5-C , 11-H ) :   0.6829 B(  6-N ,  7-H ) :   1.0403
B(  6-N ,  8-H ) :   1.0671 B(  6-N , 11-H ) :   0.1412 B(  7-H ,  8-H ) :  -0.1259
B( 10-H , 17-H ) :   0.1389 B( 12-H , 13-H ) :  -0.1169 B( 16-H , 17-H ) :  -0.1259

FINAL SINGLE POINT ENERGY      -305.996752090365

DIPOLE MOMENT
-------------
                                X             Y             Z
Electronic contribution:      4.03740      -0.37442       3.35538
Nuclear contribution   :     -3.78417      -0.66655      -3.38995
                        -----------------------------------------
Total Dipole Moment    :      0.25323      -1.04097      -0.03457
                        -----------------------------------------
Magnitude (a.u.)       :      1.07189
Magnitude (Debye)      :      2.72452

Rotational constants in cm-1:     0.157710     0.057795     0.049101
Rotational constants in MHz :  4728.033540  1732.635996  1472.015132

                             ****ORCA TERMINATED NORMALLY****
TOTAL RUN TIME: 0 days 0 hours 0 minutes 40 seconds 320 msec
