                         Program Version 5.0.0 -  RELEASE  -
|  1> !LC-PBE RIJCOSX def2-SVPD def2/J TightSCF
|  2> *xyz 0 1
|  3> C          4.99986       -1.59613       -5.92488
|  4> N          5.28156       -1.97413       -4.53576
|  5> C          3.76678       -2.26611       -6.51175
|  6> C          2.49670       -1.84416       -5.73570
|  7> C          4.79250       -1.36132       -3.45730
|  8> N          3.93990       -0.37492       -3.55736
|  9> C          5.25986       -1.75422       -2.23913
| 10> H          5.92282       -2.52145       -2.18672
| 11> H          4.65468       -1.64040       -1.44202
| 12> H          5.70914       -2.87560       -4.38702
| 13> H          3.33010       -0.31764       -4.36125
| 14> H          3.69849        0.11447       -2.70833
| 15> H          4.84333       -0.51793       -5.94302
| 16> H          5.90170       -1.82250       -6.49647
| 17> H          3.88619       -3.35708       -6.53360
| 18> H          3.68560       -1.92217       -7.54713
| 19> H          1.64155       -2.32499       -6.16281
| 20> H          2.37707       -0.78268       -5.79763
| 21> H          2.59306       -2.13299       -4.70994
| 22> *
| 23>
| 24> %MaxCore 64000
| 25>
| 26> %pal nprocs 4
| 27> end
| 28>
| 29> %scf
| 30>   MaxIter 150
| 31> end
| 32>
| 33>
| 34>                          ****END OF INPUT****

CARTESIAN COORDINATES (ANGSTROEM)
---------------------------------
  C      4.999860   -1.596130   -5.924880
  N      5.281560   -1.974130   -4.535760
  C      3.766780   -2.266110   -6.511750
  C      2.496700   -1.844160   -5.735700
  C      4.792500   -1.361320   -3.457300
  N      3.939900   -0.374920   -3.557360
  C      5.259860   -1.754220   -2.239130
  H      5.922820   -2.521450   -2.186720
  H      4.654680   -1.640400   -1.442020
  H      5.709140   -2.875600   -4.387020
  H      3.330100   -0.317640   -4.361250
  H      3.698490    0.114470   -2.708330
  H      4.843330   -0.517930   -5.943020
  H      5.901700   -1.822500   -6.496470
  H      3.886190   -3.357080   -6.533600
  H      3.685600   -1.922170   -7.547130
  H      1.641550   -2.324990   -6.162810
  H      2.377070   -0.782680   -5.797630
  H      2.593060   -2.132990   -4.709940

 Total Charge           Charge          ....    0
 Multiplicity           Mult            ....    1
 Number of Electrons    NEL             ....   56
 Basis Dimension        Dim             ....  236

ORBITAL ENERGIES
----------------

  NO   OCC          E(Eh)            E(eV)
   0   2.0000     -14.232001      -387.2724
   1   2.0000     -14.228493      -387.1770
   2   2.0000     -10.181839      -277.0619
   3   2.0000     -10.165391      -276.6144
   4   2.0000     -10.137193      -275.8470
   5   2.0000     -10.126371      -275.5526
   6   2.0000     -10.032765      -273.0054
   7   2.0000      -1.143284       -31.1103
   8   2.0000      -1.051737       -28.6192
   9   2.0000      -0.968950       -26.3665
  10   2.0000      -0.883668       -24.0458
  11   2.0000      -0.837786       -22.7973
  12   2.0000      -0.759631       -20.6706
  13   2.0000      -0.753983       -20.5169
  14   2.0000      -0.696480       -18.9522
  15   2.0000      -0.650481       -17.7005
  16   2.0000      -0.623140       -16.9565
  17   2.0000      -0.608668       -16.5627
  18   2.0000      -0.596795       -16.2396
  19   2.0000      -0.543573       -14.7914
  20   2.0000      -0.538124       -14.6431
  21   2.0000      -0.522514       -14.2183
  22   2.0000      -0.508340       -13.8326
  23   2.0000      -0.486248       -13.2315
  24   2.0000      -0.480465       -13.0741
  25   2.0000      -0.476047       -12.9539
  26   2.0000      -0.385095       -10.4790
  27   2.0000      -0.275842        -7.5060
  28   0.0000       0.084830         2.3083
  29   0.0000       0.104094         2.8325
  30   0.0000       0.115171         3.1340
  31   0.0000       0.118889         3.2351
  32   0.0000       0.142710         3.8833

MULLIKEN ATOMIC CHARGES
-----------------------
   0 C :    0.495437
   1 N :   -0.269432
   2 C :   -0.192177
   3 C :    0.274512
   4 C :    0.270452
   5 N :    0.309657
   6 C :    0.239805
   7 H :   -0.224515
   8 H :   -0.218033
   9 H :   -0.245551
  10 H :   -0.430108
  11 H :   -0.033048
  12 H :    0.078079
  13 H :   -0.271949
  14 H :   -0.040866
  15 H :    0.076219
  16 H :   -0.246827
  17 H :    0.229205
  18 H :    0.199138
Sum of atomic charges:   -0.0000000

LOEWDIN ATOMIC CHARGES
----------------------
   0 C :    0.019078
   1 N :   -0.009207
   2 C :   -0.074136
   3 C :    0.093217
   4 C :   -0.243713
   5 N :    0.198599
   6 C :    0.108918
   7 H :   -0.097738
   8 H :   -0.102439
   9 H :    0.041792
  10 H :   -0.059838
  11 H :    0.027934
  12 H :    0.030034
  13 H :    0.030346
  14 H :    0.033699
  15 H :    0.030746
  16 H :   -0.004972
  17 H :   -0.009829
  18 H :   -0.012492

  Mayer bond orders larger than 0.100000
B(  0-C ,  1-N ) :   0.9878 B(  0-C ,  2-C ) :   1.0901 B(  0-C ,  9-H ) :  -0.2020
B(  0-C , 12-H ) :   0.7901 B(  0-C , 13-H ) :   1.0218 B(  0-C , 14-H ) :   0.1167
B(  1-N ,  4-C ) :   1.1046 B(  1-N ,  5-N ) :   0.1054 B(  1-N ,  6-C ) :   0.2068
B(  1-N ,  9-H ) :   1.2324 B(  1-N , 12-H ) :   0.1596 B(  1-N , 13-H ) :   0.1060
B(  2-C ,  3-C ) :   1.2659 B(  2-C , 14-H ) :   0.9860 B(  2-C , 15-H ) :   0.8983
B(  2-C , 16-H ) :   0.1449 B(  2-C , 17-H ) :   0.1021 B(  2-C , 18-H ) :   0.1272
B(  3-C , 10-H ) :   0.1558 B(  3-C , 16-H ) :   1.0281 B(  3-C , 17-H ) :   0.7176
B(  3-C , 18-H ) :   0.8172 B(  4-C ,  5-N ) :   1.1017 B(  4-C ,  6-C ) :   1.8480
B(  4-C ,  7-H ) :   0.1566 B(  4-C ,  8-H ) :   0.1692 B(  4-C ,  9-H ) :  -0.1650
B(  5-N ,  6-C ) :   0.1444 B(  5-N , 10-H ) :   1.0762 B(  5-N , 11-H ) :   1.1770
B(  6-C ,  7-H ) :   0.7861 B(  6-C ,  8-H ) :   0.8420 B(  7-H ,  8-H ) :   0.1667
B( 10-H , 11-H ) :  -0.1906 B( 10-H , 17-H ) :   0.1479 B( 12-H , 13-H ) :  -0.1169

FINAL SINGLE POINT ENERGY      -305.994994537227

DIPOLE MOMENT
-------------
                                X             Y             Z
Electronic contribution:      2.72685       0.91045       1.90193
Nuclear contribution   :     -3.49502      -0.96869      -3.10119
                        -----------------------------------------
Total Dipole Moment    :     -0.76817      -0.05824      -1.19925
                        -----------------------------------------
Magnitude (a.u.)       :      1.42537
Magnitude (Debye)      :      3.62301

Rotational constants in cm-1:     0.153385     0.059790     0.050215
Rotational constants in MHz :  4598.376479  1792.462869  1505.410199

                             ****ORCA TERMINATED NORMALLY****
TOTAL RUN TIME: 0 days 0 hours 0 minutes 39 seconds 573 msec
