                         Program Version 5.0.0 -  RELEASE  -
|  1> !M062X D3Zero RIJCOSX def2-TZVPD def2/J TightSCF
|  2>
|  3> *xyz -1 1
|  4> C          2.95263        1.86308       -3.57485
|  5> C          4.12921        0.89839       -3.41895
|  6> H          3.73369       -0.10060       -3.23763
|  7> H          4.71910        0.86256       -4.33901
|  8> C          5.01734        1.31521       -2.22130
|  9> O          4.73706        0.85411       -1.12283
| 10> O          5.92815        2.16811       -2.49136
| 11> H          2.35067        1.56005       -4.40594
| 12> H          3.32277        2.85258       -3.74453
| 13> H          2.36134        1.85149       -2.68315
| 14> *
| 15> %MaxCore 64000
| 16>
| 17> %pal nprocs 4
| 18> end
| 19>
| 20> %scf
| 21>   MaxIter 150
| 22> end
| 23>
| 24>
| 25>                          ****END OF INPUT****

CARTESIAN COORDINATES (ANGSTROEM)
---------------------------------
  C      2.952630    1.863080   -3.574850
  C      4.129210    0.898390   -3.418950
  H      3.733690   -0.100600   -3.237630
  H      4.719100    0.862560   -4.339010
  C      5.017340    1.315210   -2.221300
  O      4.737060    0.854110   -1.122830
  O      5.928150    2.168110   -2.491360
  H      2.350670    1.560050   -4.405940
  H      3.322770    2.852580   -3.744530
  H      2.361340    1.851490   -2.683150

 Total Charge           Charge          ....   -1
 Multiplicity           Mult            ....    1
 Number of Electrons    NEL             ....   40
 Basis Dimension        Dim             ....  236

ORBITAL ENERGIES
----------------

  NO   OCC          E(Eh)            E(eV)
   0   2.0000     -19.366792      -526.9972
   1   2.0000     -19.355769      -526.6972
   2   2.0000     -10.421520      -283.5840
   3   2.0000     -10.370474      -282.1949
   4   2.0000     -10.356736      -281.8211
   5   2.0000      -0.949287       -25.8314
   6   2.0000      -0.846481       -23.0339
   7   2.0000      -0.701765       -19.0960
   8   2.0000      -0.557182       -15.1617
   9   2.0000      -0.400025       -10.8852
  10   2.0000      -0.360205        -9.8017
  11   2.0000      -0.338486        -9.2107
  12   2.0000      -0.301878        -8.2145
  13   2.0000      -0.286180        -7.7873
  14   2.0000      -0.280735        -7.6392
  15   2.0000      -0.243844        -6.6353
  16   2.0000      -0.235787        -6.4161
  17   2.0000      -0.114939        -3.1277
  18   2.0000      -0.110652        -3.0110
  19   2.0000      -0.104066        -2.8318
  20   0.0000       0.142311         3.8725
  21   0.0000       0.164760         4.4834
  22   0.0000       0.171823         4.6755
  23   0.0000       0.182904         4.9771
  24   0.0000       0.215727         5.8702

MULLIKEN ATOMIC CHARGES
-----------------------
   0 C :   -1.131057
   1 C :   -0.343530
   2 H :    0.271260
   3 H :    0.277177
   4 C :    0.626786
   5 O :   -0.749372
   6 O :   -0.814706
   7 H :    0.269558
   8 H :    0.295255
   9 H :    0.298630
Sum of atomic charges:   -1.0000000

LOEWDIN ATOMIC CHARGES
----------------------
   0 C :   -0.133773
   1 C :   -0.214562
   2 H :    0.087808
   3 H :    0.091302
   4 C :   -0.782214
   5 O :   -0.076219
   6 O :   -0.140587
   7 H :    0.043967
   8 H :    0.061912
   9 H :    0.062365

  Mayer bond orders larger than 0.100000
B(  0-C ,  1-C ) :   0.4655 B(  0-C ,  4-C ) :   0.1019 B(  0-C ,  7-H ) :   0.9659
B(  0-C ,  8-H ) :   0.9949 B(  0-C ,  9-H ) :   0.9902 B(  1-C ,  2-H ) :   0.9880
B(  1-C ,  3-H ) :   0.9803 B(  1-C ,  4-C ) :   0.8986 B(  4-C ,  5-O ) :   1.4018
B(  4-C ,  6-O ) :   1.2870

Dispersion correction           -0.000085620
FINAL SINGLE POINT ENERGY      -267.830830310181

DIPOLE MOMENT
-------------
                                X             Y             Z
Electronic contribution:      4.40169      -0.21729       3.88428
Nuclear contribution   :     -5.85873      -0.10793      -5.24103
                        -----------------------------------------
Total Dipole Moment    :     -1.45703      -0.32522      -1.35675
                        -----------------------------------------
Magnitude (a.u.)       :      2.01730
Magnitude (Debye)      :      5.12757

Rotational constants in cm-1:     0.292505     0.135951     0.110253
Rotational constants in MHz :  8769.065873  4075.717001  3305.311891

                             ****ORCA TERMINATED NORMALLY****
TOTAL RUN TIME: 0 days 0 hours 0 minutes 37 seconds 34 msec
