                         Program Version 5.0.0 -  RELEASE  -
|  1> !M062X D3Zero RIJCOSX def2-TZVPD def2/J TightSCF
|  2>
|  3> *xyz 1 1
|  4> C          3.34350        3.35457       -3.59200
|  5> C          2.95263        1.86308       -3.57485
|  6> C          4.25587        3.70385       -4.72605
|  7> N          3.73403        4.29378       -5.80077
|  8> N          5.51504        3.40725       -4.63718
|  9> H          6.14919        3.60120       -5.39905
| 10> H          5.81358        2.89950       -3.80879
| 11> H          2.74138        4.51311       -5.82470
| 12> H          4.28755        4.52126       -6.61434
| 13> H          3.86125        3.59725       -2.66298
| 14> H          2.44649        3.97346       -3.65656
| 15> H          2.44395        1.61721       -4.48352
| 16> H          2.30781        1.67290       -2.74242
| 17> H          3.83491        1.26414       -3.48670
| 18> *
| 19> %MaxCore 64000
| 20>
| 21> %pal nprocs 4
| 22> end
| 23>
| 24> %scf
| 25>   MaxIter 150
| 26> end
| 27>
| 28>
| 29>                          ****END OF INPUT****

CARTESIAN COORDINATES (ANGSTROEM)
---------------------------------
  C      3.343500    3.354570   -3.592000
  C      2.952630    1.863080   -3.574850
  C      4.255870    3.703850   -4.726050
  N      3.734030    4.293780   -5.800770
  N      5.515040    3.407250   -4.637180
  H      6.149190    3.601200   -5.399050
  H      5.813580    2.899500   -3.808790
  H      2.741380    4.513110   -5.824700
  H      4.287550    4.521260   -6.614340
  H      3.861250    3.597250   -2.662980
  H      2.446490    3.973460   -3.656560
  H      2.443950    1.617210   -4.483520
  H      2.307810    1.672900   -2.742420
  H      3.834910    1.264140   -3.486700

 Total Charge           Charge          ....    1
 Multiplicity           Mult            ....    1
 Number of Electrons    NEL             ....   40
 Basis Dimension        Dim             ....  266

ORBITAL ENERGIES
----------------

  NO   OCC          E(Eh)            E(eV)
   0   2.0000     -14.996852      -408.0851
   1   2.0000     -14.991951      -407.9517
   2   2.0000     -10.863062      -295.5989
   3   2.0000     -10.734479      -292.1000
   4   2.0000     -10.690687      -290.9084
   5   2.0000      -1.317371       -35.8475
   6   2.0000      -1.215334       -33.0709
   7   2.0000      -1.066362       -29.0172
   8   2.0000      -0.949778       -25.8448
   9   2.0000      -0.898882       -24.4598
  10   2.0000      -0.853467       -23.2240
  11   2.0000      -0.829096       -22.5608
  12   2.0000      -0.772067       -21.0090
  13   2.0000      -0.721905       -19.6440
  14   2.0000      -0.693611       -18.8741
  15   2.0000      -0.682181       -18.5631
  16   2.0000      -0.607720       -16.5369
  17   2.0000      -0.599455       -16.3120
  18   2.0000      -0.592536       -16.1237
  19   2.0000      -0.555900       -15.1268
  20   0.0000      -0.170233        -4.6323
  21   0.0000      -0.148434        -4.0391
  22   0.0000      -0.110413        -3.0045
  23   0.0000      -0.106455        -2.8968
  24   0.0000      -0.086378        -2.3505

MULLIKEN ATOMIC CHARGES
-----------------------
   0 C :   -0.885436
   1 C :   -0.986340
   2 C :    1.196648
   3 N :   -0.557563
   4 N :   -0.534888
   5 H :    0.265656
   6 H :    0.292128
   7 H :    0.277697
   8 H :    0.247895
   9 H :    0.345632
  10 H :    0.352318
  11 H :    0.324644
  12 H :    0.334805
  13 H :    0.326806
Sum of atomic charges:    1.0000000

LOEWDIN ATOMIC CHARGES
----------------------
   0 C :   -0.150005
   1 C :   -0.051141
   2 C :   -0.363454
   3 N :    0.220376
   4 N :    0.232256
   5 H :    0.153856
   6 H :    0.158394
   7 H :    0.149735
   8 H :    0.143774
   9 H :    0.132972
  10 H :    0.127751
  11 H :    0.083128
  12 H :    0.086322
  13 H :    0.076035

  Mayer bond orders larger than 0.100000
B(  0-C ,  1-C ) :   0.6060 B(  0-C ,  2-C ) :   0.6424 B(  0-C ,  3-N ) :   0.1025
B(  0-C ,  4-N ) :   0.1074 B(  0-C ,  9-H ) :   0.9671 B(  0-C , 10-H ) :   0.9436
B(  1-C , 11-H ) :   0.9682 B(  1-C , 12-H ) :   0.9865 B(  1-C , 13-H ) :   0.9199
B(  2-C ,  3-N ) :   0.9573 B(  2-C ,  4-N ) :   1.0685 B(  3-N ,  4-N ) :   0.1253
B(  3-N ,  7-H ) :   0.9308 B(  3-N ,  8-H ) :   1.0090 B(  4-N ,  5-H ) :   0.9792
B(  4-N ,  6-H ) :   0.9151

Dispersion correction           -0.000202321
FINAL SINGLE POINT ENERGY      -229.005614592491

DIPOLE MOMENT
-------------
                                X             Y             Z
Electronic contribution:      2.36357       2.56239      -2.26410
Nuclear contribution   :     -1.74195      -2.09431       1.58516
                        -----------------------------------------
Total Dipole Moment    :      0.62163       0.46809      -0.67894
                        -----------------------------------------
Magnitude (a.u.)       :      1.03271
Magnitude (Debye)      :      2.62494

Rotational constants in cm-1:     0.258965     0.126500     0.098780
Rotational constants in MHz :  7763.584551  3792.383135  2961.336502

                             ****ORCA TERMINATED NORMALLY****
TOTAL RUN TIME: 0 days 0 hours 0 minutes 45 seconds 137 msec
