                         Program Version 5.0.0 -  RELEASE  -
|  1> !M062X D3Zero RIJCOSX def2-TZVPD def2/J TightSCF xyzfile
|  2>
|  3> *xyzfile 0 1 B.xyz
|  4>
|  5> %MaxCore 64000
|  6>
|  7> %pal nprocs 4
|  8> end
|  9>
| 10> %scf
| 11>   MaxIter 150
| 12> end
| 13>
| 14>
| 15>                          ****END OF INPUT****

CARTESIAN COORDINATES (ANGSTROEM)
---------------------------------
  C      3.343500    3.354571   -3.591998
  C      2.952633    1.863077   -3.574849
  C      4.129209    0.898394   -3.418950
  H      3.733687   -0.100605   -3.237633
  H      4.719095    0.862556   -4.339005
  C      5.017344    1.315212   -2.221305
  C      4.255868    3.703851   -4.726054
  N      3.734032    4.293783   -5.800770
  N      5.515039    3.407255   -4.637185
  H      6.149187    3.601203   -5.399053
  H      5.813584    2.899504   -3.808785
  H      2.741380    4.513109   -5.824701
  H      4.287548    4.521260   -6.614341
  H      2.278938    1.735250   -2.725496
  H      2.377466    1.625787   -4.475869
  O      4.737055    0.854112   -1.122825
  O      5.928146    2.168108   -2.491365
  H      3.861246    3.597252   -2.662979
  H      2.446493    3.973461   -3.656556

 Total Charge           Charge          ....    0
 Multiplicity           Mult            ....    1
 Number of Electrons    NEL             ....   70
 Basis Dimension        Dim             ....  429

ORBITAL ENERGIES
----------------

  NO   OCC          E(Eh)            E(eV)
   0   2.0000     -19.535488      -531.5877
   1   2.0000     -19.524516      -531.2891
   2   2.0000     -14.847170      -404.0120
   3   2.0000     -14.808360      -402.9560
   4   2.0000     -10.703366      -291.2534
   5   2.0000     -10.588674      -288.1325
   6   2.0000     -10.580563      -287.9118
   7   2.0000     -10.556093      -287.2459
   8   2.0000     -10.514970      -286.1269
   9   2.0000      -1.158480       -31.5238
  10   2.0000      -1.118233       -30.4287
  11   2.0000      -1.057416       -28.7737
  12   2.0000      -1.022970       -27.8364
  13   2.0000      -0.922779       -25.1101
  14   2.0000      -0.832263       -22.6470
  15   2.0000      -0.762995       -20.7622
  16   2.0000      -0.716202       -19.4889
  17   2.0000      -0.694886       -18.9088
  18   2.0000      -0.667940       -18.1756
  19   2.0000      -0.618812       -16.8387
  20   2.0000      -0.575424       -15.6581
  21   2.0000      -0.561326       -15.2744
  22   2.0000      -0.533583       -14.5195
  23   2.0000      -0.524725       -14.2785
  24   2.0000      -0.494507       -13.4562
  25   2.0000      -0.474706       -12.9174
  26   2.0000      -0.449199       -12.2233
  27   2.0000      -0.448458       -12.2032
  28   2.0000      -0.435757       -11.8576
  29   2.0000      -0.405375       -11.0308
  30   2.0000      -0.396889       -10.7999
  31   2.0000      -0.393596       -10.7103
  32   2.0000      -0.290236        -7.8977
  33   2.0000      -0.286316        -7.7911
  34   2.0000      -0.267469        -7.2782
  35   0.0000      -0.029914        -0.8140
  36   0.0000      -0.017730        -0.4825
  37   0.0000       0.004529         0.1232
  38   0.0000       0.023336         0.6350
  39   0.0000       0.027520         0.7489

MULLIKEN ATOMIC CHARGES
-----------------------
   0 C :   -0.922707
   1 C :   -0.591489
   2 C :   -0.645683
   3 H :    0.351396
   4 H :    0.291202
   5 C :    0.707008
   6 C :    0.994283
   7 N :   -0.587974
   8 N :   -0.525419
   9 H :    0.221408
  10 H :    0.475462
  11 H :    0.269748
  12 H :    0.236372
  13 H :    0.366755
  14 H :    0.290493
  15 O :   -0.718915
  16 O :   -0.930606
  17 H :    0.322027
  18 H :    0.396640
Sum of atomic charges:    0.0000000

LOEWDIN ATOMIC CHARGES
----------------------
   0 C :   -0.106475
   1 C :   -0.176324
   2 C :   -0.127713
   3 H :    0.114279
   4 H :    0.105085
   5 C :   -0.692752
   6 C :   -0.360761
   7 N :    0.179297
   8 N :    0.228788
   9 H :    0.143463
  10 H :    0.027790
  11 H :    0.131790
  12 H :    0.127073
  13 H :    0.123387
  14 H :    0.112133
  15 O :    0.007368
  16 O :   -0.092433
  17 H :    0.135807
  18 H :    0.120198

  Mayer bond orders larger than 0.100000
B(  0-C ,  1-C ) :   0.6024 B(  0-C ,  6-C ) :   0.6707 B(  0-C ,  7-N ) :   0.1202
B(  0-C , 17-H ) :   0.9826 B(  0-C , 18-H ) :   0.9380 B(  1-C ,  2-C ) :   0.6388
B(  1-C , 13-H ) :   0.9505 B(  1-C , 14-H ) :   0.9735 B(  2-C ,  3-H ) :   0.9641
B(  2-C ,  4-H ) :   0.9728 B(  2-C ,  5-C ) :   0.9315 B(  2-C ,  8-N ) :   0.1169
B(  5-C , 15-O ) :   1.4293 B(  5-C , 16-O ) :   1.0425 B(  6-C ,  7-N ) :   0.8670
B(  6-C ,  8-N ) :   1.2211 B(  6-C , 18-H ) :  -0.1150 B(  7-N , 11-H ) :   0.9542
B(  7-N , 12-H ) :   1.0064 B(  8-N ,  9-H ) :   1.0296 B(  8-N , 10-H ) :   0.6379
B(  8-N , 16-O ) :  -0.1292

Dispersion correction           -0.000558552
FINAL SINGLE POINT ENERGY      -456.502149965577

DIPOLE MOMENT
-------------
                                X             Y             Z
Electronic contribution:      3.87739       0.00472       2.60280
Nuclear contribution   :     -5.42217       2.65262      -7.07590
                        -----------------------------------------
Total Dipole Moment    :     -1.54478       2.65735      -4.47311
                        -----------------------------------------
Magnitude (a.u.)       :      5.42738
Magnitude (Debye)      :     13.79532

Rotational constants in cm-1:     0.107541     0.035862     0.030371
Rotational constants in MHz :  3223.996852  1075.120464   910.508313

                             ****ORCA TERMINATED NORMALLY****
TOTAL RUN TIME: 0 days 0 hours 1 minutes 58 seconds 244 msec
