                         Program Version 5.0.0 -  RELEASE  -
|  1> !M062X D3Zero RIJCOSX def2-TZVPD def2/J TightSCF
|  2>
|  3> *xyz 0 1
|  4> C          2.95263        1.86308       -3.57485
|  5> C          4.12921        0.89839       -3.41895
|  6> H          3.73369       -0.10060       -3.23763
|  7> H          4.71910        0.86256       -4.33901
|  8> C          5.01734        1.31521       -2.22130
|  9> F          4.73706        0.85411       -1.12283
| 10> O          5.92815        2.16811       -2.49136
| 11> H          2.35067        1.56005       -4.40594
| 12> H          3.32277        2.85258       -3.74453
| 13> H          2.36134        1.85149       -2.68315
| 14> *
| 15> %MaxCore 64000
| 16>
| 17> %pal nprocs 4
| 18> end
| 19>
| 20> %scf
| 21>   MaxIter 150
| 22> end
| 23>
| 24>
| 25>                          ****END OF INPUT****

CARTESIAN COORDINATES (ANGSTROEM)
---------------------------------
  C      2.952630    1.863080   -3.574850
  C      4.129210    0.898390   -3.418950
  H      3.733690   -0.100600   -3.237630
  H      4.719100    0.862560   -4.339010
  C      5.017340    1.315210   -2.221300
  F      4.737060    0.854110   -1.122830
  O      5.928150    2.168110   -2.491360
  H      2.350670    1.560050   -4.405940
  H      3.322770    2.852580   -3.744530
  H      2.361340    1.851490   -2.683150

 Total Charge           Charge          ....    0
 Multiplicity           Mult            ....    1
 Number of Electrons    NEL             ....   40
 Basis Dimension        Dim             ....  236

ORBITAL ENERGIES
----------------

  NO   OCC          E(Eh)            E(eV)
   0   2.0000     -25.329451      -689.2494
   1   2.0000     -19.631572      -534.2022
   2   2.0000     -10.723820      -291.8100
   3   2.0000     -10.566595      -287.5317
   4   2.0000     -10.542279      -286.8700
   5   2.0000      -1.491254       -40.5791
   6   2.0000      -1.143006       -31.1028
   7   2.0000      -0.901186       -24.5225
   8   2.0000      -0.794145       -21.6098
   9   2.0000      -0.740761       -20.1571
  10   2.0000      -0.660688       -17.9782
  11   2.0000      -0.647970       -17.6322
  12   2.0000      -0.591213       -16.0877
  13   2.0000      -0.537314       -14.6211
  14   2.0000      -0.510117       -13.8810
  15   2.0000      -0.467451       -12.7200
  16   2.0000      -0.448542       -12.2054
  17   2.0000      -0.437134       -11.8950
  18   2.0000      -0.411111       -11.1869
  19   2.0000      -0.362902        -9.8751
  20   0.0000       0.005698         0.1550
  21   0.0000       0.016469         0.4482
  22   0.0000       0.035303         0.9606
  23   0.0000       0.042791         1.1644
  24   0.0000       0.052370         1.4251

MULLIKEN ATOMIC CHARGES
-----------------------
   0 C :   -1.124706
   1 C :   -0.395296
   2 H :    0.309294
   3 H :    0.297139
   4 C :    0.769650
   5 F :   -0.227461
   6 O :   -0.592668
   7 H :    0.294698
   8 H :    0.333366
   9 H :    0.335984
Sum of atomic charges:    0.0000000

LOEWDIN ATOMIC CHARGES
----------------------
   0 C :   -0.091942
   1 C :   -0.156048
   2 H :    0.108264
   3 H :    0.119245
   4 C :   -0.488876
   5 F :    0.237323
   6 O :    0.050039
   7 H :    0.070466
   8 H :    0.077139
   9 H :    0.074391

  Mayer bond orders larger than 0.100000
B(  0-C ,  1-C ) :   0.5218 B(  0-C ,  7-H ) :   0.9764 B(  0-C ,  8-H ) :   0.9716
B(  0-C ,  9-H ) :   0.9329 B(  1-C ,  2-H ) :   0.9479 B(  1-C ,  3-H ) :   0.9692
B(  1-C ,  4-C ) :   0.8950 B(  4-C ,  5-F ) :   0.9408 B(  4-C ,  6-O ) :   1.6080

Dispersion correction           -0.000091050
FINAL SINGLE POINT ENERGY      -292.382533909999

DIPOLE MOMENT
-------------
                                X             Y             Z
Electronic contribution:      5.03295      -1.18853       6.50421
Nuclear contribution   :     -6.06116       0.51860      -6.80802
                        -----------------------------------------
Total Dipole Moment    :     -1.02820      -0.66993      -0.30381
                        -----------------------------------------
Magnitude (a.u.)       :      1.26424
Magnitude (Debye)      :      3.21344

Rotational constants in cm-1:     0.276196     0.132056     0.105465
Rotational constants in MHz :  8280.156449  3958.940601  3161.775929

                             ****ORCA TERMINATED NORMALLY****
TOTAL RUN TIME: 0 days 0 hours 0 minutes 38 seconds 243 msec
