                         Program Version 5.0.0 -  RELEASE  -
|  1> !M062X D3Zero RIJCOSX def2-TZVPD def2/J TightSCF
|  2>
|  3> *xyz 0 1
|  4> C          3.34350        3.35457       -3.59200
|  5> C          2.95263        1.86308       -3.57485
|  6> C          4.25587        3.70385       -4.72605
|  7> C          3.73403        4.29378       -5.80077
|  8> N          5.51504        3.40725       -4.63718
|  9> H          6.14919        3.60120       -5.39905
| 10> H          5.81358        2.89950       -3.80879
| 11> H          2.74138        4.51311       -5.82470
| 12> H          4.28755        4.52126       -6.61434
| 13> H          3.86125        3.59725       -2.66298
| 14> H          2.44649        3.97346       -3.65656
| 15> H          2.44395        1.61721       -4.48352
| 16> H          2.30781        1.67290       -2.74242
| 17> H          3.83491        1.26414       -3.48670
| 18> *
| 19> %MaxCore 64000
| 20>
| 21> %pal nprocs 4
| 22> end
| 23>
| 24> %scf
| 25>   MaxIter 150
| 26> end
| 27>
| 28>
| 29>                          ****END OF INPUT****

CARTESIAN COORDINATES (ANGSTROEM)
---------------------------------
  C      3.343500    3.354570   -3.592000
  C      2.952630    1.863080   -3.574850
  C      4.255870    3.703850   -4.726050
  C      3.734030    4.293780   -5.800770
  N      5.515040    3.407250   -4.637180
  H      6.149190    3.601200   -5.399050
  H      5.813580    2.899500   -3.808790
  H      2.741380    4.513110   -5.824700
  H      4.287550    4.521260   -6.614340
  H      3.861250    3.597250   -2.662980
  H      2.446490    3.973460   -3.656560
  H      2.443950    1.617210   -4.483520
  H      2.307810    1.672900   -2.742420
  H      3.834910    1.264140   -3.486700

 Total Charge           Charge          ....    0
 Multiplicity           Mult            ....    1
 Number of Electrons    NEL             ....   40
 Basis Dimension        Dim             ....  266

ORBITAL ENERGIES
----------------

  NO   OCC          E(Eh)            E(eV)
   0   2.0000     -14.751127      -401.3986
   1   2.0000     -10.556479      -287.2564
   2   2.0000     -10.533936      -286.6430
   3   2.0000     -10.519635      -286.2538
   4   2.0000     -10.466997      -284.8215
   5   2.0000      -1.047482       -28.5034
   6   2.0000      -0.875897       -23.8344
   7   2.0000      -0.808208       -21.9925
   8   2.0000      -0.723295       -19.6819
   9   2.0000      -0.648932       -17.6583
  10   2.0000      -0.607507       -16.5311
  11   2.0000      -0.551171       -14.9981
  12   2.0000      -0.505729       -13.7616
  13   2.0000      -0.488953       -13.3051
  14   2.0000      -0.459439       -12.5020
  15   2.0000      -0.449104       -12.2207
  16   2.0000      -0.416051       -11.3213
  17   2.0000      -0.396890       -10.7999
  18   2.0000      -0.393445       -10.7062
  19   2.0000      -0.241149        -6.5620
  20   0.0000       0.014570         0.3965
  21   0.0000       0.038750         1.0544
  22   0.0000       0.045809         1.2465
  23   0.0000       0.047674         1.2973
  24   0.0000       0.073682         2.0050

MULLIKEN ATOMIC CHARGES
-----------------------
   0 C :   -0.936952
   1 C :   -0.978440
   2 C :    1.126952
   3 C :   -1.071001
   4 N :   -0.603940
   5 H :    0.226280
   6 H :    0.254134
   7 H :    0.184509
   8 H :    0.226661
   9 H :    0.353807
  10 H :    0.315959
  11 H :    0.294319
  12 H :    0.308905
  13 H :    0.298807
Sum of atomic charges:    0.0000000

LOEWDIN ATOMIC CHARGES
----------------------
   0 C :   -0.205262
   1 C :   -0.090993
   2 C :   -0.514919
   3 C :    0.025582
   4 N :    0.099228
   5 H :    0.120011
   6 H :    0.116344
   7 H :    0.018859
   8 H :    0.014254
   9 H :    0.110054
  10 H :    0.111042
  11 H :    0.071596
  12 H :    0.062591
  13 H :    0.061613

  Mayer bond orders larger than 0.100000
B(  0-C ,  1-C ) :   0.5806 B(  0-C ,  2-C ) :   0.5678 B(  0-C ,  3-C ) :   0.1697
B(  0-C ,  4-N ) :   0.1523 B(  0-C ,  9-H ) :   0.9736 B(  0-C , 10-H ) :   0.9814
B(  1-C , 11-H ) :   1.0164 B(  1-C , 12-H ) :   0.9839 B(  1-C , 13-H ) :   0.9512
B(  2-C ,  3-C ) :   1.0938 B(  2-C ,  4-N ) :   0.8111 B(  2-C ,  8-H ) :  -0.1563
B(  3-C ,  4-N ) :   0.1263 B(  3-C ,  7-H ) :   1.0872 B(  3-C ,  8-H ) :   1.0976
B(  4-N ,  5-H ) :   0.9980 B(  4-N ,  6-H ) :   0.9620

Dispersion correction           -0.000198859
FINAL SINGLE POINT ENERGY      -212.538060100838

DIPOLE MOMENT
-------------
                                X             Y             Z
Electronic contribution:      2.31125       1.48266      -0.86075
Nuclear contribution   :     -1.79713      -1.86925       1.28073
                        -----------------------------------------
Total Dipole Moment    :      0.51413      -0.38658       0.41999
                        -----------------------------------------
Magnitude (a.u.)       :      0.76822
Magnitude (Debye)      :      1.95266

Rotational constants in cm-1:     0.269040     0.129645     0.102087
Rotational constants in MHz :  8065.609820  3886.645139  3060.489045

                             ****ORCA TERMINATED NORMALLY****
TOTAL RUN TIME: 0 days 0 hours 0 minutes 51 seconds 973 msec
