                         Program Version 5.0.0 -  RELEASE  -
|  1> !M062X D3Zero RIJCOSX def2-TZVPD def2/J TightSCF
|  2>
|  3> *xyz 0 1
|  4> C          2.95263        1.86308       -3.57485
|  5> C          4.12921        0.89839       -3.41895
|  6> H          3.73369       -0.10060       -3.23763
|  7> H          4.71910        0.86256       -4.33901
|  8> C          5.01734        1.31521       -2.22130
|  9> O          4.73706        0.85411       -1.12283
| 10> F          5.92815        2.16811       -2.49136
| 11> H          2.35067        1.56005       -4.40594
| 12> H          3.32277        2.85258       -3.74453
| 13> H          2.36134        1.85149       -2.68315
| 14> *
| 15> %MaxCore 64000
| 16>
| 17> %pal nprocs 4
| 18> end
| 19>
| 20> %scf
| 21>   MaxIter 150
| 22> end
| 23>
| 24>
| 25>                          ****END OF INPUT****

CARTESIAN COORDINATES (ANGSTROEM)
---------------------------------
  C      2.952630    1.863080   -3.574850
  C      4.129210    0.898390   -3.418950
  H      3.733690   -0.100600   -3.237630
  H      4.719100    0.862560   -4.339010
  C      5.017340    1.315210   -2.221300
  O      4.737060    0.854110   -1.122830
  F      5.928150    2.168110   -2.491360
  H      2.350670    1.560050   -4.405940
  H      3.322770    2.852580   -3.744530
  H      2.361340    1.851490   -2.683150

 Total Charge           Charge          ....    0
 Multiplicity           Mult            ....    1
 Number of Electrons    NEL             ....   40
 Basis Dimension        Dim             ....  236

ORBITAL ENERGIES
----------------

  NO   OCC          E(Eh)            E(eV)
   0   2.0000     -25.308609      -688.6823
   1   2.0000     -19.640735      -534.4516
   2   2.0000     -10.718876      -291.6754
   3   2.0000     -10.566005      -287.5156
   4   2.0000     -10.542422      -286.8739
   5   2.0000      -1.450128       -39.4600
   6   2.0000      -1.178177       -32.0598
   7   2.0000      -0.900448       -24.5024
   8   2.0000      -0.779286       -21.2055
   9   2.0000      -0.728637       -19.8272
  10   2.0000      -0.637362       -17.3435
  11   2.0000      -0.626394       -17.0451
  12   2.0000      -0.594013       -16.1639
  13   2.0000      -0.537003       -14.6126
  14   2.0000      -0.515822       -14.0362
  15   2.0000      -0.475258       -12.9324
  16   2.0000      -0.456511       -12.4223
  17   2.0000      -0.437495       -11.9048
  18   2.0000      -0.426827       -11.6145
  19   2.0000      -0.371729       -10.1153
  20   0.0000       0.007611         0.2071
  21   0.0000       0.020306         0.5526
  22   0.0000       0.035636         0.9697
  23   0.0000       0.044587         1.2133
  24   0.0000       0.051686         1.4064

MULLIKEN ATOMIC CHARGES
-----------------------
   0 C :   -1.116085
   1 C :   -0.399207
   2 H :    0.289726
   3 H :    0.315537
   4 C :    0.737722
   5 O :   -0.543401
   6 F :   -0.244927
   7 H :    0.293653
   8 H :    0.328358
   9 H :    0.338624
Sum of atomic charges:   -0.0000000

LOEWDIN ATOMIC CHARGES
----------------------
   0 C :   -0.091963
   1 C :   -0.154318
   2 H :    0.115632
   3 H :    0.112428
   4 C :   -0.482960
   5 O :    0.106501
   6 F :    0.172678
   7 H :    0.070431
   8 H :    0.073980
   9 H :    0.077591

  Mayer bond orders larger than 0.100000
B(  0-C ,  1-C ) :   0.5243 B(  0-C ,  7-H ) :   0.9764 B(  0-C ,  8-H ) :   0.9372
B(  0-C ,  9-H ) :   0.9670 B(  1-C ,  2-H ) :   0.9764 B(  1-C ,  3-H ) :   0.9412
B(  1-C ,  4-C ) :   0.8915 B(  4-C ,  5-O ) :   1.6887 B(  4-C ,  6-F ) :   0.8741

Dispersion correction           -0.000091188
FINAL SINGLE POINT ENERGY      -292.399213068418

DIPOLE MOMENT
-------------
                                X             Y             Z
Electronic contribution:      7.01949       1.00189       4.21885
Nuclear contribution   :     -7.35982      -0.91407      -5.31589
                        -----------------------------------------
Total Dipole Moment    :     -0.34032       0.08782      -1.09705
                        -----------------------------------------
Magnitude (a.u.)       :      1.15197
Magnitude (Debye)      :      2.92809

Rotational constants in cm-1:     0.275433     0.132201     0.105422
Rotational constants in MHz :  8257.268192  3963.279062  3160.465566

                             ****ORCA TERMINATED NORMALLY****
TOTAL RUN TIME: 0 days 0 hours 0 minutes 35 seconds 540 msec
