                         Program Version 5.0.0 -  RELEASE  -
|  1> !M062X D3Zero RIJCOSX def2-TZVPD def2/J TightSCF
|  2>
|  3> *xyz 0 1
|  4> C          3.34350        3.35457       -3.59200
|  5> C          2.95263        1.86308       -3.57485
|  6> C          4.25587        3.70385       -4.72605
|  7> N          3.73403        4.29378       -5.80077
|  8> C          5.51504        3.40725       -4.63718
|  9> H          6.14919        3.60120       -5.39905
| 10> H          5.81358        2.89950       -3.80879
| 11> H          2.74138        4.51311       -5.82470
| 12> H          4.28755        4.52126       -6.61434
| 13> H          3.86125        3.59725       -2.66298
| 14> H          2.44649        3.97346       -3.65656
| 15> H          2.44395        1.61721       -4.48352
| 16> H          2.30781        1.67290       -2.74242
| 17> H          3.83491        1.26414       -3.48670
| 18> *
| 19> %MaxCore 64000
| 20>
| 21> %pal nprocs 4
| 22> end
| 23>
| 24> %scf
| 25>   MaxIter 150
| 26> end
| 27>
| 28>
| 29>                          ****END OF INPUT****

CARTESIAN COORDINATES (ANGSTROEM)
---------------------------------
  C      3.343500    3.354570   -3.592000
  C      2.952630    1.863080   -3.574850
  C      4.255870    3.703850   -4.726050
  N      3.734030    4.293780   -5.800770
  C      5.515040    3.407250   -4.637180
  H      6.149190    3.601200   -5.399050
  H      5.813580    2.899500   -3.808790
  H      2.741380    4.513110   -5.824700
  H      4.287550    4.521260   -6.614340
  H      3.861250    3.597250   -2.662980
  H      2.446490    3.973460   -3.656560
  H      2.443950    1.617210   -4.483520
  H      2.307810    1.672900   -2.742420
  H      3.834910    1.264140   -3.486700

 Total Charge           Charge          ....    0
 Multiplicity           Mult            ....    1
 Number of Electrons    NEL             ....   40
 Basis Dimension        Dim             ....  266

ORBITAL ENERGIES
----------------

  NO   OCC          E(Eh)            E(eV)
   0   2.0000     -14.747118      -401.2895
   1   2.0000     -10.553757      -287.1823
   2   2.0000     -10.533420      -286.6289
   3   2.0000     -10.517603      -286.1985
   4   2.0000     -10.465282      -284.7748
   5   2.0000      -1.032048       -28.0834
   6   2.0000      -0.878811       -23.9137
   7   2.0000      -0.812489       -22.1089
   8   2.0000      -0.724433       -19.7128
   9   2.0000      -0.641978       -17.4691
  10   2.0000      -0.594514       -16.1775
  11   2.0000      -0.555391       -15.1130
  12   2.0000      -0.507988       -13.8231
  13   2.0000      -0.481302       -13.0969
  14   2.0000      -0.459554       -12.5051
  15   2.0000      -0.449162       -12.2223
  16   2.0000      -0.411553       -11.1989
  17   2.0000      -0.398074       -10.8321
  18   2.0000      -0.392979       -10.6935
  19   2.0000      -0.246633        -6.7112
  20   0.0000       0.015818         0.4304
  21   0.0000       0.038830         1.0566
  22   0.0000       0.043878         1.1940
  23   0.0000       0.049429         1.3450
  24   0.0000       0.075589         2.0569

MULLIKEN ATOMIC CHARGES
-----------------------
   0 C :   -0.883133
   1 C :   -1.001708
   2 C :    1.132645
   3 N :   -0.606899
   4 C :   -1.104421
   5 H :    0.240036
   6 H :    0.216375
   7 H :    0.240327
   8 H :    0.208256
   9 H :    0.308914
  10 H :    0.347464
  11 H :    0.291044
  12 H :    0.297753
  13 H :    0.313348
Sum of atomic charges:   -0.0000000

LOEWDIN ATOMIC CHARGES
----------------------
   0 C :   -0.203694
   1 C :   -0.089998
   2 C :   -0.502362
   3 N :    0.090312
   4 C :    0.016382
   5 H :    0.025262
   6 H :    0.032520
   7 H :    0.105505
   8 H :    0.108966
   9 H :    0.113363
  10 H :    0.105811
  11 H :    0.069417
  12 H :    0.061979
  13 H :    0.066537

  Mayer bond orders larger than 0.100000
B(  0-C ,  1-C ) :   0.5754 B(  0-C ,  2-C ) :   0.4966 B(  0-C ,  3-N ) :   0.1108
B(  0-C ,  4-C ) :   0.1658 B(  0-C ,  9-H ) :   1.0018 B(  0-C , 10-H ) :   0.9894
B(  1-C , 11-H ) :   0.9815 B(  1-C , 12-H ) :   0.9812 B(  1-C , 13-H ) :   0.9745
B(  2-C ,  3-N ) :   0.7134 B(  2-C ,  4-C ) :   1.1825 B(  2-C ,  5-H ) :  -0.1470
B(  2-C , 10-H ) :  -0.1095 B(  3-N ,  4-C ) :   0.1237 B(  3-N ,  7-H ) :   0.9876
B(  3-N ,  8-H ) :   1.0269 B(  4-C ,  5-H ) :   1.0937 B(  4-C ,  6-H ) :   1.0572

Dispersion correction           -0.000199056
FINAL SINGLE POINT ENERGY      -212.538622935375

DIPOLE MOMENT
-------------
                                X             Y             Z
Electronic contribution:      0.79681       2.25386      -1.84170
Nuclear contribution   :     -1.38463      -2.07457       1.55023
                        -----------------------------------------
Total Dipole Moment    :     -0.58782       0.17928      -0.29147
                        -----------------------------------------
Magnitude (a.u.)       :      0.68017
Magnitude (Debye)      :      1.72885

Rotational constants in cm-1:     0.272312     0.128195     0.101724
Rotational constants in MHz :  8163.717141  3843.180148  3049.598073

                             ****ORCA TERMINATED NORMALLY****
TOTAL RUN TIME: 0 days 0 hours 0 minutes 50 seconds 88 msec
