                         Program Version 5.0.0 -  RELEASE  -
|  1> !M062X D3Zero RIJCOSX def2-TZVPD def2/J TightSCF xyzfile
|  2>
|  3> *xyzfile 0 1 D1.xyz
|  4>
|  5> %MaxCore 64000
|  6>
|  7> %pal nprocs 4
|  8> end
|  9>
| 10> %scf
| 11>   MaxIter 150
| 12> end
| 13>
| 14>
| 15>                          ****END OF INPUT****

CARTESIAN COORDINATES (ANGSTROEM)
---------------------------------
  C      3.343500    3.354571   -3.591998
  C      2.952633    1.863077   -3.574849
  C      4.129209    0.898394   -3.418950
  H      3.733687   -0.100605   -3.237633
  H      4.719095    0.862556   -4.339005
  C      5.017344    1.315212   -2.221305
  C      4.255868    3.703851   -4.726054
  C      3.734032    4.293783   -5.800770
  N      5.515039    3.407255   -4.637185
  H      6.149187    3.601203   -5.399053
  H      5.813584    2.899504   -3.808785
  H      2.741380    4.513109   -5.824701
  H      4.287548    4.521260   -6.614341
  H      2.278938    1.735250   -2.725496
  H      2.377466    1.625787   -4.475869
  F      4.737055    0.854112   -1.122825
  O      5.928146    2.168108   -2.491365
  H      3.861246    3.597252   -2.662979
  H      2.446493    3.973461   -3.656556

 Total Charge           Charge          ....    0
 Multiplicity           Mult            ....    1
 Number of Electrons    NEL             ....   70
 Basis Dimension        Dim             ....  429

ORBITAL ENERGIES
----------------

  NO   OCC          E(Eh)            E(eV)
   0   2.0000     -25.352155      -689.8672
   1   2.0000     -19.660057      -534.9773
   2   2.0000     -14.713494      -400.3745
   3   2.0000     -10.753193      -292.6093
   4   2.0000     -10.576766      -287.8084
   5   2.0000     -10.559153      -287.3291
   6   2.0000     -10.547441      -287.0105
   7   2.0000     -10.537596      -286.7426
   8   2.0000     -10.457489      -284.5627
   9   2.0000      -1.513175       -41.1756
  10   2.0000      -1.183107       -32.1940
  11   2.0000      -1.026283       -27.9266
  12   2.0000      -0.924533       -25.1578
  13   2.0000      -0.849613       -23.1191
  14   2.0000      -0.811350       -22.0779
  15   2.0000      -0.774966       -21.0879
  16   2.0000      -0.720330       -19.6012
  17   2.0000      -0.682667       -18.5763
  18   2.0000      -0.672346       -18.2955
  19   2.0000      -0.630949       -17.1690
  20   2.0000      -0.629611       -17.1326
  21   2.0000      -0.586568       -15.9613
  22   2.0000      -0.558867       -15.2075
  23   2.0000      -0.532169       -14.4811
  24   2.0000      -0.515035       -14.0148
  25   2.0000      -0.504177       -13.7193
  26   2.0000      -0.462848       -12.5947
  27   2.0000      -0.452764       -12.3203
  28   2.0000      -0.443359       -12.0644
  29   2.0000      -0.439337       -11.9550
  30   2.0000      -0.421161       -11.4604
  31   2.0000      -0.397292       -10.8109
  32   2.0000      -0.386194       -10.5089
  33   2.0000      -0.375616       -10.2210
  34   2.0000      -0.227154        -6.1812
  35   0.0000      -0.014017        -0.3814
  36   0.0000       0.005107         0.1390
  37   0.0000       0.027039         0.7358
  38   0.0000       0.031454         0.8559
  39   0.0000       0.034370         0.9353

MULLIKEN ATOMIC CHARGES
-----------------------
   0 C :   -1.033583
   1 C :   -0.530335
   2 C :   -0.668545
   3 H :    0.368421
   4 H :    0.334618
   5 C :    0.769729
   6 C :    0.925368
   7 C :   -1.010757
   8 N :   -0.642260
   9 H :    0.178752
  10 H :    0.491192
  11 H :    0.193590
  12 H :    0.233696
  13 H :    0.326484
  14 H :    0.326288
  15 F :   -0.252430
  16 O :   -0.716002
  17 H :    0.315343
  18 H :    0.390431
Sum of atomic charges:    0.0000000

LOEWDIN ATOMIC CHARGES
----------------------
   0 C :   -0.145330
   1 C :   -0.174506
   2 C :   -0.089980
   3 H :    0.116548
   4 H :    0.126807
   5 C :   -0.429179
   6 C :   -0.492930
   7 C :    0.021650
   8 N :    0.110474
   9 H :    0.124242
  10 H :    0.021193
  11 H :    0.013834
  12 H :    0.012943
  13 H :    0.113743
  14 H :    0.124823
  15 F :    0.261956
  16 O :    0.047509
  17 H :    0.116113
  18 H :    0.120090

  Mayer bond orders larger than 0.100000
B(  0-C ,  1-C ) :   0.6089 B(  0-C ,  6-C ) :   0.6966 B(  0-C ,  7-C ) :   0.2230
B(  0-C , 17-H ) :   0.9392 B(  0-C , 18-H ) :   0.9806 B(  1-C ,  2-C ) :   0.6186
B(  1-C , 13-H ) :   0.9733 B(  1-C , 14-H ) :   0.9597 B(  2-C ,  3-H ) :   0.9536
B(  2-C ,  4-H ) :   0.9770 B(  2-C ,  5-C ) :   0.9076 B(  2-C ,  8-N ) :   0.1757
B(  5-C , 15-F ) :   0.9089 B(  5-C , 16-O ) :   1.5078 B(  6-C ,  7-C ) :   1.2085
B(  6-C ,  8-N ) :   0.7993 B(  6-C , 12-H ) :  -0.1203 B(  7-C ,  8-N ) :   0.1099
B(  7-C , 11-H ) :   1.1129 B(  7-C , 12-H ) :   1.0554 B(  8-N ,  9-H ) :   1.0579
B(  8-N , 10-H ) :   0.7230 B(  8-N , 16-O ) :  -0.1029

Dispersion correction           -0.000548324
FINAL SINGLE POINT ENERGY      -464.418421666126

DIPOLE MOMENT
-------------
                                X             Y             Z
Electronic contribution:      5.50649      -5.95236      10.53821
Nuclear contribution   :     -5.86483       4.68058     -10.07545
                        -----------------------------------------
Total Dipole Moment    :     -0.35835      -1.27177       0.46276
                        -----------------------------------------
Magnitude (a.u.)       :      1.39999
Magnitude (Debye)      :      3.55849

Rotational constants in cm-1:     0.107256     0.035474     0.030113
Rotational constants in MHz :  3215.453922  1063.481574   902.777619

                             ****ORCA TERMINATED NORMALLY****
TOTAL RUN TIME: 0 days 0 hours 2 minutes 15 seconds 728 msec
