                         Program Version 5.0.0 -  RELEASE  -
|  1> !M062X D3Zero RIJCOSX def2-TZVPD def2/J TightSCF xyzfile
|  2>
|  3> *xyzfile 0 1 D2.xyz
|  4>
|  5> %MaxCore 64000
|  6>
|  7> %pal nprocs 4
|  8> end
|  9>
| 10> %scf
| 11>   MaxIter 150
| 12> end
| 13>
| 14>
| 15>                          ****END OF INPUT****

CARTESIAN COORDINATES (ANGSTROEM)
---------------------------------
  C      3.343500    3.354571   -3.591998
  C      2.952633    1.863077   -3.574849
  C      4.129209    0.898394   -3.418950
  H      3.733687   -0.100605   -3.237633
  H      4.719095    0.862556   -4.339005
  C      5.017344    1.315212   -2.221305
  C      4.255868    3.703851   -4.726054
  N      3.734032    4.293783   -5.800770
  C      5.515039    3.407255   -4.637185
  H      6.149187    3.601203   -5.399053
  H      5.813584    2.899504   -3.808785
  H      2.741380    4.513109   -5.824701
  H      4.287548    4.521260   -6.614341
  H      2.278938    1.735250   -2.725496
  H      2.377466    1.625787   -4.475869
  F      4.737055    0.854112   -1.122825
  O      5.928146    2.168108   -2.491365
  H      3.861246    3.597252   -2.662979
  H      2.446493    3.973461   -3.656556

 Total Charge           Charge          ....    0
 Multiplicity           Mult            ....    1
 Number of Electrons    NEL             ....   70
 Basis Dimension        Dim             ....  429

ORBITAL ENERGIES
----------------

  NO   OCC          E(Eh)            E(eV)
   0   2.0000     -25.334034      -689.3741
   1   2.0000     -19.634339      -534.2775
   2   2.0000     -14.737780      -401.0354
   3   2.0000     -10.731130      -292.0089
   4   2.0000     -10.564159      -287.4654
   5   2.0000     -10.555248      -287.2229
   6   2.0000     -10.541276      -286.8427
   7   2.0000     -10.536753      -286.7196
   8   2.0000     -10.434583      -283.9394
   9   2.0000      -1.495721       -40.7006
  10   2.0000      -1.158235       -31.5172
  11   2.0000      -1.023466       -27.8499
  12   2.0000      -0.917946       -24.9786
  13   2.0000      -0.848148       -23.0793
  14   2.0000      -0.797803       -21.7093
  15   2.0000      -0.777231       -21.1495
  16   2.0000      -0.709093       -19.2954
  17   2.0000      -0.667873       -18.1737
  18   2.0000      -0.657502       -17.8915
  19   2.0000      -0.631631       -17.1876
  20   2.0000      -0.609144       -16.5756
  21   2.0000      -0.576503       -15.6874
  22   2.0000      -0.551366       -15.0034
  23   2.0000      -0.537533       -14.6270
  24   2.0000      -0.521170       -14.1818
  25   2.0000      -0.489792       -13.3279
  26   2.0000      -0.459550       -12.5050
  27   2.0000      -0.456658       -12.4263
  28   2.0000      -0.429329       -11.6826
  29   2.0000      -0.420997       -11.4559
  30   2.0000      -0.414255       -11.2725
  31   2.0000      -0.390787       -10.6339
  32   2.0000      -0.382591       -10.4108
  33   2.0000      -0.340230        -9.2581
  34   2.0000      -0.233717        -6.3598
  35   0.0000       0.001443         0.0393
  36   0.0000       0.011989         0.3262
  37   0.0000       0.024864         0.6766
  38   0.0000       0.032240         0.8773
  39   0.0000       0.036309         0.9880

MULLIKEN ATOMIC CHARGES
-----------------------
   0 C :   -0.948700
   1 C :   -0.549027
   2 C :   -0.634800
   3 H :    0.379706
   4 H :    0.327575
   5 C :    0.714542
   6 C :    1.076784
   7 N :   -0.616399
   8 C :   -0.845354
   9 H :    0.188982
  10 H :    0.065628
  11 H :    0.237710
  12 H :    0.220224
  13 H :    0.316862
  14 H :    0.326558
  15 F :   -0.272460
  16 O :   -0.667528
  17 H :    0.258457
  18 H :    0.421241
Sum of atomic charges:    0.0000000

LOEWDIN ATOMIC CHARGES
----------------------
   0 C :   -0.142293
   1 C :   -0.176513
   2 C :   -0.090907
   3 H :    0.114876
   4 H :    0.124410
   5 C :   -0.438509
   6 C :   -0.473556
   7 N :    0.084247
   8 C :    0.033059
   9 H :    0.037635
  10 H :   -0.037997
  11 H :    0.100992
  12 H :    0.107375
  13 H :    0.113101
  14 H :    0.121698
  15 F :    0.251567
  16 O :    0.038064
  17 H :    0.118140
  18 H :    0.114609

  Mayer bond orders larger than 0.100000
B(  0-C ,  1-C ) :   0.6306 B(  0-C ,  2-C ) :  -0.1091 B(  0-C ,  6-C ) :   0.5282
B(  0-C ,  7-N ) :   0.1640 B(  0-C , 17-H ) :   1.0130 B(  0-C , 18-H ) :   0.9547
B(  1-C ,  2-C ) :   0.6550 B(  1-C , 13-H ) :   0.9717 B(  1-C , 14-H ) :   0.9518
B(  2-C ,  3-H ) :   0.9380 B(  2-C ,  4-H ) :   1.0029 B(  2-C ,  5-C ) :   0.9169
B(  5-C , 15-F ) :   0.8781 B(  5-C , 16-O ) :   1.6065 B(  6-C ,  7-N ) :   0.6386
B(  6-C ,  8-C ) :   0.9852 B(  6-C ,  9-H ) :  -0.2334 B(  6-C , 10-H ) :  -0.1265
B(  6-C , 18-H ) :  -0.1291 B(  7-N ,  8-C ) :   0.1199 B(  7-N , 11-H ) :   1.0008
B(  7-N , 12-H ) :   1.0175 B(  8-C ,  9-H ) :   1.2739 B(  8-C , 10-H ) :   1.2455
B( 10-H , 16-O ) :  -0.3833

Dispersion correction           -0.000551942
FINAL SINGLE POINT ENERGY      -464.393540227336

DIPOLE MOMENT
-------------
                                X             Y             Z
Electronic contribution:      4.30548      -5.16333       9.57407
Nuclear contribution   :     -5.64491       4.57111      -9.93176
                        -----------------------------------------
Total Dipole Moment    :     -1.33943      -0.59222      -0.35770
                        -----------------------------------------
Magnitude (a.u.)       :      1.50756
Magnitude (Debye)      :      3.83192

Rotational constants in cm-1:     0.109825     0.034347     0.029470
Rotational constants in MHz :  3292.465653  1029.684117   883.494260

                             ****ORCA TERMINATED NORMALLY****
TOTAL RUN TIME: 0 days 0 hours 2 minutes 25 seconds 419 msec
