                         Program Version 5.0.0 -  RELEASE  -
|  1> !M062X D3Zero RIJCOSX def2-TZVPD def2/J TightSCF xyzfile
|  2>
|  3> *xyzfile 0 1 D3.xyz
|  4>
|  5> %MaxCore 64000
|  6>
|  7> %pal nprocs 4
|  8> end
|  9>
| 10> %scf
| 11>   MaxIter 150
| 12> end
| 13>
| 14>
| 15>                          ****END OF INPUT****

CARTESIAN COORDINATES (ANGSTROEM)
---------------------------------
  C      3.343500    3.354571   -3.591998
  C      2.952633    1.863077   -3.574849
  C      4.129209    0.898394   -3.418950
  H      3.733687   -0.100605   -3.237633
  H      4.719095    0.862556   -4.339005
  C      5.017344    1.315212   -2.221305
  C      4.255868    3.703851   -4.726054
  C      3.734032    4.293783   -5.800770
  N      5.515039    3.407255   -4.637185
  H      6.149187    3.601203   -5.399053
  H      5.813584    2.899504   -3.808785
  H      2.741380    4.513109   -5.824701
  H      4.287548    4.521260   -6.614341
  H      2.278938    1.735250   -2.725496
  H      2.377466    1.625787   -4.475869
  O      4.737055    0.854112   -1.122825
  F      5.928146    2.168108   -2.491365
  H      3.861246    3.597252   -2.662979
  H      2.446493    3.973461   -3.656556

 Total Charge           Charge          ....    0
 Multiplicity           Mult            ....    1
 Number of Electrons    NEL             ....   70
 Basis Dimension        Dim             ....  429

ORBITAL ENERGIES
----------------

  NO   OCC          E(Eh)            E(eV)
   0   2.0000     -25.340086      -689.5388
   1   2.0000     -19.658131      -534.9249
   2   2.0000     -14.740963      -401.1220
   3   2.0000     -10.736504      -292.1551
   4   2.0000     -10.572423      -287.6903
   5   2.0000     -10.561134      -287.3831
   6   2.0000     -10.557828      -287.2931
   7   2.0000     -10.546557      -286.9864
   8   2.0000     -10.471298      -284.9385
   9   2.0000      -1.488241       -40.4971
  10   2.0000      -1.195224       -32.5237
  11   2.0000      -1.048863       -28.5410
  12   2.0000      -0.924226       -25.1495
  13   2.0000      -0.855239       -23.2722
  14   2.0000      -0.816126       -22.2079
  15   2.0000      -0.774950       -21.0875
  16   2.0000      -0.728845       -19.8329
  17   2.0000      -0.679011       -18.4768
  18   2.0000      -0.665540       -18.1103
  19   2.0000      -0.640517       -17.4294
  20   2.0000      -0.607932       -16.5427
  21   2.0000      -0.591030       -16.0828
  22   2.0000      -0.561332       -15.2746
  23   2.0000      -0.540798       -14.7159
  24   2.0000      -0.520313       -14.1584
  25   2.0000      -0.500794       -13.6273
  26   2.0000      -0.470545       -12.8042
  27   2.0000      -0.465198       -12.6587
  28   2.0000      -0.454554       -12.3690
  29   2.0000      -0.448210       -12.1964
  30   2.0000      -0.423337       -11.5196
  31   2.0000      -0.403976       -10.9928
  32   2.0000      -0.396167       -10.7802
  33   2.0000      -0.383070       -10.4239
  34   2.0000      -0.243570        -6.6279
  35   0.0000       0.000657         0.0179
  36   0.0000       0.009190         0.2501
  37   0.0000       0.026546         0.7224
  38   0.0000       0.031053         0.8450
  39   0.0000       0.033043         0.8991

MULLIKEN ATOMIC CHARGES
-----------------------
   0 C :   -1.052219
   1 C :   -0.517853
   2 C :   -0.605900
   3 H :    0.342198
   4 H :    0.349144
   5 C :    0.656507
   6 C :    0.946070
   7 C :   -1.012257
   8 N :   -0.659471
   9 H :    0.180835
  10 H :    0.506570
  11 H :    0.196756
  12 H :    0.231488
  13 H :    0.338368
  14 H :    0.332228
  15 O :   -0.561966
  16 F :   -0.364069
  17 H :    0.305346
  18 H :    0.388224
Sum of atomic charges:    0.0000000

LOEWDIN ATOMIC CHARGES
----------------------
   0 C :   -0.143072
   1 C :   -0.174128
   2 C :   -0.097506
   3 H :    0.122829
   4 H :    0.118893
   5 C :   -0.460283
   6 C :   -0.490799
   7 C :    0.031033
   8 N :    0.114570
   9 H :    0.127630
  10 H :    0.055390
  11 H :    0.018678
  12 H :    0.015842
  13 H :    0.118002
  14 H :    0.123868
  15 O :    0.129679
  16 F :    0.149259
  17 H :    0.118397
  18 H :    0.121718

  Mayer bond orders larger than 0.100000
B(  0-C ,  1-C ) :   0.6134 B(  0-C ,  6-C ) :   0.6692 B(  0-C ,  7-C ) :   0.2132
B(  0-C , 17-H ) :   0.9616 B(  0-C , 18-H ) :   0.9750 B(  1-C ,  2-C ) :   0.6129
B(  1-C , 13-H ) :   0.9749 B(  1-C , 14-H ) :   0.9613 B(  2-C ,  3-H ) :   0.9582
B(  2-C ,  4-H ) :   0.9577 B(  2-C ,  5-C ) :   0.8708 B(  2-C ,  8-N ) :   0.1694
B(  5-C , 15-O ) :   1.6599 B(  5-C , 16-F ) :   0.7786 B(  6-C ,  7-C ) :   1.1725
B(  6-C ,  8-N ) :   0.7844 B(  6-C , 12-H ) :  -0.1305 B(  7-C ,  8-N ) :   0.1009
B(  7-C , 11-H ) :   1.1093 B(  7-C , 12-H ) :   1.0640 B(  8-N ,  9-H ) :   1.0579
B(  8-N , 10-H ) :   0.7605 B( 10-H , 16-F ) :  -0.1089

Dispersion correction           -0.000550500
FINAL SINGLE POINT ENERGY      -464.425132071956

DIPOLE MOMENT
-------------
                                X             Y             Z
Electronic contribution:      7.42283      -3.57744       8.02621
Nuclear contribution   :     -7.21688       3.18902      -8.52197
                        -----------------------------------------
Total Dipole Moment    :      0.20595      -0.38841      -0.49577
                        -----------------------------------------
Magnitude (a.u.)       :      0.66262
Magnitude (Debye)      :      1.68425

Rotational constants in cm-1:     0.103917     0.036987     0.030872
Rotational constants in MHz :  3115.342573  1108.839114   925.506342

                             ****ORCA TERMINATED NORMALLY****
TOTAL RUN TIME: 0 days 0 hours 2 minutes 15 seconds 718 msec
