                         Program Version 5.0.0 -  RELEASE  -
|  1> !M062X D3Zero RIJCOSX def2-TZVPD def2/J TightSCF xyzfile
|  2>
|  3> *xyzfile 0 1 D4.xyz
|  4>
|  5> %MaxCore 64000
|  6>
|  7> %pal nprocs 4
|  8> end
|  9>
| 10> %scf
| 11>   MaxIter 150
| 12> end
| 13>
| 14>
| 15>                          ****END OF INPUT****

CARTESIAN COORDINATES (ANGSTROEM)
---------------------------------
  C      3.343500    3.354571   -3.591998
  C      2.952633    1.863077   -3.574849
  C      4.129209    0.898394   -3.418950
  H      3.733687   -0.100605   -3.237633
  H      4.719095    0.862556   -4.339005
  C      5.017344    1.315212   -2.221305
  C      4.255868    3.703851   -4.726054
  N      3.734032    4.293783   -5.800770
  C      5.515039    3.407255   -4.637185
  H      6.149187    3.601203   -5.399053
  H      5.813584    2.899504   -3.808785
  H      2.741380    4.513109   -5.824701
  H      4.287548    4.521260   -6.614341
  H      2.278938    1.735250   -2.725496
  H      2.377466    1.625787   -4.475869
  O      4.737055    0.854112   -1.122825
  F      5.928146    2.168108   -2.491365
  H      3.861246    3.597252   -2.662979
  H      2.446493    3.973461   -3.656556

 Total Charge           Charge          ....    0
 Multiplicity           Mult            ....    1
 Number of Electrons    NEL             ....   70
 Basis Dimension        Dim             ....  429

ORBITAL ENERGIES
----------------

  NO   OCC          E(Eh)            E(eV)
   0   2.0000     -25.311370      -688.7574
   1   2.0000     -19.643078      -534.5153
   2   2.0000     -14.751008      -401.3953
   3   2.0000     -10.721002      -291.7333
   4   2.0000     -10.561140      -287.3832
   5   2.0000     -10.557921      -287.2956
   6   2.0000     -10.555377      -287.2264
   7   2.0000     -10.546312      -286.9797
   8   2.0000     -10.457966      -284.5757
   9   2.0000      -1.461590       -39.7719
  10   2.0000      -1.180624       -32.1264
  11   2.0000      -1.036992       -28.2180
  12   2.0000      -0.921006       -25.0619
  13   2.0000      -0.853249       -23.2181
  14   2.0000      -0.805683       -21.9238
  15   2.0000      -0.772676       -21.0256
  16   2.0000      -0.707956       -19.2645
  17   2.0000      -0.672437       -18.2979
  18   2.0000      -0.640224       -17.4214
  19   2.0000      -0.624621       -16.9968
  20   2.0000      -0.602331       -16.3903
  21   2.0000      -0.589995       -16.0546
  22   2.0000      -0.557661       -15.1747
  23   2.0000      -0.537494       -14.6260
  24   2.0000      -0.518676       -14.1139
  25   2.0000      -0.494410       -13.4536
  26   2.0000      -0.465487       -12.6665
  27   2.0000      -0.452415       -12.3108
  28   2.0000      -0.445286       -12.1169
  29   2.0000      -0.436919       -11.8892
  30   2.0000      -0.417832       -11.3698
  31   2.0000      -0.398541       -10.8449
  32   2.0000      -0.391928       -10.6649
  33   2.0000      -0.371967       -10.1217
  34   2.0000      -0.250211        -6.8086
  35   0.0000       0.006591         0.1793
  36   0.0000       0.017330         0.4716
  37   0.0000       0.026262         0.7146
  38   0.0000       0.029983         0.8159
  39   0.0000       0.037763         1.0276

MULLIKEN ATOMIC CHARGES
-----------------------
   0 C :   -0.985882
   1 C :   -0.556635
   2 C :   -0.546128
   3 H :    0.348974
   4 H :    0.346642
   5 C :    0.613771
   6 C :    1.090068
   7 N :   -0.610608
   8 C :   -0.977061
   9 H :    0.201909
  10 H :    0.194575
  11 H :    0.241071
  12 H :    0.221215
  13 H :    0.331683
  14 H :    0.331589
  15 O :   -0.584364
  16 F :   -0.340925
  17 H :    0.261063
  18 H :    0.419044
Sum of atomic charges:   -0.0000000

LOEWDIN ATOMIC CHARGES
----------------------
   0 C :   -0.139202
   1 C :   -0.175323
   2 C :   -0.097292
   3 H :    0.121455
   4 H :    0.117442
   5 C :   -0.462293
   6 C :   -0.470911
   7 N :    0.092845
   8 C :    0.035147
   9 H :    0.038737
  10 H :   -0.008720
  11 H :    0.105116
  12 H :    0.109889
  13 H :    0.117546
  14 H :    0.120991
  15 O :    0.120615
  16 F :    0.136529
  17 H :    0.120965
  18 H :    0.116464

  Mayer bond orders larger than 0.100000
B(  0-C ,  1-C ) :   0.6458 B(  0-C ,  2-C ) :  -0.1012 B(  0-C ,  6-C ) :   0.4930
B(  0-C ,  7-N ) :   0.1639 B(  0-C , 17-H ) :   1.0235 B(  0-C , 18-H ) :   0.9514
B(  1-C ,  2-C ) :   0.6565 B(  1-C , 13-H ) :   0.9746 B(  1-C , 14-H ) :   0.9491
B(  2-C ,  3-H ) :   0.9496 B(  2-C ,  4-H ) :   0.9793 B(  2-C ,  5-C ) :   0.8718
B(  5-C , 15-O ) :   1.6341 B(  5-C , 16-F ) :   0.8446 B(  6-C ,  7-N ) :   0.6481
B(  6-C ,  8-C ) :   1.0259 B(  6-C ,  9-H ) :  -0.2093 B(  6-C , 10-H ) :  -0.1099
B(  6-C , 18-H ) :  -0.1260 B(  7-N ,  8-C ) :   0.1159 B(  7-N , 11-H ) :   0.9949
B(  7-N , 12-H ) :   1.0165 B(  8-C ,  9-H ) :   1.2211 B(  8-C , 10-H ) :   1.1482
B( 10-H , 16-F ) :  -0.3260

Dispersion correction           -0.000552957
FINAL SINGLE POINT ENERGY      -464.412453064337

DIPOLE MOMENT
-------------
                                X             Y             Z
Electronic contribution:      6.19199      -2.83493       7.10749
Nuclear contribution   :     -6.99695       3.07955      -8.37829
                        -----------------------------------------
Total Dipole Moment    :     -0.80497       0.24462      -1.27080
                        -----------------------------------------
Magnitude (a.u.)       :      1.52405
Magnitude (Debye)      :      3.87384

Rotational constants in cm-1:     0.106302     0.035771     0.030198
Rotational constants in MHz :  3186.860872  1072.397550   905.318354

                             ****ORCA TERMINATED NORMALLY****
TOTAL RUN TIME: 0 days 0 hours 2 minutes 18 seconds 9 msec
