                         Program Version 5.0.0 -  RELEASE  -
|  1> !CAM-B3LYP RIJCOSX def2-SVPD def2/J TightSCF
|  2> *xyz -1 1
|  3> C          4.93020       -7.37532       -2.64962
|  4> C          3.84189       -6.95161       -3.63283
|  5> H          3.45814       -5.95442       -3.40712
|  6> H          2.98848       -7.64361       -3.56708
|  7> S          4.31812       -6.91593       -5.36869
|  8> O          5.40615       -5.89948       -5.51297
|  9> O          3.11191       -6.44508       -6.04379
| 10> C          6.17399       -6.48552       -2.60631
| 11> H          4.46961       -7.40617       -1.65588
| 12> H          5.23013       -8.39868       -2.88591
| 13> O          4.76340       -8.23942       -5.69863
| 14> H          6.62449       -6.45478       -3.57637
| 15> H          6.87304       -6.88376       -1.90088
| 16> H          5.89434       -5.49571       -2.31140
| 17> *
| 18>
| 19> %MaxCore 64000
| 20>
| 21> %pal nprocs 8
| 22> end
| 23>
| 24> %scf
| 25>   MaxIter 150
| 26> end
| 27>
| 28>
| 29>                          ****END OF INPUT****

CARTESIAN COORDINATES (ANGSTROEM)
---------------------------------
  C      4.930200   -7.375320   -2.649620
  C      3.841890   -6.951610   -3.632830
  H      3.458140   -5.954420   -3.407120
  H      2.988480   -7.643610   -3.567080
  S      4.318120   -6.915930   -5.368690
  O      5.406150   -5.899480   -5.512970
  O      3.111910   -6.445080   -6.043790
  C      6.173990   -6.485520   -2.606310
  H      4.469610   -7.406170   -1.655880
  H      5.230130   -8.398680   -2.885910
  O      4.763400   -8.239420   -5.698630
  H      6.624490   -6.454780   -3.576370
  H      6.873040   -6.883760   -1.900880
  H      5.894340   -5.495710   -2.311400

 Total Charge           Charge          ....   -1
 Multiplicity           Mult            ....    1
 Number of Electrons    NEL             ....   66
 Basis Dimension        Dim             ....  212

ORBITAL ENERGIES
----------------

  NO   OCC          E(Eh)            E(eV)
   0   2.0000     -88.966159     -2420.8923
   1   2.0000     -19.003277      -517.1055
   2   2.0000     -18.993106      -516.8287
   3   2.0000     -18.986194      -516.6406
   4   2.0000     -10.132673      -275.7241
   5   2.0000     -10.128348      -275.6064
   6   2.0000     -10.111223      -275.1404
   7   2.0000      -8.018996      -218.2080
   8   2.0000      -5.989003      -162.9691
   9   2.0000      -5.988798      -162.9635
  10   2.0000      -5.988359      -162.9515
  11   2.0000      -1.017914       -27.6989
  12   2.0000      -0.876755       -23.8577
  13   2.0000      -0.847212       -23.0538
  14   2.0000      -0.738433       -20.0938
  15   2.0000      -0.645863       -17.5748
  16   2.0000      -0.548298       -14.9200
  17   2.0000      -0.460367       -12.5272
  18   2.0000      -0.407558       -11.0902
  19   2.0000      -0.393160       -10.6984
  20   2.0000      -0.368092       -10.0163
  21   2.0000      -0.352841        -9.6013
  22   2.0000      -0.336588        -9.1590
  23   2.0000      -0.326582        -8.8868
  24   2.0000      -0.292647        -7.9633
  25   2.0000      -0.284644        -7.7456
  26   2.0000      -0.272308        -7.4099
  27   2.0000      -0.223931        -6.0935
  28   2.0000      -0.222687        -6.0596
  29   2.0000      -0.187509        -5.1024
  30   2.0000      -0.175327        -4.7709
  31   2.0000      -0.168358        -4.5813
  32   2.0000      -0.133709        -3.6384
  33   0.0000       0.162739         4.4283
  34   0.0000       0.186188         5.0664
  35   0.0000       0.192523         5.2388
  36   0.0000       0.201371         5.4796
  37   0.0000       0.218686         5.9508

MULLIKEN ATOMIC CHARGES
-----------------------
   0 C :   -0.119530
   1 C :    0.118365
   2 H :   -0.074653
   3 H :   -0.069021
   4 S :    1.333285
   5 O :   -0.847725
   6 O :   -0.825725
   7 C :    1.016954
   8 H :   -0.189310
   9 H :   -0.108723
  10 O :   -0.780067
  11 H :   -0.191355
  12 H :   -0.162130
  13 H :   -0.100364
Sum of atomic charges:   -1.0000000

LOEWDIN ATOMIC CHARGES
----------------------
   0 C :   -0.093111
   1 C :   -0.097575
   2 H :    0.008662
   3 H :    0.012429
   4 S :    0.866449
   5 O :   -0.589554
   6 O :   -0.587456
   7 C :    0.119865
   8 H :    0.006416
   9 H :    0.016497
  10 O :   -0.569741
  11 H :   -0.040815
  12 H :   -0.033292
  13 H :   -0.018774

  Mayer bond orders larger than 0.100000
B(  0-C ,  1-C ) :   1.2204 B(  0-C ,  2-H ) :   0.1560 B(  0-C ,  3-H ) :   0.1495
B(  0-C ,  7-C ) :   1.2348 B(  0-C ,  8-H ) :   0.8250 B(  0-C ,  9-H ) :   0.8882
B(  0-C , 11-H ) :   0.2593 B(  0-C , 12-H ) :   0.2329 B(  0-C , 13-H ) :   0.2442
B(  1-C ,  2-H ) :   0.9189 B(  1-C ,  3-H ) :   0.8907 B(  1-C ,  4-S ) :   0.9246
B(  1-C ,  8-H ) :   0.1756 B(  1-C ,  9-H ) :   0.1475 B(  4-S ,  5-O ) :   1.2353
B(  4-S ,  6-O ) :   1.3345 B(  4-S , 10-O ) :   1.2862 B(  7-C ,  9-H ) :   0.1004
B(  7-C , 11-H ) :   0.7559 B(  7-C , 12-H ) :   0.6986 B(  7-C , 13-H ) :   0.6906
B( 11-H , 13-H ) :   0.1302

FINAL SINGLE POINT ENERGY      -741.933346997827

DIPOLE MOMENT
-------------
                                X             Y             Z
Electronic contribution:     -3.09312      -0.31135     -10.08742
Nuclear contribution   :      3.14317       0.05805      12.49367
                        -----------------------------------------
Total Dipole Moment    :      0.05005      -0.25330       2.40626
                        -----------------------------------------
Magnitude (a.u.)       :      2.42007
Magnitude (Debye)      :      6.15133

Rotational constants in cm-1:     0.133431     0.055055     0.052069
Rotational constants in MHz :  4000.170974  1650.506165  1561.001383

                             ****ORCA TERMINATED NORMALLY****
TOTAL RUN TIME: 0 days 0 hours 0 minutes 20 seconds 500 msec
