                         Program Version 5.0.0 -  RELEASE  -
|  1> !CAM-B3LYP RIJCOSX def2-SVPD def2/J TightSCF
|  2> *xyz 1 1
|  3> C          5.55821       -1.99291       -6.21505
|  4> C          4.18188       -2.58967       -6.29891
|  5> N          3.14587       -1.76843       -6.48675
|  6> N          4.01910       -3.86431       -6.22743
|  7> H          4.76849       -4.59115       -5.99077
|  8> H          3.12241       -4.33339       -6.31462
|  9> H          3.28164       -0.77779       -6.56655
| 10> H          2.21255       -2.13419       -6.56225
| 11> C          6.41926       -2.54294       -5.07763
| 12> C          5.89651       -2.16931       -3.69455
| 13> H          7.42888       -2.14367       -5.20808
| 14> H          6.50589       -3.62754       -5.17550
| 15> H          6.03683       -2.19819       -7.17685
| 16> H          5.46761       -0.90737       -6.12797
| 17> H          5.81870       -1.10488       -3.61824
| 18> H          6.57185       -2.53200       -2.94804
| 19> H          4.93221       -2.60892       -3.54698
| 20> *
| 21>
| 22> %MaxCore 64000
| 23>
| 24> %pal nprocs 8
| 25> end
| 26>
| 27> %scf
| 28>   MaxIter 150
| 29> end
| 30>
| 31>
| 32>                          ****END OF INPUT****

CARTESIAN COORDINATES (ANGSTROEM)
---------------------------------
  C      5.558210   -1.992910   -6.215050
  C      4.181880   -2.589670   -6.298910
  N      3.145870   -1.768430   -6.486750
  N      4.019100   -3.864310   -6.227430
  H      4.768490   -4.591150   -5.990770
  H      3.122410   -4.333390   -6.314620
  H      3.281640   -0.777790   -6.566550
  H      2.212550   -2.134190   -6.562250
  C      6.419260   -2.542940   -5.077630
  C      5.896510   -2.169310   -3.694550
  H      7.428880   -2.143670   -5.208080
  H      6.505890   -3.627540   -5.175500
  H      6.036830   -2.198190   -7.176850
  H      5.467610   -0.907370   -6.127970
  H      5.818700   -1.104880   -3.618240
  H      6.571850   -2.532000   -2.948040
  H      4.932210   -2.608920   -3.546980

 Total Charge           Charge          ....    1
 Multiplicity           Mult            ....    1
 Number of Electrons    NEL             ....   48
 Basis Dimension        Dim             ....  208

ORBITAL ENERGIES
----------------

  NO   OCC          E(Eh)            E(eV)
   0   2.0000     -14.655726      -398.8026
   1   2.0000     -14.644528      -398.4979
   2   2.0000     -10.584262      -288.0124
   3   2.0000     -10.451534      -284.4007
   4   2.0000     -10.418803      -283.5101
   5   2.0000     -10.382636      -282.5259
   6   2.0000      -1.278304       -34.7844
   7   2.0000      -1.177690       -32.0466
   8   2.0000      -1.050695       -28.5909
   9   2.0000      -0.963646       -26.2221
  10   2.0000      -0.910404       -24.7734
  11   2.0000      -0.854962       -23.2647
  12   2.0000      -0.842406       -22.9230
  13   2.0000      -0.801500       -21.8099
  14   2.0000      -0.766318       -20.8526
  15   2.0000      -0.726119       -19.7587
  16   2.0000      -0.697492       -18.9797
  17   2.0000      -0.657661       -17.8959
  18   2.0000      -0.643326       -17.5058
  19   2.0000      -0.628882       -17.1128
  20   2.0000      -0.566835       -15.4244
  21   2.0000      -0.564677       -15.3656
  22   2.0000      -0.558934       -15.2094
  23   2.0000      -0.555020       -15.1029
  24   0.0000      -0.159474        -4.3395
  25   0.0000      -0.121892        -3.3169
  26   0.0000      -0.088908        -2.4193
  27   0.0000      -0.076414        -2.0793
  28   0.0000      -0.055437        -1.5085

MULLIKEN ATOMIC CHARGES
-----------------------
   0 C :    0.190474
   1 C :    0.724543
   2 N :    0.159516
   3 N :    0.164070
   4 H :    0.058494
   5 H :   -0.184271
   6 H :   -0.030234
   7 H :   -0.167061
   8 C :   -0.137650
   9 C :    0.917532
  10 H :   -0.173192
  11 H :   -0.180875
  12 H :   -0.117608
  13 H :    0.067587
  14 H :   -0.032411
  15 H :   -0.131650
  16 H :   -0.127265
Sum of atomic charges:    1.0000000

LOEWDIN ATOMIC CHARGES
----------------------
   0 C :    0.043066
   1 C :   -0.046689
   2 N :    0.290462
   3 N :    0.267621
   4 H :    0.097614
   5 H :    0.050782
   6 H :    0.039465
   7 H :    0.039094
   8 C :   -0.054958
   9 C :    0.145784
  10 H :    0.042272
  11 H :    0.013213
  12 H :    0.055988
  13 H :    0.040621
  14 H :   -0.004752
  15 H :    0.000029
  16 H :   -0.019611

  Mayer bond orders larger than 0.100000
B(  0-C ,  1-C ) :   1.0577 B(  0-C ,  2-N ) :   0.1001 B(  0-C ,  8-C ) :   1.2163
B(  0-C , 10-H ) :   0.1455 B(  0-C , 11-H ) :   0.1511 B(  0-C , 12-H ) :   0.8432
B(  0-C , 13-H ) :   0.7866 B(  1-C ,  2-N ) :   1.0045 B(  1-C ,  3-N ) :   1.1612
B(  1-C ,  4-H ) :  -0.1028 B(  1-C ,  5-H ) :  -0.2411 B(  1-C ,  7-H ) :  -0.2164
B(  1-C , 12-H ) :   0.1732 B(  1-C , 13-H ) :   0.1459 B(  2-N ,  3-N ) :   0.1466
B(  2-N ,  6-H ) :   1.1446 B(  2-N ,  7-H ) :   1.3262 B(  3-N ,  4-H ) :   1.1279
B(  3-N ,  5-H ) :   1.3249 B(  4-H ,  5-H ) :  -0.1970 B(  6-H ,  7-H ) :  -0.1895
B(  8-C ,  9-C ) :   1.3169 B(  8-C , 10-H ) :   0.9230 B(  8-C , 11-H ) :   0.8727
B(  8-C , 12-H ) :   0.1122 B(  8-C , 13-H ) :   0.1570 B(  8-C , 14-H ) :   0.2331
B(  8-C , 15-H ) :   0.2357 B(  8-C , 16-H ) :   0.2267 B(  9-C , 14-H ) :   0.7283
B(  9-C , 15-H ) :   0.7290 B(  9-C , 16-H ) :   0.7865

FINAL SINGLE POINT ENERGY      -268.017130641155

DIPOLE MOMENT
-------------
                                X             Y             Z
Electronic contribution:     -4.01866      -0.94352      -3.72987
Nuclear contribution   :      2.70373       0.48594       2.85544
                        -----------------------------------------
Total Dipole Moment    :     -1.31492      -0.45759      -0.87443
                        -----------------------------------------
Magnitude (a.u.)       :      1.64409
Magnitude (Debye)      :      4.17894

Rotational constants in cm-1:     0.185545     0.074107     0.068805
Rotational constants in MHz :  5562.487769  2221.680591  2062.713441

                             ****ORCA TERMINATED NORMALLY****
TOTAL RUN TIME: 0 days 0 hours 0 minutes 21 seconds 298 msec
