                         Program Version 5.0.0 -  RELEASE  -
|  1> !CAM-B3LYP RIJCOSX def2-SVPD def2/J TightSCF
|  2> *xyz 0 1
|  3> C          4.93020       -7.37532       -2.64962
|  4> C          3.84189       -6.95161       -3.63283
|  5> H          3.45814       -5.95442       -3.40712
|  6> H          2.98848       -7.64361       -3.56708
|  7> S          4.31812       -6.91593       -5.36869
|  8> F          5.40615       -5.89948       -5.51297
|  9> O          3.11191       -6.44508       -6.04379
| 10> C          6.17399       -6.48552       -2.60631
| 11> H          4.46961       -7.40617       -1.65588
| 12> H          5.23013       -8.39868       -2.88591
| 13> O          4.76340       -8.23942       -5.69863
| 14> H          6.62449       -6.45478       -3.57637
| 15> H          6.87304       -6.88376       -1.90088
| 16> H          5.89434       -5.49571       -2.31140
| 17> *
| 18>
| 19> %MaxCore 64000
| 20>
| 21> %pal nprocs 8
| 22> end
| 23>
| 24> %scf
| 25>   MaxIter 150
| 26> end
| 27>
| 28>
| 29>                          ****END OF INPUT****

CARTESIAN COORDINATES (ANGSTROEM)
---------------------------------
  C      4.930200   -7.375320   -2.649620
  C      3.841890   -6.951610   -3.632830
  H      3.458140   -5.954420   -3.407120
  H      2.988480   -7.643610   -3.567080
  S      4.318120   -6.915930   -5.368690
  F      5.406150   -5.899480   -5.512970
  O      3.111910   -6.445080   -6.043790
  C      6.173990   -6.485520   -2.606310
  H      4.469610   -7.406170   -1.655880
  H      5.230130   -8.398680   -2.885910
  O      4.763400   -8.239420   -5.698630
  H      6.624490   -6.454780   -3.576370
  H      6.873040   -6.883760   -1.900880
  H      5.894340   -5.495710   -2.311400

 Total Charge           Charge          ....    0
 Multiplicity           Mult            ....    1
 Number of Electrons    NEL             ....   66
 Basis Dimension        Dim             ....  212

ORBITAL ENERGIES
----------------

  NO   OCC          E(Eh)            E(eV)
   0   2.0000     -89.219920     -2427.7975
   1   2.0000     -24.872375      -676.8117
   2   2.0000     -19.234456      -523.3962
   3   2.0000     -19.224108      -523.1146
   4   2.0000     -10.326148      -280.9888
   5   2.0000     -10.292620      -280.0764
   6   2.0000     -10.267790      -279.4008
   7   2.0000      -8.273556      -225.1349
   8   2.0000      -6.247485      -170.0027
   9   2.0000      -6.241347      -169.8357
  10   2.0000      -6.240020      -169.7996
  11   2.0000      -1.421235       -38.6738
  12   2.0000      -1.202060       -32.7097
  13   2.0000      -1.102828       -30.0095
  14   2.0000      -0.917596       -24.9691
  15   2.0000      -0.832316       -22.6485
  16   2.0000      -0.778021       -21.1710
  17   2.0000      -0.717822       -19.5329
  18   2.0000      -0.649868       -17.6838
  19   2.0000      -0.639417       -17.3994
  20   2.0000      -0.624443       -16.9920
  21   2.0000      -0.569554       -15.4983
  22   2.0000      -0.554275       -15.0826
  23   2.0000      -0.539820       -14.6892
  24   2.0000      -0.527673       -14.3587
  25   2.0000      -0.508964       -13.8496
  26   2.0000      -0.469008       -12.7624
  27   2.0000      -0.456794       -12.4300
  28   2.0000      -0.443612       -12.0713
  29   2.0000      -0.433891       -11.8068
  30   2.0000      -0.410825       -11.1791
  31   2.0000      -0.395650       -10.7662
  32   2.0000      -0.388156       -10.5623
  33   0.0000       0.025647         0.6979
  34   0.0000       0.053863         1.4657
  35   0.0000       0.057288         1.5589
  36   0.0000       0.061089         1.6623
  37   0.0000       0.077273         2.1027

MULLIKEN ATOMIC CHARGES
-----------------------
   0 C :   -0.074263
   1 C :    0.087971
   2 H :   -0.019740
   3 H :   -0.016811
   4 S :    1.463183
   5 F :   -0.427252
   6 O :   -0.679475
   7 C :    1.013268
   8 H :   -0.151117
   9 H :   -0.093438
  10 O :   -0.649429
  11 H :   -0.234302
  12 H :   -0.134525
  13 H :   -0.084069
Sum of atomic charges:   -0.0000000

LOEWDIN ATOMIC CHARGES
----------------------
   0 C :   -0.075713
   1 C :   -0.051358
   2 H :    0.026976
   3 H :    0.044076
   4 S :    1.117754
   5 F :   -0.276685
   6 O :   -0.474836
   7 C :    0.138115
   8 H :    0.031587
   9 H :    0.029279
  10 O :   -0.458497
  11 H :   -0.033442
  12 H :   -0.009243
  13 H :   -0.008015

  Mayer bond orders larger than 0.100000
B(  0-C ,  1-C ) :   1.2464 B(  0-C ,  2-H ) :   0.1516 B(  0-C ,  3-H ) :   0.1421
B(  0-C ,  7-C ) :   1.2528 B(  0-C ,  8-H ) :   0.8187 B(  0-C ,  9-H ) :   0.8961
B(  0-C , 11-H ) :   0.2378 B(  0-C , 12-H ) :   0.2220 B(  0-C , 13-H ) :   0.2341
B(  1-C ,  2-H ) :   0.9225 B(  1-C ,  3-H ) :   0.8758 B(  1-C ,  4-S ) :   0.9867
B(  1-C ,  8-H ) :   0.1692 B(  1-C ,  9-H ) :   0.1469 B(  4-S ,  5-F ) :   0.6076
B(  4-S ,  6-O ) :   1.5494 B(  4-S , 10-O ) :   1.5187 B(  7-C , 11-H ) :   0.7576
B(  7-C , 12-H ) :   0.7167 B(  7-C , 13-H ) :   0.7018 B( 11-H , 13-H ) :   0.1187

FINAL SINGLE POINT ENERGY      -766.436444738370

DIPOLE MOMENT
-------------
                                X             Y             Z
Electronic contribution:     -1.89042       1.40327     -11.68195
Nuclear contribution   :      2.27444      -1.01744      13.40618
                        -----------------------------------------
Total Dipole Moment    :      0.38402       0.38583       1.72423
                        -----------------------------------------
Magnitude (a.u.)       :      1.80813
Magnitude (Debye)      :      4.59589

Rotational constants in cm-1:     0.126966     0.054929     0.051005
Rotational constants in MHz :  3806.345018  1646.729702  1529.089209

                             ****ORCA TERMINATED NORMALLY****
TOTAL RUN TIME: 0 days 0 hours 0 minutes 22 seconds 526 msec
