                         Program Version 5.0.0 -  RELEASE  -
|  1> !CAM-B3LYP RIJCOSX def2-SVPD def2/J TightSCF
|  2> *xyz 0 1
|  3> C          5.55821       -1.99291       -6.21505
|  4> C          4.18188       -2.58967       -6.29891
|  5> C          3.14587       -1.76843       -6.48675
|  6> N          4.01910       -3.86431       -6.22743
|  7> H          4.76849       -4.59115       -5.99077
|  8> H          3.12241       -4.33339       -6.31462
|  9> H          3.28164       -0.77779       -6.56655
| 10> H          2.21255       -2.13419       -6.56225
| 11> C          6.41926       -2.54294       -5.07763
| 12> C          5.89651       -2.16931       -3.69455
| 13> H          7.42888       -2.14367       -5.20808
| 14> H          6.50589       -3.62754       -5.17550
| 15> H          6.03683       -2.19819       -7.17685
| 16> H          5.46761       -0.90737       -6.12797
| 17> H          5.81870       -1.10488       -3.61824
| 18> H          6.57185       -2.53200       -2.94804
| 19> H          4.93221       -2.60892       -3.54698
| 20> *
| 21>
| 22> %MaxCore 64000
| 23>
| 24> %pal nprocs 8
| 25> end
| 26>
| 27> %scf
| 28>   MaxIter 150
| 29> end
| 30>
| 31>
| 32>                          ****END OF INPUT****

CARTESIAN COORDINATES (ANGSTROEM)
---------------------------------
  C      5.558210   -1.992910   -6.215050
  C      4.181880   -2.589670   -6.298910
  C      3.145870   -1.768430   -6.486750
  N      4.019100   -3.864310   -6.227430
  H      4.768490   -4.591150   -5.990770
  H      3.122410   -4.333390   -6.314620
  H      3.281640   -0.777790   -6.566550
  H      2.212550   -2.134190   -6.562250
  C      6.419260   -2.542940   -5.077630
  C      5.896510   -2.169310   -3.694550
  H      7.428880   -2.143670   -5.208080
  H      6.505890   -3.627540   -5.175500
  H      6.036830   -2.198190   -7.176850
  H      5.467610   -0.907370   -6.127970
  H      5.818700   -1.104880   -3.618240
  H      6.571850   -2.532000   -2.948040
  H      4.932210   -2.608920   -3.546980

 Total Charge           Charge          ....    0
 Multiplicity           Mult            ....    1
 Number of Electrons    NEL             ....   48
 Basis Dimension        Dim             ....  208

ORBITAL ENERGIES
----------------

  NO   OCC          E(Eh)            E(eV)
   0   2.0000     -14.414132      -392.2285
   1   2.0000     -10.282160      -279.7918
   2   2.0000     -10.257011      -279.1075
   3   2.0000     -10.254982      -279.0522
   4   2.0000     -10.238942      -278.6158
   5   2.0000     -10.187487      -277.2156
   6   2.0000      -1.010079       -27.4856
   7   2.0000      -0.870602       -23.6903
   8   2.0000      -0.808784       -22.0081
   9   2.0000      -0.754379       -20.5277
  10   2.0000      -0.674080       -18.3427
  11   2.0000      -0.651046       -17.7159
  12   2.0000      -0.590635       -16.0720
  13   2.0000      -0.537163       -14.6170
  14   2.0000      -0.525412       -14.2972
  15   2.0000      -0.516974       -14.0676
  16   2.0000      -0.463759       -12.6195
  17   2.0000      -0.458005       -12.4629
  18   2.0000      -0.441567       -12.0157
  19   2.0000      -0.435229       -11.8432
  20   2.0000      -0.403274       -10.9736
  21   2.0000      -0.392096       -10.6695
  22   2.0000      -0.386955       -10.5296
  23   2.0000      -0.244627        -6.6567
  24   0.0000       0.044231         1.2036
  25   0.0000       0.072342         1.9685
  26   0.0000       0.074046         2.0149
  27   0.0000       0.077912         2.1201
  28   0.0000       0.102427         2.7872

MULLIKEN ATOMIC CHARGES
-----------------------
   0 C :    0.417963
   1 C :   -0.149342
   2 C :    0.710211
   3 N :    0.247266
   4 H :   -0.081662
   5 H :   -0.264444
   6 H :   -0.300027
   7 H :   -0.553378
   8 C :   -0.168941
   9 C :    0.916807
  10 H :   -0.197396
  11 H :   -0.192301
  12 H :   -0.192606
  13 H :    0.128600
  14 H :   -0.052011
  15 H :   -0.143054
  16 H :   -0.125684
Sum of atomic charges:   -0.0000000

LOEWDIN ATOMIC CHARGES
----------------------
   0 C :    0.004033
   1 C :   -0.269492
   2 C :    0.181886
   3 N :    0.153963
   4 H :    0.041064
   5 H :    0.010139
   6 H :   -0.095157
   7 H :   -0.093693
   8 C :   -0.078647
   9 C :    0.127272
  10 H :    0.019469
  11 H :    0.000482
  12 H :    0.027647
  13 H :    0.026961
  14 H :   -0.014711
  15 H :   -0.020641
  16 H :   -0.020573

  Mayer bond orders larger than 0.100000
B(  0-C ,  1-C ) :   1.0971 B(  0-C ,  2-C ) :   0.1515 B(  0-C ,  6-H ) :  -0.1232
B(  0-C ,  8-C ) :   1.1777 B(  0-C , 10-H ) :   0.1749 B(  0-C , 11-H ) :   0.1707
B(  0-C , 12-H ) :   0.7751 B(  0-C , 13-H ) :   0.7533 B(  1-C ,  2-C ) :   1.5765
B(  1-C ,  3-N ) :   1.2718 B(  1-C ,  5-H ) :  -0.1291 B(  1-C ,  7-H ) :   0.2684
B(  1-C , 12-H ) :   0.2719 B(  2-C ,  3-N ) :   0.2790 B(  2-C ,  6-H ) :   1.0401
B(  2-C ,  7-H ) :   0.4898 B(  3-N ,  4-H ) :   1.1847 B(  3-N ,  5-H ) :   1.2651
B(  4-H ,  5-H ) :  -0.1820 B(  8-C ,  9-C ) :   1.2909 B(  8-C , 10-H ) :   0.8916
B(  8-C , 11-H ) :   0.8697 B(  8-C , 13-H ) :   0.1842 B(  8-C , 14-H ) :   0.2494
B(  8-C , 15-H ) :   0.2395 B(  8-C , 16-H ) :   0.2384 B(  9-C , 14-H ) :   0.7315
B(  9-C , 15-H ) :   0.7107 B(  9-C , 16-H ) :   0.7882

FINAL SINGLE POINT ENERGY      -251.552881322464

DIPOLE MOMENT
-------------
                                X             Y             Z
Electronic contribution:     -1.92765      -1.40870      -2.51912
Nuclear contribution   :      2.30279       0.65856       2.66048
                        -----------------------------------------
Total Dipole Moment    :      0.37515      -0.75014       0.14136
                        -----------------------------------------
Magnitude (a.u.)       :      0.85055
Magnitude (Debye)      :      2.16192

Rotational constants in cm-1:     0.189707     0.076319     0.071159
Rotational constants in MHz :  5687.269526  2287.988194  2133.283230

                             ****ORCA TERMINATED NORMALLY****
TOTAL RUN TIME: 0 days 0 hours 0 minutes 21 seconds 999 msec
