                         Program Version 5.0.0 -  RELEASE  -
|  1> !CAM-B3LYP RIJCOSX def2-SVPD def2/J TightSCF
|  2> *xyz 0 1
|  3> C          4.93020       -7.37532       -2.64962
|  4> C          3.84189       -6.95161       -3.63283
|  5> H          3.45814       -5.95442       -3.40712
|  6> H          2.98848       -7.64361       -3.56708
|  7> S          4.31812       -6.91593       -5.36869
|  8> O          5.40615       -5.89948       -5.51297
|  9> F          3.11191       -6.44508       -6.04379
| 10> C          6.17399       -6.48552       -2.60631
| 11> H          4.46961       -7.40617       -1.65588
| 12> H          5.23013       -8.39868       -2.88591
| 13> O          4.76340       -8.23942       -5.69863
| 14> H          6.62449       -6.45478       -3.57637
| 15> H          6.87304       -6.88376       -1.90088
| 16> H          5.89434       -5.49571       -2.31140
| 17> *
| 18>
| 19> %MaxCore 64000
| 20>
| 21> %pal nprocs 8
| 22> end
| 23>
| 24> %scf
| 25>   MaxIter 150
| 26> end
| 27>
| 28>
| 29>                          ****END OF INPUT****

CARTESIAN COORDINATES (ANGSTROEM)
---------------------------------
  C      4.930200   -7.375320   -2.649620
  C      3.841890   -6.951610   -3.632830
  H      3.458140   -5.954420   -3.407120
  H      2.988480   -7.643610   -3.567080
  S      4.318120   -6.915930   -5.368690
  O      5.406150   -5.899480   -5.512970
  F      3.111910   -6.445080   -6.043790
  C      6.173990   -6.485520   -2.606310
  H      4.469610   -7.406170   -1.655880
  H      5.230130   -8.398680   -2.885910
  O      4.763400   -8.239420   -5.698630
  H      6.624490   -6.454780   -3.576370
  H      6.873040   -6.883760   -1.900880
  H      5.894340   -5.495710   -2.311400

 Total Charge           Charge          ....    0
 Multiplicity           Mult            ....    1
 Number of Electrons    NEL             ....   66
 Basis Dimension        Dim             ....  212

ORBITAL ENERGIES
----------------

  NO   OCC          E(Eh)            E(eV)
   0   2.0000     -89.222164     -2427.8585
   1   2.0000     -24.887396      -677.2205
   2   2.0000     -19.234641      -523.4012
   3   2.0000     -19.217035      -522.9221
   4   2.0000     -10.327273      -281.0194
   5   2.0000     -10.290630      -280.0223
   6   2.0000     -10.250725      -278.9364
   7   2.0000      -8.275900      -225.1987
   8   2.0000      -6.249915      -170.0688
   9   2.0000      -6.243630      -169.8978
  10   2.0000      -6.242193      -169.8587
  11   2.0000      -1.448668       -39.4203
  12   2.0000      -1.196735       -32.5648
  13   2.0000      -1.085174       -29.5291
  14   2.0000      -0.914396       -24.8820
  15   2.0000      -0.836531       -22.7632
  16   2.0000      -0.781813       -21.2742
  17   2.0000      -0.712989       -19.4014
  18   2.0000      -0.659129       -17.9358
  19   2.0000      -0.650961       -17.7136
  20   2.0000      -0.633448       -17.2370
  21   2.0000      -0.569676       -15.5017
  22   2.0000      -0.559793       -15.2327
  23   2.0000      -0.525710       -14.3053
  24   2.0000      -0.520085       -14.1522
  25   2.0000      -0.502323       -13.6689
  26   2.0000      -0.462029       -12.5724
  27   2.0000      -0.443618       -12.0715
  28   2.0000      -0.442697       -12.0464
  29   2.0000      -0.427317       -11.6279
  30   2.0000      -0.407818       -11.0973
  31   2.0000      -0.384954       -10.4751
  32   2.0000      -0.376751       -10.2519
  33   0.0000       0.026580         0.7233
  34   0.0000       0.047541         1.2936
  35   0.0000       0.060423         1.6442
  36   0.0000       0.063616         1.7311
  37   0.0000       0.085375         2.3232

MULLIKEN ATOMIC CHARGES
-----------------------
   0 C :   -0.125587
   1 C :    0.077713
   2 H :   -0.021036
   3 H :   -0.008139
   4 S :    1.516876
   5 O :   -0.715325
   6 F :   -0.438316
   7 C :    1.034916
   8 H :   -0.159107
   9 H :   -0.093161
  10 O :   -0.639570
  11 H :   -0.207379
  12 H :   -0.137901
  13 H :   -0.083984
Sum of atomic charges:   -0.0000000

LOEWDIN ATOMIC CHARGES
----------------------
   0 C :   -0.063200
   1 C :   -0.062943
   2 H :    0.025490
   3 H :    0.029981
   4 S :    1.128938
   5 O :   -0.484379
   6 F :   -0.265284
   7 C :    0.141741
   8 H :    0.032862
   9 H :    0.030545
  10 O :   -0.459833
  11 H :   -0.034625
  12 H :   -0.011950
  13 H :   -0.007345

  Mayer bond orders larger than 0.100000
B(  0-C ,  1-C ) :   1.2714 B(  0-C ,  2-H ) :   0.1483 B(  0-C ,  3-H ) :   0.1576
B(  0-C ,  7-C ) :   1.2508 B(  0-C ,  8-H ) :   0.8320 B(  0-C ,  9-H ) :   0.8878
B(  0-C , 11-H ) :   0.2460 B(  0-C , 12-H ) :   0.2247 B(  0-C , 13-H ) :   0.2400
B(  1-C ,  2-H ) :   0.9113 B(  1-C ,  3-H ) :   0.8578 B(  1-C ,  4-S ) :   0.9498
B(  1-C ,  8-H ) :   0.1689 B(  1-C ,  9-H ) :   0.1440 B(  4-S ,  5-O ) :   1.4329
B(  4-S ,  6-F ) :   0.6716 B(  4-S , 10-O ) :   1.5052 B(  7-C , 11-H ) :   0.7619
B(  7-C , 12-H ) :   0.7031 B(  7-C , 13-H ) :   0.6886 B( 11-H , 13-H ) :   0.1277

FINAL SINGLE POINT ENERGY      -766.424773055318

DIPOLE MOMENT
-------------
                                X             Y             Z
Electronic contribution:     -5.87870       0.46936     -12.68566
Nuclear contribution   :      4.74176      -0.43068      13.97705
                        -----------------------------------------
Total Dipole Moment    :     -1.13695       0.03868       1.29139
                        -----------------------------------------
Magnitude (a.u.)       :      1.72100
Magnitude (Debye)      :      4.37443

Rotational constants in cm-1:     0.131248     0.052952     0.050354
Rotational constants in MHz :  3934.713341  1587.473971  1509.583923

                             ****ORCA TERMINATED NORMALLY****
TOTAL RUN TIME: 0 days 0 hours 0 minutes 19 seconds 879 msec
