                         Program Version 5.0.0 -  RELEASE  -
|  1> !CAM-B3LYP RIJCOSX def2-SVPD def2/J TightSCF
|  2> *xyz 0 1
|  3> C          5.55821       -1.99291       -6.21505
|  4> C          4.18188       -2.58967       -6.29891
|  5> N          3.14587       -1.76843       -6.48675
|  6> C          4.01910       -3.86431       -6.22743
|  7> H          4.76849       -4.59115       -5.99077
|  8> H          3.12241       -4.33339       -6.31462
|  9> H          3.28164       -0.77779       -6.56655
| 10> H          2.21255       -2.13419       -6.56225
| 11> C          6.41926       -2.54294       -5.07763
| 12> C          5.89651       -2.16931       -3.69455
| 13> H          7.42888       -2.14367       -5.20808
| 14> H          6.50589       -3.62754       -5.17550
| 15> H          6.03683       -2.19819       -7.17685
| 16> H          5.46761       -0.90737       -6.12797
| 17> H          5.81870       -1.10488       -3.61824
| 18> H          6.57185       -2.53200       -2.94804
| 19> H          4.93221       -2.60892       -3.54698
| 20> *
| 21>
| 22> %MaxCore 64000
| 23>
| 24> %pal nprocs 8
| 25> end
| 26>
| 27> %scf
| 28>   MaxIter 150
| 29> end
| 30>
| 31>
| 32>                          ****END OF INPUT****

CARTESIAN COORDINATES (ANGSTROEM)
---------------------------------
  C      5.558210   -1.992910   -6.215050
  C      4.181880   -2.589670   -6.298910
  N      3.145870   -1.768430   -6.486750
  C      4.019100   -3.864310   -6.227430
  H      4.768490   -4.591150   -5.990770
  H      3.122410   -4.333390   -6.314620
  H      3.281640   -0.777790   -6.566550
  H      2.212550   -2.134190   -6.562250
  C      6.419260   -2.542940   -5.077630
  C      5.896510   -2.169310   -3.694550
  H      7.428880   -2.143670   -5.208080
  H      6.505890   -3.627540   -5.175500
  H      6.036830   -2.198190   -7.176850
  H      5.467610   -0.907370   -6.127970
  H      5.818700   -1.104880   -3.618240
  H      6.571850   -2.532000   -2.948040
  H      4.932210   -2.608920   -3.546980

 Total Charge           Charge          ....    0
 Multiplicity           Mult            ....    1
 Number of Electrons    NEL             ....   48
 Basis Dimension        Dim             ....  208

ORBITAL ENERGIES
----------------

  NO   OCC          E(Eh)            E(eV)
   0   2.0000     -14.403311      -391.9340
   1   2.0000     -10.279893      -279.7301
   2   2.0000     -10.256260      -279.0870
   3   2.0000     -10.251344      -278.9533
   4   2.0000     -10.235061      -278.5102
   5   2.0000     -10.194788      -277.4143
   6   2.0000      -0.999726       -27.2039
   7   2.0000      -0.871902       -23.7257
   8   2.0000      -0.806518       -21.9465
   9   2.0000      -0.758257       -20.6332
  10   2.0000      -0.679612       -18.4932
  11   2.0000      -0.624112       -16.9830
  12   2.0000      -0.592617       -16.1259
  13   2.0000      -0.561903       -15.2902
  14   2.0000      -0.523393       -14.2422
  15   2.0000      -0.507503       -13.8099
  16   2.0000      -0.468408       -12.7460
  17   2.0000      -0.458278       -12.4704
  18   2.0000      -0.433558       -11.7977
  19   2.0000      -0.417952       -11.3731
  20   2.0000      -0.398720       -10.8497
  21   2.0000      -0.392054       -10.6683
  22   2.0000      -0.386339       -10.5128
  23   2.0000      -0.253500        -6.8981
  24   0.0000       0.051837         1.4105
  25   0.0000       0.070827         1.9273
  26   0.0000       0.074833         2.0363
  27   0.0000       0.081605         2.2206
  28   0.0000       0.103640         2.8202

MULLIKEN ATOMIC CHARGES
-----------------------
   0 C :    0.530337
   1 C :    0.255274
   2 N :    0.276774
   3 C :    0.280266
   4 H :   -0.038512
   5 H :   -0.664758
   6 H :   -0.200292
   7 H :   -0.220357
   8 C :   -0.194914
   9 C :    0.921417
  10 H :   -0.196024
  11 H :   -0.144036
  12 H :   -0.184421
  13 H :   -0.095347
  14 H :   -0.045304
  15 H :   -0.176970
  16 H :   -0.103133
Sum of atomic charges:   -0.0000000

LOEWDIN ATOMIC CHARGES
----------------------
   0 C :    0.002025
   1 C :   -0.255604
   2 N :    0.180689
   3 C :    0.154697
   4 H :   -0.045576
   5 H :   -0.085473
   6 H :   -0.015451
   7 H :   -0.000293
   8 C :   -0.071540
   9 C :    0.126541
  10 H :    0.018972
  11 H :    0.007686
  12 H :    0.029565
  13 H :    0.014436
  14 H :   -0.019273
  15 H :   -0.020410
  16 H :   -0.020992

  Mayer bond orders larger than 0.100000
B(  0-C ,  1-C ) :   0.9231 B(  0-C ,  2-N ) :   0.1032 B(  0-C ,  8-C ) :   1.2026
B(  0-C , 10-H ) :   0.1458 B(  0-C , 11-H ) :   0.1679 B(  0-C , 12-H ) :   0.8357
B(  0-C , 13-H ) :   0.6685 B(  1-C ,  2-N ) :   1.0339 B(  1-C ,  3-C ) :   1.5426
B(  1-C ,  5-H ) :   0.1173 B(  1-C ,  7-H ) :  -0.1466 B(  1-C , 12-H ) :   0.1680
B(  1-C , 13-H ) :   0.1796 B(  2-N ,  3-C ) :   0.3158 B(  2-N ,  6-H ) :   1.1389
B(  2-N ,  7-H ) :   1.2916 B(  3-C ,  4-H ) :   0.8472 B(  3-C ,  5-H ) :   0.7101
B(  4-H ,  5-H ) :  -0.1707 B(  6-H ,  7-H ) :  -0.1675 B(  8-C ,  9-C ) :   1.2985
B(  8-C , 10-H ) :   0.8922 B(  8-C , 11-H ) :   0.8663 B(  8-C , 12-H ) :   0.1285
B(  8-C , 13-H ) :   0.1845 B(  8-C , 14-H ) :   0.2503 B(  8-C , 15-H ) :   0.2432
B(  8-C , 16-H ) :   0.2413 B(  9-C , 11-H ) :   0.1008 B(  9-C , 14-H ) :   0.7390
B(  9-C , 15-H ) :   0.7246 B(  9-C , 16-H ) :   0.7884

FINAL SINGLE POINT ENERGY      -251.562730626862

DIPOLE MOMENT
-------------
                                X             Y             Z
Electronic contribution:     -2.68878       0.42338      -2.78659
Nuclear contribution   :      2.50934       0.16282       2.72182
                        -----------------------------------------
Total Dipole Moment    :     -0.17944       0.58620      -0.06477
                        -----------------------------------------
Magnitude (a.u.)       :      0.61646
Magnitude (Debye)      :      1.56691

Rotational constants in cm-1:     0.192764     0.074934     0.070466
Rotational constants in MHz :  5778.908020  2246.454937  2112.518546

                             ****ORCA TERMINATED NORMALLY****
TOTAL RUN TIME: 0 days 0 hours 0 minutes 20 seconds 953 msec
