                         Program Version 5.0.0 -  RELEASE  -
|  1> !CAM-B3LYP RIJCOSX def2-SVPD def2/J TightSCF
|  2> *xyz 0 1
|  3> C          4.93020       -7.37532       -2.64962
|  4> C          3.84189       -6.95161       -3.63283
|  5> H          3.45814       -5.95442       -3.40712
|  6> H          2.98848       -7.64361       -3.56708
|  7> S          4.31812       -6.91593       -5.36869
|  8> O          5.40615       -5.89948       -5.51297
|  9> O          3.11191       -6.44508       -6.04379
| 10> C          6.17399       -6.48552       -2.60631
| 11> H          4.46961       -7.40617       -1.65588
| 12> H          5.23013       -8.39868       -2.88591
| 13> F          4.76340       -8.23942       -5.69863
| 14> H          6.62449       -6.45478       -3.57637
| 15> H          6.87304       -6.88376       -1.90088
| 16> H          5.89434       -5.49571       -2.31140
| 17> *
| 18>
| 19> %MaxCore 64000
| 20>
| 21> %pal nprocs 8
| 22> end
| 23>
| 24> %scf
| 25>   MaxIter 150
| 26> end
| 27>
| 28>
| 29>                          ****END OF INPUT****

CARTESIAN COORDINATES (ANGSTROEM)
---------------------------------
  C      4.930200   -7.375320   -2.649620
  C      3.841890   -6.951610   -3.632830
  H      3.458140   -5.954420   -3.407120
  H      2.988480   -7.643610   -3.567080
  S      4.318120   -6.915930   -5.368690
  O      5.406150   -5.899480   -5.512970
  O      3.111910   -6.445080   -6.043790
  C      6.173990   -6.485520   -2.606310
  H      4.469610   -7.406170   -1.655880
  H      5.230130   -8.398680   -2.885910
  F      4.763400   -8.239420   -5.698630
  H      6.624490   -6.454780   -3.576370
  H      6.873040   -6.883760   -1.900880
  H      5.894340   -5.495710   -2.311400

 Total Charge           Charge          ....    0
 Multiplicity           Mult            ....    1
 Number of Electrons    NEL             ....   66
 Basis Dimension        Dim             ....  212

ORBITAL ENERGIES
----------------

  NO   OCC          E(Eh)            E(eV)
   0   2.0000     -89.223403     -2427.8922
   1   2.0000     -24.901310      -677.5991
   2   2.0000     -19.224885      -523.1357
   3   2.0000     -19.217507      -522.9349
   4   2.0000     -10.327528      -281.0263
   5   2.0000     -10.293448      -280.0990
   6   2.0000     -10.255005      -279.0529
   7   2.0000      -8.277174      -225.2334
   8   2.0000      -6.251484      -170.1115
   9   2.0000      -6.244627      -169.9249
  10   2.0000      -6.243308      -169.8890
  11   2.0000      -1.471548       -40.0429
  12   2.0000      -1.185112       -32.2485
  13   2.0000      -1.077160       -29.3110
  14   2.0000      -0.917773       -24.9739
  15   2.0000      -0.837244       -22.7826
  16   2.0000      -0.794216       -21.6117
  17   2.0000      -0.717351       -19.5201
  18   2.0000      -0.678499       -18.4629
  19   2.0000      -0.672437       -18.2979
  20   2.0000      -0.623150       -16.9568
  21   2.0000      -0.567537       -15.4435
  22   2.0000      -0.561252       -15.2724
  23   2.0000      -0.530791       -14.4435
  24   2.0000      -0.512548       -13.9471
  25   2.0000      -0.505039       -13.7428
  26   2.0000      -0.456723       -12.4281
  27   2.0000      -0.451941       -12.2979
  28   2.0000      -0.446159       -12.1406
  29   2.0000      -0.428931       -11.6718
  30   2.0000      -0.396752       -10.7962
  31   2.0000      -0.386274       -10.5110
  32   2.0000      -0.368642       -10.0313
  33   0.0000       0.021257         0.5784
  34   0.0000       0.052413         1.4262
  35   0.0000       0.058954         1.6042
  36   0.0000       0.060224         1.6388
  37   0.0000       0.078015         2.1229

MULLIKEN ATOMIC CHARGES
-----------------------
   0 C :   -0.087729
   1 C :    0.093525
   2 H :   -0.029340
   3 H :   -0.023958
   4 S :    1.474631
   5 O :   -0.701113
   6 O :   -0.665978
   7 C :    1.046597
   8 H :   -0.164208
   9 H :   -0.118068
  10 F :   -0.394242
  11 H :   -0.211849
  12 H :   -0.136733
  13 H :   -0.081535
Sum of atomic charges:   -0.0000000

LOEWDIN ATOMIC CHARGES
----------------------
   0 C :   -0.078286
   1 C :   -0.051858
   2 H :    0.039452
   3 H :    0.031087
   4 S :    1.128694
   5 O :   -0.479919
   6 O :   -0.474349
   7 C :    0.138667
   8 H :    0.030660
   9 H :    0.023373
  10 F :   -0.249988
  11 H :   -0.039853
  12 H :   -0.012689
  13 H :   -0.004991

  Mayer bond orders larger than 0.100000
B(  0-C ,  1-C ) :   1.2213 B(  0-C ,  2-H ) :   0.1476 B(  0-C ,  3-H ) :   0.1439
B(  0-C ,  7-C ) :   1.2603 B(  0-C ,  8-H ) :   0.8294 B(  0-C ,  9-H ) :   0.8770
B(  0-C , 11-H ) :   0.2528 B(  0-C , 12-H ) :   0.2236 B(  0-C , 13-H ) :   0.2433
B(  1-C ,  2-H ) :   0.9199 B(  1-C ,  3-H ) :   0.8907 B(  1-C ,  4-S ) :   0.9797
B(  1-C ,  8-H ) :   0.1643 B(  1-C ,  9-H ) :   0.1383 B(  4-S ,  5-O ) :   1.4650
B(  4-S ,  6-O ) :   1.5586 B(  4-S , 10-F ) :   0.6682 B(  7-C , 11-H ) :   0.7529
B(  7-C , 12-H ) :   0.7073 B(  7-C , 13-H ) :   0.6914 B( 11-H , 13-H ) :   0.1297

FINAL SINGLE POINT ENERGY      -766.412385342351

DIPOLE MOMENT
-------------
                                X             Y             Z
Electronic contribution:     -3.01614      -2.60689     -12.06506
Nuclear contribution   :      2.96568       1.49902      13.60585
                        -----------------------------------------
Total Dipole Moment    :     -0.05046      -1.10786       1.54079
                        -----------------------------------------
Magnitude (a.u.)       :      1.89840
Magnitude (Debye)      :      4.82536

Rotational constants in cm-1:     0.127173     0.053596     0.051689
Rotational constants in MHz :  3812.547794  1606.772866  1549.597841

                             ****ORCA TERMINATED NORMALLY****
TOTAL RUN TIME: 0 days 0 hours 0 minutes 22 seconds 703 msec
