                         Program Version 5.0.0 -  RELEASE  -
|  1> !CAM-B3LYP RIJCOSX def2-SVPD def2/J TightSCF xyzfile
|  2>
|  3> *xyzfile 0 1 D2.xyz
|  4>
|  5> %MaxCore 64000
|  6>
|  7> %pal nprocs 4
|  8> end
|  9>
| 10> %scf
| 11>   MaxIter 150
| 12> end
| 13>
| 14>
| 15>                          ****END OF INPUT****

CARTESIAN COORDINATES (ANGSTROEM)
---------------------------------
  C      5.558206   -1.992914   -6.215054
  C      4.930199   -7.375319   -2.649623
  C      3.841892   -6.951611   -3.632829
  H      3.458144   -5.954425   -3.407121
  H      2.988484   -7.643606   -3.567078
  S      4.318115   -6.915930   -5.368692
  C      4.181880   -2.589671   -6.298911
  N      3.145873   -1.768431   -6.486753
  C      4.019102   -3.864307   -6.227427
  H      4.768490   -4.591153   -5.990773
  H      3.122405   -4.333392   -6.314620
  H      3.281635   -0.777786   -6.566549
  H      2.212549   -2.134193   -6.562246
  F      5.406154   -5.899480   -5.512972
  O      3.111910   -6.445079   -6.043792
  C      6.419260   -2.542944   -5.077630
  C      5.872267   -5.002756   -2.427819
  C      6.173994   -6.485522   -2.606315
  H      6.734852   -6.613767   -3.534015
  H      6.821463   -6.831018   -1.793617
  H      4.469612   -7.406168   -1.655876
  H      5.230134   -8.398678   -2.885906
  C      5.896512   -2.169314   -3.694552
  H      7.428880   -2.143665   -5.208078
  H      6.505894   -3.627541   -5.175502
  C      6.807804   -2.623428   -2.551019
  H      4.894708   -2.589732   -3.557501
  H      5.778823   -1.081255   -3.635790
  C      7.111544   -4.122463   -2.520363
  H      7.751615   -2.071393   -2.614406
  H      6.345837   -2.326401   -1.604086
  H      5.362882   -4.828697   -1.471335
  H      5.174429   -4.702577   -3.211298
  H      7.778329   -4.329347   -1.677651
  H      7.673189   -4.402845   -3.417586
  O      4.763396   -8.239424   -5.698629
  H      6.036826   -2.198189   -7.176852
  H      5.467610   -0.907371   -6.127968

 Total Charge           Charge          ....    0
 Multiplicity           Mult            ....    1
 Number of Electrons    NEL             ....  136
 Basis Dimension        Dim             ....  512

ORBITAL ENERGIES
----------------

  NO   OCC          E(Eh)            E(eV)
   0   2.0000     -89.219234     -2427.7788
   1   2.0000     -24.873066      -676.8305
   2   2.0000     -19.232150      -523.3334
   3   2.0000     -19.219198      -522.9810
   4   2.0000     -14.396246      -391.7418
   5   2.0000     -10.320683      -280.8401
   6   2.0000     -10.285978      -279.8957
   7   2.0000     -10.269952      -279.4596
   8   2.0000     -10.269514      -279.4477
   9   2.0000     -10.261792      -279.2376
  10   2.0000     -10.256914      -279.1048
  11   2.0000     -10.253805      -279.0202
  12   2.0000     -10.253546      -279.0132
  13   2.0000     -10.252662      -278.9891
  14   2.0000     -10.249271      -278.8968
  15   2.0000     -10.171620      -276.7838
  16   2.0000      -8.271547      -225.0802
  17   2.0000      -6.245743      -169.9553
  18   2.0000      -6.239313      -169.7803
  19   2.0000      -6.237989      -169.7443
  20   2.0000      -1.427434       -38.8425
  21   2.0000      -1.200053       -32.6551
  22   2.0000      -1.100215       -29.9384
  23   2.0000      -0.992078       -26.9958
  24   2.0000      -0.922659       -25.1068
  25   2.0000      -0.894878       -24.3509
  26   2.0000      -0.865153       -23.5420
  27   2.0000      -0.837056       -22.7775
  28   2.0000      -0.799862       -21.7653
  29   2.0000      -0.789861       -21.4932
  30   2.0000      -0.762258       -20.7421
  31   2.0000      -0.735551       -20.0153
  32   2.0000      -0.698731       -19.0134
  33   2.0000      -0.682006       -18.5583
  34   2.0000      -0.669234       -18.2108
  35   2.0000      -0.644038       -17.5252
  36   2.0000      -0.636716       -17.3259
  37   2.0000      -0.621491       -16.9116
  38   2.0000      -0.612213       -16.6592
  39   2.0000      -0.586458       -15.9583
  40   2.0000      -0.569663       -15.5013
  41   2.0000      -0.565559       -15.3896
  42   2.0000      -0.558269       -15.1913
  43   2.0000      -0.545061       -14.8319
  44   2.0000      -0.529805       -14.4167
  45   2.0000      -0.528139       -14.3714
  46   2.0000      -0.521871       -14.2008
  47   2.0000      -0.505327       -13.7507
  48   2.0000      -0.489359       -13.3161
  49   2.0000      -0.483888       -13.1673
  50   2.0000      -0.478581       -13.0229
  51   2.0000      -0.470514       -12.8033
  52   2.0000      -0.448420       -12.2021
  53   2.0000      -0.442450       -12.0397
  54   2.0000      -0.435432       -11.8487
  55   2.0000      -0.429401       -11.6846
  56   2.0000      -0.418907       -11.3990
  57   2.0000      -0.416019       -11.3205
  58   2.0000      -0.410967       -11.1830
  59   2.0000      -0.404422       -11.0049
  60   2.0000      -0.396927       -10.8009
  61   2.0000      -0.396045       -10.7769
  62   2.0000      -0.388951       -10.5839
  63   2.0000      -0.382538       -10.4094
  64   2.0000      -0.378293       -10.2939
  65   2.0000      -0.373316       -10.1584
  66   2.0000      -0.370208       -10.0739
  67   2.0000      -0.243833        -6.6350
  68   0.0000       0.033100         0.9007
  69   0.0000       0.047735         1.2989
  70   0.0000       0.052638         1.4324
  71   0.0000       0.054858         1.4928
  72   0.0000       0.067302         1.8314

MULLIKEN ATOMIC CHARGES
-----------------------
   0 C :    1.006590
   1 C :    0.657634
   2 C :    0.149230
   3 H :    0.181510
   4 H :   -0.319776
   5 S :    1.500656
   6 C :    0.056280
   7 N :    0.283575
   8 C :    1.523192
   9 H :   -0.457017
  10 H :   -1.178854
  11 H :   -0.185635
  12 H :   -0.229686
  13 F :   -0.652645
  14 O :   -0.696393
  15 C :    0.488289
  16 C :    0.194947
  17 C :    0.367229
  18 H :   -0.033556
  19 H :   -0.381492
  20 H :    0.009369
  21 H :   -0.088700
  22 C :    0.036669
  23 H :   -0.207730
  24 H :   -0.677922
  25 C :    0.778963
  26 H :    0.096421
  27 H :   -0.408151
  28 C :    0.277477
  29 H :   -0.042975
  30 H :   -0.121528
  31 H :   -0.046209
  32 H :   -0.505654
  33 H :   -0.394606
  34 H :    0.013940
  35 O :   -0.748852
  36 H :   -0.201057
  37 H :   -0.043534
Sum of atomic charges:    0.0000000

LOEWDIN ATOMIC CHARGES
----------------------
   0 C :    0.015416
   1 C :   -0.028835
   2 C :   -0.035141
   3 H :    0.019490
   4 H :    0.044021
   5 S :    1.138278
   6 C :   -0.235708
   7 N :    0.181834
   8 C :    0.180987
   9 H :   -0.126476
  10 H :   -0.097228
  11 H :   -0.017724
  12 H :    0.000869
  13 F :   -0.290772
  14 O :   -0.455100
  15 C :   -0.022347
  16 C :   -0.033987
  17 C :   -0.029089
  18 H :    0.015991
  19 H :    0.032461
  20 H :    0.035877
  21 H :    0.030512
  22 C :   -0.031569
  23 H :    0.029232
  24 H :   -0.006208
  25 C :   -0.031074
  26 H :    0.013469
  27 H :    0.023796
  28 C :   -0.032827
  29 H :    0.022120
  30 H :    0.021666
  31 H :    0.040603
  32 H :   -0.016179
  33 H :    0.024984
  34 H :    0.017605
  35 O :   -0.445056
  36 H :    0.031908
  37 H :    0.014202

  Mayer bond orders larger than 0.100000
B(  0-C ,  6-C ) :   0.9483 B(  0-C ,  8-C ) :   0.1664 B(  0-C ,  9-H ) :  -0.1701
B(  0-C , 15-C ) :   1.1853 B(  0-C , 24-H ) :   0.1243 B(  0-C , 36-H ) :   0.4950
B(  0-C , 37-H ) :   0.6253 B(  1-C ,  2-C ) :   1.2089 B(  1-C ,  4-H ) :   0.1727
B(  1-C , 17-C ) :   1.1960 B(  1-C , 20-H ) :   0.6608 B(  1-C , 21-H ) :   0.6240
B(  2-C ,  3-H ) :   0.8462 B(  2-C ,  4-H ) :   0.7505 B(  2-C ,  5-S ) :   0.9974
B(  2-C , 20-H ) :   0.2049 B(  2-C , 21-H ) :   0.1334 B(  2-C , 35-O ) :   0.1073
B(  4-H ,  5-S ) :   0.1492 B(  5-S , 13-F ) :   0.5836 B(  5-S , 14-O ) :   1.5128
B(  5-S , 35-O ) :   1.4991 B(  6-C ,  7-N ) :   0.8933 B(  6-C ,  8-C ) :   1.9388
B(  6-C ,  9-H ) :  -0.1455 B(  6-C , 10-H ) :   0.1517 B(  6-C , 12-H ) :  -0.1534
B(  6-C , 36-H ) :   0.2787 B(  6-C , 37-H ) :   0.1417 B(  7-N ,  8-C ) :   0.4814
B(  7-N ,  9-H ) :   0.1083 B(  7-N , 10-H ) :  -0.1194 B(  7-N , 11-H ) :   1.1296
B(  7-N , 12-H ) :   1.2987 B(  8-C , 10-H ) :  -0.4684 B(  8-C , 14-O ) :  -0.2903
B(  8-C , 24-H ) :   0.1428 B(  9-H , 10-H ) :  -0.1694 B(  9-H , 15-C ) :   0.1043
B(  9-H , 24-H ) :   0.1593 B( 10-H , 14-O ) :   0.3229 B( 10-H , 24-H ) :  -0.1462
B( 11-H , 12-H ) :  -0.1636 B( 13-F , 14-O ) :   0.1143 B( 13-F , 24-H ) :   0.1385
B( 13-F , 35-O ) :   0.1028 B( 15-C , 22-C ) :   1.1692 B( 15-C , 23-H ) :   0.7000
B( 15-C , 24-H ) :   0.5824 B( 15-C , 26-H ) :   0.1420 B( 15-C , 27-H ) :   0.1789
B( 15-C , 36-H ) :   0.3423 B( 15-C , 37-H ) :   0.1779 B( 16-C , 17-C ) :   1.1822
B( 16-C , 18-H ) :   0.1434 B( 16-C , 19-H ) :   0.1891 B( 16-C , 28-C ) :   1.1937
B( 16-C , 31-H ) :   0.7330 B( 16-C , 32-H ) :   0.9216 B( 16-C , 33-H ) :   0.2196
B( 16-C , 34-H ) :   0.1546 B( 17-C , 18-H ) :   0.8384 B( 17-C , 19-H ) :   0.7951
B( 17-C , 20-H ) :   0.1020 B( 17-C , 21-H ) :   0.2747 B( 17-C , 28-C ) :   0.1495
B( 17-C , 31-H ) :   0.1058 B( 20-H , 21-H ) :  -0.1156 B( 22-C , 23-H ) :   0.1684
B( 22-C , 24-H ) :   0.2172 B( 22-C , 25-C ) :   1.0710 B( 22-C , 26-H ) :   0.8352
B( 22-C , 27-H ) :   1.0080 B( 22-C , 28-C ) :   0.1499 B( 22-C , 29-H ) :   0.1662
B( 22-C , 30-H ) :   0.2796 B( 25-C , 28-C ) :   1.1049 B( 25-C , 29-H ) :   0.6122
B( 25-C , 30-H ) :   0.6394 B( 26-H , 32-H ) :   0.1719 B( 28-C , 29-H ) :   0.2544
B( 28-C , 30-H ) :   0.1207 B( 28-C , 31-H ) :   0.1191 B( 28-C , 33-H ) :   0.8956
B( 28-C , 34-H ) :   0.8020 B( 29-H , 30-H ) :  -0.1267 B( 31-H , 32-H ) :   0.1044
B( 36-H , 37-H ) :  -0.1432

FINAL SINGLE POINT ENERGY     -1134.564797822050

DIPOLE MOMENT
-------------
                                X             Y             Z
Electronic contribution:     -7.72542     -16.94102     -13.53610
Nuclear contribution   :      7.91684      17.85507      15.13212
                        -----------------------------------------
Total Dipole Moment    :      0.19142       0.91405       1.59602
                        -----------------------------------------
Magnitude (a.u.)       :      1.84916
Magnitude (Debye)      :      4.70020

Rotational constants in cm-1:     0.018015     0.012410     0.008313
Rotational constants in MHz :   540.084467   372.038374   249.228144

                             ****ORCA TERMINATED NORMALLY****
TOTAL RUN TIME: 0 days 0 hours 7 minutes 15 seconds 327 msec
