                         Program Version 5.0.0 -  RELEASE  -
|  1> !CAM-B3LYP RIJCOSX def2-SVPD def2/J TightSCF xyzfile
|  2>
|  3> *xyzfile 0 1 D3.xyz
|  4>
|  5> %MaxCore 64000
|  6>
|  7> %pal nprocs 4
|  8> end
|  9>
| 10> %scf
| 11>   MaxIter 150
| 12> end
| 13>
| 14>
| 15>                          ****END OF INPUT****

CARTESIAN COORDINATES (ANGSTROEM)
---------------------------------
  C      5.558206   -1.992914   -6.215054
  C      4.930199   -7.375319   -2.649623
  C      3.841892   -6.951611   -3.632829
  H      3.458144   -5.954425   -3.407121
  H      2.988484   -7.643606   -3.567078
  S      4.318115   -6.915930   -5.368692
  C      4.181880   -2.589671   -6.298911
  C      3.145873   -1.768431   -6.486753
  N      4.019102   -3.864307   -6.227427
  H      4.768490   -4.591153   -5.990773
  H      3.122405   -4.333392   -6.314620
  H      3.281635   -0.777786   -6.566549
  H      2.212549   -2.134193   -6.562246
  O      5.406154   -5.899480   -5.512972
  F      3.111910   -6.445079   -6.043792
  C      6.419260   -2.542944   -5.077630
  C      5.872267   -5.002756   -2.427819
  C      6.173994   -6.485522   -2.606315
  H      6.734852   -6.613767   -3.534015
  H      6.821463   -6.831018   -1.793617
  H      4.469612   -7.406168   -1.655876
  H      5.230134   -8.398678   -2.885906
  C      5.896512   -2.169314   -3.694552
  H      7.428880   -2.143665   -5.208078
  H      6.505894   -3.627541   -5.175502
  C      6.807804   -2.623428   -2.551019
  H      4.894708   -2.589732   -3.557501
  H      5.778823   -1.081255   -3.635790
  C      7.111544   -4.122463   -2.520363
  H      7.751615   -2.071393   -2.614406
  H      6.345837   -2.326401   -1.604086
  H      5.362882   -4.828697   -1.471335
  H      5.174429   -4.702577   -3.211298
  H      7.778329   -4.329347   -1.677651
  H      7.673189   -4.402845   -3.417586
  O      4.763396   -8.239424   -5.698629
  H      6.036826   -2.198189   -7.176852
  H      5.467610   -0.907371   -6.127968

 Total Charge           Charge          ....    0
 Multiplicity           Mult            ....    1
 Number of Electrons    NEL             ....  136
 Basis Dimension        Dim             ....  512

ORBITAL ENERGIES
----------------

  NO   OCC          E(Eh)            E(eV)
   0   2.0000     -89.249576     -2428.6044
   1   2.0000     -24.912551      -677.9050
   2   2.0000     -19.257181      -524.0145
   3   2.0000     -19.248607      -523.7812
   4   2.0000     -14.376011      -391.1912
   5   2.0000     -10.341187      -281.3980
   6   2.0000     -10.298963      -280.2490
   7   2.0000     -10.267561      -279.3945
   8   2.0000     -10.263979      -279.2971
   9   2.0000     -10.257994      -279.1342
  10   2.0000     -10.251550      -278.9589
  11   2.0000     -10.247921      -278.8601
  12   2.0000     -10.242482      -278.7121
  13   2.0000     -10.242183      -278.7040
  14   2.0000     -10.241667      -278.6899
  15   2.0000     -10.171137      -276.7707
  16   2.0000      -8.302150      -225.9130
  17   2.0000      -6.276266      -170.7859
  18   2.0000      -6.270164      -170.6198
  19   2.0000      -6.268246      -170.5676
  20   2.0000      -1.474380       -40.1199
  21   2.0000      -1.222903       -33.2769
  22   2.0000      -1.120641       -30.4942
  23   2.0000      -0.987213       -26.8634
  24   2.0000      -0.933723       -25.4079
  25   2.0000      -0.892147       -24.2766
  26   2.0000      -0.867178       -23.5971
  27   2.0000      -0.838305       -22.8114
  28   2.0000      -0.816096       -22.2071
  29   2.0000      -0.786989       -21.4151
  30   2.0000      -0.766501       -20.8576
  31   2.0000      -0.730956       -19.8903
  32   2.0000      -0.699432       -19.0325
  33   2.0000      -0.691525       -18.8174
  34   2.0000      -0.676406       -18.4060
  35   2.0000      -0.669814       -18.2266
  36   2.0000      -0.653181       -17.7739
  37   2.0000      -0.633651       -17.2425
  38   2.0000      -0.624389       -16.9905
  39   2.0000      -0.597096       -16.2478
  40   2.0000      -0.581251       -15.8166
  41   2.0000      -0.570100       -15.5132
  42   2.0000      -0.556424       -15.1411
  43   2.0000      -0.539747       -14.6873
  44   2.0000      -0.532300       -14.4846
  45   2.0000      -0.528382       -14.3780
  46   2.0000      -0.517867       -14.0919
  47   2.0000      -0.502455       -13.6725
  48   2.0000      -0.493919       -13.4402
  49   2.0000      -0.488755       -13.2997
  50   2.0000      -0.482992       -13.1429
  51   2.0000      -0.472413       -12.8550
  52   2.0000      -0.459861       -12.5134
  53   2.0000      -0.453884       -12.3508
  54   2.0000      -0.441115       -12.0034
  55   2.0000      -0.431532       -11.7426
  56   2.0000      -0.428499       -11.6600
  57   2.0000      -0.425242       -11.5714
  58   2.0000      -0.417667       -11.3653
  59   2.0000      -0.404515       -11.0074
  60   2.0000      -0.399257       -10.8643
  61   2.0000      -0.396118       -10.7789
  62   2.0000      -0.392241       -10.6734
  63   2.0000      -0.382362       -10.4046
  64   2.0000      -0.374278       -10.1846
  65   2.0000      -0.367697       -10.0055
  66   2.0000      -0.363970        -9.9041
  67   2.0000      -0.226935        -6.1752
  68   0.0000       0.016355         0.4450
  69   0.0000       0.035607         0.9689
  70   0.0000       0.045916         1.2494
  71   0.0000       0.055710         1.5160
  72   0.0000       0.067213         1.8290

MULLIKEN ATOMIC CHARGES
-----------------------
   0 C :    0.935816
   1 C :    0.606718
   2 C :    0.072953
   3 H :    0.186188
   4 H :   -0.261456
   5 S :    1.555027
   6 C :   -0.480374
   7 C :    0.560091
   8 N :    1.069339
   9 H :   -0.379441
  10 H :   -0.328828
  11 H :   -0.379953
  12 H :   -0.472445
  13 O :   -0.941920
  14 F :   -0.470985
  15 C :    0.581822
  16 C :    0.140948
  17 C :    0.407132
  18 H :    0.006942
  19 H :   -0.406044
  20 H :    0.011840
  21 H :   -0.078109
  22 C :    0.066676
  23 H :   -0.210990
  24 H :   -0.738838
  25 C :    0.761247
  26 H :    0.065507
  27 H :   -0.401389
  28 C :    0.254492
  29 H :   -0.035720
  30 H :   -0.138620
  31 H :   -0.047360
  32 H :   -0.417748
  33 H :   -0.410716
  34 H :    0.043816
  35 O :   -0.706274
  36 H :   -0.222529
  37 H :    0.203186
Sum of atomic charges:   -0.0000000

LOEWDIN ATOMIC CHARGES
----------------------
   0 C :    0.018106
   1 C :   -0.013519
   2 C :   -0.042238
   3 H :    0.019805
   4 H :    0.033909
   5 S :    1.178491
   6 C :   -0.256412
   7 C :    0.173076
   8 N :    0.179386
   9 H :   -0.113277
  10 H :   -0.017677
  11 H :   -0.101902
  12 H :   -0.098853
  13 O :   -0.445974
  14 F :   -0.250507
  15 C :   -0.023554
  16 C :   -0.033720
  17 C :   -0.024773
  18 H :    0.016463
  19 H :    0.032294
  20 H :    0.040581
  21 H :    0.033207
  22 C :   -0.030575
  23 H :    0.028138
  24 H :   -0.010018
  25 C :   -0.031542
  26 H :    0.013971
  27 H :    0.026158
  28 C :   -0.030561
  29 H :    0.022084
  30 H :    0.020630
  31 H :    0.038284
  32 H :   -0.016984
  33 H :    0.023987
  34 H :    0.020431
  35 O :   -0.431649
  36 H :    0.030010
  37 H :    0.024725

  Mayer bond orders larger than 0.100000
B(  0-C ,  6-C ) :   0.9489 B(  0-C ,  8-N ) :   0.1708 B(  0-C , 15-C ) :   1.1221
B(  0-C , 23-H ) :   0.1146 B(  0-C , 24-H ) :   0.1730 B(  0-C , 36-H ) :   0.4210
B(  0-C , 37-H ) :   0.6406 B(  1-C ,  2-C ) :   1.2657 B(  1-C ,  3-H ) :   0.1045
B(  1-C ,  4-H ) :   0.1870 B(  1-C , 17-C ) :   1.1897 B(  1-C , 20-H ) :   0.6671
B(  1-C , 21-H ) :   0.6224 B(  2-C ,  3-H ) :   0.7979 B(  2-C ,  4-H ) :   0.7993
B(  2-C ,  5-S ) :   0.9821 B(  2-C , 20-H ) :   0.2173 B(  2-C , 21-H ) :   0.1216
B(  2-C , 35-O ) :   0.1047 B(  4-H ,  5-S ) :   0.1016 B(  5-S , 13-O ) :   1.2460
B(  5-S , 14-F ) :   0.6346 B(  5-S , 35-O ) :   1.5246 B(  6-C ,  7-C ) :   1.6225
B(  6-C ,  8-N ) :   1.3643 B(  6-C , 10-H ) :  -0.1695 B(  6-C , 11-H ) :   0.1316
B(  6-C , 12-H ) :   0.3153 B(  6-C , 15-C ) :   0.1359 B(  6-C , 24-H ) :  -0.1193
B(  6-C , 36-H ) :   0.3272 B(  6-C , 37-H ) :   0.1516 B(  7-C ,  8-N ) :   0.1359
B(  7-C , 10-H ) :  -0.1087 B(  7-C , 11-H ) :   0.8281 B(  7-C , 12-H ) :   0.5375
B(  8-N ,  9-H ) :   0.6294 B(  8-N , 10-H ) :   0.8882 B(  8-N , 13-O ) :  -0.1358
B(  9-H , 10-H ) :  -0.1847 B(  9-H , 13-O ) :   0.2044 B( 10-H , 14-F ) :   0.1207
B( 13-O , 24-H ) :   0.2181 B( 13-O , 35-O ) :   0.1376 B( 15-C , 22-C ) :   1.1647
B( 15-C , 23-H ) :   0.6857 B( 15-C , 24-H ) :   0.4106 B( 15-C , 26-H ) :   0.1424
B( 15-C , 27-H ) :   0.2026 B( 15-C , 36-H ) :   0.2881 B( 15-C , 37-H ) :   0.1807
B( 16-C , 17-C ) :   1.1804 B( 16-C , 18-H ) :   0.1441 B( 16-C , 19-H ) :   0.1836
B( 16-C , 28-C ) :   1.2123 B( 16-C , 31-H ) :   0.7463 B( 16-C , 32-H ) :   0.9189
B( 16-C , 33-H ) :   0.2142 B( 16-C , 34-H ) :   0.1504 B( 17-C , 18-H ) :   0.8206
B( 17-C , 19-H ) :   0.7900 B( 17-C , 20-H ) :   0.1076 B( 17-C , 21-H ) :   0.2778
B( 17-C , 28-C ) :   0.1591 B( 17-C , 31-H ) :   0.1018 B( 20-H , 21-H ) :  -0.1200
B( 22-C , 23-H ) :   0.1564 B( 22-C , 24-H ) :   0.2457 B( 22-C , 25-C ) :   1.0620
B( 22-C , 26-H ) :   0.8358 B( 22-C , 27-H ) :   0.9680 B( 22-C , 28-C ) :   0.1404
B( 22-C , 29-H ) :   0.1475 B( 22-C , 30-H ) :   0.2623 B( 23-H , 27-H ) :   0.1041
B( 24-H , 34-H ) :   0.1069 B( 25-C , 28-C ) :   1.1086 B( 25-C , 29-H ) :   0.6424
B( 25-C , 30-H ) :   0.6534 B( 26-H , 32-H ) :   0.1559 B( 28-C , 29-H ) :   0.2485
B( 28-C , 30-H ) :   0.1305 B( 28-C , 31-H ) :   0.1172 B( 28-C , 33-H ) :   0.9032
B( 28-C , 34-H ) :   0.7928 B( 29-H , 30-H ) :  -0.1344 B( 31-H , 32-H ) :   0.1125

FINAL SINGLE POINT ENERGY     -1134.568569803821

DIPOLE MOMENT
-------------
                                X             Y             Z
Electronic contribution:    -10.98919     -20.02249     -14.15426
Nuclear contribution   :     10.48431      18.81367      15.71750
                        -----------------------------------------
Total Dipole Moment    :     -0.50488      -1.20882       1.56324
                        -----------------------------------------
Magnitude (a.u.)       :      2.03957
Magnitude (Debye)      :      5.18419

Rotational constants in cm-1:     0.017977     0.012528     0.008321
Rotational constants in MHz :   538.924099   375.570730   249.458530

                             ****ORCA TERMINATED NORMALLY****
TOTAL RUN TIME: 0 days 0 hours 7 minutes 12 seconds 304 msec
