                         Program Version 5.0.0 -  RELEASE  -
|  1> !PBE0 D3BJ RIJCOSX def2-SVPD def2/J TightSCF
|  2> *xyz -1 1
|  3> C         -0.77455        2.78833       -0.54394
|  4> C          0.69721        3.22791       -0.52513
|  5> O          1.48929        2.37470        0.19919
|  6> H          0.71600        4.26403       -0.13077
|  7> H          1.03615        3.33092       -1.58367
|  8> H         -1.34746        3.48478       -1.11982
|  9> H         -1.15078        2.75876        0.45729
| 10> H         -0.85058        1.81526       -0.98241
| 11> *
| 12>
| 13> %MaxCore 64000
| 14> %pal nprocs 4
| 15> end
| 16>
| 17> %scf
| 18>   MaxIter 150
| 19> end
| 20>
| 21>
| 22>                          ****END OF INPUT****

CARTESIAN COORDINATES (ANGSTROEM)
---------------------------------
  C     -0.774550    2.788330   -0.543940
  C      0.697210    3.227910   -0.525130
  O      1.489290    2.374700    0.199190
  H      0.716000    4.264030   -0.130770
  H      1.036150    3.330920   -1.583670
  H     -1.347460    3.484780   -1.119820
  H     -1.150780    2.758760    0.457290
  H     -0.850580    1.815260   -0.982410

 Total Charge           Charge          ....   -1
 Multiplicity           Mult            ....    1
 Number of Electrons    NEL             ....   26
 Basis Dimension        Dim             ....  103

ORBITAL ENERGIES
----------------

  NO   OCC          E(Eh)            E(eV)
   0   2.0000     -18.883536      -513.8471
   1   2.0000     -10.045837      -273.3611
   2   2.0000     -10.023134      -272.7433
   3   2.0000      -0.694632       -18.9019
   4   2.0000      -0.540062       -14.6958
   5   2.0000      -0.383984       -10.4487
   6   2.0000      -0.262716        -7.1489
   7   2.0000      -0.240163        -6.5352
   8   2.0000      -0.186643        -5.0788
   9   2.0000      -0.166930        -4.5424
  10   2.0000      -0.124875        -3.3980
  11   2.0000       0.020000         0.5442
  12   2.0000       0.022201         0.6041
  13   0.0000       0.186208         5.0670
  14   0.0000       0.216946         5.9034
  15   0.0000       0.251161         6.8344
  16   0.0000       0.263809         7.1786
  17   0.0000       0.281758         7.6670

MULLIKEN ATOMIC CHARGES
-----------------------
   0 C :    0.106125
   1 C :    0.091735
   2 O :   -0.948578
   3 H :   -0.105940
   4 H :   -0.093747
   5 H :    0.006987
   6 H :   -0.028148
   7 H :   -0.028434
Sum of atomic charges:   -1.0000000

LOEWDIN ATOMIC CHARGES
----------------------
   0 C :    0.053885
   1 C :   -0.261321
   2 O :   -0.587150
   3 H :   -0.034023
   4 H :   -0.030042
   5 H :   -0.059521
   6 H :   -0.040626
   7 H :   -0.041201

  Mayer bond orders larger than 0.100000
B(  0-C ,  1-C ) :   1.2087 B(  0-C ,  2-O ) :   0.1864 B(  0-C ,  3-H ) :   0.1174
B(  0-C ,  4-H ) :   0.1101 B(  0-C ,  5-H ) :   0.9229 B(  0-C ,  6-H ) :   0.9290
B(  0-C ,  7-H ) :   0.9323 B(  1-C ,  2-O ) :   1.0706 B(  1-C ,  3-H ) :   0.9896
B(  1-C ,  4-H ) :   0.9951 B(  1-C ,  5-H ) :   0.1079 B(  1-C ,  6-H ) :   0.1565
B(  1-C ,  7-H ) :   0.1552

Dispersion correction           -0.003050327
FINAL SINGLE POINT ENERGY      -154.140812612017

DIPOLE MOMENT
-------------
                                X             Y             Z
Electronic contribution:      2.37496      -1.00936       1.15683
Nuclear contribution   :     -3.69910       1.55962      -1.78699
                        -----------------------------------------
Total Dipole Moment    :     -1.32414       0.55026      -0.63017
                        -----------------------------------------
Magnitude (a.u.)       :      1.56628
Magnitude (Debye)      :      3.98118

Rotational constants in cm-1:     1.268893     0.327436     0.287754
Rotational constants in MHz : 38040.440181  9816.269339  8626.646564

                             ****ORCA TERMINATED NORMALLY****
TOTAL RUN TIME: 0 days 0 hours 0 minutes 10 seconds 562 msec
