                         Program Version 5.0.0 -  RELEASE  -
|  1> !PBE0 D3BJ RIJCOSX def2-SVPD def2/J TightSCF
|  2> *xyz 1 1
|  3> C          3.95643        0.50147       -0.37910
|  4> H          3.16840        0.02920        0.20738
|  5> N          3.80389        1.96157       -0.15675
|  6> C          3.84232        0.14849       -1.85406
|  7> H          4.92323        0.17798        0.00937
|  8> H          4.20643        2.24441        0.74536
|  9> H          2.80827        2.21132       -0.09610
| 10> H          4.28076        2.50155       -0.89104
| 11> H          4.62951        0.62800       -2.39748
| 12> H          2.89665        0.48102       -2.22825
| 13> H          3.92053       -0.91187       -1.97413
| 14> *
| 15>
| 16> %MaxCore 64000
| 17> %pal nprocs 4
| 18> end
| 19>
| 20> %scf
| 21>   MaxIter 150
| 22> end
| 23>
| 24>
| 25>                          ****END OF INPUT****

CARTESIAN COORDINATES (ANGSTROEM)
---------------------------------
  C      3.956430    0.501470   -0.379100
  H      3.168400    0.029200    0.207380
  N      3.803890    1.961570   -0.156750
  C      3.842320    0.148490   -1.854060
  H      4.923230    0.177980    0.009370
  H      4.206430    2.244410    0.745360
  H      2.808270    2.211320   -0.096100
  H      4.280760    2.501550   -0.891040
  H      4.629510    0.628000   -2.397480
  H      2.896650    0.481020   -2.228250
  H      3.920530   -0.911870   -1.974130

 Total Charge           Charge          ....    1
 Multiplicity           Mult            ....    1
 Number of Electrons    NEL             ....   26
 Basis Dimension        Dim             ....  124

ORBITAL ENERGIES
----------------

  NO   OCC          E(Eh)            E(eV)
   0   2.0000     -14.733252      -400.9122
   1   2.0000     -10.487727      -285.3856
   2   2.0000     -10.408584      -283.2320
   3   2.0000      -1.236162       -33.6377
   4   2.0000      -0.984187       -26.7811
   5   2.0000      -0.861224       -23.4351
   6   2.0000      -0.821242       -22.3471
   7   2.0000      -0.802889       -21.8477
   8   2.0000      -0.713889       -19.4259
   9   2.0000      -0.657765       -17.8987
  10   2.0000      -0.597367       -16.2552
  11   2.0000      -0.582211       -15.8428
  12   2.0000      -0.563651       -15.3377
  13   0.0000      -0.185386        -5.0446
  14   0.0000      -0.127840        -3.4787
  15   0.0000      -0.123170        -3.3516
  16   0.0000      -0.114998        -3.1293
  17   0.0000      -0.083823        -2.2809

MULLIKEN ATOMIC CHARGES
-----------------------
   0 C :    0.128491
   1 H :   -0.017913
   2 N :   -0.886621
   3 C :    0.418055
   4 H :    0.000857
   5 H :    0.380179
   6 H :    0.420726
   7 H :    0.433726
   8 H :    0.027411
   9 H :    0.057210
  10 H :    0.037879
Sum of atomic charges:    1.0000000

LOEWDIN ATOMIC CHARGES
----------------------
   0 C :    0.049418
   1 H :    0.055148
   2 N :    0.323822
   3 C :    0.166111
   4 H :    0.056155
   5 H :    0.107370
   6 H :    0.111113
   7 H :    0.107364
   8 H :    0.002648
   9 H :    0.003411
  10 H :    0.017441

  Mayer bond orders larger than 0.100000
B(  0-C ,  1-H ) :   0.9353 B(  0-C ,  2-N ) :   0.7247 B(  0-C ,  3-C ) :   1.3379
B(  0-C ,  4-H ) :   0.9560 B(  0-C ,  8-H ) :   0.1341 B(  0-C ,  9-H ) :   0.1232
B(  0-C , 10-H ) :   0.1600 B(  1-H ,  2-N ) :   0.1105 B(  2-N ,  5-H ) :   0.7590
B(  2-N ,  6-H ) :   0.7047 B(  2-N ,  7-H ) :   0.6693 B(  3-C ,  8-H ) :   0.8636
B(  3-C ,  9-H ) :   0.8514 B(  3-C , 10-H ) :   0.8507

Dispersion correction           -0.005018800
FINAL SINGLE POINT ENERGY      -135.283071011668

DIPOLE MOMENT
-------------
                                X             Y             Z
Electronic contribution:     -0.01317       1.33916       1.25160
Nuclear contribution   :     -0.06214      -0.04120      -0.39947
                        -----------------------------------------
Total Dipole Moment    :     -0.07531       1.29796       0.85213
                        -----------------------------------------
Magnitude (a.u.)       :      1.55450
Magnitude (Debye)      :      3.95124

Rotational constants in cm-1:     1.011771     0.281435     0.249812
Rotational constants in MHz : 30332.138762  8437.210602  7489.166323

                             ****ORCA TERMINATED NORMALLY****
TOTAL RUN TIME: 0 days 0 hours 0 minutes 12 seconds 252 msec
