                         Program Version 5.0.0 -  RELEASE  -
|  1> !PBE0 D3BJ RIJCOSX def2-SVPD def2/J TightSCF
|  2> *xyz 0 1
|  3> C         -0.77455        2.78833       -0.54394
|  4> C          0.69721        3.22791       -0.52513
|  5> F          1.48929        2.37470        0.19919
|  6> H          0.71600        4.26403       -0.13077
|  7> H          1.03615        3.33092       -1.58367
|  8> H         -1.34746        3.48478       -1.11982
|  9> H         -1.15078        2.75876        0.45729
| 10> H         -0.85058        1.81526       -0.98241
| 11> *
| 12>
| 13> %MaxCore 64000
| 14> %pal nprocs 4
| 15> end
| 16>
| 17> %scf
| 18>   MaxIter 150
| 19> end
| 20>
| 21>
| 22>                          ****END OF INPUT****

CARTESIAN COORDINATES (ANGSTROEM)
---------------------------------
  C     -0.774550    2.788330   -0.543940
  C      0.697210    3.227910   -0.525130
  F      1.489290    2.374700    0.199190
  H      0.716000    4.264030   -0.130770
  H      1.036150    3.330920   -1.583670
  H     -1.347460    3.484780   -1.119820
  H     -1.150780    2.758760    0.457290
  H     -0.850580    1.815260   -0.982410

 Total Charge           Charge          ....    0
 Multiplicity           Mult            ....    1
 Number of Electrons    NEL             ....   26
 Basis Dimension        Dim             ....  103

ORBITAL ENERGIES
----------------

  NO   OCC          E(Eh)            E(eV)
   0   2.0000     -24.773126      -674.1110
   1   2.0000     -10.314429      -280.6699
   2   2.0000     -10.229453      -278.3576
   3   2.0000      -1.215975       -33.0884
   4   2.0000      -0.782279       -21.2869
   5   2.0000      -0.646910       -17.6033
   6   2.0000      -0.528434       -14.3794
   7   2.0000      -0.512790       -13.9537
   8   2.0000      -0.477295       -12.9879
   9   2.0000      -0.421124       -11.4594
  10   2.0000      -0.415335       -11.3018
  11   2.0000      -0.352990        -9.6053
  12   2.0000      -0.344960        -9.3869
  13   0.0000       0.030011         0.8166
  14   0.0000       0.061820         1.6822
  15   0.0000       0.082993         2.2584
  16   0.0000       0.089817         2.4441
  17   0.0000       0.115375         3.1395

MULLIKEN ATOMIC CHARGES
-----------------------
   0 C :    0.148833
   1 C :    0.344953
   2 F :   -0.483374
   3 H :   -0.013037
   4 H :   -0.000428
   5 H :    0.016296
   6 H :   -0.006051
   7 H :   -0.007192
Sum of atomic charges:   -0.0000000

LOEWDIN ATOMIC CHARGES
----------------------
   0 C :    0.128850
   1 C :    0.064647
   2 F :   -0.223288
   3 H :    0.030747
   4 H :    0.035700
   5 H :   -0.011336
   6 H :   -0.012410
   7 H :   -0.012909

  Mayer bond orders larger than 0.100000
B(  0-C ,  1-C ) :   1.3504 B(  0-C ,  5-H ) :   0.8823 B(  0-C ,  6-H ) :   0.9111
B(  0-C ,  7-H ) :   0.9143 B(  1-C ,  2-F ) :   0.6937 B(  1-C ,  3-H ) :   0.9549
B(  1-C ,  4-H ) :   0.9560 B(  1-C ,  5-H ) :   0.1007 B(  1-C ,  6-H ) :   0.1195
B(  1-C ,  7-H ) :   0.1175

Dispersion correction           -0.002810993
FINAL SINGLE POINT ENERGY      -178.742159085267

DIPOLE MOMENT
-------------
                                X             Y             Z
Electronic contribution:      4.40113      -1.64152       1.99015
Nuclear contribution   :     -4.89513       2.05627      -2.36166
                        -----------------------------------------
Total Dipole Moment    :     -0.49400       0.41475      -0.37152
                        -----------------------------------------
Magnitude (a.u.)       :      0.74437
Magnitude (Debye)      :      1.89203

Rotational constants in cm-1:     1.247826     0.304622     0.269019
Rotational constants in MHz : 37408.889506  9132.346906  8064.979146

                             ****ORCA TERMINATED NORMALLY****
TOTAL RUN TIME: 0 days 0 hours 0 minutes 9 seconds 531 msec
