                         Program Version 5.0.0 -  RELEASE  -
|  1> !PBE0 D3BJ RIJCOSX def2-SVPD def2/J TightSCF
|  2> *xyz 0 1
|  3> C          3.95643        0.50147       -0.37910
|  4> H          3.16840        0.02920        0.20738
|  5> C          3.80389        1.96157       -0.15675
|  6> C          3.84232        0.14849       -1.85406
|  7> H          4.92323        0.17798        0.00937
|  8> H          4.20643        2.24441        0.74536
|  9> H          2.80827        2.21132       -0.09610
| 10> H          4.28076        2.50155       -0.89104
| 11> H          4.62951        0.62800       -2.39748
| 12> H          2.89665        0.48102       -2.22825
| 13> H          3.92053       -0.91187       -1.97413
| 14> *
| 15>
| 16> %MaxCore 64000
| 17> %pal nprocs 4
| 18> end
| 19>
| 20> %scf
| 21>   MaxIter 150
| 22> end
| 23>
| 24>
| 25>                          ****END OF INPUT****

CARTESIAN COORDINATES (ANGSTROEM)
---------------------------------
  C      3.956430    0.501470   -0.379100
  H      3.168400    0.029200    0.207380
  C      3.803890    1.961570   -0.156750
  C      3.842320    0.148490   -1.854060
  H      4.923230    0.177980    0.009370
  H      4.206430    2.244410    0.745360
  H      2.808270    2.211320   -0.096100
  H      4.280760    2.501550   -0.891040
  H      4.629510    0.628000   -2.397480
  H      2.896650    0.481020   -2.228250
  H      3.920530   -0.911870   -1.974130

 Total Charge           Charge          ....    0
 Multiplicity           Mult            ....    1
 Number of Electrons    NEL             ....   26
 Basis Dimension        Dim             ....  124

ORBITAL ENERGIES
----------------

  NO   OCC          E(Eh)            E(eV)
   0   2.0000     -10.219486      -278.0864
   1   2.0000     -10.210636      -277.8455
   2   2.0000     -10.193080      -277.3678
   3   2.0000      -0.809632       -22.0312
   4   2.0000      -0.704993       -19.1838
   5   2.0000      -0.598054       -16.2739
   6   2.0000      -0.483356       -13.1528
   7   2.0000      -0.459798       -12.5117
   8   2.0000      -0.415455       -11.3051
   9   2.0000      -0.403132       -10.9698
  10   2.0000      -0.349749        -9.5171
  11   2.0000      -0.346711        -9.4345
  12   2.0000      -0.336494        -9.1565
  13   0.0000       0.034350         0.9347
  14   0.0000       0.063357         1.7240
  15   0.0000       0.069866         1.9012
  16   0.0000       0.091672         2.4945
  17   0.0000       0.111689         3.0392

MULLIKEN ATOMIC CHARGES
-----------------------
   0 C :   -0.720895
   1 H :   -0.031947
   2 C :    0.765590
   3 C :    0.462266
   4 H :   -0.039240
   5 H :   -0.132244
   6 H :   -0.106588
   7 H :   -0.165289
   8 H :    0.015178
   9 H :   -0.008551
  10 H :   -0.038280
Sum of atomic charges:    0.0000000

LOEWDIN ATOMIC CHARGES
----------------------
   0 C :   -0.125209
   1 H :    0.023115
   2 C :    0.107205
   3 C :    0.108655
   4 H :    0.023125
   5 H :   -0.033050
   6 H :   -0.026591
   7 H :   -0.029176
   8 H :   -0.014752
   9 H :   -0.012983
  10 H :   -0.020339

  Mayer bond orders larger than 0.100000
B(  0-C ,  1-H ) :   0.9647 B(  0-C ,  2-C ) :   1.2947 B(  0-C ,  3-C ) :   1.2680
B(  0-C ,  4-H ) :   0.9715 B(  0-C ,  5-H ) :   0.1865 B(  0-C ,  6-H ) :   0.2283
B(  0-C ,  7-H ) :   0.1839 B(  0-C ,  8-H ) :   0.1386 B(  0-C ,  9-H ) :   0.1650
B(  0-C , 10-H ) :   0.1645 B(  1-H ,  2-C ) :   0.1095 B(  2-C ,  5-H ) :   0.7580
B(  2-C ,  6-H ) :   0.7338 B(  2-C ,  7-H ) :   0.8007 B(  3-C ,  8-H ) :   0.8587
B(  3-C ,  9-H ) :   0.8647 B(  3-C , 10-H ) :   0.8586

Dispersion correction           -0.005038215
FINAL SINGLE POINT ENERGY      -118.895500027431

DIPOLE MOMENT
-------------
                                X             Y             Z
Electronic contribution:      0.08054      -0.29636       0.23459
Nuclear contribution   :     -0.08172       0.30475      -0.19303
                        -----------------------------------------
Total Dipole Moment    :     -0.00118       0.00840       0.04156
                        -----------------------------------------
Magnitude (a.u.)       :      0.04242
Magnitude (Debye)      :      0.10782

Rotational constants in cm-1:     1.020248     0.295755     0.261591
Rotational constants in MHz : 30586.266829  8866.511639  7842.297953

                             ****ORCA TERMINATED NORMALLY****
TOTAL RUN TIME: 0 days 0 hours 0 minutes 12 seconds 273 msec
