                         Program Version 5.0.0 -  RELEASE  -
|  1> !PBE0 D3BJ RIJCOSX def2-SVPD def2/J TightSCF xyzfile
|  2>
|  3> *xyzfile 0 1 D.xyz
|  4>
|  5> %MaxCore 64000
|  6>
|  7> %pal nprocs 4
|  8> end
|  9>
| 10> %scf
| 11>   MaxIter 150
| 12> end
| 13>
| 14>
| 15>                          ****END OF INPUT****

CARTESIAN COORDINATES (ANGSTROEM)
---------------------------------
  C      3.956426    0.501466   -0.379100
  H      3.168398    0.029201    0.207383
  C      3.803893    1.961572   -0.156747
  C      3.842322    0.148490   -1.854058
  H      4.923231    0.177982    0.009371
  H      4.620021    0.694502   -2.402150
  H      4.096015   -0.910930   -1.955103
  C      2.475619    0.412708   -2.485377
  H      2.174689    1.445076   -2.287971
  C      1.383931   -0.532740   -1.995203
  H      2.575613    0.318574   -3.571460
  H      1.264698   -0.412309   -0.915491
  H      1.705223   -1.566885   -2.164984
  C      0.031398   -0.317260   -2.677791
  C     -0.587292    1.060853   -2.436460
  H     -0.662815   -1.089530   -2.329985
  H      0.149465   -0.478040   -3.755648
  H      0.104376    1.828590   -2.793130
  C     -0.951213    1.334978   -0.972500
  H     -1.478832    1.161355   -3.062484
  H     -0.317007    0.741648   -0.311389
  H     -1.980916    1.012842   -0.788958
  C     -0.774550    2.788332   -0.543943
  H     -1.352609    3.459372   -1.192585
  H     -1.171014    2.902331    0.469968
  C      0.697208    3.227911   -0.525126
  F      1.489294    2.374703    0.199189
  H      0.715998    4.264030   -0.130774
  H      1.036148    3.330920   -1.583669
  H      4.206425    2.244406    0.745359
  H      2.808269    2.211323   -0.096097
  H      4.280757    2.501552   -0.891037

 Total Charge           Charge          ....    0
 Multiplicity           Mult            ....    1
 Number of Electrons    NEL             ....   90
 Basis Dimension        Dim             ....  391

ORBITAL ENERGIES
----------------

  NO   OCC          E(Eh)            E(eV)
   0   2.0000     -24.794673      -674.6974
   1   2.0000     -10.322604      -280.8923
   2   2.0000     -10.245136      -278.7843
   3   2.0000     -10.231587      -278.4156
   4   2.0000     -10.228154      -278.3222
   5   2.0000     -10.224732      -278.2291
   6   2.0000     -10.219004      -278.0732
   7   2.0000     -10.216918      -278.0165
   8   2.0000     -10.210713      -277.8476
   9   2.0000     -10.200070      -277.5580
  10   2.0000     -10.146376      -276.0969
  11   2.0000      -1.249910       -34.0118
  12   2.0000      -0.838770       -22.8241
  13   2.0000      -0.818949       -22.2847
  14   2.0000      -0.785444       -21.3730
  15   2.0000      -0.754243       -20.5240
  16   2.0000      -0.705739       -19.2041
  17   2.0000      -0.680409       -18.5149
  18   2.0000      -0.637490       -17.3470
  19   2.0000      -0.615856       -16.7583
  20   2.0000      -0.578179       -15.7330
  21   2.0000      -0.568825       -15.4785
  22   2.0000      -0.543250       -14.7826
  23   2.0000      -0.532481       -14.4895
  24   2.0000      -0.512768       -13.9531
  25   2.0000      -0.484211       -13.1760
  26   2.0000      -0.473649       -12.8886
  27   2.0000      -0.463392       -12.6095
  28   2.0000      -0.443985       -12.0814
  29   2.0000      -0.441638       -12.0176
  30   2.0000      -0.424329       -11.5466
  31   2.0000      -0.407403       -11.0860
  32   2.0000      -0.400216       -10.8904
  33   2.0000      -0.388091       -10.5605
  34   2.0000      -0.378746       -10.3062
  35   2.0000      -0.368584       -10.0297
  36   2.0000      -0.360915        -9.8210
  37   2.0000      -0.355101        -9.6628
  38   2.0000      -0.336733        -9.1630
  39   2.0000      -0.331607        -9.0235
  40   2.0000      -0.325891        -8.8679
  41   2.0000      -0.324838        -8.8393
  42   2.0000      -0.309278        -8.4159
  43   2.0000      -0.307896        -8.3783
  44   2.0000      -0.285494        -7.7687
  45   0.0000       0.025446         0.6924
  46   0.0000       0.034254         0.9321
  47   0.0000       0.041324         1.1245
  48   0.0000       0.046958         1.2778
  49   0.0000       0.060094         1.6352

MULLIKEN ATOMIC CHARGES
-----------------------
   0 C :   -0.241499
   1 H :    0.105692
   2 C :    2.474766
   3 C :    0.213234
   4 H :   -0.274324
   5 H :    0.053079
   6 H :   -0.003178
   7 C :    0.132063
   8 H :   -0.387421
   9 C :   -0.168632
  10 H :   -0.000540
  11 H :    0.005344
  12 H :   -0.100731
  13 C :    0.422568
  14 C :    0.025531
  15 H :   -0.136094
  16 H :    0.102920
  17 H :   -0.044724
  18 C :   -0.027896
  19 H :   -0.166178
  20 H :    0.037359
  21 H :   -0.079196
  22 C :    0.037895
  23 H :   -0.035578
  24 H :    0.079420
  25 C :    0.577674
  26 F :   -0.632792
  27 H :   -0.162452
  28 H :    0.186735
  29 H :    0.119306
  30 H :   -2.048793
  31 H :   -0.063556
Sum of atomic charges:   -0.0000000

LOEWDIN ATOMIC CHARGES
----------------------
   0 C :   -0.058128
   1 H :    0.015785
   2 C :    0.133086
   3 C :   -0.039513
   4 H :    0.020188
   5 H :    0.025024
   6 H :    0.017949
   7 C :   -0.026441
   8 H :   -0.006088
   9 C :   -0.032725
  10 H :    0.027892
  11 H :    0.001755
  12 H :    0.028931
  13 C :   -0.035008
  14 C :   -0.025373
  15 H :    0.024628
  16 H :    0.024456
  17 H :   -0.003126
  18 C :   -0.024464
  19 H :    0.023169
  20 H :    0.004216
  21 H :    0.027275
  22 C :   -0.017583
  23 H :    0.037400
  24 H :    0.028741
  25 C :    0.157566
  26 F :   -0.184845
  27 H :    0.041999
  28 H :    0.032530
  29 H :   -0.023736
  30 H :   -0.171807
  31 H :   -0.023753

  Mayer bond orders larger than 0.100000
B(  0-C ,  1-H ) :   0.7958 B(  0-C ,  2-C ) :   0.7419 B(  0-C ,  3-C ) :   1.1552
B(  0-C ,  4-H ) :   1.0564 B(  0-C ,  5-H ) :   0.1124 B(  0-C ,  6-H ) :   0.1429
B(  0-C , 29-H ) :   0.1294 B(  0-C , 30-H ) :   0.7224 B(  0-C , 31-H ) :   0.3288
B(  1-H ,  2-C ) :   0.2650 B(  1-H ,  3-C ) :   0.1616 B(  1-H ,  4-H ) :  -0.1575
B(  1-H , 30-H ) :  -0.1472 B(  2-C ,  4-H ) :  -0.1508 B(  2-C , 26-F ) :  -0.2983
B(  2-C , 29-H ) :   0.6997 B(  2-C , 30-H ) :  -3.0977 B(  3-C ,  5-H ) :   0.7348
B(  3-C ,  6-H ) :   0.8764 B(  3-C ,  7-C ) :   1.2288 B(  4-H , 29-H ) :  -0.1312
B(  4-H , 30-H ) :   0.1471 B(  4-H , 31-H ) :   0.2348 B(  5-H ,  6-H ) :  -0.1061
B(  5-H ,  7-C ) :   0.2244 B(  5-H , 31-H ) :   0.1226 B(  6-H , 31-H ) :  -0.1432
B(  7-C ,  8-H ) :   0.9397 B(  7-C ,  9-C ) :   1.2108 B(  7-C , 10-H ) :   0.7180
B(  7-C , 12-H ) :   0.1484 B(  8-H ,  9-C ) :   0.1584 B(  8-H , 10-H ) :   0.1380
B(  9-C , 10-H ) :   0.1557 B(  9-C , 11-H ) :   0.8818 B(  9-C , 12-H ) :   0.9301
B(  9-C , 13-C ) :   1.1984 B(  9-C , 15-H ) :   0.2468 B(  9-C , 16-H ) :   0.1330
B( 11-H , 20-H ) :   0.1273 B( 13-C , 14-C ) :   1.2034 B( 13-C , 15-H ) :   0.7952
B( 13-C , 16-H ) :   0.7071 B( 13-C , 17-H ) :   0.1110 B( 14-C , 15-H ) :   0.1096
B( 14-C , 16-H ) :   0.1880 B( 14-C , 17-H ) :   0.8874 B( 14-C , 18-C ) :   1.2173
B( 14-C , 19-H ) :   0.8733 B( 14-C , 21-H ) :   0.1978 B( 15-H , 16-H ) :  -0.1024
B( 18-C , 19-H ) :   0.1697 B( 18-C , 20-H ) :   0.8444 B( 18-C , 21-H ) :   0.8784
B( 18-C , 22-C ) :   1.2390 B( 18-C , 23-H ) :   0.1014 B( 18-C , 24-H ) :   0.1811
B( 20-H , 22-C ) :   0.1100 B( 22-C , 23-H ) :   0.8725 B( 22-C , 24-H ) :   0.7342
B( 22-C , 25-C ) :   1.2833 B( 22-C , 26-F ) :   0.1128 B( 22-C , 27-H ) :   0.1020
B( 23-H , 25-C ) :   0.1464 B( 24-H , 25-C ) :   0.1076 B( 25-C , 26-F ) :   0.5222
B( 25-C , 27-H ) :   0.9674 B( 25-C , 28-H ) :   0.7744 B( 25-C , 30-H ) :   0.1920
B( 26-F , 30-H ) :   0.4149 B( 29-H , 30-H ) :   0.1654 B( 29-H , 31-H ) :  -0.1876
B( 30-H , 31-H ) :   0.7345

Dispersion correction           -0.028093737
FINAL SINGLE POINT ENERGY      -492.617346941814

DIPOLE MOMENT
-------------
                                X             Y             Z
Electronic contribution:     -1.96836       3.29066       4.27335
Nuclear contribution   :      1.09293      -2.80761      -4.51228
                        -----------------------------------------
Total Dipole Moment    :     -0.87543       0.48305      -0.23893
                        -----------------------------------------
Magnitude (a.u.)       :      1.02801
Magnitude (Debye)      :      2.61299

Rotational constants in cm-1:     0.040502     0.027818     0.018259
Rotational constants in MHz :  1214.218058   833.972871   547.398614

                             ****ORCA TERMINATED NORMALLY****
TOTAL RUN TIME: 0 days 0 hours 2 minutes 4 seconds 734 msec
