                         Program Version 5.0.0 -  RELEASE  -
|  1> !B3LYP D3BJ RIJCOSX def2-SVPD def2/J TightSCF
|  2> *xyz 1 1
|  3> C          2.91632       -1.24259       -1.54313
|  4> C          3.46659       -1.59097       -2.88908
|  5> N          4.65227       -1.14316       -3.25969
|  6> N          2.75226       -2.29204       -3.72803
|  7> H          1.77836       -2.48960       -3.51274
|  8> H          2.94861       -2.20854       -4.71681
|  9> H          5.14672       -0.51251       -2.63385
| 10> H          4.78303       -1.00720       -4.25350
| 11> H          1.95294       -1.69278       -1.42424
| 12> H          2.82618       -0.17973       -1.45886
| 13> H          3.57606       -1.60596       -0.78312
| 14> *
| 15>
| 16> %MaxCore 64000
| 17>
| 18> %pal nprocs 8
| 19> end
| 20>
| 21> %scf
| 22>   MaxIter 150
| 23> end
| 24>
| 25>
| 26>                          ****END OF INPUT****

CARTESIAN COORDINATES (ANGSTROEM)
---------------------------------
  C      2.916320   -1.242590   -1.543130
  C      3.466590   -1.590970   -2.889080
  N      4.652270   -1.143160   -3.259690
  N      2.752260   -2.292040   -3.728030
  H      1.778360   -2.489600   -3.512740
  H      2.948610   -2.208540   -4.716810
  H      5.146720   -0.512510   -2.633850
  H      4.783030   -1.007200   -4.253500
  H      1.952940   -1.692780   -1.424240
  H      2.826180   -0.179730   -1.458860
  H      3.576060   -1.605960   -0.783120

 Total Charge           Charge          ....    1
 Multiplicity           Mult            ....    1
 Number of Electrons    NEL             ....   32
 Basis Dimension        Dim             ....  136

ORBITAL ENERGIES
----------------

  NO   OCC          E(Eh)            E(eV)
   0   2.0000     -14.587024      -396.9331
   1   2.0000     -14.581834      -396.7919
   2   2.0000     -10.518501      -286.2230
   3   2.0000     -10.386593      -282.6336
   4   2.0000      -1.210527       -32.9401
   5   2.0000      -1.111281       -30.2395
   6   2.0000      -0.953645       -25.9500
   7   2.0000      -0.845223       -22.9997
   8   2.0000      -0.779742       -21.2178
   9   2.0000      -0.773078       -21.0365
  10   2.0000      -0.708019       -19.2662
  11   2.0000      -0.667997       -18.1771
  12   2.0000      -0.624228       -16.9861
  13   2.0000      -0.606950       -16.5159
  14   2.0000      -0.579654       -15.7732
  15   2.0000      -0.507560       -13.8114
  16   0.0000      -0.231958        -6.3119
  17   0.0000      -0.167876        -4.5681
  18   0.0000      -0.123851        -3.3702
  19   0.0000      -0.119356        -3.2478
  20   0.0000      -0.098827        -2.6892

MULLIKEN ATOMIC CHARGES
-----------------------
   0 C :    0.800046
   1 C :    0.116546
   2 N :    0.175109
   3 N :    0.167636
   4 H :    0.015671
   5 H :   -0.092009
   6 H :    0.017508
   7 H :   -0.081472
   8 H :   -0.048234
   9 H :   -0.048427
  10 H :   -0.022375
Sum of atomic charges:    1.0000000

LOEWDIN ATOMIC CHARGES
----------------------
   0 C :    0.244278
   1 C :   -0.073857
   2 N :    0.284844
   3 N :    0.288806
   4 H :    0.056309
   5 H :    0.048704
   6 H :    0.057463
   7 H :    0.044024
   8 H :    0.004889
   9 H :    0.022864
  10 H :    0.021676

  Mayer bond orders larger than 0.100000
B(  0-C ,  1-C ) :   1.3300 B(  0-C ,  8-H ) :   0.7474 B(  0-C ,  9-H ) :   0.7855
B(  0-C , 10-H ) :   0.6493 B(  1-C ,  2-N ) :   1.1719 B(  1-C ,  3-N ) :   1.1522
B(  1-C ,  5-H ) :  -0.1337 B(  1-C ,  8-H ) :   0.2826 B(  1-C ,  9-H ) :   0.1567
B(  1-C , 10-H ) :   0.2620 B(  2-N ,  3-N ) :   0.1731 B(  2-N ,  6-H ) :   1.0331
B(  2-N ,  7-H ) :   1.1676 B(  3-N ,  4-H ) :   1.0449 B(  3-N ,  5-H ) :   1.2076
B(  4-H ,  5-H ) :  -0.1312 B(  6-H ,  7-H ) :  -0.1194 B(  8-H , 10-H ) :   0.1040
B(  9-H , 10-H ) :   0.1038

Dispersion correction           -0.011472637
FINAL SINGLE POINT ENERGY      -189.479229302507

DIPOLE MOMENT
-------------
                                X             Y             Z
Electronic contribution:      0.90269      -0.73732      -1.80656
Nuclear contribution   :     -1.03256       1.11747       1.26949
                        -----------------------------------------
Total Dipole Moment    :     -0.12987       0.38015      -0.53707
                        -----------------------------------------
Magnitude (a.u.)       :      0.67069
Magnitude (Debye)      :      1.70475

Rotational constants in cm-1:     0.336859     0.298586     0.163958
Rotational constants in MHz : 10098.776812  8951.369850  4915.333652

                             ****ORCA TERMINATED NORMALLY****
TOTAL RUN TIME: 0 days 0 hours 0 minutes 6 seconds 791 msec
