                         Program Version 5.0.0 -  RELEASE  -
|  1> !B3LYP D3BJ RIJCOSX def2-SVPD def2/J TightSCF
|  2> *xyz 0 1
|  3> C          1.72854        1.42432       -5.63944
|  4> S          2.25263       -0.18811       -6.27184
|  5> F          3.56261       -0.44446       -5.63155
|  6> O          2.34494       -0.03374       -7.69650
|  7> O          1.26606       -1.15918       -5.80536
|  8> H          0.77944        1.68154       -6.06127
|  9> H          2.45151        2.16548       -5.90944
| 10> H          1.64478        1.37937       -4.57367
| 11> *
| 12>
| 13> %MaxCore 64000
| 14>
| 15> %pal nprocs 8
| 16> end
| 17>
| 18> %scf
| 19>   MaxIter 150
| 20> end
| 21>
| 22>
| 23>                          ****END OF INPUT****

CARTESIAN COORDINATES (ANGSTROEM)
---------------------------------
  C      1.728540    1.424320   -5.639440
  S      2.252630   -0.188110   -6.271840
  F      3.562610   -0.444460   -5.631550
  O      2.344940   -0.033740   -7.696500
  O      1.266060   -1.159180   -5.805360
  H      0.779440    1.681540   -6.061270
  H      2.451510    2.165480   -5.909440
  H      1.644780    1.379370   -4.573670

 Total Charge           Charge          ....    0
 Multiplicity           Mult            ....    1
 Number of Electrons    NEL             ....   50
 Basis Dimension        Dim             ....  140

ORBITAL ENERGIES
----------------

  NO   OCC          E(Eh)            E(eV)
   0   2.0000     -89.145478     -2425.7718
   1   2.0000     -24.801944      -674.8952
   2   2.0000     -19.159508      -521.3567
   3   2.0000     -19.153159      -521.1839
   4   2.0000     -10.247859      -278.8584
   5   2.0000      -8.199521      -223.1203
   6   2.0000      -6.172340      -167.9579
   7   2.0000      -6.166230      -167.7917
   8   2.0000      -6.165221      -167.7642
   9   2.0000      -1.350489       -36.7487
  10   2.0000      -1.120110       -30.4797
  11   2.0000      -1.022754       -27.8306
  12   2.0000      -0.799911       -21.7667
  13   2.0000      -0.708342       -19.2750
  14   2.0000      -0.596355       -16.2276
  15   2.0000      -0.572793       -15.5865
  16   2.0000      -0.557274       -15.1642
  17   2.0000      -0.483489       -13.1564
  18   2.0000      -0.482556       -13.1310
  19   2.0000      -0.470929       -12.8146
  20   2.0000      -0.448816       -12.2129
  21   2.0000      -0.396169       -10.7803
  22   2.0000      -0.348169        -9.4742
  23   2.0000      -0.341874        -9.3029
  24   2.0000      -0.323448        -8.8015
  25   0.0000      -0.010591        -0.2882
  26   0.0000       0.026341         0.7168
  27   0.0000       0.031419         0.8549
  28   0.0000       0.045543         1.2393
  29   0.0000       0.045589         1.2405

MULLIKEN ATOMIC CHARGES
-----------------------
   0 C :    0.680556
   1 S :    1.265862
   2 F :   -0.392846
   3 O :   -0.621462
   4 O :   -0.643954
   5 H :   -0.102677
   6 H :   -0.089121
   7 H :   -0.096357
Sum of atomic charges:    0.0000000

LOEWDIN ATOMIC CHARGES
----------------------
   0 C :    0.137108
   1 S :    1.107328
   2 F :   -0.274406
   3 O :   -0.462713
   4 O :   -0.472012
   5 H :   -0.003418
   6 H :   -0.015938
   7 H :   -0.015949

  Mayer bond orders larger than 0.100000
B(  0-C ,  1-S ) :   0.9762 B(  0-C ,  5-H ) :   0.8817 B(  0-C ,  6-H ) :   0.8856
B(  0-C ,  7-H ) :   0.8895 B(  1-S ,  2-F ) :   0.6656 B(  1-S ,  3-O ) :   1.5454
B(  1-S ,  4-O ) :   1.5213 B(  1-S ,  5-H ) :   0.1240 B(  1-S ,  6-H ) :   0.1006
B(  1-S ,  7-H ) :   0.1052

Dispersion correction           -0.010355400
FINAL SINGLE POINT ENERGY      -687.823949608100

DIPOLE MOMENT
-------------
                                X             Y             Z
Electronic contribution:      3.34068      -4.17363      -0.53031
Nuclear contribution   :     -3.03874       5.51823       1.39394
                        -----------------------------------------
Total Dipole Moment    :      0.30194       1.34460       0.86362
                        -----------------------------------------
Magnitude (a.u.)       :      1.62634
Magnitude (Debye)      :      4.13382

Rotational constants in cm-1:     0.164301     0.151617     0.146802
Rotational constants in MHz :  4925.615104  4545.361281  4401.017554

                             ****ORCA TERMINATED NORMALLY****
TOTAL RUN TIME: 0 days 0 hours 0 minutes 7 seconds 118 msec
