                         Program Version 5.0.0 -  RELEASE  -
|  1> !B3LYP D3BJ RIJCOSX def2-SVPD def2/J TightSCF
|  2> *xyz 0 1
|  3> C          2.91632       -1.24259       -1.54313
|  4> C          3.46659       -1.59097       -2.88908
|  5> C          4.65227       -1.14316       -3.25969
|  6> N          2.75226       -2.29204       -3.72803
|  7> H          1.77836       -2.48960       -3.51274
|  8> H          2.94861       -2.20854       -4.71681
|  9> H          5.14672       -0.51251       -2.63385
| 10> H          4.78303       -1.00720       -4.25350
| 11> H          1.95294       -1.69278       -1.42424
| 12> H          2.82618       -0.17973       -1.45886
| 13> H          3.57606       -1.60596       -0.78312
| 14> *
| 15>
| 16> %MaxCore 64000
| 17>
| 18> %pal nprocs 8
| 19> end
| 20>
| 21> %scf
| 22>   MaxIter 150
| 23> end
| 24>
| 25>
| 26>                          ****END OF INPUT****

CARTESIAN COORDINATES (ANGSTROEM)
---------------------------------
  C      2.916320   -1.242590   -1.543130
  C      3.466590   -1.590970   -2.889080
  C      4.652270   -1.143160   -3.259690
  N      2.752260   -2.292040   -3.728030
  H      1.778360   -2.489600   -3.512740
  H      2.948610   -2.208540   -4.716810
  H      5.146720   -0.512510   -2.633850
  H      4.783030   -1.007200   -4.253500
  H      1.952940   -1.692780   -1.424240
  H      2.826180   -0.179730   -1.458860
  H      3.576060   -1.605960   -0.783120

 Total Charge           Charge          ....    0
 Multiplicity           Mult            ....    1
 Number of Electrons    NEL             ....   32
 Basis Dimension        Dim             ....  136

ORBITAL ENERGIES
----------------

  NO   OCC          E(Eh)            E(eV)
   0   2.0000     -14.335312      -390.0837
   1   2.0000     -10.205675      -277.7105
   2   2.0000     -10.177148      -276.9343
   3   2.0000     -10.112347      -275.1710
   4   2.0000      -0.929957       -25.3054
   5   2.0000      -0.752574       -20.4786
   6   2.0000      -0.686266       -18.6743
   7   2.0000      -0.574041       -15.6205
   8   2.0000      -0.524907       -14.2835
   9   2.0000      -0.470163       -12.7938
  10   2.0000      -0.434150       -11.8138
  11   2.0000      -0.400499       -10.8981
  12   2.0000      -0.390115       -10.6156
  13   2.0000      -0.363836        -9.9005
  14   2.0000      -0.333000        -9.0614
  15   2.0000      -0.190553        -5.1852
  16   0.0000       0.014133         0.3846
  17   0.0000       0.034056         0.9267
  18   0.0000       0.052950         1.4408
  19   0.0000       0.061182         1.6649
  20   0.0000       0.086997         2.3673

MULLIKEN ATOMIC CHARGES
-----------------------
   0 C :    0.976365
   1 C :   -0.495808
   2 C :    0.520697
   3 N :    0.246844
   4 H :   -0.127031
   5 H :   -0.122260
   6 H :   -0.195389
   7 H :   -0.457724
   8 H :   -0.180791
   9 H :   -0.104836
  10 H :   -0.060068
Sum of atomic charges:    0.0000000

LOEWDIN ATOMIC CHARGES
----------------------
   0 C :    0.177161
   1 C :   -0.290337
   2 C :    0.163520
   3 N :    0.170371
   4 H :   -0.002176
   5 H :    0.005425
   6 H :   -0.082850
   7 H :   -0.094447
   8 H :   -0.030212
   9 H :   -0.008092
  10 H :   -0.008362

  Mayer bond orders larger than 0.100000
B(  0-C ,  1-C ) :   1.2223 B(  0-C ,  8-H ) :   0.6489 B(  0-C ,  9-H ) :   0.7760
B(  0-C , 10-H ) :   0.6608 B(  1-C ,  2-C ) :   1.8993 B(  1-C ,  3-N ) :   1.1151
B(  1-C ,  6-H ) :   0.1925 B(  1-C ,  7-H ) :   0.2351 B(  1-C ,  8-H ) :   0.3389
B(  1-C ,  9-H ) :   0.1524 B(  1-C , 10-H ) :   0.2721 B(  2-C ,  3-N ) :   0.2608
B(  2-C ,  6-H ) :   0.7260 B(  2-C ,  7-H ) :   0.7618 B(  3-N ,  4-H ) :   1.0636
B(  3-N ,  5-H ) :   1.1150 B(  4-H ,  5-H ) :  -0.1190 B(  6-H ,  7-H ) :   0.1436

Dispersion correction           -0.012111614
FINAL SINGLE POINT ENERGY      -173.022638560780

DIPOLE MOMENT
-------------
                                X             Y             Z
Electronic contribution:     -0.15235      -1.17688      -1.31549
Nuclear contribution   :     -0.76183       1.20997       1.18381
                        -----------------------------------------
Total Dipole Moment    :     -0.91418       0.03309      -0.13168
                        -----------------------------------------
Magnitude (a.u.)       :      0.92421
Magnitude (Debye)      :      2.34914

Rotational constants in cm-1:     0.357745     0.302571     0.170012
Rotational constants in MHz : 10724.926457  9070.849165  5096.845195

                             ****ORCA TERMINATED NORMALLY****
TOTAL RUN TIME: 0 days 0 hours 0 minutes 6 seconds 654 msec
