                         Program Version 5.0.0 -  RELEASE  -
|  1> !B3LYP D3BJ RIJCOSX def2-SVPD def2/J TightSCF
|  2> *xyz 0 1
|  3> C          1.72854        1.42432       -5.63944
|  4> S          2.25263       -0.18811       -6.27184
|  5> O          3.56261       -0.44446       -5.63155
|  6> F          2.34494       -0.03374       -7.69650
|  7> O          1.26606       -1.15918       -5.80536
|  8> H          0.77944        1.68154       -6.06127
|  9> H          2.45151        2.16548       -5.90944
| 10> H          1.64478        1.37937       -4.57367
| 11> *
| 12>
| 13> %MaxCore 64000
| 14>
| 15> %pal nprocs 8
| 16> end
| 17>
| 18> %scf
| 19>   MaxIter 150
| 20> end
| 21>
| 22>
| 23>                          ****END OF INPUT****

CARTESIAN COORDINATES (ANGSTROEM)
---------------------------------
  C      1.728540    1.424320   -5.639440
  S      2.252630   -0.188110   -6.271840
  O      3.562610   -0.444460   -5.631550
  F      2.344940   -0.033740   -7.696500
  O      1.266060   -1.159180   -5.805360
  H      0.779440    1.681540   -6.061270
  H      2.451510    2.165480   -5.909440
  H      1.644780    1.379370   -4.573670

 Total Charge           Charge          ....    0
 Multiplicity           Mult            ....    1
 Number of Electrons    NEL             ....   50
 Basis Dimension        Dim             ....  140

ORBITAL ENERGIES
----------------

  NO   OCC          E(Eh)            E(eV)
   0   2.0000     -89.147678     -2425.8317
   1   2.0000     -24.823907      -675.4929
   2   2.0000     -19.153630      -521.1968
   3   2.0000     -19.145354      -520.9716
   4   2.0000     -10.248885      -278.8863
   5   2.0000      -8.201797      -223.1823
   6   2.0000      -6.174883      -168.0271
   7   2.0000      -6.168248      -167.8466
   8   2.0000      -6.167258      -167.8196
   9   2.0000      -1.388355       -37.7791
  10   2.0000      -1.106477       -30.1088
  11   2.0000      -1.002799       -27.2876
  12   2.0000      -0.803211       -21.8565
  13   2.0000      -0.726922       -19.7806
  14   2.0000      -0.614081       -16.7100
  15   2.0000      -0.599235       -16.3060
  16   2.0000      -0.561549       -15.2805
  17   2.0000      -0.483063       -13.1448
  18   2.0000      -0.480072       -13.0634
  19   2.0000      -0.472052       -12.8452
  20   2.0000      -0.441975       -12.0267
  21   2.0000      -0.388557       -10.5732
  22   2.0000      -0.340903        -9.2764
  23   2.0000      -0.331616        -9.0237
  24   2.0000      -0.308426        -8.3927
  25   0.0000      -0.012672        -0.3448
  26   0.0000       0.027818         0.7570
  27   0.0000       0.030248         0.8231
  28   0.0000       0.043742         1.1903
  29   0.0000       0.045567         1.2399

MULLIKEN ATOMIC CHARGES
-----------------------
   0 C :    0.681675
   1 S :    1.256544
   2 O :   -0.651228
   3 F :   -0.371175
   4 O :   -0.630147
   5 H :   -0.094529
   6 H :   -0.087857
   7 H :   -0.103284
Sum of atomic charges:   -0.0000000

LOEWDIN ATOMIC CHARGES
----------------------
   0 C :    0.136609
   1 S :    1.109477
   2 O :   -0.483252
   3 F :   -0.256301
   4 O :   -0.471350
   5 H :   -0.017395
   6 H :   -0.015681
   7 H :   -0.002106

  Mayer bond orders larger than 0.100000
B(  0-C ,  1-S ) :   0.9763 B(  0-C ,  5-H ) :   0.8831 B(  0-C ,  6-H ) :   0.8852
B(  0-C ,  7-H ) :   0.8878 B(  1-S ,  2-O ) :   1.5094 B(  1-S ,  3-F ) :   0.7179
B(  1-S ,  4-O ) :   1.5257 B(  1-S ,  7-H ) :   0.1316

Dispersion correction           -0.010353791
FINAL SINGLE POINT ENERGY      -687.805070816079

DIPOLE MOMENT
-------------
                                X             Y             Z
Electronic contribution:      1.29705      -3.49526      -3.96570
Nuclear contribution   :     -1.82220       5.10789       3.45696
                        -----------------------------------------
Total Dipole Moment    :     -0.52516       1.61264      -0.50875
                        -----------------------------------------
Magnitude (a.u.)       :      1.77065
Magnitude (Debye)      :      4.50064

Rotational constants in cm-1:     0.163267     0.154654     0.145086
Rotational constants in MHz :  4894.631475  4636.404456  4349.567403

                             ****ORCA TERMINATED NORMALLY****
TOTAL RUN TIME: 0 days 0 hours 0 minutes 7 seconds 309 msec
