                         Program Version 5.0.0 -  RELEASE  -
|  1> !B3LYP D3BJ RIJCOSX def2-SVPD def2/J TightSCF
|  2> *xyz 0 1
|  3> C          2.91632       -1.24259       -1.54313
|  4> C          3.46659       -1.59097       -2.88908
|  5> N          4.65227       -1.14316       -3.25969
|  6> C          2.75226       -2.29204       -3.72803
|  7> H          1.77836       -2.48960       -3.51274
|  8> H          2.94861       -2.20854       -4.71681
|  9> H          5.14672       -0.51251       -2.63385
| 10> H          4.78303       -1.00720       -4.25350
| 11> H          1.95294       -1.69278       -1.42424
| 12> H          2.82618       -0.17973       -1.45886
| 13> H          3.57606       -1.60596       -0.78312
| 14> *
| 15>
| 16> %MaxCore 64000
| 17>
| 18> %pal nprocs 8
| 19> end
| 20>
| 21> %scf
| 22>   MaxIter 150
| 23> end
| 24>
| 25>
| 26>                          ****END OF INPUT****

CARTESIAN COORDINATES (ANGSTROEM)
---------------------------------
  C      2.916320   -1.242590   -1.543130
  C      3.466590   -1.590970   -2.889080
  N      4.652270   -1.143160   -3.259690
  C      2.752260   -2.292040   -3.728030
  H      1.778360   -2.489600   -3.512740
  H      2.948610   -2.208540   -4.716810
  H      5.146720   -0.512510   -2.633850
  H      4.783030   -1.007200   -4.253500
  H      1.952940   -1.692780   -1.424240
  H      2.826180   -0.179730   -1.458860
  H      3.576060   -1.605960   -0.783120

 Total Charge           Charge          ....    0
 Multiplicity           Mult            ....    1
 Number of Electrons    NEL             ....   32
 Basis Dimension        Dim             ....  136

ORBITAL ENERGIES
----------------

  NO   OCC          E(Eh)            E(eV)
   0   2.0000     -14.331779      -389.9875
   1   2.0000     -10.204670      -277.6832
   2   2.0000     -10.175852      -276.8990
   3   2.0000     -10.116920      -275.2954
   4   2.0000      -0.924545       -25.1582
   5   2.0000      -0.753286       -20.4979
   6   2.0000      -0.687559       -18.7094
   7   2.0000      -0.567316       -15.4375
   8   2.0000      -0.525797       -14.3077
   9   2.0000      -0.473165       -12.8755
  10   2.0000      -0.434841       -11.8326
  11   2.0000      -0.399961       -10.8835
  12   2.0000      -0.393911       -10.7189
  13   2.0000      -0.359280        -9.7765
  14   2.0000      -0.328546        -8.9402
  15   2.0000      -0.198127        -5.3913
  16   0.0000       0.014633         0.3982
  17   0.0000       0.038045         1.0352
  18   0.0000       0.054720         1.4890
  19   0.0000       0.061813         1.6820
  20   0.0000       0.088913         2.4194

MULLIKEN ATOMIC CHARGES
-----------------------
   0 C :    0.999093
   1 C :   -0.590967
   2 N :    0.266572
   3 C :    0.473842
   4 H :   -0.148305
   5 H :   -0.487907
   6 H :   -0.145975
   7 H :   -0.108939
   8 H :   -0.050129
   9 H :   -0.113072
  10 H :   -0.094213
Sum of atomic charges:   -0.0000000

LOEWDIN ATOMIC CHARGES
----------------------
   0 C :    0.173600
   1 C :   -0.296968
   2 N :    0.170069
   3 C :    0.170574
   4 H :   -0.083570
   5 H :   -0.088048
   6 H :   -0.000631
   7 H :    0.001155
   8 H :   -0.016639
   9 H :   -0.012570
  10 H :   -0.016970

  Mayer bond orders larger than 0.100000
B(  0-C ,  1-C ) :   1.3571 B(  0-C ,  8-H ) :   0.7570 B(  0-C ,  9-H ) :   0.6225
B(  0-C , 10-H ) :   0.5998 B(  1-C ,  2-N ) :   1.1338 B(  1-C ,  3-C ) :   1.8787
B(  1-C ,  5-H ) :   0.2287 B(  1-C ,  8-H ) :   0.2794 B(  1-C ,  9-H ) :   0.3305
B(  1-C , 10-H ) :   0.3063 B(  2-N ,  3-C ) :   0.2785 B(  2-N ,  6-H ) :   1.0554
B(  2-N ,  7-H ) :   1.0781 B(  3-C ,  4-H ) :   0.8192 B(  3-C ,  5-H ) :   0.6776
B(  4-H ,  5-H ) :   0.1846 B(  6-H ,  7-H ) :  -0.1061 B(  8-H ,  9-H ) :   0.1153

Dispersion correction           -0.012110985
FINAL SINGLE POINT ENERGY      -173.026368060928

DIPOLE MOMENT
-------------
                                X             Y             Z
Electronic contribution:      1.51645      -0.18201      -0.93101
Nuclear contribution   :     -1.18794       0.95232       1.07877
                        -----------------------------------------
Total Dipole Moment    :      0.32851       0.77031       0.14777
                        -----------------------------------------
Magnitude (a.u.)       :      0.85037
Magnitude (Debye)      :      2.16147

Rotational constants in cm-1:     0.358436     0.301769     0.169913
Rotational constants in MHz : 10745.629007  9046.806054  5093.859032

                             ****ORCA TERMINATED NORMALLY****
TOTAL RUN TIME: 0 days 0 hours 0 minutes 6 seconds 607 msec
