                         Program Version 5.0.0 -  RELEASE  -
|  1> !B3LYP D3BJ RIJCOSX def2-SVPD def2/J TightSCF
|  2> *xyz 0 1
|  3> C          1.72854        1.42432       -5.63944
|  4> S          2.25263       -0.18811       -6.27184
|  5> O          3.56261       -0.44446       -5.63155
|  6> O          2.34494       -0.03374       -7.69650
|  7> F          1.26606       -1.15918       -5.80536
|  8> H          0.77944        1.68154       -6.06127
|  9> H          2.45151        2.16548       -5.90944
| 10> H          1.64478        1.37937       -4.57367
| 11> *
| 12>
| 13> %MaxCore 64000
| 14>
| 15> %pal nprocs 8
| 16> end
| 17>
| 18> %scf
| 19>   MaxIter 150
| 20> end
| 21>
| 22>
| 23>                          ****END OF INPUT****

CARTESIAN COORDINATES (ANGSTROEM)
---------------------------------
  C      1.728540    1.424320   -5.639440
  S      2.252630   -0.188110   -6.271840
  O      3.562610   -0.444460   -5.631550
  O      2.344940   -0.033740   -7.696500
  F      1.266060   -1.159180   -5.805360
  H      0.779440    1.681540   -6.061270
  H      2.451510    2.165480   -5.909440
  H      1.644780    1.379370   -4.573670

 Total Charge           Charge          ....    0
 Multiplicity           Mult            ....    1
 Number of Electrons    NEL             ....   50
 Basis Dimension        Dim             ....  140

ORBITAL ENERGIES
----------------

  NO   OCC          E(Eh)            E(eV)
   0   2.0000     -89.146331     -2425.7950
   1   2.0000     -24.812881      -675.1928
   2   2.0000     -19.159892      -521.3672
   3   2.0000     -19.145253      -520.9688
   4   2.0000     -10.248392      -278.8729
   5   2.0000      -8.200457      -223.1458
   6   2.0000      -6.173374      -167.9861
   7   2.0000      -6.167045      -167.8138
   8   2.0000      -6.166054      -167.7869
   9   2.0000      -1.367609       -37.2145
  10   2.0000      -1.116355       -30.3776
  11   2.0000      -1.011291       -27.5186
  12   2.0000      -0.800611       -21.7857
  13   2.0000      -0.717455       -19.5229
  14   2.0000      -0.603973       -16.4349
  15   2.0000      -0.584696       -15.9104
  16   2.0000      -0.559560       -15.2264
  17   2.0000      -0.483417       -13.1544
  18   2.0000      -0.481691       -13.1075
  19   2.0000      -0.472533       -12.8583
  20   2.0000      -0.445580       -12.1249
  21   2.0000      -0.393581       -10.7099
  22   2.0000      -0.347041        -9.4435
  23   2.0000      -0.332758        -9.0548
  24   2.0000      -0.315164        -8.5761
  25   0.0000      -0.013105        -0.3566
  26   0.0000       0.024832         0.6757
  27   0.0000       0.030579         0.8321
  28   0.0000       0.044691         1.2161
  29   0.0000       0.045504         1.2382

MULLIKEN ATOMIC CHARGES
-----------------------
   0 C :    0.682117
   1 S :    1.261415
   2 O :   -0.657950
   3 O :   -0.614629
   4 F :   -0.384256
   5 H :   -0.094160
   6 H :   -0.096355
   7 H :   -0.096182
Sum of atomic charges:    0.0000000

LOEWDIN ATOMIC CHARGES
----------------------
   0 C :    0.137027
   1 S :    1.108862
   2 O :   -0.483407
   3 O :   -0.462163
   4 F :   -0.265001
   5 H :   -0.017173
   6 H :   -0.002127
   7 H :   -0.016016

  Mayer bond orders larger than 0.100000
B(  0-C ,  1-S ) :   0.9769 B(  0-C ,  5-H ) :   0.8840 B(  0-C ,  6-H ) :   0.8838
B(  0-C ,  7-H ) :   0.8883 B(  1-S ,  2-O ) :   1.5067 B(  1-S ,  3-O ) :   1.5469
B(  1-S ,  4-F ) :   0.6872 B(  1-S ,  6-H ) :   0.1267 B(  1-S ,  7-H ) :   0.1040

Dispersion correction           -0.010357524
FINAL SINGLE POINT ENERGY      -687.814163079169

DIPOLE MOMENT
-------------
                                X             Y             Z
Electronic contribution:     -0.50165      -5.36231      -0.82839
Nuclear contribution   :     -0.74433       6.23228       1.56758
                        -----------------------------------------
Total Dipole Moment    :     -1.24598       0.86997       0.73919
                        -----------------------------------------
Magnitude (a.u.)       :      1.68989
Magnitude (Debye)      :      4.29536

Rotational constants in cm-1:     0.164764     0.152261     0.145794
Rotational constants in MHz :  4939.488001  4564.674339  4370.797804

                             ****ORCA TERMINATED NORMALLY****
TOTAL RUN TIME: 0 days 0 hours 0 minutes 6 seconds 988 msec
