                         Program Version 5.0.0 -  RELEASE  -
|  1> !B3LYP D3BJ RIJCOSX def2-SVPD def2/J TightSCF xyzfile
|  2>
|  3> *xyzfile 0 1 D3.xyz
|  4>
|  5> %MaxCore 64000
|  6>
|  7> %pal nprocs 4
|  8> end
|  9>
| 10> %scf
| 11>   MaxIter 150
| 12> end
| 13>
| 14>
| 15>                          ****END OF INPUT****

CARTESIAN COORDINATES (ANGSTROEM)
---------------------------------
  C      2.916324   -1.242589   -1.543125
  C      0.704661    1.443129   -4.503630
  C      1.728539    1.424320   -5.639443
  H      2.646718    1.953794   -5.381054
  H      1.299916    1.930613   -6.503614
  S      2.252625   -0.188115   -6.271840
  C      3.466585   -1.590971   -2.889082
  C      4.652275   -1.143164   -3.259692
  N      2.752264   -2.292043   -3.728029
  H      1.778364   -2.489604   -3.512738
  H      2.948612   -2.208544   -4.716813
  H      5.146723   -0.512508   -2.633852
  H      4.783030   -1.007203   -4.253498
  O      3.562607   -0.444464   -5.631552
  F      2.344944   -0.033742   -7.696501
  C      2.804084    0.290698   -1.359243
  C      1.052550    0.695659   -3.214915
  H     -0.232483    1.032925   -4.884449
  H      0.511700    2.495794   -4.267966
  C      2.388380    1.093669   -2.597108
  H      3.763425    0.674718   -0.999889
  H      2.094788    0.461222   -0.545756
  O      1.266058   -1.159177   -5.805365
  H      3.167316    1.013242   -3.359430
  H      2.357690    2.149375   -2.310997
  H      1.039284   -0.368429   -3.449329
  H      0.250787    0.865605   -2.488283
  H      1.940472   -1.716529   -1.441161
  H      3.558569   -1.663433   -0.766371

 Total Charge           Charge          ....    0
 Multiplicity           Mult            ....    1
 Number of Electrons    NEL             ....  112
 Basis Dimension        Dim             ....  404

ORBITAL ENERGIES
----------------

  NO   OCC          E(Eh)            E(eV)
   0   2.0000     -89.152726     -2425.9690
   1   2.0000     -24.829161      -675.6358
   2   2.0000     -19.163330      -521.4607
   3   2.0000     -19.154164      -521.2113
   4   2.0000     -14.302972      -389.2037
   5   2.0000     -10.253049      -278.9997
   6   2.0000     -10.215755      -277.9848
   7   2.0000     -10.185053      -277.1494
   8   2.0000     -10.178707      -276.9767
   9   2.0000     -10.175897      -276.9002
  10   2.0000     -10.174642      -276.8661
  11   2.0000     -10.171166      -276.7715
  12   2.0000     -10.084944      -274.4253
  13   2.0000      -8.206357      -223.3063
  14   2.0000      -6.179382      -168.1495
  15   2.0000      -6.173166      -167.9804
  16   2.0000      -6.171488      -167.9347
  17   2.0000      -1.392920       -37.9033
  18   2.0000      -1.118249       -30.4291
  19   2.0000      -1.014877       -27.6162
  20   2.0000      -0.903386       -24.5824
  21   2.0000      -0.836878       -22.7726
  22   2.0000      -0.791276       -21.5317
  23   2.0000      -0.761345       -20.7173
  24   2.0000      -0.727246       -19.7894
  25   2.0000      -0.695487       -18.9252
  26   2.0000      -0.669696       -18.2234
  27   2.0000      -0.633638       -17.2422
  28   2.0000      -0.605759       -16.4835
  29   2.0000      -0.599058       -16.3012
  30   2.0000      -0.572753       -15.5854
  31   2.0000      -0.563334       -15.3291
  32   2.0000      -0.535103       -14.5609
  33   2.0000      -0.506243       -13.7756
  34   2.0000      -0.498228       -13.5575
  35   2.0000      -0.496033       -13.4977
  36   2.0000      -0.478839       -13.0299
  37   2.0000      -0.471345       -12.8260
  38   2.0000      -0.451101       -12.2751
  39   2.0000      -0.438719       -11.9381
  40   2.0000      -0.428923       -11.6716
  41   2.0000      -0.415095       -11.2953
  42   2.0000      -0.403405       -10.9772
  43   2.0000      -0.387337       -10.5400
  44   2.0000      -0.381411       -10.3787
  45   2.0000      -0.365926        -9.9573
  46   2.0000      -0.360492        -9.8095
  47   2.0000      -0.352526        -9.5927
  48   2.0000      -0.344248        -9.3675
  49   2.0000      -0.337282        -9.1779
  50   2.0000      -0.330238        -8.9862
  51   2.0000      -0.323400        -8.8002
  52   2.0000      -0.318028        -8.6540
  53   2.0000      -0.309476        -8.4213
  54   2.0000      -0.300749        -8.1838
  55   2.0000      -0.164662        -4.4807
  56   0.0000      -0.011938        -0.3248
  57   0.0000       0.004489         0.1222
  58   0.0000       0.021393         0.5821
  59   0.0000       0.027003         0.7348
  60   0.0000       0.030209         0.8220

MULLIKEN ATOMIC CHARGES
-----------------------
   0 C :    0.787527
   1 C :    0.660032
   2 C :    0.289861
   3 H :    0.046709
   4 H :   -0.280386
   5 S :    1.633559
   6 C :   -0.583180
   7 C :    0.808655
   8 N :    0.477202
   9 H :   -0.050263
  10 H :   -0.228993
  11 H :   -0.092460
  12 H :   -0.686396
  13 O :   -0.790779
  14 F :   -0.473359
  15 C :    0.531111
  16 C :    0.433192
  17 H :   -0.056343
  18 H :   -0.139245
  19 C :    0.142650
  20 H :   -0.086353
  21 H :   -0.231040
  22 O :   -0.781485
  23 H :   -0.115831
  24 H :   -0.261126
  25 H :   -0.447881
  26 H :   -0.183931
  27 H :   -0.002116
  28 H :   -0.319333
Sum of atomic charges:   -0.0000000

LOEWDIN ATOMIC CHARGES
----------------------
   0 C :    0.030764
   1 C :   -0.013906
   2 C :   -0.027050
   3 H :    0.019891
   4 H :    0.009224
   5 S :    1.180885
   6 C :   -0.248219
   7 C :    0.178383
   8 N :    0.197253
   9 H :   -0.000233
  10 H :   -0.047944
  11 H :   -0.079522
  12 H :   -0.135322
  13 O :   -0.473735
  14 F :   -0.248231
  15 C :   -0.003624
  16 C :   -0.007909
  17 H :    0.027533
  18 H :    0.034152
  19 C :   -0.016361
  20 H :    0.016386
  21 H :    0.011934
  22 O :   -0.465633
  23 H :   -0.004584
  24 H :    0.021512
  25 H :   -0.014631
  26 H :    0.030261
  27 H :    0.006218
  28 H :    0.022506

  Mayer bond orders larger than 0.100000
B(  0-C ,  6-C ) :   1.2648 B(  0-C ,  8-N ) :   0.1030 B(  0-C , 15-C ) :   1.1022
B(  0-C , 19-C ) :   0.1124 B(  0-C , 20-H ) :   0.1181 B(  0-C , 21-H ) :   0.2249
B(  0-C , 27-H ) :   0.5174 B(  0-C , 28-H ) :   0.6081 B(  1-C ,  2-C ) :   1.2281
B(  1-C ,  3-H ) :   0.1057 B(  1-C ,  4-H ) :   0.2577 B(  1-C , 16-C ) :   1.2211
B(  1-C , 17-H ) :   0.6015 B(  1-C , 18-H ) :   0.6464 B(  2-C ,  3-H ) :   0.8642
B(  2-C ,  4-H ) :   0.7578 B(  2-C ,  5-S ) :   0.9689 B(  2-C , 17-H ) :   0.1243
B(  2-C , 18-H ) :   0.1960 B(  5-S , 13-O ) :   1.3572 B(  5-S , 14-F ) :   0.5777
B(  5-S , 22-O ) :   1.4025 B(  6-C ,  7-C ) :   2.1220 B(  6-C ,  8-N ) :   1.0015
B(  6-C , 11-H ) :   0.1437 B(  6-C , 12-H ) :   0.4147 B(  6-C , 15-C ) :   0.1006
B(  6-C , 27-H ) :   0.3351 B(  6-C , 28-H ) :   0.2799 B(  7-C ,  8-N ) :   0.3764
B(  7-C , 11-H ) :   0.5012 B(  7-C , 12-H ) :   0.2868 B(  8-N ,  9-H ) :   0.8916
B(  8-N , 10-H ) :   0.9209 B(  8-N , 11-H ) :   0.1826 B(  9-H , 10-H ) :  -0.1409
B( 10-H , 12-H ) :   0.1239 B( 10-H , 13-O ) :   0.1073 B( 12-H , 13-O ) :   0.2538
B( 13-O , 22-O ) :   0.1460 B( 15-C , 19-C ) :   1.1844 B( 15-C , 20-H ) :   0.6194
B( 15-C , 21-H ) :   0.7443 B( 15-C , 23-H ) :   0.2072 B( 15-C , 24-H ) :   0.1054
B( 15-C , 27-H ) :   0.1617 B( 16-C , 17-H ) :   0.3211 B( 16-C , 18-H ) :   0.1013
B( 16-C , 19-C ) :   1.2163 B( 16-C , 23-H ) :   0.1653 B( 16-C , 24-H ) :   0.1940
B( 16-C , 25-H ) :   0.7794 B( 16-C , 26-H ) :   0.6095 B( 17-H , 18-H ) :  -0.1269
B( 19-C , 20-H ) :   0.3146 B( 19-C , 21-H ) :   0.2060 B( 19-C , 23-H ) :   0.8001
B( 19-C , 24-H ) :   0.7348 B( 19-C , 25-H ) :   0.1772 B( 19-C , 26-H ) :   0.2374
B( 20-H , 21-H ) :  -0.1673

Dispersion correction           -0.061017745
FINAL SINGLE POINT ENERGY     -1016.686883620175

DIPOLE MOMENT
-------------
                                X             Y             Z
Electronic contribution:      0.03090      -4.12051     -22.49915
Nuclear contribution   :     -1.50273       5.82595      21.72909
                        -----------------------------------------
Total Dipole Moment    :     -1.47183       1.70543      -0.77006
                        -----------------------------------------
Magnitude (a.u.)       :      2.38071
Magnitude (Debye)      :      6.05128

Rotational constants in cm-1:     0.036883     0.018294     0.014745
Rotational constants in MHz :  1105.724679   548.429785   442.050481

                             ****ORCA TERMINATED NORMALLY****
TOTAL RUN TIME: 0 days 0 hours 2 minutes 37 seconds 593 msec
