                         Program Version 5.0.0 -  RELEASE  -
|  1> !B3LYP D3BJ RIJCOSX def2-SVPD def2/J TightSCF xyzfile
|  2>
|  3> *xyzfile 0 1 D4.xyz
|  4>
|  5> %MaxCore 64000
|  6>
|  7> %pal nprocs 4
|  8> end
|  9>
| 10> %scf
| 11>   MaxIter 150
| 12> end
| 13>
| 14>
| 15>                          ****END OF INPUT****

CARTESIAN COORDINATES (ANGSTROEM)
---------------------------------
  C      2.916324   -1.242589   -1.543125
  C      0.704661    1.443129   -4.503630
  C      1.728539    1.424320   -5.639443
  H      2.646718    1.953794   -5.381054
  H      1.299916    1.930613   -6.503614
  S      2.252625   -0.188115   -6.271840
  C      3.466585   -1.590971   -2.889082
  N      4.652275   -1.143164   -3.259692
  C      2.752264   -2.292043   -3.728029
  H      1.778364   -2.489604   -3.512738
  H      2.948612   -2.208544   -4.716813
  H      5.146723   -0.512508   -2.633852
  H      4.783030   -1.007203   -4.253498
  O      3.562607   -0.444464   -5.631552
  F      2.344944   -0.033742   -7.696501
  C      2.804084    0.290698   -1.359243
  C      1.052550    0.695659   -3.214915
  H     -0.232483    1.032925   -4.884449
  H      0.511700    2.495794   -4.267966
  C      2.388380    1.093669   -2.597108
  H      3.763425    0.674718   -0.999889
  H      2.094788    0.461222   -0.545756
  O      1.266058   -1.159177   -5.805365
  H      3.167316    1.013242   -3.359430
  H      2.357690    2.149375   -2.310997
  H      1.039284   -0.368429   -3.449329
  H      0.250787    0.865605   -2.488283
  H      1.940472   -1.716529   -1.441161
  H      3.558569   -1.663433   -0.766371

 Total Charge           Charge          ....    0
 Multiplicity           Mult            ....    1
 Number of Electrons    NEL             ....  112
 Basis Dimension        Dim             ....  404

ORBITAL ENERGIES
----------------

  NO   OCC          E(Eh)            E(eV)
   0   2.0000     -89.148865     -2425.8639
   1   2.0000     -24.825491      -675.5359
   2   2.0000     -19.154280      -521.2145
   3   2.0000     -19.150751      -521.1184
   4   2.0000     -14.302153      -389.1814
   5   2.0000     -10.249841      -278.9124
   6   2.0000     -10.211945      -277.8812
   7   2.0000     -10.179182      -276.9896
   8   2.0000     -10.179135      -276.9883
   9   2.0000     -10.177806      -276.9522
  10   2.0000     -10.176347      -276.9125
  11   2.0000     -10.169066      -276.7144
  12   2.0000     -10.089099      -274.5384
  13   2.0000      -8.202093      -223.1903
  14   2.0000      -6.175148      -168.0343
  15   2.0000      -6.168912      -167.8646
  16   2.0000      -6.167286      -167.8204
  17   2.0000      -1.389055       -37.7981
  18   2.0000      -1.111410       -30.2430
  19   2.0000      -1.009169       -27.4609
  20   2.0000      -0.899914       -24.4879
  21   2.0000      -0.833281       -22.6747
  22   2.0000      -0.789922       -21.4949
  23   2.0000      -0.756770       -20.5928
  24   2.0000      -0.725972       -19.7547
  25   2.0000      -0.702594       -19.1186
  26   2.0000      -0.668416       -18.1885
  27   2.0000      -0.626391       -17.0450
  28   2.0000      -0.602643       -16.3987
  29   2.0000      -0.594548       -16.1785
  30   2.0000      -0.569491       -15.4966
  31   2.0000      -0.562449       -15.3050
  32   2.0000      -0.533472       -14.5165
  33   2.0000      -0.508442       -13.8354
  34   2.0000      -0.497990       -13.5510
  35   2.0000      -0.495329       -13.4786
  36   2.0000      -0.472749       -12.8642
  37   2.0000      -0.456229       -12.4146
  38   2.0000      -0.452831       -12.3222
  39   2.0000      -0.442484       -12.0406
  40   2.0000      -0.428843       -11.6694
  41   2.0000      -0.410617       -11.1734
  42   2.0000      -0.401643       -10.9292
  43   2.0000      -0.385448       -10.4886
  44   2.0000      -0.379843       -10.3361
  45   2.0000      -0.371424       -10.1070
  46   2.0000      -0.359704        -9.7881
  47   2.0000      -0.352084        -9.5807
  48   2.0000      -0.341303        -9.2873
  49   2.0000      -0.330261        -8.9869
  50   2.0000      -0.325983        -8.8704
  51   2.0000      -0.319803        -8.7023
  52   2.0000      -0.316530        -8.6132
  53   2.0000      -0.305953        -8.3254
  54   2.0000      -0.297221        -8.0878
  55   2.0000      -0.172242        -4.6869
  56   0.0000      -0.009070        -0.2468
  57   0.0000       0.007171         0.1951
  58   0.0000       0.020041         0.5453
  59   0.0000       0.027967         0.7610
  60   0.0000       0.032297         0.8789

MULLIKEN ATOMIC CHARGES
-----------------------
   0 C :    0.655197
   1 C :    0.632368
   2 C :    0.279923
   3 H :    0.069826
   4 H :   -0.286293
   5 S :    1.593921
   6 C :   -0.690556
   7 N :    0.498234
   8 C :    0.894615
   9 H :   -0.145765
  10 H :   -0.583177
  11 H :   -0.066719
  12 H :   -0.298869
  13 O :   -0.749900
  14 F :   -0.483207
  15 C :    0.661357
  16 C :    0.452670
  17 H :   -0.064323
  18 H :   -0.144587
  19 C :    0.073391
  20 H :   -0.099609
  21 H :   -0.224277
  22 O :   -0.755686
  23 H :   -0.060926
  24 H :   -0.325819
  25 H :   -0.524286
  26 H :   -0.140548
  27 H :    0.196594
  28 H :   -0.363552
Sum of atomic charges:   -0.0000000

LOEWDIN ATOMIC CHARGES
----------------------
   0 C :    0.029608
   1 C :   -0.013829
   2 C :   -0.029577
   3 H :    0.016907
   4 H :    0.008696
   5 S :    1.182664
   6 C :   -0.256100
   7 N :    0.198821
   8 C :    0.173351
   9 H :   -0.071601
  10 H :   -0.123392
  11 H :   -0.000496
  12 H :   -0.055621
  13 O :   -0.482263
  14 F :   -0.248714
  15 C :   -0.007644
  16 C :   -0.004201
  17 H :    0.028311
  18 H :    0.032593
  19 C :   -0.018384
  20 H :    0.009203
  21 H :    0.013618
  22 O :   -0.448527
  23 H :   -0.007097
  24 H :    0.020665
  25 H :   -0.011374
  26 H :    0.030404
  27 H :    0.017660
  28 H :    0.016321

  Mayer bond orders larger than 0.100000
B(  0-C ,  6-C ) :   1.3242 B(  0-C ,  8-C ) :   0.1198 B(  0-C , 15-C ) :   1.0933
B(  0-C , 20-H ) :   0.1450 B(  0-C , 21-H ) :   0.2402 B(  0-C , 27-H ) :   0.7645
B(  0-C , 28-H ) :   0.4520 B(  1-C ,  2-C ) :   1.2289 B(  1-C ,  3-H ) :   0.1075
B(  1-C ,  4-H ) :   0.2584 B(  1-C , 16-C ) :   1.2290 B(  1-C , 17-H ) :   0.6075
B(  1-C , 18-H ) :   0.6572 B(  2-C ,  3-H ) :   0.8545 B(  2-C ,  4-H ) :   0.7495
B(  2-C ,  5-S ) :   0.9601 B(  2-C , 17-H ) :   0.1260 B(  2-C , 18-H ) :   0.1954
B(  5-S , 13-O ) :   1.3547 B(  5-S , 14-F ) :   0.5665 B(  5-S , 22-O ) :   1.4533
B(  6-C ,  7-N ) :   0.9725 B(  6-C ,  8-C ) :   1.9992 B(  6-C ,  9-H ) :   0.1540
B(  6-C , 10-H ) :   0.5903 B(  6-C , 15-C ) :   0.2204 B(  6-C , 21-H ) :  -0.1070
B(  6-C , 27-H ) :   0.1022 B(  6-C , 28-H ) :   0.4459 B(  7-N ,  8-C ) :   0.4613
B(  7-N ,  9-H ) :   0.1637 B(  7-N , 10-H ) :  -0.1260 B(  7-N , 11-H ) :   0.9575
B(  7-N , 12-H ) :   0.8816 B(  8-C ,  9-H ) :   0.5062 B(  8-C , 27-H ) :  -0.1174
B(  9-H , 10-H ) :   0.1158 B(  9-H , 25-H ) :   0.1140 B( 10-H , 12-H ) :   0.1786
B( 11-H , 12-H ) :  -0.1518 B( 12-H , 13-O ) :   0.1002 B( 13-O , 22-O ) :   0.1525
B( 15-C , 19-C ) :   1.1817 B( 15-C , 20-H ) :   0.5940 B( 15-C , 21-H ) :   0.7144
B( 15-C , 23-H ) :   0.1306 B( 15-C , 27-H ) :   0.1351 B( 16-C , 17-H ) :   0.3127
B( 16-C , 19-C ) :   1.2368 B( 16-C , 23-H ) :   0.1530 B( 16-C , 24-H ) :   0.1747
B( 16-C , 25-H ) :   0.8134 B( 16-C , 26-H ) :   0.5769 B( 17-H , 18-H ) :  -0.1272
B( 19-C , 20-H ) :   0.3241 B( 19-C , 21-H ) :   0.1897 B( 19-C , 23-H ) :   0.8333
B( 19-C , 24-H ) :   0.7586 B( 19-C , 25-H ) :   0.1853 B( 19-C , 26-H ) :   0.2163
B( 20-H , 21-H ) :  -0.1716

Dispersion correction           -0.061142582
FINAL SINGLE POINT ENERGY     -1016.689698147667

DIPOLE MOMENT
-------------
                                X             Y             Z
Electronic contribution:      1.31682      -3.42099     -22.17769
Nuclear contribution   :     -1.74760       5.67788      21.66873
                        -----------------------------------------
Total Dipole Moment    :     -0.43079       2.25689      -0.50896
                        -----------------------------------------
Magnitude (a.u.)       :      2.35333
Magnitude (Debye)      :      5.98169

Rotational constants in cm-1:     0.036818     0.018222     0.014682
Rotational constants in MHz :  1103.783048   546.296792   440.157914

                             ****ORCA TERMINATED NORMALLY****
TOTAL RUN TIME: 0 days 0 hours 2 minutes 36 seconds 680 msec
