                         Program Version 5.0.0 -  RELEASE  -
|  1> !B3LYP D3BJ RIJCOSX def2-SVPD def2/J TightSCF xyzfile
|  2>
|  3> *xyzfile 0 1 D5.xyz
|  4>
|  5> %MaxCore 64000
|  6>
|  7> %pal nprocs 4
|  8> end
|  9>
| 10> %scf
| 11>   MaxIter 150
| 12> end
| 13>
| 14>
| 15>                          ****END OF INPUT****

CARTESIAN COORDINATES (ANGSTROEM)
---------------------------------
  C      2.916324   -1.242589   -1.543125
  C      0.704661    1.443129   -4.503630
  C      1.728539    1.424320   -5.639443
  H      2.646718    1.953794   -5.381054
  H      1.299916    1.930613   -6.503614
  S      2.252625   -0.188115   -6.271840
  C      3.466585   -1.590971   -2.889082
  C      4.652275   -1.143164   -3.259692
  N      2.752264   -2.292043   -3.728029
  H      1.778364   -2.489604   -3.512738
  H      2.948612   -2.208544   -4.716813
  H      5.146723   -0.512508   -2.633852
  H      4.783030   -1.007203   -4.253498
  O      3.562607   -0.444464   -5.631552
  O      2.344944   -0.033742   -7.696501
  C      2.804084    0.290698   -1.359243
  C      1.052550    0.695659   -3.214915
  H     -0.232483    1.032925   -4.884449
  H      0.511700    2.495794   -4.267966
  C      2.388380    1.093669   -2.597108
  H      3.763425    0.674718   -0.999889
  H      2.094788    0.461222   -0.545756
  F      1.266058   -1.159177   -5.805365
  H      3.167316    1.013242   -3.359430
  H      2.357690    2.149375   -2.310997
  H      1.039284   -0.368429   -3.449329
  H      0.250787    0.865605   -2.488283
  H      1.940472   -1.716529   -1.441161
  H      3.558569   -1.663433   -0.766371

 Total Charge           Charge          ....    0
 Multiplicity           Mult            ....    1
 Number of Electrons    NEL             ....  112
 Basis Dimension        Dim             ....  404

ORBITAL ENERGIES
----------------

  NO   OCC          E(Eh)            E(eV)
   0   2.0000     -89.148824     -2425.8628
   1   2.0000     -24.819739      -675.3794
   2   2.0000     -19.164805      -521.5009
   3   2.0000     -19.150468      -521.1107
   4   2.0000     -14.320784      -389.6883
   5   2.0000     -10.250481      -278.9298
   6   2.0000     -10.220720      -278.1199
   7   2.0000     -10.197386      -277.4850
   8   2.0000     -10.188743      -277.2498
   9   2.0000     -10.183533      -277.1080
  10   2.0000     -10.182673      -277.0846
  11   2.0000     -10.180317      -277.0205
  12   2.0000     -10.094699      -274.6907
  13   2.0000      -8.202426      -223.1993
  14   2.0000      -6.175553      -168.0454
  15   2.0000      -6.169233      -167.8734
  16   2.0000      -6.167508      -167.8264
  17   2.0000      -1.375211       -37.4214
  18   2.0000      -1.122053       -30.5326
  19   2.0000      -1.019985       -27.7552
  20   2.0000      -0.918980       -25.0067
  21   2.0000      -0.841432       -22.8965
  22   2.0000      -0.796520       -21.6744
  23   2.0000      -0.760953       -20.7066
  24   2.0000      -0.727732       -19.8026
  25   2.0000      -0.703257       -19.1366
  26   2.0000      -0.676274       -18.4024
  27   2.0000      -0.639200       -17.3935
  28   2.0000      -0.604609       -16.4523
  29   2.0000      -0.596830       -16.2406
  30   2.0000      -0.578481       -15.7413
  31   2.0000      -0.558829       -15.2065
  32   2.0000      -0.545154       -14.8344
  33   2.0000      -0.512480       -13.9453
  34   2.0000      -0.501788       -13.6543
  35   2.0000      -0.496363       -13.5067
  36   2.0000      -0.482347       -13.1253
  37   2.0000      -0.472604       -12.8602
  38   2.0000      -0.459734       -12.5100
  39   2.0000      -0.450187       -12.2502
  40   2.0000      -0.435383       -11.8474
  41   2.0000      -0.421461       -11.4685
  42   2.0000      -0.405171       -11.0253
  43   2.0000      -0.391952       -10.6655
  44   2.0000      -0.390774       -10.6335
  45   2.0000      -0.379349       -10.3226
  46   2.0000      -0.372479       -10.1357
  47   2.0000      -0.355157        -9.6643
  48   2.0000      -0.352438        -9.5903
  49   2.0000      -0.343174        -9.3382
  50   2.0000      -0.335586        -9.1318
  51   2.0000      -0.330525        -8.9940
  52   2.0000      -0.325163        -8.8481
  53   2.0000      -0.312549        -8.5049
  54   2.0000      -0.308695        -8.4000
  55   2.0000      -0.176703        -4.8083
  56   0.0000      -0.017104        -0.4654
  57   0.0000       0.012268         0.3338
  58   0.0000       0.013819         0.3760
  59   0.0000       0.024267         0.6603
  60   0.0000       0.033043         0.8991

MULLIKEN ATOMIC CHARGES
-----------------------
   0 C :    0.789273
   1 C :    0.683000
   2 C :    0.322100
   3 H :    0.044749
   4 H :   -0.299023
   5 S :    1.446497
   6 C :   -0.562909
   7 C :    0.822800
   8 N :    0.463515
   9 H :   -0.054947
  10 H :   -0.258181
  11 H :   -0.099271
  12 H :   -0.679075
  13 O :   -0.740458
  14 O :   -0.630976
  15 C :    0.530030
  16 C :    0.462511
  17 H :   -0.083289
  18 H :   -0.128952
  19 C :    0.136294
  20 H :   -0.082739
  21 H :   -0.230836
  22 F :   -0.507645
  23 H :   -0.110654
  24 H :   -0.257702
  25 H :   -0.477973
  26 H :   -0.172002
  27 H :   -0.005182
  28 H :   -0.318952
Sum of atomic charges:   -0.0000000

LOEWDIN ATOMIC CHARGES
----------------------
   0 C :    0.031081
   1 C :   -0.026749
   2 C :   -0.016155
   3 H :    0.027242
   4 H :    0.016231
   5 S :    1.160585
   6 C :   -0.250530
   7 C :    0.186430
   8 N :    0.187124
   9 H :   -0.003331
  10 H :   -0.046110
  11 H :   -0.075472
  12 H :   -0.131828
  13 O :   -0.468681
  14 O :   -0.443734
  15 C :   -0.002750
  16 C :   -0.013968
  17 H :    0.024027
  18 H :    0.033126
  19 C :   -0.014204
  20 H :    0.017761
  21 H :    0.012724
  22 F :   -0.265669
  23 H :   -0.003276
  24 H :    0.024070
  25 H :   -0.018147
  26 H :    0.030872
  27 H :    0.005522
  28 H :    0.023810

  Mayer bond orders larger than 0.100000
B(  0-C ,  6-C ) :   1.2581 B(  0-C , 15-C ) :   1.1034 B(  0-C , 19-C ) :   0.1139
B(  0-C , 20-H ) :   0.1187 B(  0-C , 21-H ) :   0.2247 B(  0-C , 27-H ) :   0.5189
B(  0-C , 28-H ) :   0.6090 B(  1-C ,  2-C ) :   1.1885 B(  1-C ,  3-H ) :   0.1061
B(  1-C ,  4-H ) :   0.2359 B(  1-C , 16-C ) :   1.2168 B(  1-C , 17-H ) :   0.5978
B(  1-C , 18-H ) :   0.6450 B(  2-C ,  3-H ) :   0.8636 B(  2-C ,  4-H ) :   0.8199
B(  2-C ,  5-S ) :   0.9661 B(  2-C , 17-H ) :   0.1231 B(  2-C , 18-H ) :   0.1949
B(  5-S , 13-O ) :   1.4163 B(  5-S , 14-O ) :   1.5647 B(  5-S , 22-F ) :   0.6092
B(  6-C ,  7-C ) :   2.1312 B(  6-C ,  8-N ) :   0.9914 B(  6-C , 11-H ) :   0.1395
B(  6-C , 12-H ) :   0.4079 B(  6-C , 15-C ) :   0.1017 B(  6-C , 27-H ) :   0.3329
B(  6-C , 28-H ) :   0.2763 B(  7-C ,  8-N ) :   0.3715 B(  7-C , 11-H ) :   0.5014
B(  7-C , 12-H ) :   0.2957 B(  8-N ,  9-H ) :   0.8987 B(  8-N , 10-H ) :   0.9225
B(  8-N , 11-H ) :   0.1771 B(  9-H , 10-H ) :  -0.1450 B( 10-H , 12-H ) :   0.1113
B( 10-H , 13-O ) :   0.1137 B( 12-H , 13-O ) :   0.2687 B( 15-C , 19-C ) :   1.1910
B( 15-C , 20-H ) :   0.6180 B( 15-C , 21-H ) :   0.7449 B( 15-C , 23-H ) :   0.2069
B( 15-C , 24-H ) :   0.1107 B( 15-C , 27-H ) :   0.1615 B( 16-C , 17-H ) :   0.3085
B( 16-C , 18-H ) :   0.1112 B( 16-C , 19-C ) :   1.2179 B( 16-C , 23-H ) :   0.1704
B( 16-C , 24-H ) :   0.1880 B( 16-C , 25-H ) :   0.7493 B( 16-C , 26-H ) :   0.6133
B( 17-H , 18-H ) :  -0.1415 B( 19-C , 20-H ) :   0.3146 B( 19-C , 21-H ) :   0.2076
B( 19-C , 23-H ) :   0.7963 B( 19-C , 24-H ) :   0.7393 B( 19-C , 25-H ) :   0.1876
B( 19-C , 26-H ) :   0.2392 B( 20-H , 21-H ) :  -0.1660

Dispersion correction           -0.060505844
FINAL SINGLE POINT ENERGY     -1016.691919261295

DIPOLE MOMENT
-------------
                                X             Y             Z
Electronic contribution:     -1.73296      -6.02916     -18.99406
Nuclear contribution   :     -0.26930       7.11259      19.56706
                        -----------------------------------------
Total Dipole Moment    :     -2.00227       1.08343       0.57300
                        -----------------------------------------
Magnitude (a.u.)       :      2.34760
Magnitude (Debye)      :      5.96713

Rotational constants in cm-1:     0.036519     0.018683     0.015073
Rotational constants in MHz :  1094.801738   560.111127   451.890222

                             ****ORCA TERMINATED NORMALLY****
TOTAL RUN TIME: 0 days 0 hours 2 minutes 34 seconds 628 msec
