                         Program Version 5.0.0 -  RELEASE  -
|  1> !B3LYP D3BJ RIJCOSX def2-SVPD def2/J TightSCF xyzfile
|  2>
|  3> *xyzfile 0 1 D6.xyz
|  4>
|  5> %MaxCore 64000
|  6>
|  7> %pal nprocs 4
|  8> end
|  9>
| 10> %scf
| 11>   MaxIter 150
| 12> end
| 13>
| 14>
| 15>                          ****END OF INPUT****

CARTESIAN COORDINATES (ANGSTROEM)
---------------------------------
  C      2.916324   -1.242589   -1.543125
  C      0.704661    1.443129   -4.503630
  C      1.728539    1.424320   -5.639443
  H      2.646718    1.953794   -5.381054
  H      1.299916    1.930613   -6.503614
  S      2.252625   -0.188115   -6.271840
  C      3.466585   -1.590971   -2.889082
  N      4.652275   -1.143164   -3.259692
  C      2.752264   -2.292043   -3.728029
  H      1.778364   -2.489604   -3.512738
  H      2.948612   -2.208544   -4.716813
  H      5.146723   -0.512508   -2.633852
  H      4.783030   -1.007203   -4.253498
  O      3.562607   -0.444464   -5.631552
  O      2.344944   -0.033742   -7.696501
  C      2.804084    0.290698   -1.359243
  C      1.052550    0.695659   -3.214915
  H     -0.232483    1.032925   -4.884449
  H      0.511700    2.495794   -4.267966
  C      2.388380    1.093669   -2.597108
  H      3.763425    0.674718   -0.999889
  H      2.094788    0.461222   -0.545756
  F      1.266058   -1.159177   -5.805365
  H      3.167316    1.013242   -3.359430
  H      2.357690    2.149375   -2.310997
  H      1.039284   -0.368429   -3.449329
  H      0.250787    0.865605   -2.488283
  H      1.940472   -1.716529   -1.441161
  H      3.558569   -1.663433   -0.766371

 Total Charge           Charge          ....    0
 Multiplicity           Mult            ....    1
 Number of Electrons    NEL             ....  112
 Basis Dimension        Dim             ....  404

ORBITAL ENERGIES
----------------

  NO   OCC          E(Eh)            E(eV)
   0   2.0000     -89.146124     -2425.7893
   1   2.0000     -24.809031      -675.0881
   2   2.0000     -19.161232      -521.4036
   3   2.0000     -19.146585      -521.0051
   4   2.0000     -14.311550      -389.4371
   5   2.0000     -10.247677      -278.8535
   6   2.0000     -10.217060      -278.0203
   7   2.0000     -10.191409      -277.3223
   8   2.0000     -10.191052      -277.3126
   9   2.0000     -10.187820      -277.2247
  10   2.0000     -10.186151      -277.1793
  11   2.0000     -10.179481      -276.9977
  12   2.0000     -10.104939      -274.9694
  13   2.0000      -8.199182      -223.1111
  14   2.0000      -6.172207      -167.9543
  15   2.0000      -6.166178      -167.7902
  16   2.0000      -6.164388      -167.7415
  17   2.0000      -1.364576       -37.1320
  18   2.0000      -1.117885       -30.4192
  19   2.0000      -1.016279       -27.6543
  20   2.0000      -0.910146       -24.7663
  21   2.0000      -0.838109       -22.8061
  22   2.0000      -0.795170       -21.6377
  23   2.0000      -0.755068       -20.5464
  24   2.0000      -0.728097       -19.8125
  25   2.0000      -0.707575       -19.2541
  26   2.0000      -0.675369       -18.3777
  27   2.0000      -0.631357       -17.1801
  28   2.0000      -0.598489       -16.2857
  29   2.0000      -0.586270       -15.9532
  30   2.0000      -0.574372       -15.6295
  31   2.0000      -0.560878       -15.2623
  32   2.0000      -0.540820       -14.7165
  33   2.0000      -0.509733       -13.8705
  34   2.0000      -0.498301       -13.5595
  35   2.0000      -0.493950       -13.4411
  36   2.0000      -0.478514       -13.0210
  37   2.0000      -0.467924       -12.7329
  38   2.0000      -0.459436       -12.5019
  39   2.0000      -0.444728       -12.1017
  40   2.0000      -0.440797       -11.9947
  41   2.0000      -0.418970       -11.4008
  42   2.0000      -0.407055       -11.0765
  43   2.0000      -0.396448       -10.7879
  44   2.0000      -0.387124       -10.5342
  45   2.0000      -0.384709       -10.4685
  46   2.0000      -0.368337       -10.0230
  47   2.0000      -0.362219        -9.8565
  48   2.0000      -0.350851        -9.5471
  49   2.0000      -0.337813        -9.1924
  50   2.0000      -0.333775        -9.0825
  51   2.0000      -0.327525        -8.9124
  52   2.0000      -0.325574        -8.8593
  53   2.0000      -0.309003        -8.4084
  54   2.0000      -0.306791        -8.3482
  55   2.0000      -0.186136        -5.0650
  56   0.0000      -0.011406        -0.3104
  57   0.0000       0.013320         0.3625
  58   0.0000       0.018282         0.4975
  59   0.0000       0.023977         0.6524
  60   0.0000       0.036873         1.0034

MULLIKEN ATOMIC CHARGES
-----------------------
   0 C :    0.656001
   1 C :    0.653783
   2 C :    0.315490
   3 H :    0.065432
   4 H :   -0.304082
   5 S :    1.404944
   6 C :   -0.657796
   7 N :    0.503047
   8 C :    0.884632
   9 H :   -0.132339
  10 H :   -0.638085
  11 H :   -0.060458
  12 H :   -0.304969
  13 O :   -0.698496
  14 O :   -0.633861
  15 C :    0.655475
  16 C :    0.480410
  17 H :   -0.091640
  18 H :   -0.136360
  19 C :    0.070944
  20 H :   -0.095621
  21 H :   -0.224690
  22 F :   -0.486291
  23 H :   -0.059059
  24 H :   -0.320384
  25 H :   -0.546916
  26 H :   -0.133403
  27 H :    0.194019
  28 H :   -0.359729
Sum of atomic charges:    0.0000000

LOEWDIN ATOMIC CHARGES
----------------------
   0 C :    0.031209
   1 C :   -0.026427
   2 C :   -0.018067
   3 H :    0.024576
   4 H :    0.015816
   5 S :    1.164246
   6 C :   -0.252827
   7 N :    0.204941
   8 C :    0.163805
   9 H :   -0.076511
  10 H :   -0.124240
  11 H :    0.002793
  12 H :   -0.052434
  13 O :   -0.478182
  14 O :   -0.444224
  15 C :   -0.005959
  16 C :   -0.010367
  17 H :    0.024923
  18 H :    0.031567
  19 C :   -0.016255
  20 H :    0.010903
  21 H :    0.014758
  22 F :   -0.253594
  23 H :   -0.005906
  24 H :    0.023267
  25 H :   -0.014864
  26 H :    0.030900
  27 H :    0.017500
  28 H :    0.018653

  Mayer bond orders larger than 0.100000
B(  0-C ,  6-C ) :   1.3273 B(  0-C ,  8-C ) :   0.1121 B(  0-C , 15-C ) :   1.0971
B(  0-C , 20-H ) :   0.1460 B(  0-C , 21-H ) :   0.2382 B(  0-C , 27-H ) :   0.7631
B(  0-C , 28-H ) :   0.4538 B(  1-C ,  2-C ) :   1.1935 B(  1-C ,  3-H ) :   0.1070
B(  1-C ,  4-H ) :   0.2371 B(  1-C , 16-C ) :   1.2295 B(  1-C , 17-H ) :   0.6022
B(  1-C , 18-H ) :   0.6578 B(  2-C ,  3-H ) :   0.8553 B(  2-C ,  4-H ) :   0.8121
B(  2-C ,  5-S ) :   0.9581 B(  2-C , 17-H ) :   0.1249 B(  2-C , 18-H ) :   0.1902
B(  5-S , 13-O ) :   1.4053 B(  5-S , 14-O ) :   1.5537 B(  5-S , 22-F ) :   0.6427
B(  6-C ,  7-N ) :   0.9947 B(  6-C ,  8-C ) :   2.0012 B(  6-C ,  9-H ) :   0.1540
B(  6-C , 10-H ) :   0.5656 B(  6-C , 15-C ) :   0.2242 B(  6-C , 21-H ) :  -0.1046
B(  6-C , 28-H ) :   0.4373 B(  7-N ,  8-C ) :   0.4521 B(  7-N ,  9-H ) :   0.1586
B(  7-N , 10-H ) :  -0.1049 B(  7-N , 11-H ) :   0.9524 B(  7-N , 12-H ) :   0.8805
B(  8-C ,  9-H ) :   0.4981 B(  8-C , 27-H ) :  -0.1147 B(  9-H , 25-H ) :   0.1110
B( 10-H , 12-H ) :   0.1712 B( 11-H , 12-H ) :  -0.1534 B( 12-H , 13-O ) :   0.1249
B( 15-C , 19-C ) :   1.1882 B( 15-C , 20-H ) :   0.5946 B( 15-C , 21-H ) :   0.7174
B( 15-C , 23-H ) :   0.1326 B( 15-C , 27-H ) :   0.1381 B( 16-C , 17-H ) :   0.3004
B( 16-C , 18-H ) :   0.1050 B( 16-C , 19-C ) :   1.2347 B( 16-C , 23-H ) :   0.1566
B( 16-C , 24-H ) :   0.1707 B( 16-C , 25-H ) :   0.7851 B( 16-C , 26-H ) :   0.5810
B( 17-H , 18-H ) :  -0.1420 B( 19-C , 20-H ) :   0.3222 B( 19-C , 21-H ) :   0.1906
B( 19-C , 23-H ) :   0.8346 B( 19-C , 24-H ) :   0.7610 B( 19-C , 25-H ) :   0.1965
B( 19-C , 26-H ) :   0.2164 B( 20-H , 21-H ) :  -0.1706

Dispersion correction           -0.060615395
FINAL SINGLE POINT ENERGY     -1016.701451067568

DIPOLE MOMENT
-------------
                                X             Y             Z
Electronic contribution:     -0.45058      -5.30670     -18.64236
Nuclear contribution   :     -0.51418       6.96452      19.50670
                        -----------------------------------------
Total Dipole Moment    :     -0.96476       1.65782       0.86434
                        -----------------------------------------
Magnitude (a.u.)       :      2.10386
Magnitude (Debye)      :      5.34759

Rotational constants in cm-1:     0.036455     0.018603     0.015008
Rotational constants in MHz :  1092.895336   557.693628   449.926016

                             ****ORCA TERMINATED NORMALLY****
TOTAL RUN TIME: 0 days 0 hours 2 minutes 18 seconds 762 msec
