                         Program Version 5.0.0 -  RELEASE  -
|  1> !PBE D3BJ RIJCOSX def2-SVPD def2/J TightSCF
|  2> *xyz -1 1
|  3> C         -0.90349       -0.87394       -1.98739
|  4> C         -0.96015       -0.52236       -0.48987
|  5> H         -1.69039       -1.20813       -0.02168
|  6> H         -1.41449        0.48633       -0.40668
|  7> O          0.26170       -0.58031        0.13861
|  8> H         -1.88568       -0.80774       -2.40670
|  9> H         -0.53143       -1.87013       -2.10605
| 10> H         -0.25399       -0.18836       -2.49039
| 11> *
| 12>
| 13> %MaxCore 64000
| 14>
| 15> %pal nprocs 4
| 16> end
| 17>
| 18> %scf
| 19>   MaxIter 150
| 20> end
| 21>
| 22>
| 23>                          ****END OF INPUT****

CARTESIAN COORDINATES (ANGSTROEM)
---------------------------------
  C     -0.903490   -0.873940   -1.987390
  C     -0.960150   -0.522360   -0.489870
  H     -1.690390   -1.208130   -0.021680
  H     -1.414490    0.486330   -0.406680
  O      0.261700   -0.580310    0.138610
  H     -1.885680   -0.807740   -2.406700
  H     -0.531430   -1.870130   -2.106050
  H     -0.253990   -0.188360   -2.490390

 Total Charge           Charge          ....   -1
 Multiplicity           Mult            ....    1
 Number of Electrons    NEL             ....   26
 Basis Dimension        Dim             ....  103

ORBITAL ENERGIES
----------------

  NO   OCC          E(Eh)            E(eV)
   0   2.0000     -18.443680      -501.8780
   1   2.0000      -9.710957      -264.2486
   2   2.0000      -9.689317      -263.6597
   3   2.0000      -0.591821       -16.1043
   4   2.0000      -0.452570       -12.3151
   5   2.0000      -0.309800        -8.4301
   6   2.0000      -0.203802        -5.5457
   7   2.0000      -0.182356        -4.9622
   8   2.0000      -0.132737        -3.6120
   9   2.0000      -0.115252        -3.1362
  10   2.0000      -0.072102        -1.9620
  11   2.0000       0.065795         1.7904
  12   2.0000       0.070369         1.9148
  13   0.0000       0.162926         4.4335
  14   0.0000       0.193110         5.2548
  15   0.0000       0.224077         6.0975
  16   0.0000       0.236500         6.4355
  17   0.0000       0.255139         6.9427

MULLIKEN ATOMIC CHARGES
-----------------------
   0 C :    0.215059
   1 C :    0.122759
   2 H :   -0.161585
   3 H :   -0.152250
   4 O :   -0.863507
   5 H :   -0.025577
   6 H :   -0.067172
   7 H :   -0.067728
Sum of atomic charges:   -1.0000000

LOEWDIN ATOMIC CHARGES
----------------------
   0 C :    0.057131
   1 C :   -0.269540
   2 H :   -0.039948
   3 H :   -0.038356
   4 O :   -0.550888
   5 H :   -0.066153
   6 H :   -0.046090
   7 H :   -0.046157

  Mayer bond orders larger than 0.100000
B(  0-C ,  1-C ) :   1.2143 B(  0-C ,  2-H ) :   0.1564 B(  0-C ,  3-H ) :   0.1547
B(  0-C ,  4-O ) :   0.3036 B(  0-C ,  5-H ) :   0.9259 B(  0-C ,  6-H ) :   0.9160
B(  0-C ,  7-H ) :   0.9159 B(  1-C ,  2-H ) :   0.9775 B(  1-C ,  3-H ) :   0.9781
B(  1-C ,  4-O ) :   1.0957 B(  1-C ,  5-H ) :   0.1372 B(  1-C ,  6-H ) :   0.1858
B(  1-C ,  7-H ) :   0.1863

Dispersion correction           -0.003757639
FINAL SINGLE POINT ENERGY      -154.133953137329

DIPOLE MOMENT
-------------
                                X             Y             Z
Electronic contribution:      1.95376       0.18518       2.23976
Nuclear contribution   :     -2.90669      -0.27617      -3.31210
                        -----------------------------------------
Total Dipole Moment    :     -0.95294      -0.09099      -1.07234
                        -----------------------------------------
Magnitude (a.u.)       :      1.43746
Magnitude (Debye)      :      3.65373

Rotational constants in cm-1:     1.291883     0.321656     0.284469
Rotational constants in MHz : 38729.676116  9643.011620  8528.167295

                             ****ORCA TERMINATED NORMALLY****
TOTAL RUN TIME: 0 days 0 hours 0 minutes 7 seconds 310 msec
