                         Program Version 5.0.0 -  RELEASE  -
|  1> !PBE D3BJ RIJCOSX def2-SVPD def2/J TightSCF
|  2> *xyz 1 1
|  3> C          4.36645       -0.13321       -1.41606
|  4> C          4.50829       -0.93187       -2.72425
|  5> C          3.05650       -0.32080       -0.70738
|  6> N          2.38983        0.71129       -0.24391
|  7> N          2.51600       -1.50772       -0.55023
|  8> H          2.96768       -2.32291       -0.95631
|  9> H          1.54987       -1.49063       -0.24988
| 10> H          2.74307        1.64947       -0.41280
| 11> H          1.44036        0.50278        0.03703
| 12> H          4.48784        0.93300       -1.61157
| 13> H          5.16967       -0.41443       -0.72982
| 14> H          5.46700       -0.73824       -3.15818
| 15> H          3.74074       -0.63528       -3.40821
| 16> H          4.41574       -1.97727       -2.51573
| 17> *
| 18>
| 19> %MaxCore 64000
| 20>
| 21> %pal nprocs 4
| 22> end
| 23>
| 24> %scf
| 25>   MaxIter 150
| 26> end
| 27>
| 28>
| 29>                          ****END OF INPUT****

CARTESIAN COORDINATES (ANGSTROEM)
---------------------------------
  C      4.366450   -0.133210   -1.416060
  C      4.508290   -0.931870   -2.724250
  C      3.056500   -0.320800   -0.707380
  N      2.389830    0.711290   -0.243910
  N      2.516000   -1.507720   -0.550230
  H      2.967680   -2.322910   -0.956310
  H      1.549870   -1.490630   -0.249880
  H      2.743070    1.649470   -0.412800
  H      1.440360    0.502780    0.037030
  H      4.487840    0.933000   -1.611570
  H      5.169670   -0.414430   -0.729820
  H      5.467000   -0.738240   -3.158180
  H      3.740740   -0.635280   -3.408210
  H      4.415740   -1.977270   -2.515730

 Total Charge           Charge          ....    1
 Multiplicity           Mult            ....    1
 Number of Electrons    NEL             ....   40
 Basis Dimension        Dim             ....  172

ORBITAL ENERGIES
----------------

  NO   OCC          E(Eh)            E(eV)
   0   2.0000     -14.247131      -387.6841
   1   2.0000     -14.245971      -387.6526
   2   2.0000     -10.209105      -277.8039
   3   2.0000     -10.098661      -274.7985
   4   2.0000     -10.056564      -273.6530
   5   2.0000      -1.123422       -30.5699
   6   2.0000      -1.023663       -27.8553
   7   2.0000      -0.895127       -24.3576
   8   2.0000      -0.794988       -21.6327
   9   2.0000      -0.761759       -20.7285
  10   2.0000      -0.718012       -19.5381
  11   2.0000      -0.701762       -19.0959
  12   2.0000      -0.657895       -17.9022
  13   2.0000      -0.613729       -16.7004
  14   2.0000      -0.582630       -15.8542
  15   2.0000      -0.557759       -15.1774
  16   2.0000      -0.514478       -13.9997
  17   2.0000      -0.499163       -13.5829
  18   2.0000      -0.485323       -13.2063
  19   2.0000      -0.457071       -12.4375
  20   0.0000      -0.249710        -6.7950
  21   0.0000      -0.187980        -5.1152
  22   0.0000      -0.143383        -3.9017
  23   0.0000      -0.141040        -3.8379
  24   0.0000      -0.109836        -2.9888

MULLIKEN ATOMIC CHARGES
-----------------------
   0 C :   -0.301402
   1 C :    0.766519
   2 C :    0.628297
   3 N :    0.073255
   4 N :    0.125971
   5 H :   -0.008576
   6 H :   -0.116627
   7 H :    0.015086
   8 H :   -0.075727
   9 H :    0.066855
  10 H :    0.025812
  11 H :   -0.024916
  12 H :   -0.057554
  13 H :   -0.116993
Sum of atomic charges:    1.0000000

LOEWDIN ATOMIC CHARGES
----------------------
   0 C :    0.016328
   1 C :    0.170823
   2 C :   -0.061295
   3 N :    0.292594
   4 N :    0.299947
   5 H :    0.046908
   6 H :    0.043093
   7 H :    0.057399
   8 H :    0.042290
   9 H :    0.037616
  10 H :    0.058088
  11 H :    0.010394
  12 H :    0.003258
  13 H :   -0.017444

  Mayer bond orders larger than 0.100000
B(  0-C ,  1-C ) :   1.3593 B(  0-C ,  2-C ) :   1.1567 B(  0-C ,  9-H ) :   0.8645
B(  0-C , 10-H ) :   0.8284 B(  0-C , 11-H ) :   0.1869 B(  0-C , 12-H ) :   0.2048
B(  0-C , 13-H ) :   0.1976 B(  1-C ,  9-H ) :   0.1218 B(  1-C , 11-H ) :   0.8111
B(  1-C , 12-H ) :   0.7615 B(  1-C , 13-H ) :   0.8155 B(  2-C ,  3-N ) :   1.0929
B(  2-C ,  4-N ) :   1.1153 B(  2-C ,  6-H ) :  -0.1719 B(  2-C ,  8-H ) :  -0.1228
B(  2-C ,  9-H ) :   0.1508 B(  2-C , 10-H ) :   0.1328 B(  3-N ,  4-N ) :   0.2453
B(  3-N ,  7-H ) :   1.1084 B(  3-N ,  8-H ) :   1.2132 B(  4-N ,  5-H ) :   1.0722
B(  4-N ,  6-H ) :   1.2771 B(  5-H ,  6-H ) :  -0.1856 B(  7-H ,  8-H ) :  -0.1502

Dispersion correction           -0.010132754
FINAL SINGLE POINT ENERGY      -228.586942764126

DIPOLE MOMENT
-------------
                                X             Y             Z
Electronic contribution:     -2.67518       0.62243       3.12681
Nuclear contribution   :      1.78847      -0.48174      -2.67127
                        -----------------------------------------
Total Dipole Moment    :     -0.88671       0.14069       0.45554
                        -----------------------------------------
Magnitude (a.u.)       :      1.00676
Magnitude (Debye)      :      2.55897

Rotational constants in cm-1:     0.286883     0.123210     0.094446
Rotational constants in MHz :  8600.540572  3693.747366  2831.415242

                             ****ORCA TERMINATED NORMALLY****
TOTAL RUN TIME: 0 days 0 hours 0 minutes 11 seconds 220 msec
