                         Program Version 5.0.0 -  RELEASE  -
|  1> !PBE D3BJ RIJCOSX def2-SVPD def2/J TightSCF
|  2> *xyz 0 1
|  3> C         -0.90349       -0.87394       -1.98739
|  4> C         -0.96015       -0.52236       -0.48987
|  5> H         -1.69039       -1.20813       -0.02168
|  6> H         -1.41449        0.48633       -0.40668
|  7> F          0.26170       -0.58031        0.13861
|  8> H         -1.88568       -0.80774       -2.40670
|  9> H         -0.53143       -1.87013       -2.10605
| 10> H         -0.25399       -0.18836       -2.49039
| 11> *
| 12>
| 13> %MaxCore 64000
| 14>
| 15> %pal nprocs 4
| 16> end
| 17>
| 18> %scf
| 19>   MaxIter 150
| 20> end
| 21>
| 22>
| 23>                          ****END OF INPUT****

CARTESIAN COORDINATES (ANGSTROEM)
---------------------------------
  C     -0.903490   -0.873940   -1.987390
  C     -0.960150   -0.522360   -0.489870
  H     -1.690390   -1.208130   -0.021680
  H     -1.414490    0.486330   -0.406680
  F      0.261700   -0.580310    0.138610
  H     -1.885680   -0.807740   -2.406700
  H     -0.531430   -1.870130   -2.106050
  H     -0.253990   -0.188360   -2.490390

 Total Charge           Charge          ....    0
 Multiplicity           Mult            ....    1
 Number of Electrons    NEL             ....   26
 Basis Dimension        Dim             ....  103

ORBITAL ENERGIES
----------------

  NO   OCC          E(Eh)            E(eV)
   0   2.0000     -24.264180      -660.2619
   1   2.0000      -9.974144      -271.4102
   2   2.0000      -9.894011      -269.2297
   3   2.0000      -1.083635       -29.4872
   4   2.0000      -0.689324       -18.7575
   5   2.0000      -0.565363       -15.3843
   6   2.0000      -0.457265       -12.4428
   7   2.0000      -0.441518       -12.0143
   8   2.0000      -0.404990       -11.0203
   9   2.0000      -0.357251        -9.7213
  10   2.0000      -0.355792        -9.6816
  11   2.0000      -0.290737        -7.9113
  12   2.0000      -0.284782        -7.7493
  13   0.0000       0.004988         0.1357
  14   0.0000       0.037143         1.0107
  15   0.0000       0.049948         1.3592
  16   0.0000       0.061408         1.6710
  17   0.0000       0.083515         2.2725

MULLIKEN ATOMIC CHARGES
-----------------------
   0 C :    0.349370
   1 C :    0.406161
   2 H :   -0.084586
   3 H :   -0.075551
   4 F :   -0.419545
   5 H :   -0.039603
   6 H :   -0.067883
   7 H :   -0.068364
Sum of atomic charges:   -0.0000000

LOEWDIN ATOMIC CHARGES
----------------------
   0 C :    0.135689
   1 C :    0.050021
   2 H :    0.027222
   3 H :    0.029350
   4 F :   -0.198844
   5 H :   -0.012811
   6 H :   -0.015286
   7 H :   -0.015342

  Mayer bond orders larger than 0.100000
B(  0-C ,  1-C ) :   1.3735 B(  0-C ,  5-H ) :   0.8501 B(  0-C ,  6-H ) :   0.8836
B(  0-C ,  7-H ) :   0.8836 B(  1-C ,  2-H ) :   0.9307 B(  1-C ,  3-H ) :   0.9306
B(  1-C ,  4-F ) :   0.7788 B(  1-C ,  5-H ) :   0.1284 B(  1-C ,  6-H ) :   0.1488
B(  1-C ,  7-H ) :   0.1490

Dispersion correction           -0.003477295
FINAL SINGLE POINT ENERGY      -178.727760307364

DIPOLE MOMENT
-------------
                                X             Y             Z
Electronic contribution:      3.24382       0.37436       3.98948
Nuclear contribution   :     -3.84149      -0.36812      -4.38946
                        -----------------------------------------
Total Dipole Moment    :     -0.59767       0.00624      -0.39998
                        -----------------------------------------
Magnitude (a.u.)       :      0.71919
Magnitude (Debye)      :      1.82803

Rotational constants in cm-1:     1.270659     0.299196     0.265842
Rotational constants in MHz : 38093.410361  8969.665806  7969.741481

                             ****ORCA TERMINATED NORMALLY****
TOTAL RUN TIME: 0 days 0 hours 0 minutes 6 seconds 579 msec
