                         Program Version 5.0.0 -  RELEASE  -
|  1> !PBE D3BJ RIJCOSX def2-SVPD def2/J TightSCF
|  2> *xyz 0 1
|  3> C          4.36645       -0.13321       -1.41606
|  4> C          4.50829       -0.93187       -2.72425
|  5> C          3.05650       -0.32080       -0.70738
|  6> C          2.38983        0.71129       -0.24391
|  7> N          2.51600       -1.50772       -0.55023
|  8> H          2.96768       -2.32291       -0.95631
|  9> H          1.54987       -1.49063       -0.24988
| 10> H          2.74307        1.64947       -0.41280
| 11> H          1.44036        0.50278        0.03703
| 12> H          4.48784        0.93300       -1.61157
| 13> H          5.16967       -0.41443       -0.72982
| 14> H          5.46700       -0.73824       -3.15818
| 15> H          3.74074       -0.63528       -3.40821
| 16> H          4.41574       -1.97727       -2.51573
| 17> *
| 18>
| 19> %MaxCore 64000
| 20>
| 21> %pal nprocs 4
| 22> end
| 23>
| 24> %scf
| 25>   MaxIter 150
| 26> end
| 27>
| 28>
| 29>                          ****END OF INPUT****

CARTESIAN COORDINATES (ANGSTROEM)
---------------------------------
  C      4.366450   -0.133210   -1.416060
  C      4.508290   -0.931870   -2.724250
  C      3.056500   -0.320800   -0.707380
  C      2.389830    0.711290   -0.243910
  N      2.516000   -1.507720   -0.550230
  H      2.967680   -2.322910   -0.956310
  H      1.549870   -1.490630   -0.249880
  H      2.743070    1.649470   -0.412800
  H      1.440360    0.502780    0.037030
  H      4.487840    0.933000   -1.611570
  H      5.169670   -0.414430   -0.729820
  H      5.467000   -0.738240   -3.158180
  H      3.740740   -0.635280   -3.408210
  H      4.415740   -1.977270   -2.515730

 Total Charge           Charge          ....    0
 Multiplicity           Mult            ....    1
 Number of Electrons    NEL             ....   40
 Basis Dimension        Dim             ....  172

ORBITAL ENERGIES
----------------

  NO   OCC          E(Eh)            E(eV)
   0   2.0000     -14.000988      -380.9862
   1   2.0000      -9.909553      -269.6527
   2   2.0000      -9.897848      -269.3341
   3   2.0000      -9.888923      -269.0913
   4   2.0000      -9.827684      -267.4249
   5   2.0000      -0.846571       -23.0364
   6   2.0000      -0.700818       -19.0702
   7   2.0000      -0.647687       -17.6245
   8   2.0000      -0.569515       -15.4973
   9   2.0000      -0.506398       -13.7798
  10   2.0000      -0.482798       -13.1376
  11   2.0000      -0.420300       -11.4369
  12   2.0000      -0.393792       -10.7156
  13   2.0000      -0.383439       -10.4339
  14   2.0000      -0.346888        -9.4393
  15   2.0000      -0.337021        -9.1708
  16   2.0000      -0.315704        -8.5908
  17   2.0000      -0.303118        -8.2483
  18   2.0000      -0.284094        -7.7306
  19   2.0000      -0.158926        -4.3246
  20   0.0000      -0.004327        -0.1178
  21   0.0000       0.010294         0.2801
  22   0.0000       0.033320         0.9067
  23   0.0000       0.037065         1.0086
  24   0.0000       0.054906         1.4941

MULLIKEN ATOMIC CHARGES
-----------------------
   0 C :   -0.143351
   1 C :    0.770184
   2 C :   -0.267483
   3 C :    0.455120
   4 N :    0.310346
   5 H :   -0.177751
   6 H :   -0.147935
   7 H :   -0.131891
   8 H :   -0.412217
   9 H :    0.113026
  10 H :   -0.073428
  11 H :   -0.082643
  12 H :   -0.057857
  13 H :   -0.154120
Sum of atomic charges:    0.0000000

LOEWDIN ATOMIC CHARGES
----------------------
   0 C :   -0.026319
   1 C :    0.130372
   2 C :   -0.272408
   3 C :    0.170439
   4 N :    0.183771
   5 H :   -0.007340
   6 H :    0.003034
   7 H :   -0.078336
   8 H :   -0.085726
   9 H :    0.021634
  10 H :    0.025819
  11 H :   -0.017920
  12 H :   -0.011654
  13 H :   -0.035366

  Mayer bond orders larger than 0.100000
B(  0-C ,  1-C ) :   1.3138 B(  0-C ,  2-C ) :   1.1774 B(  0-C ,  9-H ) :   0.8722
B(  0-C , 10-H ) :   0.7920 B(  0-C , 11-H ) :   0.2329 B(  0-C , 12-H ) :   0.2075
B(  0-C , 13-H ) :   0.2207 B(  1-C ,  9-H ) :   0.1157 B(  1-C , 11-H ) :   0.7764
B(  1-C , 12-H ) :   0.7663 B(  1-C , 13-H ) :   0.8029 B(  2-C ,  3-C ) :   1.7185
B(  2-C ,  4-N ) :   1.2908 B(  2-C ,  8-H ) :   0.3052 B(  2-C , 10-H ) :   0.2308
B(  3-C ,  4-N ) :   0.3011 B(  3-C ,  7-H ) :   0.9713 B(  3-C ,  8-H ) :   0.6276
B(  4-N ,  5-H ) :   1.1053 B(  4-N ,  6-H ) :   1.1702 B(  5-H ,  6-H ) :  -0.1504

Dispersion correction           -0.010487349
FINAL SINGLE POINT ENERGY      -212.132514041236

DIPOLE MOMENT
-------------
                                X             Y             Z
Electronic contribution:     -1.50801      -0.43937       2.09003
Nuclear contribution   :      1.56827      -0.21459      -2.46657
                        -----------------------------------------
Total Dipole Moment    :      0.06026      -0.65396      -0.37655
                        -----------------------------------------
Magnitude (a.u.)       :      0.75702
Magnitude (Debye)      :      1.92419

Rotational constants in cm-1:     0.294070     0.127722     0.097792
Rotational constants in MHz :  8815.983970  3829.010547  2931.715816

                             ****ORCA TERMINATED NORMALLY****
TOTAL RUN TIME: 0 days 0 hours 0 minutes 9 seconds 748 msec
