                         Program Version 5.0.0 -  RELEASE  -
|  1> !PBE D3BJ RIJCOSX def2-SVPD def2/J TightSCF
|  2> *xyz 0 1
|  3> C          4.36645       -0.13321       -1.41606
|  4> C          4.50829       -0.93187       -2.72425
|  5> C          3.05650       -0.32080       -0.70738
|  6> N          2.38983        0.71129       -0.24391
|  7> C          2.51600       -1.50772       -0.55023
|  8> H          2.96768       -2.32291       -0.95631
|  9> H          1.54987       -1.49063       -0.24988
| 10> H          2.74307        1.64947       -0.41280
| 11> H          1.44036        0.50278        0.03703
| 12> H          4.48784        0.93300       -1.61157
| 13> H          5.16967       -0.41443       -0.72982
| 14> H          5.46700       -0.73824       -3.15818
| 15> H          3.74074       -0.63528       -3.40821
| 16> H          4.41574       -1.97727       -2.51573
| 17> *
| 18>
| 19> %MaxCore 64000
| 20>
| 21> %pal nprocs 4
| 22> end
| 23>
| 24> %scf
| 25>   MaxIter 150
| 26> end
| 27>
| 28>
| 29>                          ****END OF INPUT****

CARTESIAN COORDINATES (ANGSTROEM)
---------------------------------
  C      4.366450   -0.133210   -1.416060
  C      4.508290   -0.931870   -2.724250
  C      3.056500   -0.320800   -0.707380
  N      2.389830    0.711290   -0.243910
  C      2.516000   -1.507720   -0.550230
  H      2.967680   -2.322910   -0.956310
  H      1.549870   -1.490630   -0.249880
  H      2.743070    1.649470   -0.412800
  H      1.440360    0.502780    0.037030
  H      4.487840    0.933000   -1.611570
  H      5.169670   -0.414430   -0.729820
  H      5.467000   -0.738240   -3.158180
  H      3.740740   -0.635280   -3.408210
  H      4.415740   -1.977270   -2.515730

 Total Charge           Charge          ....    0
 Multiplicity           Mult            ....    1
 Number of Electrons    NEL             ....   40
 Basis Dimension        Dim             ....  172

ORBITAL ENERGIES
----------------

  NO   OCC          E(Eh)            E(eV)
   0   2.0000     -14.001552      -381.0016
   1   2.0000      -9.909754      -269.6581
   2   2.0000      -9.899385      -269.3760
   3   2.0000      -9.882593      -268.9190
   4   2.0000      -9.826520      -267.3932
   5   2.0000      -0.846948       -23.0466
   6   2.0000      -0.702142       -19.1063
   7   2.0000      -0.637421       -17.3451
   8   2.0000      -0.578740       -15.7483
   9   2.0000      -0.497410       -13.5352
  10   2.0000      -0.480564       -13.0768
  11   2.0000      -0.427835       -11.6420
  12   2.0000      -0.402777       -10.9601
  13   2.0000      -0.360637        -9.8134
  14   2.0000      -0.345984        -9.4147
  15   2.0000      -0.336890        -9.1672
  16   2.0000      -0.316573        -8.6144
  17   2.0000      -0.300334        -8.1725
  18   2.0000      -0.285750        -7.7757
  19   2.0000      -0.157475        -4.2851
  20   0.0000      -0.000100        -0.0027
  21   0.0000       0.007664         0.2085
  22   0.0000       0.030343         0.8257
  23   0.0000       0.036959         1.0057
  24   0.0000       0.057660         1.5690

MULLIKEN ATOMIC CHARGES
-----------------------
   0 C :   -0.041674
   1 C :    0.749823
   2 C :   -0.113814
   3 N :    0.215883
   4 C :    0.424692
   5 H :   -0.189240
   6 H :   -0.442035
   7 H :   -0.135069
   8 H :   -0.089213
   9 H :   -0.047359
  10 H :   -0.068250
  11 H :   -0.047711
  12 H :   -0.083596
  13 H :   -0.132436
Sum of atomic charges:    0.0000000

LOEWDIN ATOMIC CHARGES
----------------------
   0 C :   -0.027923
   1 C :    0.134593
   2 C :   -0.266405
   3 N :    0.175532
   4 C :    0.174797
   5 H :   -0.084660
   6 H :   -0.085461
   7 H :   -0.000614
   8 H :    0.002378
   9 H :    0.009386
  10 H :    0.028296
  11 H :   -0.019865
  12 H :   -0.012135
  13 H :   -0.027918

  Mayer bond orders larger than 0.100000
B(  0-C ,  1-C ) :   1.3447 B(  0-C ,  2-C ) :   1.1060 B(  0-C ,  9-H ) :   0.7716
B(  0-C , 10-H ) :   0.8383 B(  0-C , 11-H ) :   0.2006 B(  0-C , 12-H ) :   0.2112
B(  0-C , 13-H ) :   0.1967 B(  1-C ,  9-H ) :   0.1012 B(  1-C , 10-H ) :   0.1040
B(  1-C , 11-H ) :   0.7806 B(  1-C , 12-H ) :   0.7830 B(  1-C , 13-H ) :   0.8259
B(  2-C ,  3-N ) :   1.1732 B(  2-C ,  4-C ) :   1.7093 B(  2-C ,  5-H ) :   0.1191
B(  2-C ,  6-H ) :   0.2641 B(  2-C ,  9-H ) :   0.2118 B(  2-C , 10-H ) :   0.1563
B(  3-N ,  4-C ) :   0.3188 B(  3-N ,  7-H ) :   1.1245 B(  3-N ,  8-H ) :   1.1301
B(  4-C ,  5-H ) :   0.8169 B(  4-C ,  6-H ) :   0.7568 B(  7-H ,  8-H ) :  -0.1248

Dispersion correction           -0.010519409
FINAL SINGLE POINT ENERGY      -212.131408372107

DIPOLE MOMENT
-------------
                                X             Y             Z
Electronic contribution:     -1.62182       1.46396       2.37260
Nuclear contribution   :      1.59749      -0.72853      -2.53752
                        -----------------------------------------
Total Dipole Moment    :     -0.02433       0.73543      -0.16492
                        -----------------------------------------
Magnitude (a.u.)       :      0.75409
Magnitude (Debye)      :      1.91674

Rotational constants in cm-1:     0.304597     0.124127     0.096828
Rotational constants in MHz :  9131.600925  3721.227051  2902.830760

                             ****ORCA TERMINATED NORMALLY****
TOTAL RUN TIME: 0 days 0 hours 0 minutes 10 seconds 994 msec
