                         Program Version 5.0.0 -  RELEASE  -
|  1> !LC-BLYP RIJCOSX def2-TZVP def2/J TightSCF
|  2>
|  3> *xyz -1 1
|  4> C          2.95263        1.86308       -3.57485
|  5> C          4.12921        0.89839       -3.41895
|  6> H          3.73369       -0.10060       -3.23763
|  7> H          4.71910        0.86256       -4.33901
|  8> C          5.01734        1.31521       -2.22130
|  9> O          4.73706        0.85411       -1.12283
| 10> O          5.92815        2.16811       -2.49136
| 11> H          2.35067        1.56005       -4.40594
| 12> H          3.32277        2.85258       -3.74453
| 13> H          2.36134        1.85149       -2.68315
| 14> *
| 15> %MaxCore 64000
| 16>
| 17> %pal nprocs 4
| 18> end
| 19>
| 20> %scf
| 21>   MaxIter 150
| 22> end
| 23>
| 24>
| 25>                          ****END OF INPUT****

CARTESIAN COORDINATES (ANGSTROEM)
---------------------------------
  C      2.952630    1.863080   -3.574850
  C      4.129210    0.898390   -3.418950
  H      3.733690   -0.100600   -3.237630
  H      4.719100    0.862560   -4.339010
  C      5.017340    1.315210   -2.221300
  O      4.737060    0.854110   -1.122830
  O      5.928150    2.168110   -2.491360
  H      2.350670    1.560050   -4.405940
  H      3.322770    2.852580   -3.744530
  H      2.361340    1.851490   -2.683150

 Total Charge           Charge          ....   -1
 Multiplicity           Mult            ....    1
 Number of Electrons    NEL             ....   40
 Basis Dimension        Dim             ....  185

ORBITAL ENERGIES
----------------

  NO   OCC          E(Eh)            E(eV)
   0   2.0000     -18.667896      -507.9793
   1   2.0000     -18.656138      -507.6593
   2   2.0000      -9.944797      -270.6117
   3   2.0000      -9.902785      -269.4685
   4   2.0000      -9.887713      -269.0583
   5   2.0000      -0.909780       -24.7564
   6   2.0000      -0.811650       -22.0861
   7   2.0000      -0.712146       -19.3785
   8   2.0000      -0.574646       -15.6369
   9   2.0000      -0.423043       -11.5116
  10   2.0000      -0.394024       -10.7219
  11   2.0000      -0.357947        -9.7402
  12   2.0000      -0.330736        -8.9998
  13   2.0000      -0.307727        -8.3737
  14   2.0000      -0.306241        -8.3332
  15   2.0000      -0.271426        -7.3859
  16   2.0000      -0.265438        -7.2229
  17   2.0000      -0.139712        -3.8018
  18   2.0000      -0.130467        -3.5502
  19   2.0000      -0.119235        -3.2445
  20   0.0000       0.248056         6.7499
  21   0.0000       0.289278         7.8716
  22   0.0000       0.311539         8.4774
  23   0.0000       0.315420         8.5830
  24   0.0000       0.345002         9.3880

MULLIKEN ATOMIC CHARGES
-----------------------
   0 C :   -0.390091
   1 C :   -0.179388
   2 H :    0.050602
   3 H :    0.056248
   4 C :    0.075502
   5 O :   -0.410799
   6 O :   -0.500547
   7 H :    0.073323
   8 H :    0.113238
   9 H :    0.111912
Sum of atomic charges:   -1.0000000

LOEWDIN ATOMIC CHARGES
----------------------
   0 C :   -0.337987
   1 C :   -0.301585
   2 H :    0.118348
   3 H :    0.119247
   4 C :   -0.733000
   5 O :   -0.052718
   6 O :   -0.140927
   7 H :    0.098495
   8 H :    0.115328
   9 H :    0.114800

  Mayer bond orders larger than 0.100000
B(  0-C ,  1-C ) :   0.9425 B(  0-C ,  7-H ) :   0.9811 B(  0-C ,  8-H ) :   0.9783
B(  0-C ,  9-H ) :   0.9808 B(  1-C ,  2-H ) :   0.9597 B(  1-C ,  3-H ) :   0.9631
B(  1-C ,  4-C ) :   0.9041 B(  4-C ,  5-O ) :   1.9943 B(  4-C ,  6-O ) :   1.9119

FINAL SINGLE POINT ENERGY      -267.345851701695

DIPOLE MOMENT
-------------
                                X             Y             Z
Electronic contribution:      4.44153      -0.18906       3.91622
Nuclear contribution   :     -5.85873      -0.10793      -5.24103
                        -----------------------------------------
Total Dipole Moment    :     -1.41719      -0.29699      -1.32481
                        -----------------------------------------
Magnitude (a.u.)       :      1.96259
Magnitude (Debye)      :      4.98851

Rotational constants in cm-1:     0.292505     0.135951     0.110253
Rotational constants in MHz :  8769.065873  4075.717001  3305.311891

                             ****ORCA TERMINATED NORMALLY****
TOTAL RUN TIME: 0 days 0 hours 0 minutes 26 seconds 567 msec
