                         Program Version 5.0.0 -  RELEASE  -
|  1> !LC-BLYP RIJCOSX def2-TZVP def2/J TightSCF
|  2>
|  3> *xyz 1 1
|  4> C          3.34350        3.35457       -3.59200
|  5> C          2.95263        1.86308       -3.57485
|  6> C          4.25587        3.70385       -4.72605
|  7> N          3.73403        4.29378       -5.80077
|  8> N          5.51504        3.40725       -4.63718
|  9> H          6.14919        3.60120       -5.39905
| 10> H          5.81358        2.89950       -3.80879
| 11> H          2.74138        4.51311       -5.82470
| 12> H          4.28755        4.52126       -6.61434
| 13> H          3.86125        3.59725       -2.66298
| 14> H          2.44649        3.97346       -3.65656
| 15> H          2.44395        1.61721       -4.48352
| 16> H          2.30781        1.67290       -2.74242
| 17> H          3.83491        1.26414       -3.48670
| 18> *
| 19> %MaxCore 64000
| 20>
| 21> %pal nprocs 4
| 22> end
| 23>
| 24> %scf
| 25>   MaxIter 150
| 26> end
| 27>
| 28>
| 29>                          ****END OF INPUT****

CARTESIAN COORDINATES (ANGSTROEM)
---------------------------------
  C      3.343500    3.354570   -3.592000
  C      2.952630    1.863080   -3.574850
  C      4.255870    3.703850   -4.726050
  N      3.734030    4.293780   -5.800770
  N      5.515040    3.407250   -4.637180
  H      6.149190    3.601200   -5.399050
  H      5.813580    2.899500   -3.808790
  H      2.741380    4.513110   -5.824700
  H      4.287550    4.521260   -6.614340
  H      3.861250    3.597250   -2.662980
  H      2.446490    3.973460   -3.656560
  H      2.443950    1.617210   -4.483520
  H      2.307810    1.672900   -2.742420
  H      3.834910    1.264140   -3.486700

 Total Charge           Charge          ....    1
 Multiplicity           Mult            ....    1
 Number of Electrons    NEL             ....   40
 Basis Dimension        Dim             ....  209

ORBITAL ENERGIES
----------------

  NO   OCC          E(Eh)            E(eV)
   0   2.0000     -14.418001      -392.3337
   1   2.0000     -14.413123      -392.2010
   2   2.0000     -10.393563      -282.8232
   3   2.0000     -10.267116      -279.3824
   4   2.0000     -10.222771      -278.1757
   5   2.0000      -1.306806       -35.5600
   6   2.0000      -1.211086       -32.9553
   7   2.0000      -1.078408       -29.3450
   8   2.0000      -0.967794       -26.3350
   9   2.0000      -0.923417       -25.1275
  10   2.0000      -0.883137       -24.0314
  11   2.0000      -0.856415       -23.3042
  12   2.0000      -0.803185       -21.8558
  13   2.0000      -0.758781       -20.6475
  14   2.0000      -0.728598       -19.8262
  15   2.0000      -0.717867       -19.5341
  16   2.0000      -0.644447       -17.5363
  17   2.0000      -0.635821       -17.3016
  18   2.0000      -0.627111       -17.0645
  19   2.0000      -0.592061       -16.1108
  20   0.0000      -0.125240        -3.4080
  21   0.0000      -0.096114        -2.6154
  22   0.0000      -0.050726        -1.3803
  23   0.0000      -0.048141        -1.3100
  24   0.0000      -0.015585        -0.4241

MULLIKEN ATOMIC CHARGES
-----------------------
   0 C :   -0.361894
   1 C :   -0.372369
   2 C :    0.297817
   3 N :   -0.327400
   4 N :   -0.272431
   5 H :    0.283209
   6 H :    0.302358
   7 H :    0.299714
   8 H :    0.281118
   9 H :    0.197812
  10 H :    0.171038
  11 H :    0.161495
  12 H :    0.190845
  13 H :    0.148688
Sum of atomic charges:    1.0000000

LOEWDIN ATOMIC CHARGES
----------------------
   0 C :   -0.230832
   1 C :   -0.273266
   2 C :   -0.298137
   3 N :    0.101931
   4 N :    0.130211
   5 H :    0.204384
   6 H :    0.218094
   7 H :    0.210845
   8 H :    0.197144
   9 H :    0.169924
  10 H :    0.164466
  11 H :    0.133357
  12 H :    0.143439
  13 H :    0.128441

  Mayer bond orders larger than 0.100000
B(  0-C ,  1-C ) :   0.9137 B(  0-C ,  2-C ) :   0.9391 B(  0-C ,  9-H ) :   0.9549
B(  0-C , 10-H ) :   0.9725 B(  1-C , 11-H ) :   0.9576 B(  1-C , 12-H ) :   0.9685
B(  1-C , 13-H ) :   0.9645 B(  2-C ,  3-N ) :   1.4332 B(  2-C ,  4-N ) :   1.4736
B(  3-N ,  7-H ) :   0.8905 B(  3-N ,  8-H ) :   0.8975 B(  4-N ,  5-H ) :   0.8949
B(  4-N ,  6-H ) :   0.8875

FINAL SINGLE POINT ENERGY      -228.507805045087

DIPOLE MOMENT
-------------
                                X             Y             Z
Electronic contribution:      2.38571       2.58845      -2.29241
Nuclear contribution   :     -1.74195      -2.09431       1.58516
                        -----------------------------------------
Total Dipole Moment    :      0.64377       0.49415      -0.70725
                        -----------------------------------------
Magnitude (a.u.)       :      1.07648
Magnitude (Debye)      :      2.73620

Rotational constants in cm-1:     0.258965     0.126500     0.098780
Rotational constants in MHz :  7763.584551  3792.383135  2961.336502

                             ****ORCA TERMINATED NORMALLY****
TOTAL RUN TIME: 0 days 0 hours 0 minutes 29 seconds 405 msec
