                         Program Version 5.0.0 -  RELEASE  -
|  1> !LC-BLYP RIJCOSX def2-TZVP def2/J TightSCF
|  2>
|  3> *xyz 0 1
|  4> C          2.95263        1.86308       -3.57485
|  5> C          4.12921        0.89839       -3.41895
|  6> H          3.73369       -0.10060       -3.23763
|  7> H          4.71910        0.86256       -4.33901
|  8> C          5.01734        1.31521       -2.22130
|  9> F          4.73706        0.85411       -1.12283
| 10> O          5.92815        2.16811       -2.49136
| 11> H          2.35067        1.56005       -4.40594
| 12> H          3.32277        2.85258       -3.74453
| 13> H          2.36134        1.85149       -2.68315
| 14> *
| 15> %MaxCore 64000
| 16>
| 17> %pal nprocs 4
| 18> end
| 19>
| 20> %scf
| 21>   MaxIter 150
| 22> end
| 23>
| 24>
| 25>                          ****END OF INPUT****

CARTESIAN COORDINATES (ANGSTROEM)
---------------------------------
  C      2.952630    1.863080   -3.574850
  C      4.129210    0.898390   -3.418950
  H      3.733690   -0.100600   -3.237630
  H      4.719100    0.862560   -4.339010
  C      5.017340    1.315210   -2.221300
  F      4.737060    0.854110   -1.122830
  O      5.928150    2.168110   -2.491360
  H      2.350670    1.560050   -4.405940
  H      3.322770    2.852580   -3.744530
  H      2.361340    1.851490   -2.683150

 Total Charge           Charge          ....    0
 Multiplicity           Mult            ....    1
 Number of Electrons    NEL             ....   40
 Basis Dimension        Dim             ....  185

ORBITAL ENERGIES
----------------

  NO   OCC          E(Eh)            E(eV)
   0   2.0000     -24.537062      -667.6874
   1   2.0000     -18.940030      -515.3844
   2   2.0000     -10.251895      -278.9682
   3   2.0000     -10.099682      -274.8263
   4   2.0000     -10.075258      -274.1617
   5   2.0000      -1.423502       -38.7355
   6   2.0000      -1.113123       -30.2896
   7   2.0000      -0.911597       -24.8058
   8   2.0000      -0.798176       -21.7195
   9   2.0000      -0.754845       -20.5404
  10   2.0000      -0.670946       -18.2574
  11   2.0000      -0.653576       -17.7847
  12   2.0000      -0.611136       -16.6299
  13   2.0000      -0.570797       -15.5322
  14   2.0000      -0.537878       -14.6364
  15   2.0000      -0.502287       -13.6679
  16   2.0000      -0.478046       -13.0083
  17   2.0000      -0.470851       -12.8125
  18   2.0000      -0.445515       -12.1231
  19   2.0000      -0.384906       -10.4738
  20   0.0000       0.054412         1.4806
  21   0.0000       0.097471         2.6523
  22   0.0000       0.136900         3.7252
  23   0.0000       0.154743         4.2108
  24   0.0000       0.167655         4.5621

MULLIKEN ATOMIC CHARGES
-----------------------
   0 C :   -0.411095
   1 C :   -0.260628
   2 H :    0.129650
   3 H :    0.152762
   4 C :    0.287297
   5 F :   -0.031333
   6 O :   -0.300885
   7 H :    0.141702
   8 H :    0.155070
   9 H :    0.137461
Sum of atomic charges:   -0.0000000

LOEWDIN ATOMIC CHARGES
----------------------
   0 C :   -0.305121
   1 C :   -0.269079
   2 H :    0.142090
   3 H :    0.153902
   4 C :   -0.536721
   5 F :    0.391668
   6 O :    0.044778
   7 H :    0.125398
   8 H :    0.129042
   9 H :    0.124043

  Mayer bond orders larger than 0.100000
B(  0-C ,  1-C ) :   0.9315 B(  0-C ,  7-H ) :   0.9758 B(  0-C ,  8-H ) :   0.9686
B(  0-C ,  9-H ) :   0.9706 B(  1-C ,  2-H ) :   0.9566 B(  1-C ,  3-H ) :   0.9616
B(  1-C ,  4-C ) :   0.9585 B(  4-C ,  5-F ) :   1.2392 B(  4-C ,  6-O ) :   2.0951

FINAL SINGLE POINT ENERGY      -291.891198867961

DIPOLE MOMENT
-------------
                                X             Y             Z
Electronic contribution:      5.05633      -1.18638       6.52125
Nuclear contribution   :     -6.06116       0.51860      -6.80802
                        -----------------------------------------
Total Dipole Moment    :     -1.00482      -0.66778      -0.28677
                        -----------------------------------------
Magnitude (a.u.)       :      1.24009
Magnitude (Debye)      :      3.15207

Rotational constants in cm-1:     0.276196     0.132056     0.105465
Rotational constants in MHz :  8280.156449  3958.940601  3161.775929

                             ****ORCA TERMINATED NORMALLY****
TOTAL RUN TIME: 0 days 0 hours 0 minutes 23 seconds 98 msec
