                         Program Version 5.0.0 -  RELEASE  -
|  1> !LC-BLYP RIJCOSX def2-TZVP def2/J TightSCF
|  2>
|  3> *xyz 0 1
|  4> C          3.34350        3.35457       -3.59200
|  5> C          2.95263        1.86308       -3.57485
|  6> C          4.25587        3.70385       -4.72605
|  7> C          3.73403        4.29378       -5.80077
|  8> N          5.51504        3.40725       -4.63718
|  9> H          6.14919        3.60120       -5.39905
| 10> H          5.81358        2.89950       -3.80879
| 11> H          2.74138        4.51311       -5.82470
| 12> H          4.28755        4.52126       -6.61434
| 13> H          3.86125        3.59725       -2.66298
| 14> H          2.44649        3.97346       -3.65656
| 15> H          2.44395        1.61721       -4.48352
| 16> H          2.30781        1.67290       -2.74242
| 17> H          3.83491        1.26414       -3.48670
| 18> *
| 19> %MaxCore 64000
| 20>
| 21> %pal nprocs 4
| 22> end
| 23>
| 24> %scf
| 25>   MaxIter 150
| 26> end
| 27>
| 28>
| 29>                          ****END OF INPUT****

CARTESIAN COORDINATES (ANGSTROEM)
---------------------------------
  C      3.343500    3.354570   -3.592000
  C      2.952630    1.863080   -3.574850
  C      4.255870    3.703850   -4.726050
  C      3.734030    4.293780   -5.800770
  N      5.515040    3.407250   -4.637180
  H      6.149190    3.601200   -5.399050
  H      5.813580    2.899500   -3.808790
  H      2.741380    4.513110   -5.824700
  H      4.287550    4.521260   -6.614340
  H      3.861250    3.597250   -2.662980
  H      2.446490    3.973460   -3.656560
  H      2.443950    1.617210   -4.483520
  H      2.307810    1.672900   -2.742420
  H      3.834910    1.264140   -3.486700

 Total Charge           Charge          ....    0
 Multiplicity           Mult            ....    1
 Number of Electrons    NEL             ....   40
 Basis Dimension        Dim             ....  209

ORBITAL ENERGIES
----------------

  NO   OCC          E(Eh)            E(eV)
   0   2.0000     -14.170872      -385.6090
   1   2.0000     -10.089196      -274.5410
   2   2.0000     -10.067402      -273.9479
   3   2.0000     -10.053365      -273.5660
   4   2.0000      -9.997432      -272.0439
   5   2.0000      -1.038493       -28.2588
   6   2.0000      -0.886917       -24.1342
   7   2.0000      -0.820596       -22.3295
   8   2.0000      -0.744134       -20.2489
   9   2.0000      -0.674777       -18.3616
  10   2.0000      -0.636138       -17.3102
  11   2.0000      -0.584944       -15.9171
  12   2.0000      -0.541754       -14.7419
  13   2.0000      -0.525601       -14.3023
  14   2.0000      -0.494802       -13.4642
  15   2.0000      -0.483382       -13.1535
  16   2.0000      -0.452106       -12.3024
  17   2.0000      -0.433801       -11.8043
  18   2.0000      -0.429762       -11.6944
  19   2.0000      -0.281706        -7.6656
  20   0.0000       0.087085         2.3697
  21   0.0000       0.120404         3.2764
  22   0.0000       0.133939         3.6447
  23   0.0000       0.143163         3.8957
  24   0.0000       0.152041         4.1373

MULLIKEN ATOMIC CHARGES
-----------------------
   0 C :   -0.308018
   1 C :   -0.357123
   2 C :    0.215698
   3 C :   -0.464118
   4 N :   -0.387115
   5 H :    0.229843
   6 H :    0.227208
   7 H :    0.100225
   8 H :    0.103152
   9 H :    0.121525
  10 H :    0.133378
  11 H :    0.140285
  12 H :    0.131637
  13 H :    0.113424
Sum of atomic charges:   -0.0000000

LOEWDIN ATOMIC CHARGES
----------------------
   0 C :   -0.247373
   1 C :   -0.305931
   2 C :   -0.379223
   3 C :   -0.291041
   4 N :    0.014444
   5 H :    0.177274
   6 H :    0.176850
   7 H :    0.107567
   8 H :    0.097262
   9 H :    0.139423
  10 H :    0.151294
  11 H :    0.124088
  12 H :    0.119298
  13 H :    0.116067

  Mayer bond orders larger than 0.100000
B(  0-C ,  1-C ) :   0.9167 B(  0-C ,  2-C ) :   0.9231 B(  0-C ,  9-H ) :   0.9856
B(  0-C , 10-H ) :   0.9941 B(  1-C , 11-H ) :   0.9749 B(  1-C , 12-H ) :   0.9817
B(  1-C , 13-H ) :   0.9729 B(  2-C ,  3-C ) :   1.7110 B(  2-C ,  4-N ) :   1.1838
B(  3-C ,  7-H ) :   1.0032 B(  3-C ,  8-H ) :   0.9958 B(  4-N ,  5-H ) :   0.9271
B(  4-N ,  6-H ) :   0.9302

FINAL SINGLE POINT ENERGY      -212.040622767424

DIPOLE MOMENT
-------------
                                X             Y             Z
Electronic contribution:      2.35420       1.46781      -0.83957
Nuclear contribution   :     -1.79713      -1.86925       1.28073
                        -----------------------------------------
Total Dipole Moment    :      0.55707      -0.40143       0.44116
                        -----------------------------------------
Magnitude (a.u.)       :      0.81615
Magnitude (Debye)      :      2.07448

Rotational constants in cm-1:     0.269040     0.129645     0.102087
Rotational constants in MHz :  8065.609820  3886.645139  3060.489045

                             ****ORCA TERMINATED NORMALLY****
TOTAL RUN TIME: 0 days 0 hours 0 minutes 32 seconds 181 msec
