                         Program Version 5.0.0 -  RELEASE  -
|  1> !LC-BLYP RIJCOSX def2-TZVP def2/J TightSCF
|  2>
|  3> *xyz 0 1
|  4> C          2.95263        1.86308       -3.57485
|  5> C          4.12921        0.89839       -3.41895
|  6> H          3.73369       -0.10060       -3.23763
|  7> H          4.71910        0.86256       -4.33901
|  8> C          5.01734        1.31521       -2.22130
|  9> O          4.73706        0.85411       -1.12283
| 10> F          5.92815        2.16811       -2.49136
| 11> H          2.35067        1.56005       -4.40594
| 12> H          3.32277        2.85258       -3.74453
| 13> H          2.36134        1.85149       -2.68315
| 14> *
| 15> %MaxCore 64000
| 16>
| 17> %pal nprocs 4
| 18> end
| 19>
| 20> %scf
| 21>   MaxIter 150
| 22> end
| 23>
| 24>
| 25>                          ****END OF INPUT****

CARTESIAN COORDINATES (ANGSTROEM)
---------------------------------
  C      2.952630    1.863080   -3.574850
  C      4.129210    0.898390   -3.418950
  H      3.733690   -0.100600   -3.237630
  H      4.719100    0.862560   -4.339010
  C      5.017340    1.315210   -2.221300
  O      4.737060    0.854110   -1.122830
  F      5.928150    2.168110   -2.491360
  H      2.350670    1.560050   -4.405940
  H      3.322770    2.852580   -3.744530
  H      2.361340    1.851490   -2.683150

 Total Charge           Charge          ....    0
 Multiplicity           Mult            ....    1
 Number of Electrons    NEL             ....   40
 Basis Dimension        Dim             ....  185

ORBITAL ENERGIES
----------------

  NO   OCC          E(Eh)            E(eV)
   0   2.0000     -24.516126      -667.1177
   1   2.0000     -18.949895      -515.6529
   2   2.0000     -10.247434      -278.8469
   3   2.0000     -10.099315      -274.8163
   4   2.0000     -10.075559      -274.1699
   5   2.0000      -1.383790       -37.6548
   6   2.0000      -1.145782       -31.1783
   7   2.0000      -0.911503       -24.8033
   8   2.0000      -0.789000       -21.4698
   9   2.0000      -0.741181       -20.1686
  10   2.0000      -0.651613       -17.7313
  11   2.0000      -0.634783       -17.2733
  12   2.0000      -0.610207       -16.6046
  13   2.0000      -0.569819       -15.5056
  14   2.0000      -0.540845       -14.7171
  15   2.0000      -0.506323       -13.7778
  16   2.0000      -0.486091       -13.2272
  17   2.0000      -0.471334       -12.8256
  18   2.0000      -0.461183       -12.5494
  19   2.0000      -0.395711       -10.7679
  20   0.0000       0.059500         1.6191
  21   0.0000       0.098128         2.6702
  22   0.0000       0.136917         3.7257
  23   0.0000       0.155157         4.2220
  24   0.0000       0.168817         4.5937

MULLIKEN ATOMIC CHARGES
-----------------------
   0 C :   -0.413175
   1 C :   -0.262345
   2 H :    0.148282
   3 H :    0.135429
   4 C :    0.270995
   5 O :   -0.229731
   6 F :   -0.084538
   7 H :    0.142072
   8 H :    0.140150
   9 H :    0.152861
Sum of atomic charges:    0.0000000

LOEWDIN ATOMIC CHARGES
----------------------
   0 C :   -0.305461
   1 C :   -0.267858
   2 H :    0.153299
   3 H :    0.143307
   4 C :   -0.527067
   5 O :    0.120075
   6 F :    0.305125
   7 H :    0.125489
   8 H :    0.124500
   9 H :    0.128591

  Mayer bond orders larger than 0.100000
B(  0-C ,  1-C ) :   0.9316 B(  0-C ,  7-H ) :   0.9760 B(  0-C ,  8-H ) :   0.9711
B(  0-C ,  9-H ) :   0.9686 B(  1-C ,  2-H ) :   0.9635 B(  1-C ,  3-H ) :   0.9563
B(  1-C ,  4-C ) :   0.9600 B(  4-C ,  5-O ) :   2.1658 B(  4-C ,  6-F ) :   1.1812

FINAL SINGLE POINT ENERGY      -291.907665183412

DIPOLE MOMENT
-------------
                                X             Y             Z
Electronic contribution:      7.04039       1.00377       4.23149
Nuclear contribution   :     -7.35982      -0.91407      -5.31589
                        -----------------------------------------
Total Dipole Moment    :     -0.31943       0.08970      -1.08441
                        -----------------------------------------
Magnitude (a.u.)       :      1.13403
Magnitude (Debye)      :      2.88247

Rotational constants in cm-1:     0.275433     0.132201     0.105422
Rotational constants in MHz :  8257.268192  3963.279062  3160.465566

                             ****ORCA TERMINATED NORMALLY****
TOTAL RUN TIME: 0 days 0 hours 0 minutes 22 seconds 678 msec
