                         Program Version 5.0.0 -  RELEASE  -
|  1> !LC-BLYP RIJCOSX def2-TZVP def2/J TightSCF
|  2>
|  3> *xyz 0 1
|  4> C          3.34350        3.35457       -3.59200
|  5> C          2.95263        1.86308       -3.57485
|  6> C          4.25587        3.70385       -4.72605
|  7> N          3.73403        4.29378       -5.80077
|  8> C          5.51504        3.40725       -4.63718
|  9> H          6.14919        3.60120       -5.39905
| 10> H          5.81358        2.89950       -3.80879
| 11> H          2.74138        4.51311       -5.82470
| 12> H          4.28755        4.52126       -6.61434
| 13> H          3.86125        3.59725       -2.66298
| 14> H          2.44649        3.97346       -3.65656
| 15> H          2.44395        1.61721       -4.48352
| 16> H          2.30781        1.67290       -2.74242
| 17> H          3.83491        1.26414       -3.48670
| 18> *
| 19> %MaxCore 64000
| 20>
| 21> %pal nprocs 4
| 22> end
| 23>
| 24> %scf
| 25>   MaxIter 150
| 26> end
| 27>
| 28>
| 29>                          ****END OF INPUT****

CARTESIAN COORDINATES (ANGSTROEM)
---------------------------------
  C      3.343500    3.354570   -3.592000
  C      2.952630    1.863080   -3.574850
  C      4.255870    3.703850   -4.726050
  N      3.734030    4.293780   -5.800770
  C      5.515040    3.407250   -4.637180
  H      6.149190    3.601200   -5.399050
  H      5.813580    2.899500   -3.808790
  H      2.741380    4.513110   -5.824700
  H      4.287550    4.521260   -6.614340
  H      3.861250    3.597250   -2.662980
  H      2.446490    3.973460   -3.656560
  H      2.443950    1.617210   -4.483520
  H      2.307810    1.672900   -2.742420
  H      3.834910    1.264140   -3.486700

 Total Charge           Charge          ....    0
 Multiplicity           Mult            ....    1
 Number of Electrons    NEL             ....   40
 Basis Dimension        Dim             ....  209

ORBITAL ENERGIES
----------------

  NO   OCC          E(Eh)            E(eV)
   0   2.0000     -14.166481      -385.4895
   1   2.0000     -10.086399      -274.4649
   2   2.0000     -10.066849      -273.9329
   3   2.0000     -10.051108      -273.5045
   4   2.0000      -9.996200      -272.0104
   5   2.0000      -1.024116       -27.8676
   6   2.0000      -0.888999       -24.1909
   7   2.0000      -0.823950       -22.4208
   8   2.0000      -0.745325       -20.2813
   9   2.0000      -0.668257       -18.1842
  10   2.0000      -0.623994       -16.9797
  11   2.0000      -0.588426       -16.0119
  12   2.0000      -0.544345       -14.8124
  13   2.0000      -0.517280       -14.0759
  14   2.0000      -0.494179       -13.4473
  15   2.0000      -0.484800       -13.1921
  16   2.0000      -0.447145       -12.1674
  17   2.0000      -0.434956       -11.8358
  18   2.0000      -0.429426       -11.6853
  19   2.0000      -0.286570        -7.7980
  20   0.0000       0.090216         2.4549
  21   0.0000       0.118784         3.2323
  22   0.0000       0.137005         3.7281
  23   0.0000       0.139632         3.7996
  24   0.0000       0.156093         4.2475

MULLIKEN ATOMIC CHARGES
-----------------------
   0 C :   -0.303553
   1 C :   -0.359935
   2 C :    0.261056
   3 N :   -0.440487
   4 C :   -0.455109
   5 H :    0.103593
   6 H :    0.106567
   7 H :    0.223868
   8 H :    0.226194
   9 H :    0.145372
  10 H :    0.103638
  11 H :    0.125519
  12 H :    0.128062
  13 H :    0.135215
Sum of atomic charges:   -0.0000000

LOEWDIN ATOMIC CHARGES
----------------------
   0 C :   -0.246160
   1 C :   -0.303255
   2 C :   -0.368393
   3 N :   -0.012452
   4 C :   -0.275879
   5 H :    0.103069
   6 H :    0.114880
   7 H :    0.169020
   8 H :    0.169487
   9 H :    0.152213
  10 H :    0.136537
  11 H :    0.120394
  12 H :    0.117864
  13 H :    0.122674

  Mayer bond orders larger than 0.100000
B(  0-C ,  1-C ) :   0.9248 B(  0-C ,  2-C ) :   0.9001 B(  0-C ,  9-H ) :   0.9935
B(  0-C , 10-H ) :   0.9935 B(  1-C , 11-H ) :   0.9744 B(  1-C , 12-H ) :   0.9821
B(  1-C , 13-H ) :   0.9748 B(  2-C ,  3-N ) :   1.1383 B(  2-C ,  4-C ) :   1.7370
B(  3-N ,  7-H ) :   0.9328 B(  3-N ,  8-H ) :   0.9295 B(  4-C ,  5-H ) :   0.9974
B(  4-C ,  6-H ) :   1.0014

FINAL SINGLE POINT ENERGY      -212.041248184388

DIPOLE MOMENT
-------------
                                X             Y             Z
Electronic contribution:      0.75591       2.28191      -1.87703
Nuclear contribution   :     -1.38463      -2.07457       1.55023
                        -----------------------------------------
Total Dipole Moment    :     -0.62872       0.20734      -0.32680
                        -----------------------------------------
Magnitude (a.u.)       :      0.73829
Magnitude (Debye)      :      1.87659

Rotational constants in cm-1:     0.272312     0.128195     0.101724
Rotational constants in MHz :  8163.717141  3843.180148  3049.598073

                             ****ORCA TERMINATED NORMALLY****
TOTAL RUN TIME: 0 days 0 hours 0 minutes 30 seconds 157 msec
