                         Program Version 5.0.0 -  RELEASE  -
|  1> !LC-BLYP RIJCOSX def2-TZVP def2/J TightSCF xyzfile
|  2>
|  3> *xyzfile 0 1 D1.xyz
|  4>
|  5> %MaxCore 64000
|  6>
|  7> %pal nprocs 18
|  8> end
|  9>
| 10> %scf
| 11>   MaxIter 150
| 12> end
| 13>
| 14>
| 15>                          ****END OF INPUT****

CARTESIAN COORDINATES (ANGSTROEM)
---------------------------------
  C      3.343500    3.354571   -3.591998
  C      2.952633    1.863077   -3.574849
  C      4.129209    0.898394   -3.418950
  H      3.733687   -0.100605   -3.237633
  H      4.719095    0.862556   -4.339005
  C      5.017344    1.315212   -2.221305
  C      4.255868    3.703851   -4.726054
  C      3.734032    4.293783   -5.800770
  N      5.515039    3.407255   -4.637185
  H      6.149187    3.601203   -5.399053
  H      5.813584    2.899504   -3.808785
  H      2.741380    4.513109   -5.824701
  H      4.287548    4.521260   -6.614341
  H      2.278938    1.735250   -2.725496
  H      2.377466    1.625787   -4.475869
  F      4.737055    0.854112   -1.122825
  O      5.928146    2.168108   -2.491365
  H      3.861246    3.597252   -2.662979
  H      2.446493    3.973461   -3.656556

 Total Charge           Charge          ....    0
 Multiplicity           Mult            ....    1
 Number of Electrons    NEL             ....   70
 Basis Dimension        Dim             ....  339

ORBITAL ENERGIES
----------------

  NO   OCC          E(Eh)            E(eV)
   0   2.0000     -24.560478      -668.3246
   1   2.0000     -18.970112      -516.2030
   2   2.0000     -14.132973      -384.5777
   3   2.0000     -10.281302      -279.7685
   4   2.0000     -10.109402      -275.0908
   5   2.0000     -10.091579      -274.6058
   6   2.0000     -10.079691      -274.2823
   7   2.0000     -10.070088      -274.0210
   8   2.0000      -9.987338      -271.7693
   9   2.0000      -1.446051       -39.3490
  10   2.0000      -1.153156       -31.3790
  11   2.0000      -1.017438       -27.6859
  12   2.0000      -0.933697       -25.4072
  13   2.0000      -0.859732       -23.3945
  14   2.0000      -0.816067       -22.2063
  15   2.0000      -0.785537       -21.3755
  16   2.0000      -0.740565       -20.1518
  17   2.0000      -0.694015       -18.8851
  18   2.0000      -0.682204       -18.5637
  19   2.0000      -0.654714       -17.8157
  20   2.0000      -0.650231       -17.6937
  21   2.0000      -0.612204       -16.6589
  22   2.0000      -0.591436       -16.0938
  23   2.0000      -0.564125       -15.3506
  24   2.0000      -0.546472       -14.8703
  25   2.0000      -0.533669       -14.5219
  26   2.0000      -0.497185       -13.5291
  27   2.0000      -0.485573       -13.2131
  28   2.0000      -0.476816       -12.9748
  29   2.0000      -0.472646       -12.8613
  30   2.0000      -0.456461       -12.4209
  31   2.0000      -0.428080       -11.6486
  32   2.0000      -0.422843       -11.5061
  33   2.0000      -0.403894       -10.9905
  34   2.0000      -0.267009        -7.2657
  35   0.0000       0.027452         0.7470
  36   0.0000       0.091342         2.4856
  37   0.0000       0.117423         3.1952
  38   0.0000       0.127593         3.4720
  39   0.0000       0.134064         3.6481

MULLIKEN ATOMIC CHARGES
-----------------------
   0 C :   -0.412196
   1 C :   -0.216907
   2 C :   -0.357151
   3 H :    0.154102
   4 H :    0.189746
   5 C :    0.323627
   6 C :    0.225777
   7 C :   -0.466166
   8 N :   -0.401323
   9 H :    0.210097
  10 H :    0.256604
  11 H :    0.090678
  12 H :    0.100108
  13 H :    0.139483
  14 H :    0.150749
  15 F :   -0.014153
  16 O :   -0.294023
  17 H :    0.174166
  18 H :    0.146782
Sum of atomic charges:    0.0000000

LOEWDIN ATOMIC CHARGES
----------------------
   0 C :   -0.221123
   1 C :   -0.257677
   2 C :   -0.241920
   3 H :    0.149444
   4 H :    0.161324
   5 C :   -0.502554
   6 C :   -0.379483
   7 C :   -0.305262
   8 N :    0.015505
   9 H :    0.168740
  10 H :    0.130894
  11 H :    0.103828
  12 H :    0.096539
  13 H :    0.144085
  14 H :    0.151396
  15 F :    0.406820
  16 O :    0.076181
  17 H :    0.147271
  18 H :    0.155993

  Mayer bond orders larger than 0.100000
B(  0-C ,  1-C ) :   0.8870 B(  0-C ,  6-C ) :   0.8807 B(  0-C , 17-H ) :   0.9987
B(  0-C , 18-H ) :   0.9888 B(  1-C ,  2-C ) :   0.9161 B(  1-C , 13-H ) :   0.9808
B(  1-C , 14-H ) :   0.9687 B(  2-C ,  3-H ) :   0.9646 B(  2-C ,  4-H ) :   0.9501
B(  2-C ,  5-C ) :   0.9682 B(  5-C , 15-F ) :   1.2730 B(  5-C , 16-O ) :   1.9167
B(  6-C ,  7-C ) :   1.6965 B(  6-C ,  8-N ) :   1.2209 B(  7-C , 11-H ) :   1.0002
B(  7-C , 12-H ) :   0.9966 B(  8-N ,  9-H ) :   0.9334 B(  8-N , 10-H ) :   0.8426
B( 10-H , 16-O ) :   0.1446

FINAL SINGLE POINT ENERGY      -463.548635466715

DIPOLE MOMENT
-------------
                                X             Y             Z
Electronic contribution:      5.54039      -5.97750      10.57021
Nuclear contribution   :     -5.86483       4.68058     -10.07545
                        -----------------------------------------
Total Dipole Moment    :     -0.32445      -1.29692       0.49476
                        -----------------------------------------
Magnitude (a.u.)       :      1.42550
Magnitude (Debye)      :      3.62333

Rotational constants in cm-1:     0.107256     0.035474     0.030113
Rotational constants in MHz :  3215.453922  1063.481574   902.777619

                             ****ORCA TERMINATED NORMALLY****
TOTAL RUN TIME: 0 days 0 hours 0 minutes 25 seconds 540 msec
