                         Program Version 5.0.0 -  RELEASE  -
|  1> !LC-BLYP RIJCOSX def2-TZVP def2/J TightSCF xyzfile
|  2>
|  3> *xyzfile 0 1 D2.xyz
|  4>
|  5> %MaxCore 64000
|  6>
|  7> %pal nprocs 18
|  8> end
|  9>
| 10> %scf
| 11>   MaxIter 150
| 12> end
| 13>
| 14>
| 15>                          ****END OF INPUT****

CARTESIAN COORDINATES (ANGSTROEM)
---------------------------------
  C      3.343500    3.354571   -3.591998
  C      2.952633    1.863077   -3.574849
  C      4.129209    0.898394   -3.418950
  H      3.733687   -0.100605   -3.237633
  H      4.719095    0.862556   -4.339005
  C      5.017344    1.315212   -2.221305
  C      4.255868    3.703851   -4.726054
  N      3.734032    4.293783   -5.800770
  C      5.515039    3.407255   -4.637185
  H      6.149187    3.601203   -5.399053
  H      5.813584    2.899504   -3.808785
  H      2.741380    4.513109   -5.824701
  H      4.287548    4.521260   -6.614341
  H      2.278938    1.735250   -2.725496
  H      2.377466    1.625787   -4.475869
  F      4.737055    0.854112   -1.122825
  O      5.928146    2.168108   -2.491365
  H      3.861246    3.597252   -2.662979
  H      2.446493    3.973461   -3.656556

 Total Charge           Charge          ....    0
 Multiplicity           Mult            ....    1
 Number of Electrons    NEL             ....   70
 Basis Dimension        Dim             ....  339

ORBITAL ENERGIES
----------------

  NO   OCC          E(Eh)            E(eV)
   0   2.0000     -24.541533      -667.8091
   1   2.0000     -18.943252      -515.4721
   2   2.0000     -14.155998      -385.2043
   3   2.0000     -10.258751      -279.1548
   4   2.0000     -10.096319      -274.7348
   5   2.0000     -10.087436      -274.4931
   6   2.0000     -10.072910      -274.0978
   7   2.0000     -10.069013      -273.9918
   8   2.0000      -9.964878      -271.1581
   9   2.0000      -1.427718       -38.8502
  10   2.0000      -1.127453       -30.6796
  11   2.0000      -1.014768       -27.6132
  12   2.0000      -0.927099       -25.2276
  13   2.0000      -0.856226       -23.2991
  14   2.0000      -0.807528       -21.9740
  15   2.0000      -0.782876       -21.3031
  16   2.0000      -0.728804       -19.8318
  17   2.0000      -0.681257       -18.5379
  18   2.0000      -0.668123       -18.1805
  19   2.0000      -0.648631       -17.6501
  20   2.0000      -0.633625       -17.2418
  21   2.0000      -0.601522       -16.3682
  22   2.0000      -0.583645       -15.8818
  23   2.0000      -0.570228       -15.5167
  24   2.0000      -0.550244       -14.9729
  25   2.0000      -0.517684       -14.0869
  26   2.0000      -0.493385       -13.4257
  27   2.0000      -0.490808       -13.3556
  28   2.0000      -0.463407       -12.6099
  29   2.0000      -0.453920       -12.3518
  30   2.0000      -0.447789       -12.1850
  31   2.0000      -0.425341       -11.5741
  32   2.0000      -0.416968       -11.3463
  33   2.0000      -0.363849        -9.9008
  34   2.0000      -0.272479        -7.4145
  35   0.0000       0.046207         1.2574
  36   0.0000       0.089705         2.4410
  37   0.0000       0.112159         3.0520
  38   0.0000       0.122836         3.3425
  39   0.0000       0.136420         3.7122

MULLIKEN ATOMIC CHARGES
-----------------------
   0 C :   -0.415884
   1 C :   -0.216666
   2 C :   -0.355912
   3 H :    0.147146
   4 H :    0.197169
   5 C :    0.289429
   6 C :    0.292057
   7 N :   -0.447740
   8 C :   -0.502975
   9 H :    0.091826
  10 H :    0.165199
  11 H :    0.214317
  12 H :    0.224311
  13 H :    0.140473
  14 H :    0.139514
  15 F :   -0.022273
  16 O :   -0.254101
  17 H :    0.192258
  18 H :    0.121851
Sum of atomic charges:    0.0000000

LOEWDIN ATOMIC CHARGES
----------------------
   0 C :   -0.223605
   1 C :   -0.258989
   2 C :   -0.241655
   3 H :    0.146701
   4 H :    0.163131
   5 C :   -0.515905
   6 C :   -0.379718
   7 N :   -0.022772
   8 C :   -0.263842
   9 H :    0.098606
  10 H :    0.089513
  11 H :    0.164000
  12 H :    0.167782
  13 H :    0.143704
  14 H :    0.146911
  15 F :    0.397071
  16 O :    0.090199
  17 H :    0.157452
  18 H :    0.141416

  Mayer bond orders larger than 0.100000
B(  0-C ,  1-C ) :   0.8859 B(  0-C ,  6-C ) :   0.8669 B(  0-C , 17-H ) :   1.0058
B(  0-C , 18-H ) :   0.9955 B(  1-C ,  2-C ) :   0.9205 B(  1-C , 13-H ) :   0.9864
B(  1-C , 14-H ) :   0.9694 B(  2-C ,  3-H ) :   0.9671 B(  2-C ,  4-H ) :   0.9536
B(  2-C ,  5-C ) :   0.9705 B(  5-C , 15-F ) :   1.2564 B(  5-C , 16-O ) :   1.9879
B(  6-C ,  7-N ) :   1.1024 B(  6-C ,  8-C ) :   1.7016 B(  7-N , 11-H ) :   0.9355
B(  7-N , 12-H ) :   0.9318 B(  8-C ,  9-H ) :   0.9954 B(  8-C , 10-H ) :   0.9832
B( 10-H , 16-O ) :   0.1031

FINAL SINGLE POINT ENERGY      -463.523640055566

DIPOLE MOMENT
-------------
                                X             Y             Z
Electronic contribution:      4.27279      -5.14988       9.55826
Nuclear contribution   :     -5.64491       4.57111      -9.93176
                        -----------------------------------------
Total Dipole Moment    :     -1.37211      -0.57877      -0.37351
                        -----------------------------------------
Magnitude (a.u.)       :      1.53531
Magnitude (Debye)      :      3.90245

Rotational constants in cm-1:     0.109825     0.034347     0.029470
Rotational constants in MHz :  3292.465653  1029.684117   883.494260

                             ****ORCA TERMINATED NORMALLY****
TOTAL RUN TIME: 0 days 0 hours 0 minutes 23 seconds 496 msec
