                         Program Version 5.0.0 -  RELEASE  -
|  1> !LC-BLYP RIJCOSX def2-TZVP def2/J TightSCF xyzfile
|  2>
|  3> *xyzfile 0 1 D3.xyz
|  4>
|  5> %MaxCore 64000
|  6>
|  7> %pal nprocs 18
|  8> end
|  9>
| 10> %scf
| 11>   MaxIter 150
| 12> end
| 13>
| 14>
| 15>                          ****END OF INPUT****

CARTESIAN COORDINATES (ANGSTROEM)
---------------------------------
  C      3.343500    3.354571   -3.591998
  C      2.952633    1.863077   -3.574849
  C      4.129209    0.898394   -3.418950
  H      3.733687   -0.100605   -3.237633
  H      4.719095    0.862556   -4.339005
  C      5.017344    1.315212   -2.221305
  C      4.255868    3.703851   -4.726054
  C      3.734032    4.293783   -5.800770
  N      5.515039    3.407255   -4.637185
  H      6.149187    3.601203   -5.399053
  H      5.813584    2.899504   -3.808785
  H      2.741380    4.513109   -5.824701
  H      4.287548    4.521260   -6.614341
  H      2.278938    1.735250   -2.725496
  H      2.377466    1.625787   -4.475869
  O      4.737055    0.854112   -1.122825
  F      5.928146    2.168108   -2.491365
  H      3.861246    3.597252   -2.662979
  H      2.446493    3.973461   -3.656556

 Total Charge           Charge          ....    0
 Multiplicity           Mult            ....    1
 Number of Electrons    NEL             ....   70
 Basis Dimension        Dim             ....  339

ORBITAL ENERGIES
----------------

  NO   OCC          E(Eh)            E(eV)
   0   2.0000     -24.548505      -667.9988
   1   2.0000     -18.967946      -516.1440
   2   2.0000     -14.160702      -385.3323
   3   2.0000     -10.265530      -279.3393
   4   2.0000     -10.105325      -274.9799
   5   2.0000     -10.093469      -274.6572
   6   2.0000     -10.090370      -274.5729
   7   2.0000     -10.079051      -274.2649
   8   2.0000     -10.001355      -272.1507
   9   2.0000      -1.421513       -38.6813
  10   2.0000      -1.163422       -31.6583
  11   2.0000      -1.039979       -28.2993
  12   2.0000      -0.933884       -25.4123
  13   2.0000      -0.866235       -23.5714
  14   2.0000      -0.824572       -22.4378
  15   2.0000      -0.786053       -21.3896
  16   2.0000      -0.749176       -20.3861
  17   2.0000      -0.693773       -18.8785
  18   2.0000      -0.679241       -18.4831
  19   2.0000      -0.658169       -17.9097
  20   2.0000      -0.633399       -17.2357
  21   2.0000      -0.610245       -16.6056
  22   2.0000      -0.590509       -16.0686
  23   2.0000      -0.576557       -15.6889
  24   2.0000      -0.551551       -15.0085
  25   2.0000      -0.528316       -14.3762
  26   2.0000      -0.504472       -13.7274
  27   2.0000      -0.498574       -13.5669
  28   2.0000      -0.489016       -13.3068
  29   2.0000      -0.478873       -13.0308
  30   2.0000      -0.459356       -12.4997
  31   2.0000      -0.438051       -11.9200
  32   2.0000      -0.432681       -11.7739
  33   2.0000      -0.409338       -11.1386
  34   2.0000      -0.283651        -7.7185
  35   0.0000       0.042875         1.1667
  36   0.0000       0.092816         2.5257
  37   0.0000       0.109130         2.9696
  38   0.0000       0.121652         3.3103
  39   0.0000       0.131009         3.5649

MULLIKEN ATOMIC CHARGES
-----------------------
   0 C :   -0.431786
   1 C :   -0.192850
   2 C :   -0.359717
   3 H :    0.161754
   4 H :    0.178948
   5 C :    0.275794
   6 C :    0.231615
   7 C :   -0.454818
   8 N :   -0.401391
   9 H :    0.221921
  10 H :    0.235917
  11 H :    0.097960
  12 H :    0.104804
  13 H :    0.146013
  14 H :    0.144653
  15 O :   -0.202698
  16 F :   -0.084108
  17 H :    0.175462
  18 H :    0.152526
Sum of atomic charges:    0.0000000

LOEWDIN ATOMIC CHARGES
----------------------
   0 C :   -0.220658
   1 C :   -0.255403
   2 C :   -0.243133
   3 H :    0.158118
   4 H :    0.150686
   5 C :   -0.520387
   6 C :   -0.379546
   7 C :   -0.289777
   8 N :    0.011464
   9 H :    0.173801
  10 H :    0.140619
  11 H :    0.106836
  12 H :    0.098074
  13 H :    0.148842
  14 H :    0.149527
  15 O :    0.138023
  16 F :    0.328419
  17 H :    0.146428
  18 H :    0.158066

  Mayer bond orders larger than 0.100000
B(  0-C ,  1-C ) :   0.8981 B(  0-C ,  6-C ) :   0.8758 B(  0-C , 17-H ) :   0.9993
B(  0-C , 18-H ) :   0.9896 B(  1-C ,  2-C ) :   0.9227 B(  1-C , 13-H ) :   0.9751
B(  1-C , 14-H ) :   0.9672 B(  2-C ,  3-H ) :   0.9668 B(  2-C ,  4-H ) :   0.9434
B(  2-C ,  5-C ) :   0.9516 B(  5-C , 15-O ) :   2.2014 B(  5-C , 16-F ) :   1.0738
B(  6-C ,  7-C ) :   1.7123 B(  6-C ,  8-N ) :   1.1858 B(  7-C , 11-H ) :   1.0005
B(  7-C , 12-H ) :   0.9953 B(  8-N ,  9-H ) :   0.9290 B(  8-N , 10-H ) :   0.8944

FINAL SINGLE POINT ENERGY      -463.555075411524

DIPOLE MOMENT
-------------
                                X             Y             Z
Electronic contribution:      7.45577      -3.59975       8.05594
Nuclear contribution   :     -7.21688       3.18902      -8.52197
                        -----------------------------------------
Total Dipole Moment    :      0.23889      -0.41072      -0.46603
                        -----------------------------------------
Magnitude (a.u.)       :      0.66554
Magnitude (Debye)      :      1.69168

Rotational constants in cm-1:     0.103917     0.036987     0.030872
Rotational constants in MHz :  3115.342573  1108.839114   925.506342

                             ****ORCA TERMINATED NORMALLY****
TOTAL RUN TIME: 0 days 0 hours 0 minutes 30 seconds 534 msec
