                         Program Version 5.0.0 -  RELEASE  -
|  1> !LC-BLYP RIJCOSX def2-TZVP def2/J TightSCF xyzfile
|  2>
|  3> *xyzfile 0 1 D4.xyz
|  4>
|  5> %MaxCore 64000
|  6>
|  7> %pal nprocs 18
|  8> end
|  9>
| 10> %scf
| 11>   MaxIter 150
| 12> end
| 13>
| 14>
| 15>                          ****END OF INPUT****

CARTESIAN COORDINATES (ANGSTROEM)
---------------------------------
  C      3.343500    3.354571   -3.591998
  C      2.952633    1.863077   -3.574849
  C      4.129209    0.898394   -3.418950
  H      3.733687   -0.100605   -3.237633
  H      4.719095    0.862556   -4.339005
  C      5.017344    1.315212   -2.221305
  C      4.255868    3.703851   -4.726054
  N      3.734032    4.293783   -5.800770
  C      5.515039    3.407255   -4.637185
  H      6.149187    3.601203   -5.399053
  H      5.813584    2.899504   -3.808785
  H      2.741380    4.513109   -5.824701
  H      4.287548    4.521260   -6.614341
  H      2.278938    1.735250   -2.725496
  H      2.377466    1.625787   -4.475869
  O      4.737055    0.854112   -1.122825
  F      5.928146    2.168108   -2.491365
  H      3.861246    3.597252   -2.662979
  H      2.446493    3.973461   -3.656556

 Total Charge           Charge          ....    0
 Multiplicity           Mult            ....    1
 Number of Electrons    NEL             ....   70
 Basis Dimension        Dim             ....  339

ORBITAL ENERGIES
----------------

  NO   OCC          E(Eh)            E(eV)
   0   2.0000     -24.519054      -667.1974
   1   2.0000     -18.952035      -515.7111
   2   2.0000     -14.169750      -385.5785
   3   2.0000     -10.249211      -278.8952
   4   2.0000     -10.093491      -274.6579
   5   2.0000     -10.089922      -274.5607
   6   2.0000     -10.087729      -274.5011
   7   2.0000     -10.078677      -274.2547
   8   2.0000      -9.988574      -271.8029
   9   2.0000      -1.394379       -37.9430
  10   2.0000      -1.147918       -31.2364
  11   2.0000      -1.028634       -27.9906
  12   2.0000      -0.930541       -25.3213
  13   2.0000      -0.861814       -23.4511
  14   2.0000      -0.819261       -22.2932
  15   2.0000      -0.779349       -21.2072
  16   2.0000      -0.728248       -19.8166
  17   2.0000      -0.691317       -18.8117
  18   2.0000      -0.652553       -17.7569
  19   2.0000      -0.639656       -17.4059
  20   2.0000      -0.630011       -17.1435
  21   2.0000      -0.609916       -16.5966
  22   2.0000      -0.587328       -15.9820
  23   2.0000      -0.568065       -15.4578
  24   2.0000      -0.550853       -14.9895
  25   2.0000      -0.523271       -14.2389
  26   2.0000      -0.499898       -13.6029
  27   2.0000      -0.486784       -13.2461
  28   2.0000      -0.478000       -13.0070
  29   2.0000      -0.466532       -12.6950
  30   2.0000      -0.450735       -12.2651
  31   2.0000      -0.433642       -11.8000
  32   2.0000      -0.426329       -11.6010
  33   2.0000      -0.395945       -10.7742
  34   2.0000      -0.289333        -7.8732
  35   0.0000       0.057042         1.5522
  36   0.0000       0.086121         2.3435
  37   0.0000       0.109019         2.9665
  38   0.0000       0.120384         3.2758
  39   0.0000       0.129835         3.5330

MULLIKEN ATOMIC CHARGES
-----------------------
   0 C :   -0.433456
   1 C :   -0.196294
   2 C :   -0.354431
   3 H :    0.155111
   4 H :    0.188563
   5 C :    0.263276
   6 C :    0.310838
   7 N :   -0.442521
   8 C :   -0.485765
   9 H :    0.102769
  10 H :    0.110977
  11 H :    0.220983
  12 H :    0.227542
  13 H :    0.148097
  14 H :    0.133448
  15 O :   -0.214690
  16 F :   -0.055539
  17 H :    0.192124
  18 H :    0.128967
Sum of atomic charges:   -0.0000000

LOEWDIN ATOMIC CHARGES
----------------------
   0 C :   -0.221403
   1 C :   -0.256059
   2 C :   -0.240700
   3 H :    0.155454
   4 H :    0.153666
   5 C :   -0.519439
   6 C :   -0.371842
   7 N :   -0.013763
   8 C :   -0.274756
   9 H :    0.101697
  10 H :    0.093008
  11 H :    0.167742
  12 H :    0.169808
  13 H :    0.148854
  14 H :    0.145372
  15 O :    0.126534
  16 F :    0.334777
  17 H :    0.157197
  18 H :    0.143853

  Mayer bond orders larger than 0.100000
B(  0-C ,  1-C ) :   0.8996 B(  0-C ,  6-C ) :   0.8610 B(  0-C , 17-H ) :   1.0053
B(  0-C , 18-H ) :   0.9958 B(  1-C ,  2-C ) :   0.9255 B(  1-C , 13-H ) :   0.9793
B(  1-C , 14-H ) :   0.9667 B(  2-C ,  3-H ) :   0.9690 B(  2-C ,  4-H ) :   0.9462
B(  2-C ,  5-C ) :   0.9553 B(  5-C , 15-O ) :   2.1919 B(  5-C , 16-F ) :   1.1250
B(  6-C ,  7-N ) :   1.1236 B(  6-C ,  8-C ) :   1.6866 B(  7-N , 11-H ) :   0.9327
B(  7-N , 12-H ) :   0.9306 B(  8-C ,  9-H ) :   0.9938 B(  8-C , 10-H ) :   1.0244

FINAL SINGLE POINT ENERGY      -463.542500197091

DIPOLE MOMENT
-------------
                                X             Y             Z
Electronic contribution:      6.15578      -2.81743       7.08703
Nuclear contribution   :     -6.99695       3.07955      -8.37829
                        -----------------------------------------
Total Dipole Moment    :     -0.84118       0.26212      -1.29126
                        -----------------------------------------
Magnitude (a.u.)       :      1.56322
Magnitude (Debye)      :      3.97338

Rotational constants in cm-1:     0.106302     0.035771     0.030198
Rotational constants in MHz :  3186.860872  1072.397550   905.318354

                             ****ORCA TERMINATED NORMALLY****
TOTAL RUN TIME: 0 days 0 hours 0 minutes 32 seconds 465 msec
