                         Program Version 5.0.0 -  RELEASE  -
|  1> !wB97X-D3 RIJCOSX def2-TZVPD def2/J TightSCF
|  2> *xyz -1 1
|  3> C          1.44442        5.26658       -0.97546
|  4> O          1.56525        4.23349       -1.86489
|  5> C         -1.07389        4.84473       -0.97990
|  6> C          0.14812        5.21087       -0.13809
|  7> H          1.47425        6.26464       -1.47692
|  8> H          2.28962        5.30327       -0.26445
|  9> H          0.26183        4.45094        0.64071
| 10> H         -0.00252        6.17103        0.37148
| 11> H         -1.20745        5.57445       -1.75098
| 12> H         -1.94291        4.82190       -0.35605
| 13> H         -0.92683        3.88150       -1.42201
| 14> *
| 15> %MaxCore 64000
| 16>
| 17> %pal nprocs 8
| 18> end
| 19>
| 20> %scf
| 21>   MaxIter 150
| 22> end
| 23>
| 24>
| 25>                          ****END OF INPUT****

CARTESIAN COORDINATES (ANGSTROEM)
---------------------------------
  C      1.444420    5.266580   -0.975460
  O      1.565250    4.233490   -1.864890
  C     -1.073890    4.844730   -0.979900
  C      0.148120    5.210870   -0.138090
  H      1.474250    6.264640   -1.476920
  H      2.289620    5.303270   -0.264450
  H      0.261830    4.450940    0.640710
  H     -0.002520    6.171030    0.371480
  H     -1.207450    5.574450   -1.750980
  H     -1.942910    4.821900   -0.356050
  H     -0.926830    3.881500   -1.422010

 Total Charge           Charge          ....   -1
 Multiplicity           Mult            ....    1
 Number of Electrons    NEL             ....   34
 Basis Dimension        Dim             ....  214

ORBITAL ENERGIES
----------------

  NO   OCC          E(Eh)            E(eV)
   0   2.0000     -18.897140      -514.2173
   1   2.0000     -10.089477      -274.5486
   2   2.0000     -10.085237      -274.4332
   3   2.0000     -10.082775      -274.3663
   4   2.0000      -0.799242       -21.7485
   5   2.0000      -0.696086       -18.9415
   6   2.0000      -0.579470       -15.7682
   7   2.0000      -0.470776       -12.8105
   8   2.0000      -0.376474       -10.2444
   9   2.0000      -0.363864        -9.9012
  10   2.0000      -0.309817        -8.4305
  11   2.0000      -0.284697        -7.7470
  12   2.0000      -0.253893        -6.9088
  13   2.0000      -0.242604        -6.6016
  14   2.0000      -0.206944        -5.6312
  15   2.0000      -0.065132        -1.7723
  16   2.0000      -0.061333        -1.6690
  17   0.0000       0.202060         5.4983
  18   0.0000       0.219042         5.9604
  19   0.0000       0.230802         6.2805
  20   0.0000       0.252331         6.8663
  21   0.0000       0.273387         7.4392

MULLIKEN ATOMIC CHARGES
-----------------------
   0 C :   -0.483345
   1 O :   -0.922584
   2 C :   -1.107785
   3 C :   -0.126683
   4 H :    0.159480
   5 H :    0.160428
   6 H :    0.252906
   7 H :    0.231333
   8 H :    0.274708
   9 H :    0.314461
  10 H :    0.247081
Sum of atomic charges:   -1.0000000

LOEWDIN ATOMIC CHARGES
----------------------
   0 C :   -0.567656
   1 O :   -0.402859
   2 C :   -0.156732
   3 C :   -0.296253
   4 H :    0.064927
   5 H :    0.058538
   6 H :    0.082169
   7 H :    0.077424
   8 H :    0.054293
   9 H :    0.037469
  10 H :    0.048681

  Mayer bond orders larger than 0.100000
B(  0-C ,  1-O ) :   1.1134 B(  0-C ,  2-C ) :   0.1914 B(  0-C ,  3-C ) :   0.8098
B(  0-C ,  4-H ) :   1.0476 B(  0-C ,  5-H ) :   1.0794 B(  2-C ,  3-C ) :   0.6561
B(  2-C ,  8-H ) :   0.9644 B(  2-C ,  9-H ) :   0.9145 B(  2-C , 10-H ) :   1.0523
B(  3-C ,  6-H ) :   0.9689 B(  3-C ,  7-H ) :   1.0082

Dispersion correction           -0.001934484
FINAL SINGLE POINT ENERGY      -193.758966411563

DIPOLE MOMENT
-------------
                                X             Y             Z
Electronic contribution:      2.04779      -1.33056      -1.44889
Nuclear contribution   :     -3.50495       2.13585       2.58010
                        -----------------------------------------
Total Dipole Moment    :     -1.45716       0.80529       1.13121
                        -----------------------------------------
Magnitude (a.u.)       :      2.01282
Magnitude (Debye)      :      5.11618

Rotational constants in cm-1:     0.478988     0.188199     0.150738
Rotational constants in MHz : 14359.706344  5642.078771  4519.011003

                             ****ORCA TERMINATED NORMALLY****
TOTAL RUN TIME: 0 days 0 hours 0 minutes 21 seconds 306 msec
