                         Program Version 5.0.0 -  RELEASE  -
|  1> !wB97X-D3 RIJCOSX def2-TZVPD def2/J TightSCF
|  2> *xyz 1 1
|  3> C         -0.70169        4.07250       -4.00392
|  4> N          0.68053        4.61482       -4.04800
|  5> H          0.69993        5.58489       -4.38827
|  6> H          1.27804        4.05598       -4.66824
|  7> H          1.08573        4.53358       -3.10652
|  8> C         -1.70347        5.09320       -3.47740
|  9> H         -0.99590        3.74039       -5.00065
| 10> H         -0.64358        3.20191       -3.35153
| 11> C         -1.31400        5.78600       -2.16927
| 12> H         -1.87706        5.85010       -4.25115
| 13> H         -2.65326        4.56448       -3.35480
| 14> H         -0.38448        6.29945       -2.30062
| 15> H         -1.21111        5.05451       -1.39516
| 16> H         -2.07413        6.48833       -1.89758
| 17> *
| 18> %MaxCore 64000
| 19>
| 20> %pal nprocs 8
| 21> end
| 22>
| 23> %scf
| 24>   MaxIter 150
| 25> end
| 26>
| 27>
| 28>                          ****END OF INPUT****

CARTESIAN COORDINATES (ANGSTROEM)
---------------------------------
  C     -0.701690    4.072500   -4.003920
  N      0.680530    4.614820   -4.048000
  H      0.699930    5.584890   -4.388270
  H      1.278040    4.055980   -4.668240
  H      1.085730    4.533580   -3.106520
  C     -1.703470    5.093200   -3.477400
  H     -0.995900    3.740390   -5.000650
  H     -0.643580    3.201910   -3.351530
  C     -1.314000    5.786000   -2.169270
  H     -1.877060    5.850100   -4.251150
  H     -2.653260    4.564480   -3.354800
  H     -0.384480    6.299450   -2.300620
  H     -1.211110    5.054510   -1.395160
  H     -2.074130    6.488330   -1.897580

 Total Charge           Charge          ....    1
 Multiplicity           Mult            ....    1
 Number of Electrons    NEL             ....   34
 Basis Dimension        Dim             ....  238

ORBITAL ENERGIES
----------------

  NO   OCC          E(Eh)            E(eV)
   0   2.0000     -14.752368      -401.4323
   1   2.0000     -10.521503      -286.3046
   2   2.0000     -10.452398      -284.4242
   3   2.0000     -10.420686      -283.5613
   4   2.0000      -1.328931       -36.1621
   5   2.0000      -1.088718       -29.6255
   6   2.0000      -0.998283       -27.1647
   7   2.0000      -0.911069       -24.7914
   8   2.0000      -0.891532       -24.2598
   9   2.0000      -0.878634       -23.9088
  10   2.0000      -0.785571       -21.3765
  11   2.0000      -0.735291       -20.0083
  12   2.0000      -0.706187       -19.2163
  13   2.0000      -0.682762       -18.5789
  14   2.0000      -0.621647       -16.9159
  15   2.0000      -0.618369       -16.8267
  16   2.0000      -0.604391       -16.4463
  17   0.0000      -0.117958        -3.2098
  18   0.0000      -0.065172        -1.7734
  19   0.0000      -0.062880        -1.7111
  20   0.0000      -0.054182        -1.4744
  21   0.0000      -0.026269        -0.7148

MULLIKEN ATOMIC CHARGES
-----------------------
   0 C :   -0.669461
   1 N :   -0.288768
   2 H :    0.348306
   3 H :    0.357742
   4 H :    0.398768
   5 C :   -0.228162
   6 H :    0.312441
   7 H :    0.363520
   8 C :   -1.264989
   9 H :    0.339673
  10 H :    0.306279
  11 H :    0.335819
  12 H :    0.361772
  13 H :    0.327059
Sum of atomic charges:    1.0000000

LOEWDIN ATOMIC CHARGES
----------------------
   0 C :   -0.166638
   1 N :    0.183749
   2 H :    0.182775
   3 H :    0.181434
   4 H :    0.179028
   5 C :   -0.230036
   6 H :    0.138408
   7 H :    0.139254
   8 C :   -0.084928
   9 H :    0.121144
  10 H :    0.127905
  11 H :    0.061070
  12 H :    0.081247
  13 H :    0.085589

  Mayer bond orders larger than 0.100000
B(  0-C ,  1-N ) :   1.0188 B(  0-C ,  5-C ) :   0.8384 B(  0-C ,  6-H ) :   0.9319
B(  0-C ,  7-H ) :   0.8978 B(  0-C ,  8-C ) :   0.1314 B(  1-N ,  2-H ) :   0.8549
B(  1-N ,  3-H ) :   0.8624 B(  1-N ,  4-H ) :   0.8156 B(  5-C ,  8-C ) :   0.6109
B(  5-C ,  9-H ) :   0.9134 B(  5-C , 10-H ) :   0.9568 B(  8-C , 11-H ) :   0.9099
B(  8-C , 12-H ) :   0.9643 B(  8-C , 13-H ) :   0.9702

Dispersion correction           -0.002864036
FINAL SINGLE POINT ENERGY      -174.869652139398

DIPOLE MOMENT
-------------
                                X             Y             Z
Electronic contribution:      1.54033      -0.90963      -1.45944
Nuclear contribution   :      0.19992       0.44181       0.60618
                        -----------------------------------------
Total Dipole Moment    :      1.74025      -0.46781      -0.85326
                        -----------------------------------------
Magnitude (a.u.)       :      1.99383
Magnitude (Debye)      :      5.06792

Rotational constants in cm-1:     0.427003     0.166237     0.135950
Rotational constants in MHz : 12801.234133  4983.663157  4075.681698

                             ****ORCA TERMINATED NORMALLY****
TOTAL RUN TIME: 0 days 0 hours 0 minutes 23 seconds 777 msec
