                         Program Version 5.0.0 -  RELEASE  -
|  1> !wB97X-D3 RIJCOSX def2-TZVPD def2/J TightSCF
|  2> *xyz 0 1
|  3> C          1.44442        5.26658       -0.97546
|  4> F          1.56525        4.23349       -1.86489
|  5> C         -1.07389        4.84473       -0.97990
|  6> C          0.14812        5.21087       -0.13809
|  7> H          1.47425        6.26464       -1.47692
|  8> H          2.28962        5.30327       -0.26445
|  9> H          0.26183        4.45094        0.64071
| 10> H         -0.00252        6.17103        0.37148
| 11> H         -1.20745        5.57445       -1.75098
| 12> H         -1.94291        4.82190       -0.35605
| 13> H         -0.92683        3.88150       -1.42201
| 14> *
| 15> %MaxCore 64000
| 16>
| 17> %pal nprocs 8
| 18> end
| 19>
| 20> %scf
| 21>   MaxIter 150
| 22> end
| 23>
| 24>
| 25>                          ****END OF INPUT****

CARTESIAN COORDINATES (ANGSTROEM)
---------------------------------
  C      1.444420    5.266580   -0.975460
  F      1.565250    4.233490   -1.864890
  C     -1.073890    4.844730   -0.979900
  C      0.148120    5.210870   -0.138090
  H      1.474250    6.264640   -1.476920
  H      2.289620    5.303270   -0.264450
  H      0.261830    4.450940    0.640710
  H     -0.002520    6.171030    0.371480
  H     -1.207450    5.574450   -1.750980
  H     -1.942910    4.821900   -0.356050
  H     -0.926830    3.881500   -1.422010

 Total Charge           Charge          ....    0
 Multiplicity           Mult            ....    1
 Number of Electrons    NEL             ....   34
 Basis Dimension        Dim             ....  214

ORBITAL ENERGIES
----------------

  NO   OCC          E(Eh)            E(eV)
   0   2.0000     -24.772878      -674.1043
   1   2.0000     -10.351731      -281.6849
   2   2.0000     -10.280206      -279.7386
   3   2.0000     -10.257447      -279.1193
   4   2.0000      -1.315562       -35.7983
   5   2.0000      -0.904451       -24.6113
   6   2.0000      -0.803897       -21.8751
   7   2.0000      -0.705130       -19.1876
   8   2.0000      -0.610158       -16.6032
   9   2.0000      -0.596931       -16.2433
  10   2.0000      -0.574045       -15.6206
  11   2.0000      -0.535754       -14.5786
  12   2.0000      -0.495557       -13.4848
  13   2.0000      -0.469219       -12.7681
  14   2.0000      -0.451578       -12.2881
  15   2.0000      -0.419959       -11.4277
  16   2.0000      -0.415667       -11.3109
  17   0.0000       0.072082         1.9615
  18   0.0000       0.091206         2.4818
  19   0.0000       0.096917         2.6372
  20   0.0000       0.112739         3.0678
  21   0.0000       0.136352         3.7103

MULLIKEN ATOMIC CHARGES
-----------------------
   0 C :   -0.271952
   1 F :   -0.323070
   2 C :   -1.185564
   3 C :   -0.216242
   4 H :    0.256398
   5 H :    0.234997
   6 H :    0.281909
   7 H :    0.274210
   8 H :    0.329369
   9 H :    0.319526
  10 H :    0.300419
Sum of atomic charges:   -0.0000000

LOEWDIN ATOMIC CHARGES
----------------------
   0 C :   -0.247273
   1 F :   -0.039910
   2 C :   -0.114920
   3 C :   -0.239804
   4 H :    0.120226
   5 H :    0.112192
   6 H :    0.102226
   7 H :    0.108941
   8 H :    0.068747
   9 H :    0.064098
  10 H :    0.065478

  Mayer bond orders larger than 0.100000
B(  0-C ,  1-F ) :   0.7837 B(  0-C ,  2-C ) :   0.1518 B(  0-C ,  3-C ) :   0.8743
B(  0-C ,  4-H ) :   0.9553 B(  0-C ,  5-H ) :   0.9854 B(  2-C ,  3-C ) :   0.6775
B(  2-C ,  8-H ) :   0.9390 B(  2-C ,  9-H ) :   0.9571 B(  2-C , 10-H ) :   0.9855
B(  3-C ,  6-H ) :   0.9442 B(  3-C ,  7-H ) :   0.9546

Dispersion correction           -0.001927100
FINAL SINGLE POINT ENERGY      -218.402874725101

DIPOLE MOMENT
-------------
                                X             Y             Z
Electronic contribution:      4.61123      -2.44996      -3.15206
Nuclear contribution   :     -4.76356       2.92420       3.62609
                        -----------------------------------------
Total Dipole Moment    :     -0.15233       0.47424       0.47403
                        -----------------------------------------
Magnitude (a.u.)       :      0.68761
Magnitude (Debye)      :      1.74778

Rotational constants in cm-1:     0.464485     0.177633     0.142630
Rotational constants in MHz : 13924.923489  5325.290206  4275.938589

                             ****ORCA TERMINATED NORMALLY****
TOTAL RUN TIME: 0 days 0 hours 0 minutes 18 seconds 300 msec
