                         Program Version 5.0.0 -  RELEASE  -
|  1> !wB97X-D3 RIJCOSX def2-TZVPD def2/J TightSCF
|  2> *xyz 0 1
|  3> C         -0.70169        4.07250       -4.00392
|  4> C          0.68053        4.61482       -4.04800
|  5> H          0.69993        5.58489       -4.38827
|  6> H          1.27804        4.05598       -4.66824
|  7> H          1.08573        4.53358       -3.10652
|  8> C         -1.70347        5.09320       -3.47740
|  9> H         -0.99590        3.74039       -5.00065
| 10> H         -0.64358        3.20191       -3.35153
| 11> C         -1.31400        5.78600       -2.16927
| 12> H         -1.87706        5.85010       -4.25115
| 13> H         -2.65326        4.56448       -3.35480
| 14> H         -0.38448        6.29945       -2.30062
| 15> H         -1.21111        5.05451       -1.39516
| 16> H         -2.07413        6.48833       -1.89758
| 17> *
| 18> %MaxCore 64000
| 19>
| 20> %pal nprocs 8
| 21> end
| 22>
| 23> %scf
| 24>   MaxIter 150
| 25> end
| 26>
| 27>
| 28>                          ****END OF INPUT****

CARTESIAN COORDINATES (ANGSTROEM)
---------------------------------
  C     -0.701690    4.072500   -4.003920
  C      0.680530    4.614820   -4.048000
  H      0.699930    5.584890   -4.388270
  H      1.278040    4.055980   -4.668240
  H      1.085730    4.533580   -3.106520
  C     -1.703470    5.093200   -3.477400
  H     -0.995900    3.740390   -5.000650
  H     -0.643580    3.201910   -3.351530
  C     -1.314000    5.786000   -2.169270
  H     -1.877060    5.850100   -4.251150
  H     -2.653260    4.564480   -3.354800
  H     -0.384480    6.299450   -2.300620
  H     -1.211110    5.054510   -1.395160
  H     -2.074130    6.488330   -1.897580

 Total Charge           Charge          ....    0
 Multiplicity           Mult            ....    1
 Number of Electrons    NEL             ....   34
 Basis Dimension        Dim             ....  238

ORBITAL ENERGIES
----------------

  NO   OCC          E(Eh)            E(eV)
   0   2.0000     -10.262975      -279.2698
   1   2.0000     -10.257950      -279.1330
   2   2.0000     -10.251422      -278.9554
   3   2.0000     -10.230651      -278.3902
   4   2.0000      -0.919603       -25.0237
   5   2.0000      -0.842886       -22.9361
   6   2.0000      -0.758861       -20.6497
   7   2.0000      -0.671775       -18.2799
   8   2.0000      -0.570725       -15.5302
   9   2.0000      -0.563004       -15.3201
  10   2.0000      -0.524001       -14.2588
  11   2.0000      -0.484050       -13.1717
  12   2.0000      -0.480368       -13.0715
  13   2.0000      -0.459214       -12.4959
  14   2.0000      -0.415013       -11.2931
  15   2.0000      -0.412416       -11.2224
  16   2.0000      -0.409447       -11.1416
  17   0.0000       0.075340         2.0501
  18   0.0000       0.092773         2.5245
  19   0.0000       0.094160         2.5622
  20   0.0000       0.102266         2.7828
  21   0.0000       0.135038         3.6746

MULLIKEN ATOMIC CHARGES
-----------------------
   0 C :   -0.100864
   1 C :   -1.492413
   2 H :    0.381534
   3 H :    0.374997
   4 H :    0.361731
   5 C :   -0.287201
   6 H :    0.249355
   7 H :    0.241348
   8 C :   -1.225880
   9 H :    0.292633
  10 H :    0.243495
  11 H :    0.309758
  12 H :    0.328291
  13 H :    0.323218
Sum of atomic charges:   -0.0000000

LOEWDIN ATOMIC CHARGES
----------------------
   0 C :   -0.277603
   1 C :   -0.127431
   2 H :    0.061347
   3 H :    0.053272
   4 H :    0.057306
   5 C :   -0.272610
   6 H :    0.106566
   7 H :    0.108726
   8 C :   -0.110371
   9 H :    0.107472
  10 H :    0.100768
  11 H :    0.059205
  12 H :    0.070051
  13 H :    0.063303

  Mayer bond orders larger than 0.100000
B(  0-C ,  1-C ) :   0.4902 B(  0-C ,  5-C ) :   0.8501 B(  0-C ,  6-H ) :   0.9668
B(  0-C ,  7-H ) :   0.9533 B(  1-C ,  2-H ) :   0.9024 B(  1-C ,  3-H ) :   0.8986
B(  1-C ,  4-H ) :   0.9598 B(  1-C ,  5-C ) :   0.1660 B(  1-C ,  8-C ) :   0.1294
B(  5-C ,  8-C ) :   0.6188 B(  5-C ,  9-H ) :   0.9407 B(  5-C , 10-H ) :   0.9813
B(  8-C , 11-H ) :   0.9717 B(  8-C , 12-H ) :   0.9690 B(  8-C , 13-H ) :   0.9348

Dispersion correction           -0.002770710
FINAL SINGLE POINT ENERGY      -158.455129621166

DIPOLE MOMENT
-------------
                                X             Y             Z
Electronic contribution:     -0.62513      -0.37219      -0.42869
Nuclear contribution   :      0.63648       0.35464       0.41252
                        -----------------------------------------
Total Dipole Moment    :      0.01134      -0.01755      -0.01617
                        -----------------------------------------
Magnitude (a.u.)       :      0.02642
Magnitude (Debye)      :      0.06716

Rotational constants in cm-1:     0.435124     0.173315     0.141457
Rotational constants in MHz : 13044.691962  5195.845291  4240.763698

                             ****ORCA TERMINATED NORMALLY****
TOTAL RUN TIME: 0 days 0 hours 0 minutes 21 seconds 989 msec
