                         Program Version 5.0.0 -  RELEASE  -
|  1> !wB97X-D3 RIJCOSX def2-TZVPD def2/J TightSCF xyzfile
|  2>
|  3> *xyzfile 0 1 D1.xyz
|  4>
|  5> %MaxCore 64000
|  6>
|  7> %pal nprocs 18
|  8> end
|  9>
| 10> %scf
| 11>   MaxIter 150
| 12> end
| 13>
| 14>
| 15>                          ****END OF INPUT****

CARTESIAN COORDINATES (ANGSTROEM)
---------------------------------
  C     -0.701686    4.072499   -4.003920
  C      0.680528    4.614820   -4.048005
  C      1.444422    5.266576   -0.975463
  F      1.565248    4.233493   -1.864885
  H      0.699926    5.584890   -4.388272
  H      1.278044    4.055977   -4.668235
  H      1.085729    4.533581   -3.106524
  C     -1.703475    5.093197   -3.477396
  H     -0.995895    3.740394   -5.000654
  H     -0.643580    3.201910   -3.351533
  C     -1.313997    5.785995   -2.169271
  H     -1.877057    5.850103   -4.251154
  H     -2.653264    4.564475   -3.354796
  H     -2.097137    6.509395   -1.929558
  H     -0.416875    6.387594   -2.339097
  C     -1.073895    4.844728   -0.979904
  H     -1.968893    4.809608   -0.352568
  C      0.148120    5.210874   -0.138092
  H     -0.909754    3.827531   -1.338975
  H      1.474250    6.264638   -1.476917
  H      2.289622    5.303267   -0.264450
  H      0.261827    4.450942    0.640711
  H     -0.002516    6.171031    0.371483

 Total Charge           Charge          ....    0
 Multiplicity           Mult            ....    1
 Number of Electrons    NEL             ....   66
 Basis Dimension        Dim             ....  434

ORBITAL ENERGIES
----------------

  NO   OCC          E(Eh)            E(eV)
   0   2.0000     -24.792041      -674.6257
   1   2.0000     -10.362288      -281.9722
   2   2.0000     -10.284899      -279.8663
   3   2.0000     -10.270434      -279.4727
   4   2.0000     -10.263911      -279.2952
   5   2.0000     -10.256820      -279.1023
   6   2.0000     -10.243816      -278.7484
   7   2.0000     -10.187757      -277.2230
   8   2.0000      -1.348375       -36.6911
   9   2.0000      -0.932263       -25.3682
  10   2.0000      -0.900915       -24.5151
  11   2.0000      -0.839031       -22.8312
  12   2.0000      -0.804373       -21.8881
  13   2.0000      -0.742976       -20.2174
  14   2.0000      -0.705955       -19.2100
  15   2.0000      -0.650697       -17.7064
  16   2.0000      -0.641392       -17.4532
  17   2.0000      -0.624325       -16.9887
  18   2.0000      -0.596081       -16.2202
  19   2.0000      -0.561180       -15.2705
  20   2.0000      -0.553745       -15.0682
  21   2.0000      -0.528220       -14.3736
  22   2.0000      -0.513182       -13.9644
  23   2.0000      -0.486691       -13.2435
  24   2.0000      -0.476897       -12.9770
  25   2.0000      -0.464584       -12.6420
  26   2.0000      -0.454624       -12.3710
  27   2.0000      -0.434202       -11.8152
  28   2.0000      -0.422957       -11.5093
  29   2.0000      -0.406662       -11.0658
  30   2.0000      -0.394641       -10.7387
  31   2.0000      -0.391865       -10.6632
  32   2.0000      -0.369804       -10.0629
  33   0.0000       0.069633         1.8948
  34   0.0000       0.080429         2.1886
  35   0.0000       0.084283         2.2935
  36   0.0000       0.089598         2.4381
  37   0.0000       0.105515         2.8712

MULLIKEN ATOMIC CHARGES
-----------------------
   0 C :   -0.242668
   1 C :   -0.989459
   2 C :   -0.345504
   3 F :   -0.348050
   4 H :    0.369326
   5 H :    0.409052
   6 H :   -0.078632
   7 C :   -0.592735
   8 H :    0.256580
   9 H :    0.268693
  10 C :   -0.535173
  11 H :    0.312414
  12 H :    0.238501
  13 H :    0.321034
  14 H :    0.219648
  15 C :   -0.431004
  16 H :    0.329489
  17 C :   -0.601718
  18 H :    0.237861
  19 H :    0.321192
  20 H :    0.277347
  21 H :    0.332561
  22 H :    0.271248
Sum of atomic charges:    0.0000000

LOEWDIN ATOMIC CHARGES
----------------------
   0 C :   -0.255936
   1 C :   -0.110113
   2 C :   -0.202150
   3 F :   -0.038088
   4 H :    0.066308
   5 H :    0.061427
   6 H :   -0.036021
   7 C :   -0.215008
   8 H :    0.105958
   9 H :    0.101398
  10 C :   -0.205641
  11 H :    0.112108
  12 H :    0.108124
  13 H :    0.109145
  14 H :    0.091965
  15 C :   -0.202676
  16 H :    0.112368
  17 C :   -0.177927
  18 H :    0.101061
  19 H :    0.125068
  20 H :    0.121138
  21 H :    0.108192
  22 H :    0.119302

  Mayer bond orders larger than 0.100000
B(  0-C ,  1-C ) :   0.5375 B(  0-C ,  7-C ) :   0.8701 B(  0-C ,  8-H ) :   0.9872
B(  0-C ,  9-H ) :   0.9331 B(  0-C , 15-C ) :   0.1399 B(  1-C ,  3-F ) :   0.1203
B(  1-C ,  4-H ) :   0.9656 B(  1-C ,  5-H ) :   0.9186 B(  1-C ,  6-H ) :   1.1907
B(  1-C ,  7-C ) :   0.2663 B(  1-C , 10-C ) :   0.1317 B(  2-C ,  3-F ) :   0.7490
B(  2-C , 10-C ) :   0.1217 B(  2-C , 17-C ) :   0.9319 B(  2-C , 19-H ) :   0.9375
B(  2-C , 20-H ) :   0.9372 B(  3-F ,  6-H ) :  -0.1569 B(  7-C , 10-C ) :   0.9578
B(  7-C , 11-H ) :   0.9148 B(  7-C , 12-H ) :   0.9540 B(  7-C , 15-C ) :   0.2409
B( 10-C , 13-H ) :   0.9073 B( 10-C , 14-H ) :   1.0173 B( 10-C , 15-C ) :   0.7566
B( 10-C , 17-C ) :   0.2869 B( 15-C , 16-H ) :   0.9260 B( 15-C , 17-C ) :   0.8540
B( 15-C , 18-H ) :   0.9896 B( 17-C , 21-H ) :   0.8973 B( 17-C , 22-H ) :   0.9631

Dispersion correction           -0.008769184
FINAL SINGLE POINT ENERGY      -375.611734898100

DIPOLE MOMENT
-------------
                                X             Y             Z
Electronic contribution:      5.13325      -2.27026       2.78298
Nuclear contribution   :     -5.08831       2.68947      -1.99048
                        -----------------------------------------
Total Dipole Moment    :      0.04494       0.41921       0.79250
                        -----------------------------------------
Magnitude (a.u.)       :      0.89767
Magnitude (Debye)      :      2.28171

Rotational constants in cm-1:     0.084646     0.055672     0.038419
Rotational constants in MHz :  2537.625105  1668.992890  1151.781380

                             ****ORCA TERMINATED NORMALLY****
TOTAL RUN TIME: 0 days 0 hours 0 minutes 52 seconds 219 msec
