                         Program Version 5.0.0 -  RELEASE  -
|  1> !BLYP D3BJ RIJCOSX def2-SVPD def2/J TightSCF
|  2> *xyz -1 1
|  3> C          1.44442        5.26658       -0.97546
|  4> O          1.56525        4.23349       -1.86489
|  5> H          1.76623        6.17572       -1.43893
|  6> H          2.05096        5.07018       -0.11614
|  7> H          0.42160        5.36155       -0.67592
|  8> *
|  9> %MaxCore 64000
| 10>
| 11> %pal nprocs 8
| 12> end
| 13>
| 14> %scf
| 15>   MaxIter 150
| 16> end
| 17>
| 18>
| 19>                          ****END OF INPUT****

CARTESIAN COORDINATES (ANGSTROEM)
---------------------------------
  C      1.444420    5.266580   -0.975460
  O      1.565250    4.233490   -1.864890
  H      1.766230    6.175720   -1.438930
  H      2.050960    5.070180   -0.116140
  H      0.421600    5.361550   -0.675920

 Total Charge           Charge          ....   -1
 Multiplicity           Mult            ....    1
 Number of Electrons    NEL             ....   18
 Basis Dimension        Dim             ....   67

ORBITAL ENERGIES
----------------

  NO   OCC          E(Eh)            E(eV)
   0   2.0000     -18.444158      -501.8911
   1   2.0000      -9.711117      -264.2529
   2   2.0000      -0.563776       -15.3411
   3   2.0000      -0.323205        -8.7949
   4   2.0000      -0.146321        -3.9816
   5   2.0000      -0.146320        -3.9816
   6   2.0000      -0.052142        -1.4188
   7   2.0000       0.093625         2.5477
   8   2.0000       0.093628         2.5478
   9   0.0000       0.181320         4.9340
  10   0.0000       0.249949         6.8015
  11   0.0000       0.249951         6.8015
  12   0.0000       0.257696         7.0123
  13   0.0000       0.295518         8.0415

MULLIKEN ATOMIC CHARGES
-----------------------
   0 C :    1.158879
   1 O :   -0.985894
   2 H :   -0.390996
   3 H :   -0.390966
   4 H :   -0.391023
Sum of atomic charges:   -1.0000000

LOEWDIN ATOMIC CHARGES
----------------------
   0 C :   -0.115032
   1 O :   -0.616816
   2 H :   -0.089382
   3 H :   -0.089386
   4 H :   -0.089384

  Mayer bond orders larger than 0.100000
B(  0-C ,  1-O ) :   1.1695 B(  0-C ,  2-H ) :   0.8319 B(  0-C ,  3-H ) :   0.8319
B(  0-C ,  4-H ) :   0.8319

Dispersion correction           -0.003031831
FINAL SINGLE POINT ENERGY      -114.985452136548

DIPOLE MOMENT
-------------
                                X             Y             Z
Electronic contribution:      0.16861      -1.44158      -1.24111
Nuclear contribution   :     -0.25440       2.17514       1.87266
                        -----------------------------------------
Total Dipole Moment    :     -0.08579       0.73356       0.63155
                        -----------------------------------------
Magnitude (a.u.)       :      0.97176
Magnitude (Debye)      :      2.47002

Rotational constants in cm-1:     5.477715     0.940444     0.940443
Rotational constants in MHz : 164217.753846 28193.799011 28193.774483

                             ****ORCA TERMINATED NORMALLY****
TOTAL RUN TIME: 0 days 0 hours 0 minutes 2 seconds 93 msec
