                         Program Version 5.0.0 -  RELEASE  -
|  1> !BLYP D3BJ RIJCOSX def2-SVPD def2/J TightSCF
|  2> *xyz 1 1
|  3> C         -0.70169        4.07250       -4.00392
|  4> N          0.68053        4.61482       -4.04800
|  5> H          0.69993        5.58489       -4.38827
|  6> H          1.27804        4.05598       -4.66824
|  7> H          1.08573        4.53358       -3.10652
|  8> H         -1.14500        4.14653       -4.97495
|  9> H         -1.28296        4.63405       -3.30271
| 10> H         -0.67274        3.04629       -3.70235
| 11> *
| 12> %MaxCore 64000
| 13>
| 14> %pal nprocs 8
| 15> end
| 16>
| 17> %scf
| 18>   MaxIter 150
| 19> end
| 20>
| 21>
| 22>                          ****END OF INPUT****

CARTESIAN COORDINATES (ANGSTROEM)
---------------------------------
  C     -0.701690    4.072500   -4.003920
  N      0.680530    4.614820   -4.048000
  H      0.699930    5.584890   -4.388270
  H      1.278040    4.055980   -4.668240
  H      1.085730    4.533580   -3.106520
  H     -1.145000    4.146530   -4.974950
  H     -1.282960    4.634050   -3.302710
  H     -0.672740    3.046290   -3.702350

 Total Charge           Charge          ....    1
 Multiplicity           Mult            ....    1
 Number of Electrons    NEL             ....   18
 Basis Dimension        Dim             ....   88

ORBITAL ENERGIES
----------------

  NO   OCC          E(Eh)            E(eV)
   0   2.0000     -14.372920      -391.1070
   1   2.0000     -10.182098      -277.0690
   2   2.0000      -1.133584       -30.8464
   3   2.0000      -0.864029       -23.5114
   4   2.0000      -0.761401       -20.7188
   5   2.0000      -0.751448       -20.4479
   6   2.0000      -0.665609       -18.1121
   7   2.0000      -0.580462       -15.7952
   8   2.0000      -0.578919       -15.7532
   9   0.0000      -0.232102        -6.3158
  10   0.0000      -0.166933        -4.5425
  11   0.0000      -0.164847        -4.4857
  12   0.0000      -0.154702        -4.2096
  13   0.0000      -0.111258        -3.0275

MULLIKEN ATOMIC CHARGES
-----------------------
   0 C :    1.331688
   1 N :   -0.669396
   2 H :    0.310743
   3 H :    0.309113
   4 H :    0.327993
   5 H :   -0.213857
   6 H :   -0.199742
   7 H :   -0.196542
Sum of atomic charges:    1.0000000

LOEWDIN ATOMIC CHARGES
----------------------
   0 C :    0.289230
   1 N :    0.327581
   2 H :    0.108463
   3 H :    0.104089
   4 H :    0.105486
   5 H :    0.020908
   6 H :    0.021962
   7 H :    0.022281

  Mayer bond orders larger than 0.100000
B(  0-C ,  1-N ) :   0.8544 B(  0-C ,  5-H ) :   0.8192 B(  0-C ,  6-H ) :   0.8098
B(  0-C ,  7-H ) :   0.8075 B(  1-N ,  2-H ) :   0.8060 B(  1-N ,  3-H ) :   0.8153
B(  1-N ,  4-H ) :   0.7885 B(  1-N ,  5-H ) :   0.1109 B(  1-N ,  6-H ) :   0.1180
B(  1-N ,  7-H ) :   0.1183

Dispersion correction           -0.006808575
FINAL SINGLE POINT ENERGY       -96.098801357930

DIPOLE MOMENT
-------------
                                X             Y             Z
Electronic contribution:      1.01018       0.42298      -0.03835
Nuclear contribution   :     -0.21844      -0.13976       0.01729
                        -----------------------------------------
Total Dipole Moment    :      0.79174       0.28321      -0.02106
                        -----------------------------------------
Magnitude (a.u.)       :      0.84113
Magnitude (Debye)      :      2.13800

Rotational constants in cm-1:     2.865765     0.688517     0.685249
Rotational constants in MHz : 85913.460223 20641.211162 20543.252263

                             ****ORCA TERMINATED NORMALLY****
TOTAL RUN TIME: 0 days 0 hours 0 minutes 2 seconds 967 msec
