                         Program Version 5.0.0 -  RELEASE  -
|  1> !BLYP D3BJ RIJCOSX def2-SVPD def2/J TightSCF
|  2> *xyz 0 1
|  3> C          1.44442        5.26658       -0.97546
|  4> F          1.56525        4.23349       -1.86489
|  5> H          1.76623        6.17572       -1.43893
|  6> H          2.05096        5.07018       -0.11614
|  7> H          0.42160        5.36155       -0.67592
|  8> *
|  9> %MaxCore 64000
| 10>
| 11> %pal nprocs 8
| 12> end
| 13>
| 14> %scf
| 15>   MaxIter 150
| 16> end
| 17>
| 18>
| 19>                          ****END OF INPUT****

CARTESIAN COORDINATES (ANGSTROEM)
---------------------------------
  C      1.444420    5.266580   -0.975460
  F      1.565250    4.233490   -1.864890
  H      1.766230    6.175720   -1.438930
  H      2.050960    5.070180   -0.116140
  H      0.421600    5.361550   -0.675920

 Total Charge           Charge          ....    0
 Multiplicity           Mult            ....    1
 Number of Electrons    NEL             ....   18
 Basis Dimension        Dim             ....   67

ORBITAL ENERGIES
----------------

  NO   OCC          E(Eh)            E(eV)
   0   2.0000     -24.290699      -660.9835
   1   2.0000      -9.993871      -271.9471
   2   2.0000      -1.077175       -29.3114
   3   2.0000      -0.628696       -17.1077
   4   2.0000      -0.443748       -12.0750
   5   2.0000      -0.431851       -11.7513
   6   2.0000      -0.431850       -11.7512
   7   2.0000      -0.296470        -8.0673
   8   2.0000      -0.296466        -8.0672
   9   0.0000       0.006552         0.1783
  10   0.0000       0.033397         0.9088
  11   0.0000       0.078589         2.1385
  12   0.0000       0.078590         2.1385
  13   0.0000       0.125330         3.4104

MULLIKEN ATOMIC CHARGES
-----------------------
   0 C :    1.213544
   1 F :   -0.441362
   2 H :   -0.257386
   3 H :   -0.257383
   4 H :   -0.257413
Sum of atomic charges:   -0.0000000

LOEWDIN ATOMIC CHARGES
----------------------
   0 C :    0.263749
   1 F :   -0.228149
   2 H :   -0.011866
   3 H :   -0.011868
   4 H :   -0.011866

  Mayer bond orders larger than 0.100000
B(  0-C ,  1-F ) :   0.9063 B(  0-C ,  2-H ) :   0.8698 B(  0-C ,  3-H ) :   0.8697
B(  0-C ,  4-H ) :   0.8697

Dispersion correction           -0.002647358
FINAL SINGLE POINT ENERGY      -139.610922657167

DIPOLE MOMENT
-------------
                                X             Y             Z
Electronic contribution:      0.26119      -2.23311      -1.92258
Nuclear contribution   :     -0.32265       2.75860       2.37499
                        -----------------------------------------
Total Dipole Moment    :     -0.06145       0.52548       0.45241
                        -----------------------------------------
Magnitude (a.u.)       :      0.69612
Magnitude (Debye)      :      1.76940

Rotational constants in cm-1:     5.477715     0.875416     0.875415
Rotational constants in MHz : 164217.753846 26244.308980 26244.287726

                             ****ORCA TERMINATED NORMALLY****
TOTAL RUN TIME: 0 days 0 hours 0 minutes 1 seconds 950 msec
