                         Program Version 5.0.0 -  RELEASE  -
|  1> !BLYP D3BJ RIJCOSX def2-SVPD def2/J TightSCF
|  2> *xyz 0 1
|  3> C         -0.70169        4.07250       -4.00392
|  4> C          0.68053        4.61482       -4.04800
|  5> H          0.69993        5.58489       -4.38827
|  6> H          1.27804        4.05598       -4.66824
|  7> H          1.08573        4.53358       -3.10652
|  8> H         -1.14500        4.14653       -4.97495
|  9> H         -1.28296        4.63405       -3.30271
| 10> H         -0.67274        3.04629       -3.70235
| 11> *
| 12> %MaxCore 64000
| 13>
| 14> %pal nprocs 8
| 15> end
| 16>
| 17> %scf
| 18>   MaxIter 150
| 19> end
| 20>
| 21>
| 22>                          ****END OF INPUT****

CARTESIAN COORDINATES (ANGSTROEM)
---------------------------------
  C     -0.701690    4.072500   -4.003920
  C      0.680530    4.614820   -4.048000
  H      0.699930    5.584890   -4.388270
  H      1.278040    4.055980   -4.668240
  H      1.085730    4.533580   -3.106520
  H     -1.145000    4.146530   -4.974950
  H     -1.282960    4.634050   -3.302710
  H     -0.672740    3.046290   -3.702350

 Total Charge           Charge          ....    0
 Multiplicity           Mult            ....    1
 Number of Electrons    NEL             ....   18
 Basis Dimension        Dim             ....   88

ORBITAL ENERGIES
----------------

  NO   OCC          E(Eh)            E(eV)
   0   2.0000      -9.901222      -269.4260
   1   2.0000      -9.889034      -269.0943
   2   2.0000      -0.685635       -18.6571
   3   2.0000      -0.548023       -14.9125
   4   2.0000      -0.399638       -10.8747
   5   2.0000      -0.393916       -10.7190
   6   2.0000      -0.321864        -8.7584
   7   2.0000      -0.302935        -8.2433
   8   2.0000      -0.297602        -8.0981
   9   0.0000       0.009878         0.2688
  10   0.0000       0.042521         1.1571
  11   0.0000       0.079583         2.1656
  12   0.0000       0.081039         2.2052
  13   0.0000       0.101463         2.7610

MULLIKEN ATOMIC CHARGES
-----------------------
   0 C :    0.617444
   1 C :    0.957762
   2 H :   -0.333342
   3 H :   -0.326571
   4 H :   -0.307183
   5 H :   -0.209380
   6 H :   -0.203258
   7 H :   -0.195472
Sum of atomic charges:   -0.0000000

LOEWDIN ATOMIC CHARGES
----------------------
   0 C :    0.089514
   1 C :    0.093226
   2 H :   -0.036704
   3 H :   -0.040850
   4 H :   -0.038467
   5 H :   -0.023356
   6 H :   -0.022074
   7 H :   -0.021289

  Mayer bond orders larger than 0.100000
B(  0-C ,  1-C ) :   1.4356 B(  0-C ,  2-H ) :   0.2209 B(  0-C ,  3-H ) :   0.2238
B(  0-C ,  4-H ) :   0.2498 B(  0-C ,  5-H ) :   0.7823 B(  0-C ,  6-H ) :   0.7631
B(  0-C ,  7-H ) :   0.7631 B(  1-C ,  2-H ) :   0.6461 B(  1-C ,  3-H ) :   0.6244
B(  1-C ,  4-H ) :   0.6333 B(  1-C ,  5-H ) :   0.2029 B(  1-C ,  6-H ) :   0.2070
B(  1-C ,  7-H ) :   0.2124 B(  3-H ,  4-H ) :   0.1068

Dispersion correction           -0.006853614
FINAL SINGLE POINT ENERGY       -79.699172496710

DIPOLE MOMENT
-------------
                                X             Y             Z
Electronic contribution:      0.00763       0.04635      -0.01087
Nuclear contribution   :      0.01985      -0.04545       0.00953
                        -----------------------------------------
Total Dipole Moment    :      0.02747       0.00090      -0.00133
                        -----------------------------------------
Magnitude (a.u.)       :      0.02752
Magnitude (Debye)      :      0.06995

Rotational constants in cm-1:     2.865782     0.718825     0.715264
Rotational constants in MHz : 85913.996449 21549.842906 21443.078705

                             ****ORCA TERMINATED NORMALLY****
TOTAL RUN TIME: 0 days 0 hours 0 minutes 2 seconds 182 msec
