                         Program Version 5.0.0 -  RELEASE  -
|  1> !BLYP D3BJ RIJCOSX def2-SVPD def2/J TightSCF xyzfile
|  2>
|  3> *xyzfile 0 1 D.xyz
|  4>
|  5> %MaxCore 64000
|  6>
|  7> %pal nprocs 4
|  8> end
|  9>
| 10> %scf
| 11>   MaxIter 150
| 12> end
| 13>
| 14>
| 15>                          ****END OF INPUT****

CARTESIAN COORDINATES (ANGSTROEM)
---------------------------------
  C     -0.701686    4.072499   -4.003920
  C      0.680528    4.614820   -4.048005
  C      1.444422    5.266576   -0.975463
  F      1.565248    4.233493   -1.864885
  H      0.699926    5.584890   -4.388272
  H      1.278044    4.055977   -4.668235
  H      1.085729    4.533581   -3.106524
  C     -1.703475    5.093197   -3.477396
  H     -0.995895    3.740394   -5.000654
  H     -0.643580    3.201910   -3.351533
  C     -1.313997    5.785995   -2.169271
  H     -1.877057    5.850103   -4.251154
  H     -2.653264    4.564475   -3.354796
  H     -2.097137    6.509395   -1.929558
  H     -0.416875    6.387594   -2.339097
  C     -1.073895    4.844728   -0.979904
  H     -1.968893    4.809608   -0.352568
  C      0.148120    5.210874   -0.138092
  H     -0.909754    3.827531   -1.338975
  H      1.474250    6.264638   -1.476917
  H      2.289622    5.303267   -0.264450
  H      0.261827    4.450942    0.640711
  H     -0.002516    6.171031    0.371483

 Total Charge           Charge          ....    0
 Multiplicity           Mult            ....    1
 Number of Electrons    NEL             ....   66
 Basis Dimension        Dim             ....  283

ORBITAL ENERGIES
----------------

  NO   OCC          E(Eh)            E(eV)
   0   2.0000     -24.314127      -661.6210
   1   2.0000     -10.008272      -272.3389
   2   2.0000      -9.932223      -270.2695
   3   2.0000      -9.917640      -269.8727
   4   2.0000      -9.910990      -269.6917
   5   2.0000      -9.904383      -269.5120
   6   2.0000      -9.892607      -269.1915
   7   2.0000      -9.841606      -267.8037
   8   2.0000      -1.111380       -30.2422
   9   2.0000      -0.727225       -19.7888
  10   2.0000      -0.698815       -19.0157
  11   2.0000      -0.642434       -17.4815
  12   2.0000      -0.613798       -16.7023
  13   2.0000      -0.557396       -15.1675
  14   2.0000      -0.529376       -14.4050
  15   2.0000      -0.477163       -12.9843
  16   2.0000      -0.476085       -12.9549
  17   2.0000      -0.461134       -12.5481
  18   2.0000      -0.436120       -11.8674
  19   2.0000      -0.404847       -11.0164
  20   2.0000      -0.397989       -10.8298
  21   2.0000      -0.377582       -10.2745
  22   2.0000      -0.362463        -9.8631
  23   2.0000      -0.340226        -9.2580
  24   2.0000      -0.334025        -9.0893
  25   2.0000      -0.321383        -8.7453
  26   2.0000      -0.312014        -8.4903
  27   2.0000      -0.296132        -8.0582
  28   2.0000      -0.286695        -7.8014
  29   2.0000      -0.273207        -7.4343
  30   2.0000      -0.261745        -7.1224
  31   2.0000      -0.259075        -7.0498
  32   2.0000      -0.232185        -6.3181
  33   0.0000       0.000049         0.0013
  34   0.0000       0.013817         0.3760
  35   0.0000       0.020510         0.5581
  36   0.0000       0.029532         0.8036
  37   0.0000       0.041682         1.1342

MULLIKEN ATOMIC CHARGES
-----------------------
   0 C :    0.080907
   1 C :    3.333430
   2 C :    1.013661
   3 F :   -0.491915
   4 H :   -0.307284
   5 H :   -0.116340
   6 H :   -2.438276
   7 C :    0.592798
   8 H :   -0.564151
   9 H :   -0.047939
  10 C :    0.269012
  11 H :   -0.026803
  12 H :   -0.299376
  13 H :   -0.371551
  14 H :   -0.138926
  15 C :    0.478297
  16 H :   -0.419672
  17 C :    0.433226
  18 H :   -0.078740
  19 H :    0.128129
  20 H :   -0.582654
  21 H :   -0.177801
  22 H :   -0.268033
Sum of atomic charges:   -0.0000000

LOEWDIN ATOMIC CHARGES
----------------------
   0 C :   -0.048042
   1 C :    0.152698
   2 C :    0.147242
   3 F :   -0.152012
   4 H :   -0.029136
   5 H :   -0.030043
   6 H :   -0.180192
   7 C :   -0.024080
   8 H :    0.013153
   9 H :    0.006541
  10 C :   -0.007701
  11 H :    0.019889
  12 H :    0.012768
  13 H :    0.013656
  14 H :   -0.008535
  15 C :   -0.007100
  16 H :    0.017048
  17 C :   -0.001628
  18 H :    0.002415
  19 H :    0.031865
  20 H :    0.026463
  21 H :    0.017026
  22 H :    0.027703

  Mayer bond orders larger than 0.100000
B(  0-C ,  1-C ) :   0.5987 B(  0-C ,  4-H ) :   0.4126 B(  0-C ,  5-H ) :   0.2552
B(  0-C ,  6-H ) :   0.8690 B(  0-C ,  7-C ) :   1.1672 B(  0-C ,  8-H ) :   0.8304
B(  0-C ,  9-H ) :   0.6669 B(  0-C , 10-C ) :   0.1853 B(  0-C , 11-H ) :   0.1922
B(  0-C , 12-H ) :   0.2123 B(  1-C ,  3-F ) :  -0.3143 B(  1-C ,  4-H ) :  -0.4228
B(  1-C ,  5-H ) :   0.4225 B(  1-C ,  6-H ) :  -4.7636 B(  1-C ,  7-C ) :   0.1512
B(  1-C ,  9-H ) :   0.2958 B(  2-C ,  3-F ) :   0.6735 B(  2-C ,  6-H ) :   0.1798
B(  2-C , 17-C ) :   1.2242 B(  2-C , 19-H ) :   0.7284 B(  2-C , 20-H ) :   0.8022
B(  2-C , 21-H ) :   0.1221 B(  2-C , 22-H ) :   0.1008 B(  3-F ,  6-H ) :   0.6212
B(  3-F , 20-H ) :  -0.1327 B(  4-H ,  5-H ) :  -0.3127 B(  4-H ,  6-H ) :   0.9940
B(  4-H ,  8-H ) :   0.2640 B(  4-H , 12-H ) :  -0.1125 B(  5-H ,  6-H ) :   0.3384
B(  5-H ,  8-H ) :  -0.1632 B(  6-H ,  9-H ) :  -0.1161 B(  6-H , 13-H ) :  -0.1182
B(  7-C ,  9-H ) :   0.2119 B(  7-C , 10-C ) :   1.2247 B(  7-C , 11-H ) :   0.5726
B(  7-C , 12-H ) :   0.7125 B(  7-C , 13-H ) :   0.1738 B(  7-C , 14-H ) :   0.1787
B(  8-H ,  9-H ) :  -0.2919 B(  9-H , 18-H ) :   0.1225 B( 10-C , 11-H ) :   0.2713
B( 10-C , 12-H ) :   0.1695 B( 10-C , 13-H ) :   0.6103 B( 10-C , 14-H ) :   0.7736
B( 10-C , 15-C ) :   1.1638 B( 10-C , 16-H ) :   0.2639 B( 10-C , 18-H ) :   0.1420
B( 11-H , 12-H ) :  -0.1680 B( 13-H , 15-C ) :   0.1849 B( 14-H , 15-C ) :   0.1506
B( 15-C , 16-H ) :   0.6605 B( 15-C , 17-C ) :   1.2369 B( 15-C , 18-H ) :   0.7310
B( 15-C , 21-H ) :   0.2639 B( 15-C , 22-H ) :   0.1088 B( 16-H , 18-H ) :  -0.1495
B( 17-C , 18-H ) :   0.1304 B( 17-C , 19-H ) :   0.1222 B( 17-C , 20-H ) :   0.2316
B( 17-C , 21-H ) :   0.5899 B( 17-C , 22-H ) :   0.7842 B( 19-H , 20-H ) :  -0.1333
B( 21-H , 22-H ) :  -0.1020

Dispersion correction           -0.042900242
FINAL SINGLE POINT ENERGY      -375.143244577910

DIPOLE MOMENT
-------------
                                X             Y             Z
Electronic contribution:      5.12709      -2.28444       2.76671
Nuclear contribution   :     -5.08831       2.68947      -1.99048
                        -----------------------------------------
Total Dipole Moment    :      0.03878       0.40503       0.77623
                        -----------------------------------------
Magnitude (a.u.)       :      0.87641
Magnitude (Debye)      :      2.22765

Rotational constants in cm-1:     0.084646     0.055672     0.038419
Rotational constants in MHz :  2537.625105  1668.992890  1151.781380

                             ****ORCA TERMINATED NORMALLY****
TOTAL RUN TIME: 0 days 0 hours 0 minutes 21 seconds 630 msec
