                         Program Version 5.0.0 -  RELEASE  -
|  1> !LC-PBE RIJCOSX def2-SVP def2/J TightSCF
|  2> *xyz -1 1
|  3> C         -1.91658       -2.48508       -3.64367
|  4> C         -1.36353       -1.98134       -2.29361
|  5> O         -0.35039       -2.74969       -1.79601
|  6> H         -2.22622       -1.90839       -1.60204
|  7> H         -1.05135       -0.91567       -2.44333
|  8> H         -1.11522       -2.57167       -4.34739
|  9> H         -2.64227       -1.79099       -4.01314
| 10> H         -2.37564       -3.44180       -3.50640
| 11> *
| 12>
| 13> %MaxCore 64000
| 14> %pal nprocs 4
| 15> end
| 16>
| 17> %scf
| 18>   MaxIter 150
| 19> end
| 20>
| 21>
| 22>                          ****END OF INPUT****

CARTESIAN COORDINATES (ANGSTROEM)
---------------------------------
  C     -1.916580   -2.485080   -3.643670
  C     -1.363530   -1.981340   -2.293610
  O     -0.350390   -2.749690   -1.796010
  H     -2.226220   -1.908390   -1.602040
  H     -1.051350   -0.915670   -2.443330
  H     -1.115220   -2.571670   -4.347390
  H     -2.642270   -1.790990   -4.013140
  H     -2.375640   -3.441800   -3.506400

 Total Charge           Charge          ....   -1
 Multiplicity           Mult            ....    1
 Number of Electrons    NEL             ....   26
 Basis Dimension        Dim             ....   67

ORBITAL ENERGIES
----------------

  NO   OCC          E(Eh)            E(eV)
   0   2.0000     -18.587408      -505.7891
   1   2.0000      -9.915374      -269.8110
   2   2.0000      -9.902839      -269.4699
   3   2.0000      -0.793895       -21.6030
   4   2.0000      -0.668989       -18.2041
   5   2.0000      -0.501424       -13.6444
   6   2.0000      -0.377999       -10.2859
   7   2.0000      -0.351751        -9.5716
   8   2.0000      -0.290857        -7.9146
   9   2.0000      -0.269527        -7.3342
  10   2.0000      -0.201130        -5.4730
  11   2.0000      -0.047960        -1.3051
  12   2.0000      -0.044238        -1.2038
  13   0.0000       0.341939         9.3046
  14   0.0000       0.388599        10.5743
  15   0.0000       0.401027        10.9125
  16   0.0000       0.410702        11.1758
  17   0.0000       0.454445        12.3661

MULLIKEN ATOMIC CHARGES
-----------------------
   0 C :   -0.108602
   1 C :    0.150589
   2 O :   -0.717291
   3 H :   -0.125639
   4 H :   -0.128934
   5 H :   -0.006707
   6 H :   -0.055585
   7 H :   -0.007831
Sum of atomic charges:   -1.0000000

LOEWDIN ATOMIC CHARGES
----------------------
   0 C :   -0.147451
   1 C :   -0.023835
   2 O :   -0.683042
   3 H :   -0.066850
   4 H :   -0.069523
   5 H :    0.003046
   6 H :   -0.014789
   7 H :    0.002446

  Mayer bond orders larger than 0.100000
B(  0-C ,  1-C ) :   0.9785 B(  0-C ,  5-H ) :   0.9703 B(  0-C ,  6-H ) :   0.9510
B(  0-C ,  7-H ) :   0.9729 B(  1-C ,  2-O ) :   1.5116 B(  1-C ,  3-H ) :   0.8984
B(  1-C ,  4-H ) :   0.8985

FINAL SINGLE POINT ENERGY      -153.804402858669

DIPOLE MOMENT
-------------
                                X             Y             Z
Electronic contribution:      2.16556      -1.01481       1.85937
Nuclear contribution   :     -3.14382       1.30299      -2.83231
                        -----------------------------------------
Total Dipole Moment    :     -0.97826       0.28818      -0.97294
                        -----------------------------------------
Magnitude (a.u.)       :      1.40948
Magnitude (Debye)      :      3.58263

Rotational constants in cm-1:     1.288206     0.322942     0.285188
Rotational constants in MHz : 38619.437223  9681.562038  8549.712012

                             ****ORCA TERMINATED NORMALLY****
TOTAL RUN TIME: 0 days 0 hours 0 minutes 8 seconds 257 msec
