                         Program Version 5.0.0 -  RELEASE  -
|  1> !LC-PBE RIJCOSX def2-SVP def2/J TightSCF
|  2> *xyz 1 1
|  3> C          1.64703       -2.34528       -5.02041
|  4> C          2.20996       -2.81239       -3.66571
|  5> C          2.48901       -1.66851       -2.73754
|  6> N          3.59631       -0.94761       -2.95225
|  7> N          1.66394       -1.41369       -1.77781
|  8> H          0.81164       -1.96318       -1.70275
|  9> H          1.84550       -0.63508       -1.15875
| 10> H          4.20535       -1.17600       -3.73383
| 11> H          3.81723       -0.12585       -2.40604
| 12> H          3.14311       -3.36280       -3.81152
| 13> H          1.48768       -3.45893       -3.16521
| 14> H          1.46566       -3.19589       -5.64368
| 15> H          2.35406       -1.69850       -5.49654
| 16> H          0.73014       -1.81680       -4.86253
| 17> *
| 18>
| 19> %MaxCore 64000
| 20> %pal nprocs 4
| 21> end
| 22>
| 23> %scf
| 24>   MaxIter 150
| 25> end
| 26>
| 27>
| 28>                          ****END OF INPUT****

CARTESIAN COORDINATES (ANGSTROEM)
---------------------------------
  C      1.647030   -2.345280   -5.020410
  C      2.209960   -2.812390   -3.665710
  C      2.489010   -1.668510   -2.737540
  N      3.596310   -0.947610   -2.952250
  N      1.663940   -1.413690   -1.777810
  H      0.811640   -1.963180   -1.702750
  H      1.845500   -0.635080   -1.158750
  H      4.205350   -1.176000   -3.733830
  H      3.817230   -0.125850   -2.406040
  H      3.143110   -3.362800   -3.811520
  H      1.487680   -3.458930   -3.165210
  H      1.465660   -3.195890   -5.643680
  H      2.354060   -1.698500   -5.496540
  H      0.730140   -1.816800   -4.862530

 Total Charge           Charge          ....    1
 Multiplicity           Mult            ....    1
 Number of Electrons    NEL             ....   40
 Basis Dimension        Dim             ....  115

ORBITAL ENERGIES
----------------

  NO   OCC          E(Eh)            E(eV)
   0   2.0000     -14.481264      -394.0552
   1   2.0000     -14.470931      -393.7740
   2   2.0000     -10.457589      -284.5655
   3   2.0000     -10.325919      -280.9825
   4   2.0000     -10.281635      -279.7775
   5   2.0000      -1.377301       -37.4783
   6   2.0000      -1.270605       -34.5749
   7   2.0000      -1.141004       -31.0483
   8   2.0000      -1.018495       -27.7146
   9   2.0000      -0.973633       -26.4939
  10   2.0000      -0.926600       -25.2141
  11   2.0000      -0.900311       -24.4987
  12   2.0000      -0.845455       -23.0060
  13   2.0000      -0.800329       -21.7781
  14   2.0000      -0.765777       -20.8379
  15   2.0000      -0.756905       -20.5964
  16   2.0000      -0.679057       -18.4781
  17   2.0000      -0.667693       -18.1689
  18   2.0000      -0.660738       -17.9796
  19   2.0000      -0.623269       -16.9600
  20   0.0000      -0.107368        -2.9216
  21   0.0000      -0.049218        -1.3393
  22   0.0000      -0.004154        -0.1130
  23   0.0000      -0.000889        -0.0242
  24   0.0000       0.028331         0.7709

MULLIKEN ATOMIC CHARGES
-----------------------
   0 C :   -0.115846
   1 C :   -0.156922
   2 C :   -0.019876
   3 N :   -0.086146
   4 N :   -0.022276
   5 H :    0.220417
   6 H :    0.205663
   7 H :    0.214628
   8 H :    0.202060
   9 H :    0.139063
  10 H :    0.111475
  11 H :    0.129176
  12 H :    0.085557
  13 H :    0.093028
Sum of atomic charges:    1.0000000

LOEWDIN ATOMIC CHARGES
----------------------
   0 C :   -0.057166
   1 C :   -0.060976
   2 C :    0.158900
   3 N :    0.059934
   4 N :    0.099532
   5 H :    0.135120
   6 H :    0.123942
   7 H :    0.128976
   8 H :    0.118089
   9 H :    0.074381
  10 H :    0.063097
  11 H :    0.064564
  12 H :    0.043285
  13 H :    0.048322

  Mayer bond orders larger than 0.100000
B(  0-C ,  1-C ) :   1.0436 B(  0-C , 11-H ) :   0.9652 B(  0-C , 12-H ) :   0.9737
B(  0-C , 13-H ) :   0.9700 B(  1-C ,  2-C ) :   1.0061 B(  1-C ,  9-H ) :   0.9319
B(  1-C , 10-H ) :   0.9381 B(  2-C ,  3-N ) :   1.4777 B(  2-C ,  4-N ) :   1.5587
B(  3-N ,  7-H ) :   0.9184 B(  3-N ,  8-H ) :   0.9285 B(  4-N ,  5-H ) :   0.9080
B(  4-N ,  6-H ) :   0.9223

FINAL SINGLE POINT ENERGY      -228.121876348504

DIPOLE MOMENT
-------------
                                X             Y             Z
Electronic contribution:      1.19992       1.68406       3.66173
Nuclear contribution   :     -0.98617      -1.03178      -2.77619
                        -----------------------------------------
Total Dipole Moment    :      0.21375       0.65229       0.88554
                        -----------------------------------------
Magnitude (a.u.)       :      1.12042
Magnitude (Debye)      :      2.84789

Rotational constants in cm-1:     0.257311     0.127495     0.099037
Rotational constants in MHz :  7713.982239  3822.189706  2969.039713

                             ****ORCA TERMINATED NORMALLY****
TOTAL RUN TIME: 0 days 0 hours 0 minutes 14 seconds 412 msec
