                         Program Version 5.0.0 -  RELEASE  -
|  1> !LC-PBE RIJCOSX def2-TZVP def2/J TightSCF xyzfile
|  2>
|  3> *xyzfile 0 1 B.xyz
|  4>
|  5> %MaxCore 64000
|  6>
|  7> %pal nprocs 18
|  8> end
|  9>
| 10> %scf
| 11>   MaxIter 150
| 12> end
| 13>
| 14>
| 15>                          ****END OF INPUT****

CARTESIAN COORDINATES (ANGSTROEM)
---------------------------------
  C      1.647032   -2.345276   -5.020411
  C      0.217628   -1.814022   -4.924389
  C      2.209964   -2.812388   -3.665708
  C     -0.811356   -2.908780   -4.607625
  C     -1.916579   -2.485081   -3.643665
  H     -2.554525   -1.712428   -4.091993
  C     -1.363531   -1.981337   -2.293608
  H     -2.553448   -3.355667   -3.458815
  O     -0.350395   -2.749689   -1.796006
  H      2.308385   -1.588704   -5.457128
  H      1.674286   -3.203478   -5.697392
  C      2.489007   -1.668510   -2.737538
  N      3.596314   -0.947608   -2.952247
  N      1.663936   -1.413685   -1.777806
  H      0.811642   -1.963178   -1.702755
  H      1.845503   -0.635078   -1.158749
  H      4.205351   -1.176003   -3.733825
  H      3.817230   -0.125845   -2.406041
  H     -1.244829   -3.280884   -5.541040
  H     -0.306331   -3.757746   -4.142734
  H     -0.036244   -1.318555   -5.865303
  H      0.175004   -1.035382   -4.158095
  H      3.143106   -3.362803   -3.811524
  H      1.487683   -3.458935   -3.165211
  H     -2.226220   -1.908386   -1.602039
  H     -1.051353   -0.915671   -2.443331

 Total Charge           Charge          ....    0
 Multiplicity           Mult            ....    1
 Number of Electrons    NEL             ....   80
 Basis Dimension        Dim             ....  406

ORBITAL ENERGIES
----------------

  NO   OCC          E(Eh)            E(eV)
   0   2.0000     -18.823280      -512.2075
   1   2.0000     -14.290540      -388.8654
   2   2.0000     -14.244503      -387.6126
   3   2.0000     -10.262192      -279.2484
   4   2.0000     -10.140523      -275.9376
   5   2.0000     -10.128668      -275.6151
   6   2.0000     -10.097880      -274.7773
   7   2.0000     -10.086363      -274.4639
   8   2.0000     -10.077754      -274.2296
   9   2.0000     -10.060104      -273.7493
  10   2.0000      -1.200462       -32.6662
  11   2.0000      -1.098235       -29.8845
  12   2.0000      -1.041179       -28.3319
  13   2.0000      -0.996773       -27.1236
  14   2.0000      -0.929570       -25.2949
  15   2.0000      -0.873909       -23.7803
  16   2.0000      -0.809480       -22.0271
  17   2.0000      -0.794138       -21.6096
  18   2.0000      -0.747307       -20.3352
  19   2.0000      -0.744988       -20.2721
  20   2.0000      -0.714769       -19.4499
  21   2.0000      -0.671496       -18.2723
  22   2.0000      -0.648418       -17.6443
  23   2.0000      -0.635502       -17.2929
  24   2.0000      -0.609570       -16.5872
  25   2.0000      -0.583196       -15.8696
  26   2.0000      -0.574688       -15.6381
  27   2.0000      -0.542364       -14.7585
  28   2.0000      -0.526844       -14.3362
  29   2.0000      -0.522568       -14.2198
  30   2.0000      -0.487421       -13.2634
  31   2.0000      -0.481735       -13.1087
  32   2.0000      -0.468203       -12.7404
  33   2.0000      -0.448187       -12.1958
  34   2.0000      -0.438921       -11.9436
  35   2.0000      -0.425021       -11.5654
  36   2.0000      -0.416383       -11.3304
  37   2.0000      -0.408041       -11.1034
  38   2.0000      -0.291383        -7.9289
  39   2.0000      -0.285847        -7.7783
  40   0.0000       0.063423         1.7258
  41   0.0000       0.071445         1.9441
  42   0.0000       0.108224         2.9449
  43   0.0000       0.135612         3.6902
  44   0.0000       0.147205         4.0056

MULLIKEN ATOMIC CHARGES
-----------------------
   0 C :   -0.287786
   1 C :   -0.287627
   2 C :   -0.428562
   3 C :   -0.306805
   4 C :   -0.192808
   5 H :    0.106701
   6 C :   -0.161782
   7 H :    0.118835
   8 O :   -0.683051
   9 H :    0.140738
  10 H :    0.166806
  11 C :    0.267588
  12 N :   -0.436067
  13 N :   -0.300673
  14 H :    0.320524
  15 H :    0.240839
  16 H :    0.290598
  17 H :    0.270939
  18 H :    0.132632
  19 H :    0.154412
  20 H :    0.146522
  21 H :    0.153862
  22 H :    0.188588
  23 H :    0.247385
  24 H :    0.081429
  25 H :    0.056764
Sum of atomic charges:    0.0000000

LOEWDIN ATOMIC CHARGES
----------------------
   0 C :   -0.276242
   1 C :   -0.276125
   2 C :   -0.226697
   3 C :   -0.291236
   4 C :   -0.304607
   5 H :    0.132526
   6 C :   -0.511664
   7 H :    0.138807
   8 O :   -0.288167
   9 H :    0.136865
  10 H :    0.152170
  11 C :   -0.316750
  12 N :    0.028540
  13 N :    0.142737
  14 H :    0.102172
  15 H :    0.180759
  16 H :    0.194343
  17 H :    0.182567
  18 H :    0.136071
  19 H :    0.148743
  20 H :    0.140860
  21 H :    0.146369
  22 H :    0.156032
  23 H :    0.176850
  24 H :    0.108037
  25 H :    0.087041

  Mayer bond orders larger than 0.100000
B(  0-C ,  1-C ) :   0.9292 B(  0-C ,  2-C ) :   0.9142 B(  0-C ,  9-H ) :   0.9824
B(  0-C , 10-H ) :   0.9717 B(  1-C ,  3-C ) :   0.8952 B(  1-C , 20-H ) :   0.9739
B(  1-C , 21-H ) :   0.9865 B(  2-C , 11-C ) :   0.9335 B(  2-C , 22-H ) :   0.9661
B(  2-C , 23-H ) :   0.9509 B(  3-C ,  4-C ) :   0.9487 B(  3-C , 18-H ) :   0.9727
B(  3-C , 19-H ) :   0.9788 B(  4-C ,  5-H ) :   0.9716 B(  4-C ,  6-C ) :   0.9160
B(  4-C ,  7-H ) :   0.9680 B(  6-C ,  8-O ) :   1.2269 B(  6-C , 24-H ) :   0.9820
B(  6-C , 25-H ) :   0.9934 B(  8-O , 14-H ) :   0.3927 B( 11-C , 12-N ) :   1.2914
B( 11-C , 13-N ) :   1.6828 B( 12-N , 16-H ) :   0.8987 B( 12-N , 17-H ) :   0.9059
B( 13-N , 14-H ) :   0.6187 B( 13-N , 15-H ) :   0.9115

FINAL SINGLE POINT ENERGY      -459.761946235411

DIPOLE MOMENT
-------------
                                X             Y             Z
Electronic contribution:      5.62005       0.94170       4.28788
Nuclear contribution   :     -2.25948       0.71378      -5.15247
                        -----------------------------------------
Total Dipole Moment    :      3.36057       1.65548      -0.86459
                        -----------------------------------------
Magnitude (a.u.)       :      3.84468
Magnitude (Debye)      :      9.77239

Rotational constants in cm-1:     0.063973     0.031829     0.024059
Rotational constants in MHz :  1917.874550   954.201145   721.285252

                             ****ORCA TERMINATED NORMALLY****
TOTAL RUN TIME: 0 days 0 hours 0 minutes 50 seconds 195 msec
