                         Program Version 5.0.0 -  RELEASE  -
|  1> !LC-PBE RIJCOSX def2-SVP def2/J TightSCF
|  2> *xyz 0 1
|  3> C         -1.91658       -2.48508       -3.64367
|  4> C         -1.36353       -1.98134       -2.29361
|  5> F         -0.35039       -2.74969       -1.79601
|  6> H         -2.22622       -1.90839       -1.60204
|  7> H         -1.05135       -0.91567       -2.44333
|  8> H         -1.11522       -2.57167       -4.34739
|  9> H         -2.64227       -1.79099       -4.01314
| 10> H         -2.37564       -3.44180       -3.50640
| 11> *
| 12>
| 13> %MaxCore 64000
| 14> %pal nprocs 4
| 15> end
| 16>
| 17> %scf
| 18>   MaxIter 150
| 19> end
| 20>
| 21>
| 22>                          ****END OF INPUT****

CARTESIAN COORDINATES (ANGSTROEM)
---------------------------------
  C     -1.916580   -2.485080   -3.643670
  C     -1.363530   -1.981340   -2.293610
  F     -0.350390   -2.749690   -1.796010
  H     -2.226220   -1.908390   -1.602040
  H     -1.051350   -0.915670   -2.443330
  H     -1.115220   -2.571670   -4.347390
  H     -2.642270   -1.790990   -4.013140
  H     -2.375640   -3.441800   -3.506400

 Total Charge           Charge          ....    0
 Multiplicity           Mult            ....    1
 Number of Electrons    NEL             ....   26
 Basis Dimension        Dim             ....   67

ORBITAL ENERGIES
----------------

  NO   OCC          E(Eh)            E(eV)
   0   2.0000     -24.472316      -665.9256
   1   2.0000     -10.201795      -277.6050
   2   2.0000     -10.119965      -275.3783
   3   2.0000      -1.326391       -36.0929
   4   2.0000      -0.929574       -25.2950
   5   2.0000      -0.783038       -21.3075
   6   2.0000      -0.649250       -17.6670
   7   2.0000      -0.640962       -17.4415
   8   2.0000      -0.598670       -16.2906
   9   2.0000      -0.540428       -14.7058
  10   2.0000      -0.534763       -14.5517
  11   2.0000      -0.462427       -12.5833
  12   2.0000      -0.453746       -12.3471
  13   0.0000       0.156496         4.2585
  14   0.0000       0.203868         5.5475
  15   0.0000       0.210599         5.7307
  16   0.0000       0.230534         6.2732
  17   0.0000       0.249647         6.7932

MULLIKEN ATOMIC CHARGES
-----------------------
   0 C :   -0.194444
   1 C :    0.115015
   2 F :   -0.246302
   3 H :    0.053719
   4 H :    0.054745
   5 H :    0.076691
   6 H :    0.065403
   7 H :    0.075173
Sum of atomic charges:   -0.0000000

LOEWDIN ATOMIC CHARGES
----------------------
   0 C :   -0.111425
   1 C :    0.072638
   2 F :   -0.125107
   3 H :    0.022094
   4 H :    0.023493
   5 H :    0.038706
   6 H :    0.042138
   7 H :    0.037465

  Mayer bond orders larger than 0.100000
B(  0-C ,  1-C ) :   1.0642 B(  0-C ,  5-H ) :   0.9732 B(  0-C ,  6-H ) :   0.9663
B(  0-C ,  7-H ) :   0.9747 B(  1-C ,  2-F ) :   1.0229 B(  1-C ,  3-H ) :   0.9625
B(  1-C ,  4-H ) :   0.9638

FINAL SINGLE POINT ENERGY      -178.421481365294

DIPOLE MOMENT
-------------
                                X             Y             Z
Electronic contribution:      3.61546      -1.34614       3.43743
Nuclear contribution   :     -4.15401       1.70894      -3.75000
                        -----------------------------------------
Total Dipole Moment    :     -0.53856       0.36280      -0.31256
                        -----------------------------------------
Magnitude (a.u.)       :      0.72067
Magnitude (Debye)      :      1.83179

Rotational constants in cm-1:     1.266842     0.300492     0.266603
Rotational constants in MHz : 37978.968232  9008.526876  7992.551454

                             ****ORCA TERMINATED NORMALLY****
TOTAL RUN TIME: 0 days 0 hours 0 minutes 7 seconds 372 msec
