                         Program Version 5.0.0 -  RELEASE  -
|  1> !LC-PBE RIJCOSX def2-SVP def2/J TightSCF
|  2> *xyz 0 1
|  3> C          1.64703       -2.34528       -5.02041
|  4> C          2.20996       -2.81239       -3.66571
|  5> C          2.48901       -1.66851       -2.73754
|  6> C          3.59631       -0.94761       -2.95225
|  7> N          1.66394       -1.41369       -1.77781
|  8> H          0.81164       -1.96318       -1.70275
|  9> H          1.84550       -0.63508       -1.15875
| 10> H          4.20535       -1.17600       -3.73383
| 11> H          3.81723       -0.12585       -2.40604
| 12> H          3.14311       -3.36280       -3.81152
| 13> H          1.48768       -3.45893       -3.16521
| 14> H          1.46566       -3.19589       -5.64368
| 15> H          2.35406       -1.69850       -5.49654
| 16> H          0.73014       -1.81680       -4.86253
| 17> *
| 18>
| 19> %MaxCore 64000
| 20> %pal nprocs 4
| 21> end
| 22>
| 23> %scf
| 24>   MaxIter 150
| 25> end
| 26>
| 27>
| 28>                          ****END OF INPUT****

CARTESIAN COORDINATES (ANGSTROEM)
---------------------------------
  C      1.647030   -2.345280   -5.020410
  C      2.209960   -2.812390   -3.665710
  C      2.489010   -1.668510   -2.737540
  C      3.596310   -0.947610   -2.952250
  N      1.663940   -1.413690   -1.777810
  H      0.811640   -1.963180   -1.702750
  H      1.845500   -0.635080   -1.158750
  H      4.205350   -1.176000   -3.733830
  H      3.817230   -0.125850   -2.406040
  H      3.143110   -3.362800   -3.811520
  H      1.487680   -3.458930   -3.165210
  H      1.465660   -3.195890   -5.643680
  H      2.354060   -1.698500   -5.496540
  H      0.730140   -1.816800   -4.862530

 Total Charge           Charge          ....    0
 Multiplicity           Mult            ....    1
 Number of Electrons    NEL             ....   40
 Basis Dimension        Dim             ....  115

ORBITAL ENERGIES
----------------

  NO   OCC          E(Eh)            E(eV)
   0   2.0000     -14.226328      -387.1181
   1   2.0000     -10.146850      -276.1098
   2   2.0000     -10.124634      -275.5053
   3   2.0000     -10.109786      -275.1013
   4   2.0000     -10.050231      -273.4807
   5   2.0000      -1.100674       -29.9509
   6   2.0000      -0.947449       -25.7814
   7   2.0000      -0.867707       -23.6115
   8   2.0000      -0.795626       -21.6501
   9   2.0000      -0.713619       -19.4186
  10   2.0000      -0.673890       -18.3375
  11   2.0000      -0.623821       -16.9750
  12   2.0000      -0.583406       -15.8753
  13   2.0000      -0.549368       -14.9491
  14   2.0000      -0.529991       -14.4218
  15   2.0000      -0.512969       -13.9586
  16   2.0000      -0.479289       -13.0421
  17   2.0000      -0.468277       -12.7425
  18   2.0000      -0.460034       -12.5182
  19   2.0000      -0.296348        -8.0640
  20   0.0000       0.139300         3.7906
  21   0.0000       0.157847         4.2952
  22   0.0000       0.189515         5.1570
  23   0.0000       0.193108         5.2547
  24   0.0000       0.215311         5.8589

MULLIKEN ATOMIC CHARGES
-----------------------
   0 C :   -0.098064
   1 C :   -0.099131
   2 C :   -0.131275
   3 C :   -0.155331
   4 N :   -0.116148
   5 H :    0.142864
   6 H :    0.148677
   7 H :    0.008430
   8 H :   -0.005171
   9 H :    0.083962
  10 H :    0.039449
  11 H :    0.061048
  12 H :    0.066394
  13 H :    0.054295
Sum of atomic charges:    0.0000000

LOEWDIN ATOMIC CHARGES
----------------------
   0 C :   -0.076212
   1 C :   -0.056551
   2 C :    0.002126
   3 C :   -0.220078
   4 N :   -0.009106
   5 H :    0.082671
   6 H :    0.089168
   7 H :    0.008181
   8 H :    0.000538
   9 H :    0.050241
  10 H :    0.027274
  11 H :    0.032353
  12 H :    0.036849
  13 H :    0.032545

  Mayer bond orders larger than 0.100000
B(  0-C ,  1-C ) :   1.0711 B(  0-C , 11-H ) :   0.9762 B(  0-C , 12-H ) :   0.9758
B(  0-C , 13-H ) :   0.9732 B(  1-C ,  2-C ) :   0.9909 B(  1-C ,  9-H ) :   0.9521
B(  1-C , 10-H ) :   0.9555 B(  2-C ,  3-C ) :   1.8518 B(  2-C ,  4-N ) :   1.2875
B(  3-C ,  7-H ) :   0.9569 B(  3-C ,  8-H ) :   0.9675 B(  4-N ,  5-H ) :   0.9466
B(  4-N ,  6-H ) :   0.9471

FINAL SINGLE POINT ENERGY      -211.678440325201

DIPOLE MOMENT
-------------
                                X             Y             Z
Electronic contribution:     -0.11157       0.63238       3.04234
Nuclear contribution   :     -0.69146      -0.83112      -2.71336
                        -----------------------------------------
Total Dipole Moment    :     -0.80304      -0.19873       0.32898
                        -----------------------------------------
Magnitude (a.u.)       :      0.89028
Magnitude (Debye)      :      2.26290

Rotational constants in cm-1:     0.270661     0.129240     0.102040
Rotational constants in MHz :  8114.202941  3874.518141  3059.074383

                             ****ORCA TERMINATED NORMALLY****
TOTAL RUN TIME: 0 days 0 hours 0 minutes 15 seconds 43 msec
