                         Program Version 5.0.0 -  RELEASE  -
|  1> !LC-PBE RIJCOSX def2-SVP def2/J TightSCF
|  2> *xyz 0 1
|  3> C          1.64703       -2.34528       -5.02041
|  4> C          2.20996       -2.81239       -3.66571
|  5> C          2.48901       -1.66851       -2.73754
|  6> N          3.59631       -0.94761       -2.95225
|  7> C          1.66394       -1.41369       -1.77781
|  8> H          0.81164       -1.96318       -1.70275
|  9> H          1.84550       -0.63508       -1.15875
| 10> H          4.20535       -1.17600       -3.73383
| 11> H          3.81723       -0.12585       -2.40604
| 12> H          3.14311       -3.36280       -3.81152
| 13> H          1.48768       -3.45893       -3.16521
| 14> H          1.46566       -3.19589       -5.64368
| 15> H          2.35406       -1.69850       -5.49654
| 16> H          0.73014       -1.81680       -4.86253
| 17> *
| 18>
| 19> %MaxCore 64000
| 20> %pal nprocs 4
| 21> end
| 22>
| 23> %scf
| 24>   MaxIter 150
| 25> end
| 26>
| 27>
| 28>                          ****END OF INPUT****

CARTESIAN COORDINATES (ANGSTROEM)
---------------------------------
  C      1.647030   -2.345280   -5.020410
  C      2.209960   -2.812390   -3.665710
  C      2.489010   -1.668510   -2.737540
  N      3.596310   -0.947610   -2.952250
  C      1.663940   -1.413690   -1.777810
  H      0.811640   -1.963180   -1.702750
  H      1.845500   -0.635080   -1.158750
  H      4.205350   -1.176000   -3.733830
  H      3.817230   -0.125850   -2.406040
  H      3.143110   -3.362800   -3.811520
  H      1.487680   -3.458930   -3.165210
  H      1.465660   -3.195890   -5.643680
  H      2.354060   -1.698500   -5.496540
  H      0.730140   -1.816800   -4.862530

 Total Charge           Charge          ....    0
 Multiplicity           Mult            ....    1
 Number of Electrons    NEL             ....   40
 Basis Dimension        Dim             ....  115

ORBITAL ENERGIES
----------------

  NO   OCC          E(Eh)            E(eV)
   0   2.0000     -14.218981      -386.9181
   1   2.0000     -10.143029      -276.0059
   2   2.0000     -10.122975      -275.4601
   3   2.0000     -10.111162      -275.1387
   4   2.0000     -10.054468      -273.5960
   5   2.0000      -1.082525       -29.4570
   6   2.0000      -0.946288       -25.7498
   7   2.0000      -0.882897       -24.0248
   8   2.0000      -0.790619       -21.5138
   9   2.0000      -0.709974       -19.3194
  10   2.0000      -0.661714       -18.0061
  11   2.0000      -0.624060       -16.9815
  12   2.0000      -0.574137       -15.6231
  13   2.0000      -0.562167       -15.2973
  14   2.0000      -0.529629       -14.4120
  15   2.0000      -0.519442       -14.1347
  16   2.0000      -0.479351       -13.0438
  17   2.0000      -0.460375       -12.5275
  18   2.0000      -0.458362       -12.4727
  19   2.0000      -0.309386        -8.4188
  20   0.0000       0.141375         3.8470
  21   0.0000       0.161749         4.4014
  22   0.0000       0.193061         5.2535
  23   0.0000       0.197426         5.3722
  24   0.0000       0.211847         5.7646

MULLIKEN ATOMIC CHARGES
-----------------------
   0 C :   -0.099753
   1 C :   -0.098582
   2 C :   -0.083780
   3 N :   -0.173890
   4 C :   -0.129688
   5 H :    0.009193
   6 H :   -0.003886
   7 H :    0.138598
   8 H :    0.143874
   9 H :    0.058384
  10 H :    0.065446
  11 H :    0.064044
  12 H :    0.046676
  13 H :    0.063365
Sum of atomic charges:    0.0000000

LOEWDIN ATOMIC CHARGES
----------------------
   0 C :   -0.080351
   1 C :   -0.056225
   2 C :    0.008218
   3 N :   -0.042607
   4 C :   -0.187791
   5 H :    0.013502
   6 H :    0.005786
   7 H :    0.077872
   8 H :    0.082628
   9 H :    0.034368
  10 H :    0.045351
  11 H :    0.033908
  12 H :    0.028082
  13 H :    0.037259

  Mayer bond orders larger than 0.100000
B(  0-C ,  1-C ) :   1.0636 B(  0-C , 11-H ) :   0.9767 B(  0-C , 12-H ) :   0.9753
B(  0-C , 13-H ) :   0.9734 B(  1-C ,  2-C ) :   1.0078 B(  1-C ,  9-H ) :   0.9512
B(  1-C , 10-H ) :   0.9522 B(  2-C ,  3-N ) :   1.2212 B(  2-C ,  4-C ) :   1.9170
B(  3-N ,  7-H ) :   0.9543 B(  3-N ,  8-H ) :   0.9537 B(  4-C ,  5-H ) :   0.9446
B(  4-C ,  6-H ) :   0.9608

FINAL SINGLE POINT ENERGY      -211.682829432314

DIPOLE MOMENT
-------------
                                X             Y             Z
Electronic contribution:      1.69343       1.08319       1.95193
Nuclear contribution   :     -1.13902      -0.93906      -2.44135
                        -----------------------------------------
Total Dipole Moment    :      0.55441       0.14413      -0.48942
                        -----------------------------------------
Magnitude (a.u.)       :      0.75344
Magnitude (Debye)      :      1.91509

Rotational constants in cm-1:     0.267243     0.130607     0.102304
Rotational constants in MHz :  8011.748167  3915.504600  3066.999841

                             ****ORCA TERMINATED NORMALLY****
TOTAL RUN TIME: 0 days 0 hours 0 minutes 15 seconds 250 msec
