                         Program Version 5.0.0 -  RELEASE  -
|  1> !LC-PBE RIJCOSX def2-TZVP def2/J TightSCF xyzfile
|  2>
|  3> *xyzfile 0 1 D2.xyz
|  4>
|  5> %MaxCore 64000
|  6>
|  7> %pal nprocs 18
|  8> end
|  9>
| 10> %scf
| 11>   MaxIter 150
| 12> end
| 13>
| 14>
| 15>                          ****END OF INPUT****

CARTESIAN COORDINATES (ANGSTROEM)
---------------------------------
  C      1.647032   -2.345276   -5.020411
  C      0.217628   -1.814022   -4.924389
  C      2.209964   -2.812388   -3.665708
  C     -0.811356   -2.908780   -4.607625
  C     -1.916579   -2.485081   -3.643665
  H     -2.554525   -1.712428   -4.091993
  C     -1.363531   -1.981337   -2.293608
  H     -2.553448   -3.355667   -3.458815
  F     -0.350395   -2.749689   -1.796006
  H      2.308385   -1.588704   -5.457128
  H      1.674286   -3.203478   -5.697392
  C      2.489007   -1.668510   -2.737538
  N      3.596314   -0.947608   -2.952247
  C      1.663936   -1.413685   -1.777806
  H      0.811642   -1.963178   -1.702755
  H      1.845503   -0.635078   -1.158749
  H      4.205351   -1.176003   -3.733825
  H      3.817230   -0.125845   -2.406041
  H     -1.244829   -3.280884   -5.541040
  H     -0.306331   -3.757746   -4.142734
  H     -0.036244   -1.318555   -5.865303
  H      0.175004   -1.035382   -4.158095
  H      3.143106   -3.362803   -3.811524
  H      1.487683   -3.458935   -3.165211
  H     -2.226220   -1.908386   -1.602039
  H     -1.051353   -0.915671   -2.443331

 Total Charge           Charge          ....    0
 Multiplicity           Mult            ....    1
 Number of Electrons    NEL             ....   80
 Basis Dimension        Dim             ....  406

ORBITAL ENERGIES
----------------

  NO   OCC          E(Eh)            E(eV)
   0   2.0000     -24.490006      -666.4070
   1   2.0000     -14.195014      -386.2660
   2   2.0000     -10.196195      -277.4526
   3   2.0000     -10.121668      -275.4246
   4   2.0000     -10.117691      -275.3164
   5   2.0000     -10.109286      -275.0877
   6   2.0000     -10.106449      -275.0105
   7   2.0000     -10.102241      -274.8959
   8   2.0000     -10.100398      -274.8458
   9   2.0000     -10.009893      -272.3830
  10   2.0000      -1.381303       -37.5872
  11   2.0000      -1.081733       -29.4354
  12   2.0000      -0.994851       -27.0713
  13   2.0000      -0.954687       -25.9783
  14   2.0000      -0.898523       -24.4501
  15   2.0000      -0.871173       -23.7058
  16   2.0000      -0.824560       -22.4374
  17   2.0000      -0.763968       -20.7886
  18   2.0000      -0.727861       -19.8061
  19   2.0000      -0.722503       -19.6603
  20   2.0000      -0.677688       -18.4408
  21   2.0000      -0.664437       -18.0802
  22   2.0000      -0.644415       -17.5354
  23   2.0000      -0.634548       -17.2669
  24   2.0000      -0.608860       -16.5679
  25   2.0000      -0.591604       -16.0984
  26   2.0000      -0.584533       -15.9059
  27   2.0000      -0.571222       -15.5437
  28   2.0000      -0.541478       -14.7344
  29   2.0000      -0.518628       -14.1126
  30   2.0000      -0.502746       -13.6804
  31   2.0000      -0.489040       -13.3075
  32   2.0000      -0.482344       -13.1252
  33   2.0000      -0.469285       -12.7699
  34   2.0000      -0.456900       -12.4329
  35   2.0000      -0.451467       -12.2850
  36   2.0000      -0.436647       -11.8818
  37   2.0000      -0.434159       -11.8141
  38   2.0000      -0.418580       -11.3901
  39   2.0000      -0.297610        -8.0984
  40   0.0000       0.117747         3.2040
  41   0.0000       0.124433         3.3860
  42   0.0000       0.133879         3.6430
  43   0.0000       0.150746         4.1020
  44   0.0000       0.160361         4.3636

MULLIKEN ATOMIC CHARGES
-----------------------
   0 C :   -0.257366
   1 C :   -0.306678
   2 C :   -0.423740
   3 C :   -0.322349
   4 C :   -0.272581
   5 H :    0.151717
   6 C :   -0.170036
   7 H :    0.148013
   8 F :   -0.160578
   9 H :    0.144214
  10 H :    0.148836
  11 C :    0.272735
  12 N :   -0.514695
  13 C :   -0.608667
  14 H :    0.238574
  15 H :    0.116035
  16 H :    0.248247
  17 H :    0.248037
  18 H :    0.153014
  19 H :    0.166928
  20 H :    0.148255
  21 H :    0.177322
  22 H :    0.162382
  23 H :    0.186940
  24 H :    0.149349
  25 H :    0.176093
Sum of atomic charges:   -0.0000000

LOEWDIN ATOMIC CHARGES
----------------------
   0 C :   -0.278751
   1 C :   -0.276788
   2 C :   -0.232890
   3 C :   -0.286688
   4 C :   -0.294765
   5 H :    0.150385
   6 C :   -0.374761
   7 H :    0.144939
   8 F :    0.176091
   9 H :    0.141499
  10 H :    0.144150
  11 C :   -0.381819
  12 N :   -0.033440
  13 C :   -0.277382
  14 H :    0.078046
  15 H :    0.102226
  16 H :    0.170243
  17 H :    0.171077
  18 H :    0.143946
  19 H :    0.149468
  20 H :    0.141015
  21 H :    0.150191
  22 H :    0.146548
  23 H :    0.155945
  24 H :    0.132751
  25 H :    0.138766

  Mayer bond orders larger than 0.100000
B(  0-C ,  1-C ) :   0.9435 B(  0-C ,  2-C ) :   0.9020 B(  0-C ,  9-H ) :   0.9721
B(  0-C , 10-H ) :   0.9821 B(  1-C ,  3-C ) :   0.8883 B(  1-C , 20-H ) :   0.9742
B(  1-C , 21-H ) :   0.9854 B(  2-C , 11-C ) :   0.8899 B(  2-C , 22-H ) :   0.9880
B(  2-C , 23-H ) :   1.0154 B(  3-C ,  4-C ) :   0.9408 B(  3-C , 18-H ) :   0.9734
B(  3-C , 19-H ) :   0.9853 B(  4-C ,  5-H ) :   0.9590 B(  4-C ,  6-C ) :   0.9662
B(  4-C ,  7-H ) :   0.9765 B(  6-C ,  8-F ) :   0.9531 B(  6-C , 24-H ) :   0.9777
B(  6-C , 25-H ) :   0.9791 B( 11-C , 12-N ) :   1.0908 B( 11-C , 13-C ) :   1.7256
B( 12-N , 16-H ) :   0.9266 B( 12-N , 17-H ) :   0.9264 B( 13-C , 14-H ) :   0.9563
B( 13-C , 15-H ) :   0.9915

FINAL SINGLE POINT ENERGY      -467.696149228587

DIPOLE MOMENT
-------------
                                X             Y             Z
Electronic contribution:      0.39234      -1.29983       6.03964
Nuclear contribution   :     -0.73748       1.64619      -6.72655
                        -----------------------------------------
Total Dipole Moment    :     -0.34515       0.34636      -0.68691
                        -----------------------------------------
Magnitude (a.u.)       :      0.84317
Magnitude (Debye)      :      2.14316

Rotational constants in cm-1:     0.063169     0.031711     0.023958
Rotational constants in MHz :  1893.751676   950.657187   718.229932

                             ****ORCA TERMINATED NORMALLY****
TOTAL RUN TIME: 0 days 0 hours 0 minutes 35 seconds 131 msec
