                         Program Version 5.0.0 -  RELEASE  -
|  1> !DLPNO-CCSD(T) aug-cc-pVTZ aug-cc-pVTZ/C TightSCF TightPNO RIJCOSX def2/J
|  2> *xyz -1 1
|  3> C         -0.47749        0.60819       -4.10105
|  4> C          0.18467       -0.50664       -4.91676
|  5> O         -0.15869       -1.70109       -4.65798
|  6> O          1.05594       -0.17441       -5.74037
|  7> H         -0.09903        1.55672       -4.42038
|  8> H         -0.25931        0.46828       -3.06292
|  9> H         -1.53664        0.57826       -4.25010
| 10> *
| 11>
| 12> %MaxCore 64000
| 13>
| 14> %pal nprocs 8
| 15> end
| 16>
| 17> %scf
| 18>   MaxIter 150
| 19> end
| 20>
| 21>
| 22>                          ****END OF INPUT****

CARTESIAN COORDINATES (ANGSTROEM)
---------------------------------
  C     -0.477490    0.608190   -4.101050
  C      0.184670   -0.506640   -4.916760
  O     -0.158690   -1.701090   -4.657980
  O      1.055940   -0.174410   -5.740370
  H     -0.099030    1.556720   -4.420380
  H     -0.259310    0.468280   -3.062920
  H     -1.536640    0.578260   -4.250100

 Total Charge           Charge          ....   -1
 Multiplicity           Mult            ....    1
 Number of Electrons    NEL             ....   32
 Basis Dimension        Dim             ....  253

ORBITAL ENERGIES
----------------

  NO   OCC          E(Eh)            E(eV)
   0   2.0000     -20.283715      -551.9479
   1   2.0000     -20.276445      -551.7501
   2   2.0000     -11.124637      -302.7168
   3   2.0000     -11.038597      -300.3755
   4   2.0000      -1.159878       -31.5619
   5   2.0000      -1.050664       -28.5900
   6   2.0000      -0.804081       -21.8802
   7   2.0000      -0.510437       -13.8897
   8   2.0000      -0.421430       -11.4677
   9   2.0000      -0.419333       -11.4106
  10   2.0000      -0.412916       -11.2360
  11   2.0000      -0.356534        -9.7018
  12   2.0000      -0.316874        -8.6226
  13   2.0000      -0.196450        -5.3457
  14   2.0000      -0.192458        -5.2370
  15   2.0000      -0.181578        -4.9410
  16   0.0000       0.132616         3.6087
  17   0.0000       0.143400         3.9021
  18   0.0000       0.145159         3.9500
  19   0.0000       0.184414         5.0182
  20   0.0000       0.221078         6.0158

MULLIKEN ATOMIC CHARGES
-----------------------
   0 C :   -0.643152
   1 C :    0.433207
   2 O :   -0.817938
   3 O :   -0.765467
   4 H :    0.296200
   5 H :    0.254151
   6 H :    0.242999
Sum of atomic charges:   -1.0000000

LOEWDIN ATOMIC CHARGES
----------------------
   0 C :    0.484103
   1 C :   -1.230170
   2 O :    0.204893
   3 O :    0.236963
   4 H :   -0.242653
   5 H :   -0.225340
   6 H :   -0.227796

  Mayer bond orders larger than 0.100000
B(  0-C ,  1-C ) :   0.7303 B(  0-C ,  4-H ) :   0.9116 B(  0-C ,  5-H ) :   0.9484
B(  0-C ,  6-H ) :   0.9586 B(  1-C ,  2-O ) :   1.4576 B(  1-C ,  3-O ) :   1.4635

E(0)                                       ...   -227.327421040
E(0)                                       ...   -227.327421040
E(CORR)(strong-pairs)                      ...     -0.836607182
E(CORR)(weak-pairs)                        ...     -0.000619579
E(CORR)(corrected)                         ...     -0.837226761
E(TOT)                                     ...   -228.164647801
E(CCSD(T))                                 ...   -228.200719937
FINAL SINGLE POINT ENERGY      -228.200719936773

DIPOLE MOMENT
-------------
                                X             Y             Z
Electronic contribution:      1.53010      -2.46055      -1.86156
Nuclear contribution   :     -2.19461       3.67480       2.63888
                        -----------------------------------------
Total Dipole Moment    :     -0.66450       1.21425       0.77732
                        -----------------------------------------
Magnitude (a.u.)       :      1.58751
Magnitude (Debye)      :      4.03514

Rotational constants in cm-1:     0.393152     0.332423     0.186264
Rotational constants in MHz : 11786.395082  9965.786704  5584.045355

                             ****ORCA TERMINATED NORMALLY****
TOTAL RUN TIME: 0 days 0 hours 3 minutes 13 seconds 475 msec
