                         Program Version 5.0.0 -  RELEASE  -
|  1> !DLPNO-CCSD(T) aug-cc-pVTZ aug-cc-pVTZ/C TightSCF TightPNO RIJCOSX def2/J
|  2> *xyz 1 1
|  3> C          2.48645       -2.67712       -2.56345
|  4> C          3.03764       -2.36672       -3.92351
|  5> N          2.28036       -2.45441       -4.96769
|  6> N          4.32174       -2.01793       -4.01664
|  7> H          4.87994       -1.91167       -3.17382
|  8> H          4.71015       -1.67088       -4.88356
|  9> H          1.27042       -2.41265       -4.86614
| 10> H          2.58183       -2.05528       -5.84688
| 11> H          1.45238       -2.93848       -2.64882
| 12> H          2.58636       -1.81799       -1.93352
| 13> H          3.02742       -3.49632       -2.13781
| 14> *
| 15>
| 16> %MaxCore 64000
| 17>
| 18> %pal nprocs 2
| 19> end
| 20>
| 21> %scf
| 22>   MaxIter 150
| 23> end
| 24>
| 25>
| 26>                          ****END OF INPUT****

CARTESIAN COORDINATES (ANGSTROEM)
---------------------------------
  C      2.486450   -2.677120   -2.563450
  C      3.037640   -2.366720   -3.923510
  N      2.280360   -2.454410   -4.967690
  N      4.321740   -2.017930   -4.016640
  H      4.879940   -1.911670   -3.173820
  H      4.710150   -1.670880   -4.883560
  H      1.270420   -2.412650   -4.866140
  H      2.581830   -2.055280   -5.846880
  H      1.452380   -2.938480   -2.648820
  H      2.586360   -1.817990   -1.933520
  H      3.027420   -3.496320   -2.137810

 Total Charge           Charge          ....    1
 Multiplicity           Mult            ....    1
 Number of Electrons    NEL             ....   32
 Basis Dimension        Dim             ....  345

ORBITAL ENERGIES
----------------

  NO   OCC          E(Eh)            E(eV)
   0   2.0000     -15.816418      -430.3866
   1   2.0000     -15.809658      -430.2027
   2   2.0000     -11.581991      -315.1620
   3   2.0000     -11.425900      -310.9145
   4   2.0000      -1.532957       -41.7139
   5   2.0000      -1.412412       -38.4337
   6   2.0000      -1.217436       -33.1281
   7   2.0000      -1.058950       -28.8155
   8   2.0000      -0.965316       -26.2676
   9   2.0000      -0.953407       -25.9435
  10   2.0000      -0.874764       -23.8035
  11   2.0000      -0.825282       -22.4571
  12   2.0000      -0.772630       -21.0243
  13   2.0000      -0.762985       -20.7619
  14   2.0000      -0.733639       -19.9633
  15   2.0000      -0.638655       -17.3787
  16   0.0000      -0.103140        -2.8066
  17   0.0000      -0.077685        -2.1139
  18   0.0000      -0.074337        -2.0228
  19   0.0000      -0.072414        -1.9705
  20   0.0000      -0.050309        -1.3690

MULLIKEN ATOMIC CHARGES
-----------------------
   0 C :   -0.600521
   1 C :    0.613270
   2 N :   -0.319379
   3 N :   -0.328337
   4 H :    0.131957
   5 H :    0.179368
   6 H :    0.129347
   7 H :    0.181710
   8 H :    0.312611
   9 H :    0.347606
  10 H :    0.352369
Sum of atomic charges:    1.0000000

LOEWDIN ATOMIC CHARGES
----------------------
   0 C :    0.701774
   1 C :   -0.216126
   2 N :    0.941916
   3 N :    0.944912
   4 H :   -0.228073
   5 H :   -0.234546
   6 H :   -0.222242
   7 H :   -0.225406
   8 H :   -0.163752
   9 H :   -0.149996
  10 H :   -0.148462

  Mayer bond orders larger than 0.100000
B(  0-C ,  1-C ) :   0.4962 B(  0-C ,  8-H ) :   0.9637 B(  0-C ,  9-H ) :   0.8861
B(  0-C , 10-H ) :   0.9071 B(  1-C ,  2-N ) :   0.9556 B(  1-C ,  3-N ) :   1.0707
B(  2-N ,  6-H ) :   1.0854 B(  2-N ,  7-H ) :   1.0328 B(  3-N ,  4-H ) :   1.0956
B(  3-N ,  5-H ) :   1.0274

E(0)                                       ...   -188.592438676
E(0)                                       ...   -188.592438676
E(CORR)(strong-pairs)                      ...     -0.782028362
E(CORR)(weak-pairs)                        ...     -0.000662710
E(CORR)(corrected)                         ...     -0.782691072
E(TOT)                                     ...   -189.375129748
E(CCSD(T))                                 ...   -189.405896684
FINAL SINGLE POINT ENERGY      -189.405896684250

DIPOLE MOMENT
-------------
                                X             Y             Z
Electronic contribution:      0.74355       0.25648      -1.90197
Nuclear contribution   :     -0.70516       0.22720       1.57908
                        -----------------------------------------
Total Dipole Moment    :      0.03839       0.48369      -0.32289
                        -----------------------------------------
Magnitude (a.u.)       :      0.58282
Magnitude (Debye)      :      1.48142

Rotational constants in cm-1:     0.330529     0.301293     0.162717
Rotational constants in MHz :  9909.000224  9032.538169  4878.126278

                             ****ORCA TERMINATED NORMALLY****
TOTAL RUN TIME: 0 days 0 hours 47 minutes 44 seconds 42 msec
