                         Program Version 5.0.0 -  RELEASE  -
|  1> !DLPNO-CCSD(T) aug-cc-pVTZ aug-cc-pVTZ/C TightSCF TightPNO RIJCOSX def2/J
|  2> *xyz 0 1
|  3> C         -0.47749        0.60819       -4.10105
|  4> C          0.18467       -0.50664       -4.91676
|  5> F         -0.15869       -1.70109       -4.65798
|  6> O          1.05594       -0.17441       -5.74037
|  7> H         -0.09903        1.55672       -4.42038
|  8> H         -0.25931        0.46828       -3.06292
|  9> H         -1.53664        0.57826       -4.25010
| 10> *
| 11>
| 12> %MaxCore 64000
| 13>
| 14> %pal nprocs 8
| 15> end
| 16>
| 17> %scf
| 18>   MaxIter 150
| 19> end
| 20>
| 21>
| 22>                          ****END OF INPUT****

CARTESIAN COORDINATES (ANGSTROEM)
---------------------------------
  C     -0.477490    0.608190   -4.101050
  C      0.184670   -0.506640   -4.916760
  F     -0.158690   -1.701090   -4.657980
  O      1.055940   -0.174410   -5.740370
  H     -0.099030    1.556720   -4.420380
  H     -0.259310    0.468280   -3.062920
  H     -1.536640    0.578260   -4.250100

 Total Charge           Charge          ....    0
 Multiplicity           Mult            ....    1
 Number of Electrons    NEL             ....   32
 Basis Dimension        Dim             ....  253

ORBITAL ENERGIES
----------------

  NO   OCC          E(Eh)            E(eV)
   0   2.0000     -26.373874      -717.6696
   1   2.0000     -20.568010      -559.6840
   2   2.0000     -11.434410      -311.1461
   3   2.0000     -11.256899      -306.3158
   4   2.0000      -1.721697       -46.8498
   5   2.0000      -1.385414       -37.6990
   6   2.0000      -1.040875       -28.3237
   7   2.0000      -0.895262       -24.3613
   8   2.0000      -0.773236       -21.0408
   9   2.0000      -0.766034       -20.8448
  10   2.0000      -0.712754       -19.3950
  11   2.0000      -0.613853       -16.7038
  12   2.0000      -0.603523       -16.4227
  13   2.0000      -0.589094       -16.0301
  14   2.0000      -0.504286       -13.7223
  15   2.0000      -0.471535       -12.8311
  16   0.0000       0.025405         0.6913
  17   0.0000       0.041694         1.1346
  18   0.0000       0.047994         1.3060
  19   0.0000       0.063614         1.7310
  20   0.0000       0.097806         2.6614

MULLIKEN ATOMIC CHARGES
-----------------------
   0 C :   -0.733609
   1 C :    0.597143
   2 F :   -0.256160
   3 O :   -0.563719
   4 H :    0.334504
   5 H :    0.316435
   6 H :    0.305406
Sum of atomic charges:    0.0000000

LOEWDIN ATOMIC CHARGES
----------------------
   0 C :    0.585627
   1 C :   -0.922543
   2 F :    0.554228
   3 O :    0.380292
   4 H :   -0.200533
   5 H :   -0.197339
   6 H :   -0.199732

  Mayer bond orders larger than 0.100000
B(  0-C ,  1-C ) :   0.8551 B(  0-C ,  4-H ) :   0.8963 B(  0-C ,  5-H ) :   0.9027
B(  0-C ,  6-H ) :   0.9155 B(  1-C ,  2-F ) :   0.9109 B(  1-C ,  3-O ) :   1.7154

E(0)                                       ...   -251.884165159
E(0)                                       ...   -251.884165159
E(CORR)(strong-pairs)                      ...     -0.837656579
E(CORR)(weak-pairs)                        ...     -0.000612205
E(CORR)(corrected)                         ...     -0.838268784
E(TOT)                                     ...   -252.722433943
E(CCSD(T))                                 ...   -252.754958061
FINAL SINGLE POINT ENERGY      -252.754958061176

DIPOLE MOMENT
-------------
                                X             Y             Z
Electronic contribution:      0.99795      -4.62943      -1.53233
Nuclear contribution   :     -1.87439       4.97468       2.43802
                        -----------------------------------------
Total Dipole Moment    :     -0.87644       0.34525       0.90569
                        -----------------------------------------
Magnitude (a.u.)       :      1.30676
Magnitude (Debye)      :      3.32151

Rotational constants in cm-1:     0.370842     0.317886     0.176700
Rotational constants in MHz : 11117.569466  9529.969862  5297.328364

                             ****ORCA TERMINATED NORMALLY****
TOTAL RUN TIME: 0 days 0 hours 2 minutes 34 seconds 503 msec
