                         Program Version 5.0.0 -  RELEASE  -
|  1> !DLPNO-CCSD(T) aug-cc-pVTZ aug-cc-pVTZ/C TightSCF TightPNO RIJCOSX def2/J
|  2> *xyz 0 1
|  3> C          2.48645       -2.67712       -2.56345
|  4> C          3.03764       -2.36672       -3.92351
|  5> C          2.28036       -2.45441       -4.96769
|  6> N          4.32174       -2.01793       -4.01664
|  7> H          4.87994       -1.91167       -3.17382
|  8> H          4.71015       -1.67088       -4.88356
|  9> H          1.27042       -2.41265       -4.86614
| 10> H          2.58183       -2.05528       -5.84688
| 11> H          1.45238       -2.93848       -2.64882
| 12> H          2.58636       -1.81799       -1.93352
| 13> H          3.02742       -3.49632       -2.13781
| 14> *
| 15>
| 16> %MaxCore 64000
| 17>
| 18> %pal nprocs 2
| 19> end
| 20>
| 21> %scf
| 22>   MaxIter 150
| 23> end
| 24>
| 25>
| 26>                          ****END OF INPUT****

CARTESIAN COORDINATES (ANGSTROEM)
---------------------------------
  C      2.486450   -2.677120   -2.563450
  C      3.037640   -2.366720   -3.923510
  C      2.280360   -2.454410   -4.967690
  N      4.321740   -2.017930   -4.016640
  H      4.879940   -1.911670   -3.173820
  H      4.710150   -1.670880   -4.883560
  H      1.270420   -2.412650   -4.866140
  H      2.581830   -2.055280   -5.846880
  H      1.452380   -2.938480   -2.648820
  H      2.586360   -1.817990   -1.933520
  H      3.027420   -3.496320   -2.137810

 Total Charge           Charge          ....    0
 Multiplicity           Mult            ....    1
 Number of Electrons    NEL             ....   32
 Basis Dimension        Dim             ....  345

ORBITAL ENERGIES
----------------

  NO   OCC          E(Eh)            E(eV)
   0   2.0000     -15.561081      -423.4385
   1   2.0000     -11.258051      -306.3471
   2   2.0000     -11.215507      -305.1895
   3   2.0000     -11.148985      -303.3793
   4   2.0000      -1.233065       -33.5534
   5   2.0000      -1.032014       -28.0825
   6   2.0000      -0.946387       -25.7525
   7   2.0000      -0.771783       -21.0013
   8   2.0000      -0.700338       -19.0572
   9   2.0000      -0.653157       -17.7733
  10   2.0000      -0.595220       -16.1968
  11   2.0000      -0.557018       -15.1572
  12   2.0000      -0.551846       -15.0165
  13   2.0000      -0.497719       -13.5436
  14   2.0000      -0.482782       -13.1372
  15   2.0000      -0.301666        -8.2087
  16   0.0000       0.026684         0.7261
  17   0.0000       0.037617         1.0236
  18   0.0000       0.041533         1.1302
  19   0.0000       0.047504         1.2926
  20   0.0000       0.058385         1.5887

MULLIKEN ATOMIC CHARGES
-----------------------
   0 C :   -0.641787
   1 C :    0.838553
   2 C :   -1.414993
   3 N :   -0.539295
   4 H :    0.074327
   5 H :    0.078151
   6 H :    0.231425
   7 H :    0.484834
   8 H :    0.282916
   9 H :    0.305163
  10 H :    0.300704
Sum of atomic charges:    0.0000000

LOEWDIN ATOMIC CHARGES
----------------------
   0 C :    0.609501
   1 C :   -0.315326
   2 C :    0.542314
   3 N :    0.838178
   4 H :   -0.276549
   5 H :   -0.273384
   6 H :   -0.292835
   7 H :   -0.290823
   8 H :   -0.186440
   9 H :   -0.177654
  10 H :   -0.176982

  Mayer bond orders larger than 0.100000
B(  0-C ,  1-C ) :   0.5461 B(  0-C ,  8-H ) :   0.9895 B(  0-C ,  9-H ) :   0.9564
B(  0-C , 10-H ) :   0.9744 B(  1-C ,  2-C ) :   1.0931 B(  1-C ,  3-N ) :   0.8162
B(  2-C ,  3-N ) :  -0.1466 B(  2-C ,  6-H ) :   1.2048 B(  2-C ,  7-H ) :   0.6799
B(  3-N ,  4-H ) :   1.1357 B(  3-N ,  5-H ) :   1.1319

E(0)                                       ...   -172.156412015
E(0)                                       ...   -172.156412015
E(CORR)(strong-pairs)                      ...     -0.762521121
E(CORR)(weak-pairs)                        ...     -0.000652100
E(CORR)(corrected)                         ...     -0.763173221
E(TOT)                                     ...   -172.919585236
E(CCSD(T))                                 ...   -172.950436102
FINAL SINGLE POINT ENERGY      -172.950436101858

DIPOLE MOMENT
-------------
                                X             Y             Z
Electronic contribution:      1.41621       0.19852      -0.85086
Nuclear contribution   :     -0.87498       0.20680       1.33581
                        -----------------------------------------
Total Dipole Moment    :      0.54122       0.40531       0.48495
                        -----------------------------------------
Magnitude (a.u.)       :      0.83209
Magnitude (Debye)      :      2.11501

Rotational constants in cm-1:     0.351941     0.304186     0.168624
Rotational constants in MHz : 10550.928440  9119.266441  5055.221775

                             ****ORCA TERMINATED NORMALLY****
TOTAL RUN TIME: 0 days 0 hours 58 minutes 30 seconds 849 msec
