                         Program Version 5.0.0 -  RELEASE  -
|  1> !DLPNO-CCSD(T) aug-cc-pVTZ aug-cc-pVTZ/C TightSCF TightPNO RIJCOSX def2/J
|  2> *xyz 0 1
|  3> C          2.48645       -2.67712       -2.56345
|  4> C          3.03764       -2.36672       -3.92351
|  5> N          2.28036       -2.45441       -4.96769
|  6> C          4.32174       -2.01793       -4.01664
|  7> H          4.87994       -1.91167       -3.17382
|  8> H          4.71015       -1.67088       -4.88356
|  9> H          1.27042       -2.41265       -4.86614
| 10> H          2.58183       -2.05528       -5.84688
| 11> H          1.45238       -2.93848       -2.64882
| 12> H          2.58636       -1.81799       -1.93352
| 13> H          3.02742       -3.49632       -2.13781
| 14> *
| 15>
| 16> %MaxCore 64000
| 17>
| 18> %pal nprocs 2
| 19> end
| 20>
| 21> %scf
| 22>   MaxIter 150
| 23> end
| 24>
| 25>
| 26>                          ****END OF INPUT****

CARTESIAN COORDINATES (ANGSTROEM)
---------------------------------
  C      2.486450   -2.677120   -2.563450
  C      3.037640   -2.366720   -3.923510
  N      2.280360   -2.454410   -4.967690
  C      4.321740   -2.017930   -4.016640
  H      4.879940   -1.911670   -3.173820
  H      4.710150   -1.670880   -4.883560
  H      1.270420   -2.412650   -4.866140
  H      2.581830   -2.055280   -5.846880
  H      1.452380   -2.938480   -2.648820
  H      2.586360   -1.817990   -1.933520
  H      3.027420   -3.496320   -2.137810

 Total Charge           Charge          ....    0
 Multiplicity           Mult            ....    1
 Number of Electrons    NEL             ....   32
 Basis Dimension        Dim             ....  345

ORBITAL ENERGIES
----------------

  NO   OCC          E(Eh)            E(eV)
   0   2.0000     -15.565578      -423.5609
   1   2.0000     -11.259041      -306.3741
   2   2.0000     -11.215728      -305.1955
   3   2.0000     -11.149196      -303.3850
   4   2.0000      -1.252340       -34.0779
   5   2.0000      -1.026511       -27.9328
   6   2.0000      -0.937730       -25.5169
   7   2.0000      -0.782912       -21.3041
   8   2.0000      -0.701608       -19.0917
   9   2.0000      -0.650969       -17.7138
  10   2.0000      -0.594552       -16.1786
  11   2.0000      -0.554668       -15.0933
  12   2.0000      -0.551105       -14.9963
  13   2.0000      -0.502856       -13.6834
  14   2.0000      -0.495156       -13.4739
  15   2.0000      -0.287719        -7.8292
  16   0.0000       0.026016         0.7079
  17   0.0000       0.037436         1.0187
  18   0.0000       0.041887         1.1398
  19   0.0000       0.050229         1.3668
  20   0.0000       0.058009         1.5785

MULLIKEN ATOMIC CHARGES
-----------------------
   0 C :   -0.700981
   1 C :    0.684690
   2 N :   -0.505813
   3 C :   -1.290710
   4 H :    0.297106
   5 H :    0.532124
   6 H :    0.056490
   7 H :    0.061158
   8 H :    0.273908
   9 H :    0.304819
  10 H :    0.287209
Sum of atomic charges:   -0.0000000

LOEWDIN ATOMIC CHARGES
----------------------
   0 C :    0.611515
   1 C :   -0.323937
   2 N :    0.826968
   3 C :    0.553919
   4 H :   -0.294885
   5 H :   -0.298054
   6 H :   -0.271637
   7 H :   -0.264829
   8 H :   -0.192475
   9 H :   -0.173864
  10 H :   -0.172721

  Mayer bond orders larger than 0.100000
B(  0-C ,  1-C ) :   0.7197 B(  0-C ,  8-H ) :   0.9880 B(  0-C ,  9-H ) :   0.9186
B(  0-C , 10-H ) :   0.9900 B(  1-C ,  2-N ) :   0.6933 B(  1-C ,  3-C ) :   1.3092
B(  2-N ,  3-C ) :  -0.2075 B(  2-N ,  6-H ) :   1.1301 B(  2-N ,  7-H ) :   1.1637
B(  3-C ,  4-H ) :   1.1209 B(  3-C ,  5-H ) :   0.6609

E(0)                                       ...   -172.156175760
E(0)                                       ...   -172.156175760
E(CORR)(strong-pairs)                      ...     -0.762754027
E(CORR)(weak-pairs)                        ...     -0.000644477
E(CORR)(corrected)                         ...     -0.763398504
E(TOT)                                     ...   -172.919574265
E(CCSD(T))                                 ...   -172.950541233
FINAL SINGLE POINT ENERGY      -172.950541233436

DIPOLE MOMENT
-------------
                                X             Y             Z
Electronic contribution:     -0.43388      -0.12483      -1.68491
Nuclear contribution   :     -0.41717       0.30469       1.54910
                        -----------------------------------------
Total Dipole Moment    :     -0.85105       0.17986      -0.13581
                        -----------------------------------------
Magnitude (a.u.)       :      0.88039
Magnitude (Debye)      :      2.23777

Rotational constants in cm-1:     0.351587     0.304754     0.168726
Rotational constants in MHz : 10540.302868  9136.286689  5058.281984

                             ****ORCA TERMINATED NORMALLY****
TOTAL RUN TIME: 0 days 1 hours 0 minutes 40 seconds 433 msec
