                         Program Version 5.0.0 -  RELEASE  -
|  1> !DLPNO-CCSD(T) aug-cc-pVTZ aug-cc-pVTZ/C TightSCF TightPNO RIJCOSX def2/J
|  2>
|  3> *xyzfile 0 1 D2.xyz
|  4>
|  5> %MaxCore 64000
|  6>
|  7> %pal nprocs 18
|  8> end
|  9>
| 10> %scf
| 11>   MaxIter 150
| 12> end
| 13>
| 14>
| 15>                          ****END OF INPUT****

CARTESIAN COORDINATES (ANGSTROEM)
---------------------------------
  C      2.486452   -2.677121   -2.563447
  C     -0.870963    0.248043   -2.662804
  C     -0.477492    0.608191   -4.101052
  H      0.206773    1.458299   -4.118748
  H     -1.368442    0.929419   -4.647855
  C      0.184673   -0.506640   -4.916760
  C      3.037640   -2.366715   -3.923509
  N      2.280360   -2.454408   -4.967692
  C      4.321736   -2.017932   -4.016641
  H      4.879940   -1.911668   -3.173823
  H      4.710148   -1.670882   -4.883561
  H      1.270423   -2.412650   -4.866143
  H      2.581829   -2.055282   -5.846878
  F     -0.158685   -1.701088   -4.657981
  O      1.055938   -0.174410   -5.740373
  C      2.497991   -1.469464   -1.610303
  C      1.582841   -0.321986   -2.042619
  H      2.193083   -1.833912   -0.625420
  H      3.523356   -1.103982   -1.490392
  C      0.100160   -0.673551   -1.915815
  H      1.822311   -0.040361   -3.072834
  H      1.813180    0.557019   -1.433266
  H     -0.063284   -1.679120   -2.301112
  H     -0.168820   -0.691680   -0.853831
  H     -1.001048    1.181040   -2.104071
  H     -1.844645   -0.246592   -2.663281
  H      1.472592   -3.051527   -2.694366
  H      3.083201   -3.490638   -2.141472

 Total Charge           Charge          ....    0
 Multiplicity           Mult            ....    1
 Number of Electrons    NEL             ....   94
 Basis Dimension        Dim             ....  920

ORBITAL ENERGIES
----------------

  NO   OCC          E(Eh)            E(eV)
   0   2.0000     -26.399774      -718.3744
   1   2.0000     -20.579793      -560.0046
   2   2.0000     -15.533722      -422.6941
   3   2.0000     -11.446648      -311.4791
   4   2.0000     -11.269650      -306.6628
   5   2.0000     -11.248076      -306.0757
   6   2.0000     -11.243107      -305.9405
   7   2.0000     -11.232397      -305.6491
   8   2.0000     -11.224916      -305.4455
   9   2.0000     -11.222100      -305.3689
  10   2.0000     -11.219659      -305.3025
  11   2.0000     -11.135035      -302.9997
  12   2.0000      -1.756017       -47.7836
  13   2.0000      -1.401169       -38.1278
  14   2.0000      -1.233828       -33.5742
  15   2.0000      -1.117916       -30.4200
  16   2.0000      -1.070401       -29.1271
  17   2.0000      -1.019751       -27.7488
  18   2.0000      -0.965758       -26.2796
  19   2.0000      -0.937068       -25.4989
  20   2.0000      -0.906625       -24.6705
  21   2.0000      -0.853707       -23.2305
  22   2.0000      -0.820993       -22.3404
  23   2.0000      -0.804050       -21.8793
  24   2.0000      -0.790450       -21.5092
  25   2.0000      -0.742138       -20.1946
  26   2.0000      -0.709918       -19.3178
  27   2.0000      -0.674823       -18.3629
  28   2.0000      -0.657176       -17.8827
  29   2.0000      -0.653754       -17.7895
  30   2.0000      -0.645284       -17.5591
  31   2.0000      -0.617588       -16.8054
  32   2.0000      -0.595823       -16.2132
  33   2.0000      -0.585393       -15.9294
  34   2.0000      -0.563400       -15.3309
  35   2.0000      -0.549412       -14.9503
  36   2.0000      -0.539323       -14.6757
  37   2.0000      -0.533891       -14.5279
  38   2.0000      -0.517293       -14.0763
  39   2.0000      -0.501736       -13.6529
  40   2.0000      -0.490040       -13.3347
  41   2.0000      -0.486432       -13.2365
  42   2.0000      -0.478076       -13.0091
  43   2.0000      -0.461842       -12.5674
  44   2.0000      -0.454724       -12.3737
  45   2.0000      -0.450431       -12.2569
  46   2.0000      -0.270940        -7.3727
  47   0.0000       0.021282         0.5791
  48   0.0000       0.030754         0.8368
  49   0.0000       0.032183         0.8757
  50   0.0000       0.037940         1.0324
  51   0.0000       0.046716         1.2712

MULLIKEN ATOMIC CHARGES
-----------------------
   0 C :    0.132655
   1 C :   -0.654301
   2 C :   -0.252030
   3 H :    0.222168
   4 H :    0.385530
   5 C :    1.027191
   6 C :    1.243775
   7 N :   -0.756250
   8 C :   -1.754212
   9 H :    0.219401
  10 H :    0.411388
  11 H :    0.241311
  12 H :   -0.050550
  13 F :   -0.469702
  14 O :   -0.918230
  15 C :   -0.635619
  16 C :   -0.418407
  17 H :    0.216670
  18 H :    0.232520
  19 C :   -0.343245
  20 H :    0.159503
  21 H :    0.252498
  22 H :    0.347052
  23 H :    0.321168
  24 H :    0.295080
  25 H :    0.190939
  26 H :   -0.155310
  27 H :    0.509006
Sum of atomic charges:   -0.0000000

LOEWDIN ATOMIC CHARGES
----------------------
   0 C :    0.306736
   1 C :    0.297662
   2 C :    0.290173
   3 H :   -0.157226
   4 H :   -0.147232
   5 C :   -0.850166
   6 C :   -0.305295
   7 N :    0.828431
   8 C :    0.564985
   9 H :   -0.297470
  10 H :   -0.289568
  11 H :   -0.558990
  12 H :   -0.275679
  13 F :    0.725776
  14 O :    0.474580
  15 C :    0.310551
  16 C :    0.297676
  17 H :   -0.140918
  18 H :   -0.146863
  19 C :    0.286746
  20 H :   -0.178838
  21 H :   -0.126726
  22 H :   -0.196432
  23 H :   -0.127089
  24 H :   -0.136167
  25 H :   -0.147599
  26 H :   -0.172673
  27 H :   -0.128382

  Mayer bond orders larger than 0.100000
B(  0-C ,  6-C ) :   0.4758 B(  0-C ,  7-N ) :  -0.1107 B(  0-C ,  8-C ) :  -0.1606
B(  0-C , 15-C ) :   0.8427 B(  0-C , 26-H ) :   1.1634 B(  0-C , 27-H ) :   0.9361
B(  1-C ,  2-C ) :   0.9149 B(  1-C ,  5-C ) :   0.1376 B(  1-C , 19-C ) :   0.8709
B(  1-C , 24-H ) :   0.9154 B(  1-C , 25-H ) :   1.0601 B(  2-C ,  3-H ) :   1.0192
B(  2-C ,  4-H ) :   0.8833 B(  2-C ,  5-C ) :   0.7771 B(  2-C , 13-F ) :   0.1119
B(  4-H ,  5-C ) :  -0.1256 B(  5-C , 13-F ) :   0.6891 B(  5-C , 14-O ) :   1.3332
B(  6-C ,  7-N ) :   0.1991 B(  6-C ,  8-C ) :   0.8140 B(  6-C ,  9-H ) :  -0.1250
B(  6-C , 12-H ) :  -0.2226 B(  6-C , 15-C ) :   0.2200 B(  6-C , 26-H ) :   0.2318
B(  6-C , 27-H ) :  -0.2610 B(  7-N , 11-H ) :   1.0571 B(  7-N , 12-H ) :   1.3191
B(  8-C ,  9-H ) :   1.3615 B(  8-C , 10-H ) :   0.8313 B(  8-C , 27-H ) :  -0.1326
B( 11-H , 13-F ) :  -0.1568 B( 13-F , 19-C ) :  -0.1043 B( 13-F , 22-H ) :  -0.1447
B( 15-C , 16-C ) :   0.8893 B( 15-C , 17-H ) :   1.0097 B( 15-C , 18-H ) :   0.9909
B( 16-C , 19-C ) :   0.6517 B( 16-C , 20-H ) :   1.0602 B( 16-C , 21-H ) :   0.9926
B( 19-C , 22-H ) :   1.0620 B( 19-C , 23-H ) :   0.9210 B( 26-H , 27-H ) :  -0.1022

E(0)                                       ...   -579.028257377
E(0)                                       ...   -579.028257377
E(CORR)(strong-pairs)                      ...     -2.331924758
E(CORR)(weak-pairs)                        ...     -0.003531935
E(CORR)(corrected)                         ...     -2.335456693
E(TOT)                                     ...   -581.363714070
E(CCSD(T))                                 ...   -581.461642423
FINAL SINGLE POINT ENERGY      -581.461642422798

DIPOLE MOMENT
-------------
                                X             Y             Z
Electronic contribution:     -5.47848      -1.75081     -10.73107
Nuclear contribution   :      3.65024       2.44123      11.52670
                        -----------------------------------------
Total Dipole Moment    :     -1.82824       0.69043       0.79564
                        -----------------------------------------
Magnitude (a.u.)       :      2.11002
Magnitude (Debye)      :      5.36324

Rotational constants in cm-1:     0.040600     0.026409     0.019262
Rotational constants in MHz :  1217.142957   791.712481   577.449390

                             ****ORCA TERMINATED NORMALLY****
TOTAL RUN TIME: 0 days 3 hours 52 minutes 14 seconds 173 msec
