                         Program Version 5.0.0 -  RELEASE  -
|  1> !CAM-B3LYP RIJCOSX def2-TZVPD def2/J TightSCF
|  2> *xyz -1 1
|  3> C         -1.91658       -2.48508       -3.64367
|  4> C         -1.36353       -1.98134       -2.29361
|  5> O         -0.35039       -2.74969       -1.79601
|  6> H         -2.22622       -1.90839       -1.60204
|  7> H         -1.05135       -0.91567       -2.44333
|  8> H         -1.11522       -2.57167       -4.34739
|  9> H         -2.64227       -1.79099       -4.01314
| 10> H         -2.37564       -3.44180       -3.50640
| 11> *
| 12>
| 13> %MaxCore 64000
| 14> %pal nprocs 4
| 15> end
| 16>
| 17> %scf
| 18>   MaxIter 150
| 19> end
| 20>
| 21>
| 22>                          ****END OF INPUT****

CARTESIAN COORDINATES (ANGSTROEM)
---------------------------------
  C     -1.916580   -2.485080   -3.643670
  C     -1.363530   -1.981340   -2.293610
  O     -0.350390   -2.749690   -1.796010
  H     -2.226220   -1.908390   -1.602040
  H     -1.051350   -0.915670   -2.443330
  H     -1.115220   -2.571670   -4.347390
  H     -2.642270   -1.790990   -4.013140
  H     -2.375640   -3.441800   -3.506400

 Total Charge           Charge          ....   -1
 Multiplicity           Mult            ....    1
 Number of Electrons    NEL             ....   26
 Basis Dimension        Dim             ....  159

ORBITAL ENERGIES
----------------

  NO   OCC          E(Eh)            E(eV)
   0   2.0000     -18.865666      -513.3609
   1   2.0000     -10.058857      -273.7154
   2   2.0000     -10.034069      -273.0409
   3   2.0000      -0.762559       -20.7503
   4   2.0000      -0.607858       -16.5407
   5   2.0000      -0.449162       -12.2223
   6   2.0000      -0.320554        -8.7227
   7   2.0000      -0.297777        -8.1029
   8   2.0000      -0.240262        -6.5379
   9   2.0000      -0.223331        -6.0771
  10   2.0000      -0.180305        -4.9063
  11   2.0000      -0.034429        -0.9368
  12   2.0000      -0.032055        -0.8723
  13   0.0000       0.179190         4.8760
  14   0.0000       0.201729         5.4893
  15   0.0000       0.230198         6.2640
  16   0.0000       0.232094         6.3156
  17   0.0000       0.254264         6.9189

MULLIKEN ATOMIC CHARGES
-----------------------
   0 C :   -0.938323
   1 C :   -0.314084
   2 O :   -0.925993
   3 H :    0.194236
   4 H :    0.193996
   5 H :    0.237126
   6 H :    0.321846
   7 H :    0.231197
Sum of atomic charges:   -1.0000000

LOEWDIN ATOMIC CHARGES
----------------------
   0 C :   -0.169805
   1 C :   -0.627877
   2 O :   -0.420991
   3 H :    0.055206
   4 H :    0.058846
   5 H :    0.039138
   6 H :    0.027624
   7 H :    0.037859

  Mayer bond orders larger than 0.100000
B(  0-C ,  1-C ) :   0.7277 B(  0-C ,  2-O ) :   0.2646 B(  0-C ,  5-H ) :   1.0017
B(  0-C ,  6-H ) :   0.9536 B(  0-C ,  7-H ) :   0.9996 B(  1-C ,  2-O ) :   0.9691
B(  1-C ,  3-H ) :   1.0516 B(  1-C ,  4-H ) :   1.0483

FINAL SINGLE POINT ENERGY      -154.416648361370

DIPOLE MOMENT
-------------
                                X             Y             Z
Electronic contribution:      2.01270      -0.84782       1.82012
Nuclear contribution   :     -3.14382       1.30299      -2.83231
                        -----------------------------------------
Total Dipole Moment    :     -1.13112       0.45517      -1.01218
                        -----------------------------------------
Magnitude (a.u.)       :      1.58465
Magnitude (Debye)      :      4.02786

Rotational constants in cm-1:     1.288206     0.322942     0.285188
Rotational constants in MHz : 38619.437223  9681.562038  8549.712012

                             ****ORCA TERMINATED NORMALLY****
TOTAL RUN TIME: 0 days 0 hours 0 minutes 23 seconds 59 msec
