                         Program Version 5.0.0 -  RELEASE  -
|  1> !CAM-B3LYP RIJCOSX def2-TZVPD def2/J TightSCF
|  2> *xyz 1 1
|  3> C          1.64703       -2.34528       -5.02041
|  4> C          2.20996       -2.81239       -3.66571
|  5> C          2.48901       -1.66851       -2.73754
|  6> N          3.59631       -0.94761       -2.95225
|  7> N          1.66394       -1.41369       -1.77781
|  8> H          0.81164       -1.96318       -1.70275
|  9> H          1.84550       -0.63508       -1.15875
| 10> H          4.20535       -1.17600       -3.73383
| 11> H          3.81723       -0.12585       -2.40604
| 12> H          3.14311       -3.36280       -3.81152
| 13> H          1.48768       -3.45893       -3.16521
| 14> H          1.46566       -3.19589       -5.64368
| 15> H          2.35406       -1.69850       -5.49654
| 16> H          0.73014       -1.81680       -4.86253
| 17> *
| 18>
| 19> %MaxCore 64000
| 20> %pal nprocs 4
| 21> end
| 22>
| 23> %scf
| 24>   MaxIter 150
| 25> end
| 26>
| 27>
| 28>                          ****END OF INPUT****

CARTESIAN COORDINATES (ANGSTROEM)
---------------------------------
  C      1.647030   -2.345280   -5.020410
  C      2.209960   -2.812390   -3.665710
  C      2.489010   -1.668510   -2.737540
  N      3.596310   -0.947610   -2.952250
  N      1.663940   -1.413690   -1.777810
  H      0.811640   -1.963180   -1.702750
  H      1.845500   -0.635080   -1.158750
  H      4.205350   -1.176000   -3.733830
  H      3.817230   -0.125850   -2.406040
  H      3.143110   -3.362800   -3.811520
  H      1.487680   -3.458930   -3.165210
  H      1.465660   -3.195890   -5.643680
  H      2.354060   -1.698500   -5.496540
  H      0.730140   -1.816800   -4.862530

 Total Charge           Charge          ....    1
 Multiplicity           Mult            ....    1
 Number of Electrons    NEL             ....   40
 Basis Dimension        Dim             ....  266

ORBITAL ENERGIES
----------------

  NO   OCC          E(Eh)            E(eV)
   0   2.0000     -14.640757      -398.3952
   1   2.0000     -14.631056      -398.1313
   2   2.0000     -10.569796      -287.6188
   3   2.0000     -10.442736      -284.1613
   4   2.0000     -10.397759      -282.9374
   5   2.0000      -1.290247       -35.1094
   6   2.0000      -1.192006       -32.4361
   7   2.0000      -1.051622       -28.6161
   8   2.0000      -0.939186       -25.5565
   9   2.0000      -0.893611       -24.3164
  10   2.0000      -0.848351       -23.0848
  11   2.0000      -0.824907       -22.4469
  12   2.0000      -0.773938       -21.0599
  13   2.0000      -0.720613       -19.6089
  14   2.0000      -0.692981       -18.8570
  15   2.0000      -0.682736       -18.5782
  16   2.0000      -0.610629       -16.6161
  17   2.0000      -0.602299       -16.3894
  18   2.0000      -0.597221       -16.2512
  19   2.0000      -0.557189       -15.1619
  20   0.0000      -0.162025        -4.4089
  21   0.0000      -0.136849        -3.7239
  22   0.0000      -0.096180        -2.6172
  23   0.0000      -0.091541        -2.4910
  24   0.0000      -0.069950        -1.9034

MULLIKEN ATOMIC CHARGES
-----------------------
   0 C :   -1.077211
   1 C :   -0.549513
   2 C :    0.685705
   3 N :   -0.330730
   4 N :   -0.264909
   5 H :    0.238064
   6 H :    0.211350
   7 H :    0.232838
   8 H :    0.199166
   9 H :    0.316060
  10 H :    0.313927
  11 H :    0.339953
  12 H :    0.338779
  13 H :    0.346521
Sum of atomic charges:    1.0000000

LOEWDIN ATOMIC CHARGES
----------------------
   0 C :   -0.054311
   1 C :   -0.149102
   2 C :   -0.361976
   3 N :    0.222107
   4 N :    0.239589
   5 H :    0.157762
   6 H :    0.152574
   7 H :    0.147443
   8 H :    0.141531
   9 H :    0.134972
  10 H :    0.124996
  11 H :    0.086276
  12 H :    0.075383
  13 H :    0.082755

  Mayer bond orders larger than 0.100000
B(  0-C ,  1-C ) :   0.6194 B(  0-C , 11-H ) :   0.9701 B(  0-C , 12-H ) :   0.9204
B(  0-C , 13-H ) :   0.9540 B(  1-C ,  2-C ) :   0.7161 B(  1-C ,  9-H ) :   0.9551
B(  1-C , 10-H ) :   0.9588 B(  2-C ,  3-N ) :   1.1253 B(  2-C ,  4-N ) :   1.2410
B(  3-N ,  7-H ) :   0.9497 B(  3-N ,  8-H ) :   1.0177 B(  4-N ,  5-H ) :   0.9398
B(  4-N ,  6-H ) :   1.0051

FINAL SINGLE POINT ENERGY      -228.998103396554

DIPOLE MOMENT
-------------
                                X             Y             Z
Electronic contribution:      1.18837       1.64183       3.61505
Nuclear contribution   :     -0.98617      -1.03178      -2.77619
                        -----------------------------------------
Total Dipole Moment    :      0.20221       0.61005       0.83886
                        -----------------------------------------
Magnitude (a.u.)       :      1.05676
Magnitude (Debye)      :      2.68607

Rotational constants in cm-1:     0.257311     0.127495     0.099037
Rotational constants in MHz :  7713.982239  3822.189706  2969.039713

                             ****ORCA TERMINATED NORMALLY****
TOTAL RUN TIME: 0 days 0 hours 0 minutes 57 seconds 630 msec
