                         Program Version 5.0.0 -  RELEASE  -
|  1> !CAM-B3LYP RIJCOSX def2-TZVPD def2/J TightSCF xyzfile
|  2>
|  3> *xyzfile 0 1 B.xyz
|  4>
|  5> %MaxCore 64000
|  6>
|  7> %pal nprocs 4
|  8> end
|  9>
| 10> %scf
| 11>   MaxIter 150
| 12> end
| 13>
| 14>
| 15>                          ****END OF INPUT****

CARTESIAN COORDINATES (ANGSTROEM)
---------------------------------
  C      1.647032   -2.345276   -5.020411
  C      0.217628   -1.814022   -4.924389
  C      2.209964   -2.812388   -3.665708
  C     -0.811356   -2.908780   -4.607625
  C     -1.916579   -2.485081   -3.643665
  H     -2.554525   -1.712428   -4.091993
  C     -1.363531   -1.981337   -2.293608
  H     -2.553448   -3.355667   -3.458815
  O     -0.350395   -2.749689   -1.796006
  H      2.308385   -1.588704   -5.457128
  H      1.674286   -3.203478   -5.697392
  C      2.489007   -1.668510   -2.737538
  N      3.596314   -0.947608   -2.952247
  N      1.663936   -1.413685   -1.777806
  H      0.811642   -1.963178   -1.702755
  H      1.845503   -0.635078   -1.158749
  H      4.205351   -1.176003   -3.733825
  H      3.817230   -0.125845   -2.406041
  H     -1.244829   -3.280884   -5.541040
  H     -0.306331   -3.757746   -4.142734
  H     -0.036244   -1.318555   -5.865303
  H      0.175004   -1.035382   -4.158095
  H      3.143106   -3.362803   -3.811524
  H      1.487683   -3.458935   -3.165211
  H     -2.226220   -1.908386   -1.602039
  H     -1.051353   -0.915671   -2.443331

 Total Charge           Charge          ....    0
 Multiplicity           Mult            ....    1
 Number of Electrons    NEL             ....   80
 Basis Dimension        Dim             ....  517

ORBITAL ENERGIES
----------------

  NO   OCC          E(Eh)            E(eV)
   0   2.0000     -19.052403      -518.4422
   1   2.0000     -14.466554      -393.6550
   2   2.0000     -14.421252      -392.4222
   3   2.0000     -10.386719      -282.6370
   4   2.0000     -10.269186      -279.4387
   5   2.0000     -10.256711      -279.0993
   6   2.0000     -10.226591      -278.2797
   7   2.0000     -10.217425      -278.0303
   8   2.0000     -10.206675      -277.7377
   9   2.0000     -10.189666      -277.2749
  10   2.0000      -1.107223       -30.1291
  11   2.0000      -1.012334       -27.5470
  12   2.0000      -0.959081       -26.0979
  13   2.0000      -0.900372       -24.5004
  14   2.0000      -0.837008       -22.7761
  15   2.0000      -0.785253       -21.3678
  16   2.0000      -0.728375       -19.8201
  17   2.0000      -0.709461       -19.3054
  18   2.0000      -0.670292       -18.2396
  19   2.0000      -0.665018       -18.0961
  20   2.0000      -0.637606       -17.3501
  21   2.0000      -0.596244       -16.2246
  22   2.0000      -0.574256       -15.6263
  23   2.0000      -0.557340       -15.1660
  24   2.0000      -0.535420       -14.5695
  25   2.0000      -0.510117       -13.8810
  26   2.0000      -0.499807       -13.6004
  27   2.0000      -0.471902       -12.8411
  28   2.0000      -0.457918       -12.4606
  29   2.0000      -0.455081       -12.3834
  30   2.0000      -0.421836       -11.4787
  31   2.0000      -0.414862       -11.2890
  32   2.0000      -0.404023       -10.9940
  33   2.0000      -0.384184       -10.4542
  34   2.0000      -0.374581       -10.1929
  35   2.0000      -0.363131        -9.8813
  36   2.0000      -0.354128        -9.6363
  37   2.0000      -0.347668        -9.4605
  38   2.0000      -0.232026        -6.3138
  39   2.0000      -0.225528        -6.1369
  40   0.0000      -0.003135        -0.0853
  41   0.0000       0.009298         0.2530
  42   0.0000       0.031934         0.8690
  43   0.0000       0.049257         1.3404
  44   0.0000       0.053101         1.4450

MULLIKEN ATOMIC CHARGES
-----------------------
   0 C :   -0.510393
   1 C :   -0.541492
   2 C :   -0.681565
   3 C :   -0.380101
   4 C :   -0.682350
   5 H :    0.260293
   6 C :   -0.462031
   7 H :    0.315245
   8 O :   -0.947655
   9 H :    0.275676
  10 H :    0.303041
  11 C :    0.416119
  12 N :   -0.359517
  13 N :   -0.241956
  14 H :    0.356583
  15 H :    0.131097
  16 H :    0.203924
  17 H :    0.171953
  18 H :    0.317744
  19 H :    0.194928
  20 H :    0.333228
  21 H :    0.252349
  22 H :    0.332096
  23 H :    0.411110
  24 H :    0.289109
  25 H :    0.242562
Sum of atomic charges:    0.0000000

LOEWDIN ATOMIC CHARGES
----------------------
   0 C :   -0.191501
   1 C :   -0.203241
   2 C :   -0.112441
   3 C :   -0.217881
   4 C :   -0.204552
   5 H :    0.104550
   6 C :   -0.435815
   7 H :    0.103599
   8 O :   -0.294959
   9 H :    0.103666
  10 H :    0.116678
  11 C :   -0.365510
  12 N :    0.174560
  13 N :    0.237145
  14 H :   -0.029446
  15 H :    0.139486
  16 H :    0.125112
  17 H :    0.121358
  18 H :    0.106852
  19 H :    0.096956
  20 H :    0.110701
  21 H :    0.095210
  22 H :    0.124264
  23 H :    0.112120
  24 H :    0.095582
  25 H :    0.087507

  Mayer bond orders larger than 0.100000
B(  0-C ,  1-C ) :   0.8856 B(  0-C ,  2-C ) :   0.7400 B(  0-C ,  3-C ) :   0.1374
B(  0-C ,  9-H ) :   0.8847 B(  0-C , 10-H ) :   0.9629 B(  0-C , 11-C ) :   0.1104
B(  1-C ,  3-C ) :   0.5791 B(  1-C ,  4-C ) :   0.1246 B(  1-C , 20-H ) :   0.9469
B(  1-C , 21-H ) :   0.9897 B(  2-C , 11-C ) :   0.8030 B(  2-C , 12-N ) :   0.1001
B(  2-C , 22-H ) :   0.9558 B(  2-C , 23-H ) :   0.9023 B(  3-C ,  4-C ) :   0.8801
B(  3-C ,  8-O ) :  -0.1258 B(  3-C , 18-H ) :   0.9552 B(  3-C , 19-H ) :   1.0042
B(  4-C ,  5-H ) :   1.0187 B(  4-C ,  6-C ) :   0.7846 B(  4-C ,  7-H ) :   0.9373
B(  4-C ,  8-O ) :   0.1060 B(  6-C ,  8-O ) :   0.8842 B(  6-C , 24-H ) :   0.9761
B(  6-C , 25-H ) :   1.0331 B(  8-O , 13-N ) :  -0.1361 B(  8-O , 14-H ) :   0.3542
B( 11-C , 12-N ) :   0.9952 B( 11-C , 13-N ) :   1.4183 B( 12-N , 16-H ) :   0.9908
B( 12-N , 17-H ) :   1.0168 B( 13-N , 14-H ) :   0.5554 B( 13-N , 15-H ) :   1.0382

FINAL SINGLE POINT ENERGY      -461.011711304810

DIPOLE MOMENT
-------------
                                X             Y             Z
Electronic contribution:      5.60043       0.89733       4.28396
Nuclear contribution   :     -2.25948       0.71378      -5.15247
                        -----------------------------------------
Total Dipole Moment    :      3.34095       1.61111      -0.86851
                        -----------------------------------------
Magnitude (a.u.)       :      3.80945
Magnitude (Debye)      :      9.68286

Rotational constants in cm-1:     0.063973     0.031829     0.024059
Rotational constants in MHz :  1917.874550   954.201145   721.285252

                             ****ORCA TERMINATED NORMALLY****
TOTAL RUN TIME: 0 days 0 hours 5 minutes 27 seconds 420 msec
