                         Program Version 5.0.0 -  RELEASE  -
|  1> !CAM-B3LYP RIJCOSX def2-TZVPD def2/J TightSCF
|  2> *xyz 0 1
|  3> C         -1.91658       -2.48508       -3.64367
|  4> C         -1.36353       -1.98134       -2.29361
|  5> F         -0.35039       -2.74969       -1.79601
|  6> H         -2.22622       -1.90839       -1.60204
|  7> H         -1.05135       -0.91567       -2.44333
|  8> H         -1.11522       -2.57167       -4.34739
|  9> H         -2.64227       -1.79099       -4.01314
| 10> H         -2.37564       -3.44180       -3.50640
| 11> *
| 12>
| 13> %MaxCore 64000
| 14> %pal nprocs 4
| 15> end
| 16>
| 17> %scf
| 18>   MaxIter 150
| 19> end
| 20>
| 21>
| 22>                          ****END OF INPUT****

CARTESIAN COORDINATES (ANGSTROEM)
---------------------------------
  C     -1.916580   -2.485080   -3.643670
  C     -1.363530   -1.981340   -2.293610
  F     -0.350390   -2.749690   -1.796010
  H     -2.226220   -1.908390   -1.602040
  H     -1.051350   -0.915670   -2.443330
  H     -1.115220   -2.571670   -4.347390
  H     -2.642270   -1.790990   -4.013140
  H     -2.375640   -3.441800   -3.506400

 Total Charge           Charge          ....    0
 Multiplicity           Mult            ....    1
 Number of Electrons    NEL             ....   26
 Basis Dimension        Dim             ....  159

ORBITAL ENERGIES
----------------

  NO   OCC          E(Eh)            E(eV)
   0   2.0000     -24.746367      -673.3829
   1   2.0000     -10.324965      -280.9566
   2   2.0000     -10.238937      -278.6156
   3   2.0000      -1.284239       -34.9459
   4   2.0000      -0.846984       -23.0476
   5   2.0000      -0.711316       -19.3559
   6   2.0000      -0.583173       -15.8690
   7   2.0000      -0.570144       -15.5144
   8   2.0000      -0.533130       -14.5072
   9   2.0000      -0.477383       -12.9903
  10   2.0000      -0.470644       -12.8069
  11   2.0000      -0.404275       -11.0009
  12   2.0000      -0.397617       -10.8197
  13   0.0000       0.035732         0.9723
  14   0.0000       0.060420         1.6441
  15   0.0000       0.080941         2.2025
  16   0.0000       0.083704         2.2777
  17   0.0000       0.112052         3.0491

MULLIKEN ATOMIC CHARGES
-----------------------
   0 C :   -0.935393
   1 C :   -0.127682
   2 F :   -0.295444
   3 H :    0.235993
   4 H :    0.232894
   5 H :    0.287460
   6 H :    0.322760
   7 H :    0.279412
Sum of atomic charges:    0.0000000

LOEWDIN ATOMIC CHARGES
----------------------
   0 C :   -0.084771
   1 C :   -0.295729
   2 F :   -0.042515
   3 H :    0.111102
   4 H :    0.116330
   5 H :    0.064936
   6 H :    0.066735
   7 H :    0.063912

  Mayer bond orders larger than 0.100000
B(  0-C ,  1-C ) :   0.7357 B(  0-C ,  5-H ) :   0.9561 B(  0-C ,  6-H ) :   0.9369
B(  0-C ,  7-H ) :   0.9606 B(  1-C ,  2-F ) :   0.8155 B(  1-C ,  3-H ) :   0.9792
B(  1-C ,  4-H ) :   0.9791

FINAL SINGLE POINT ENERGY      -179.062683564533

DIPOLE MOMENT
-------------
                                X             Y             Z
Electronic contribution:      3.60185      -1.34490       3.41854
Nuclear contribution   :     -4.15401       1.70894      -3.75000
                        -----------------------------------------
Total Dipole Moment    :     -0.55216       0.36404      -0.33146
                        -----------------------------------------
Magnitude (a.u.)       :      0.73978
Magnitude (Debye)      :      1.88037

Rotational constants in cm-1:     1.266842     0.300492     0.266603
Rotational constants in MHz : 37978.968232  9008.526876  7992.551454

                             ****ORCA TERMINATED NORMALLY****
TOTAL RUN TIME: 0 days 0 hours 0 minutes 18 seconds 556 msec
