                         Program Version 5.0.0 -  RELEASE  -
|  1> !CAM-B3LYP RIJCOSX def2-TZVPD def2/J TightSCF
|  2> *xyz 0 1
|  3> C          1.64703       -2.34528       -5.02041
|  4> C          2.20996       -2.81239       -3.66571
|  5> C          2.48901       -1.66851       -2.73754
|  6> C          3.59631       -0.94761       -2.95225
|  7> N          1.66394       -1.41369       -1.77781
|  8> H          0.81164       -1.96318       -1.70275
|  9> H          1.84550       -0.63508       -1.15875
| 10> H          4.20535       -1.17600       -3.73383
| 11> H          3.81723       -0.12585       -2.40604
| 12> H          3.14311       -3.36280       -3.81152
| 13> H          1.48768       -3.45893       -3.16521
| 14> H          1.46566       -3.19589       -5.64368
| 15> H          2.35406       -1.69850       -5.49654
| 16> H          0.73014       -1.81680       -4.86253
| 17> *
| 18>
| 19> %MaxCore 64000
| 20> %pal nprocs 4
| 21> end
| 22>
| 23> %scf
| 24>   MaxIter 150
| 25> end
| 26>
| 27>
| 28>                          ****END OF INPUT****

CARTESIAN COORDINATES (ANGSTROEM)
---------------------------------
  C      1.647030   -2.345280   -5.020410
  C      2.209960   -2.812390   -3.665710
  C      2.489010   -1.668510   -2.737540
  C      3.596310   -0.947610   -2.952250
  N      1.663940   -1.413690   -1.777810
  H      0.811640   -1.963180   -1.702750
  H      1.845500   -0.635080   -1.158750
  H      4.205350   -1.176000   -3.733830
  H      3.817230   -0.125850   -2.406040
  H      3.143110   -3.362800   -3.811520
  H      1.487680   -3.458930   -3.165210
  H      1.465660   -3.195890   -5.643680
  H      2.354060   -1.698500   -5.496540
  H      0.730140   -1.816800   -4.862530

 Total Charge           Charge          ....    0
 Multiplicity           Mult            ....    1
 Number of Electrons    NEL             ....   40
 Basis Dimension        Dim             ....  266

ORBITAL ENERGIES
----------------

  NO   OCC          E(Eh)            E(eV)
   0   2.0000     -14.394643      -391.6981
   1   2.0000     -10.265034      -279.3258
   2   2.0000     -10.243268      -278.7335
   3   2.0000     -10.226364      -278.2735
   4   2.0000     -10.171363      -276.7768
   5   2.0000      -1.023675       -27.8556
   6   2.0000      -0.862094       -23.4588
   7   2.0000      -0.789496       -21.4833
   8   2.0000      -0.717665       -19.5286
   9   2.0000      -0.642978       -17.4963
  10   2.0000      -0.604327       -16.4446
  11   2.0000      -0.552152       -15.0248
  12   2.0000      -0.512203       -13.9378
  13   2.0000      -0.481311       -13.0971
  14   2.0000      -0.462541       -12.5864
  15   2.0000      -0.449200       -12.2234
  16   2.0000      -0.417453       -11.3595
  17   2.0000      -0.401913       -10.9366
  18   2.0000      -0.399558       -10.8725
  19   2.0000      -0.242810        -6.6072
  20   0.0000       0.029521         0.8033
  21   0.0000       0.055110         1.4996
  22   0.0000       0.061190         1.6651
  23   0.0000       0.065741         1.7889
  24   0.0000       0.087498         2.3809

MULLIKEN ATOMIC CHARGES
-----------------------
   0 C :   -1.035062
   1 C :   -0.571093
   2 C :    0.789542
   3 C :   -1.218745
   4 N :   -0.336613
   5 H :    0.176827
   6 H :    0.161115
   7 H :    0.274502
   8 H :    0.281154
   9 H :    0.263666
  10 H :    0.292258
  11 H :    0.301579
  12 H :    0.319030
  13 H :    0.301841
Sum of atomic charges:    0.0000000

LOEWDIN ATOMIC CHARGES
----------------------
   0 C :   -0.091112
   1 C :   -0.201275
   2 C :   -0.509258
   3 C :    0.014675
   4 N :    0.108235
   5 H :    0.113198
   6 H :    0.118231
   7 H :    0.020636
   8 H :    0.012552
   9 H :    0.114749
  10 H :    0.102866
  11 H :    0.061821
  12 H :    0.065823
  13 H :    0.068859

  Mayer bond orders larger than 0.100000
B(  0-C ,  1-C ) :   0.6005 B(  0-C , 11-H ) :   0.9647 B(  0-C , 12-H ) :   0.9682
B(  0-C , 13-H ) :   0.9662 B(  1-C ,  2-C ) :   0.6068 B(  1-C ,  3-C ) :   0.1094
B(  1-C ,  9-H ) :   0.9884 B(  1-C , 10-H ) :   1.0245 B(  2-C ,  3-C ) :   1.1547
B(  2-C ,  4-N ) :   1.0100 B(  2-C ,  8-H ) :  -0.1243 B(  3-C ,  7-H ) :   0.9763
B(  3-C ,  8-H ) :   1.0576 B(  4-N ,  5-H ) :   1.0120 B(  4-N ,  6-H ) :   1.0253

FINAL SINGLE POINT ENERGY      -212.523293220030

DIPOLE MOMENT
-------------
                                X             Y             Z
Electronic contribution:     -0.04527       0.64759       3.00801
Nuclear contribution   :     -0.69146      -0.83112      -2.71336
                        -----------------------------------------
Total Dipole Moment    :     -0.73673      -0.18353       0.29465
                        -----------------------------------------
Magnitude (a.u.)       :      0.81442
Magnitude (Debye)      :      2.07008

Rotational constants in cm-1:     0.270661     0.129240     0.102040
Rotational constants in MHz :  8114.202941  3874.518141  3059.074383

                             ****ORCA TERMINATED NORMALLY****
TOTAL RUN TIME: 0 days 0 hours 1 minutes 1 seconds 167 msec
