                         Program Version 5.0.0 -  RELEASE  -
|  1> !CAM-B3LYP RIJCOSX def2-TZVPD def2/J TightSCF
|  2> *xyz 0 1
|  3> C          1.64703       -2.34528       -5.02041
|  4> C          2.20996       -2.81239       -3.66571
|  5> C          2.48901       -1.66851       -2.73754
|  6> N          3.59631       -0.94761       -2.95225
|  7> C          1.66394       -1.41369       -1.77781
|  8> H          0.81164       -1.96318       -1.70275
|  9> H          1.84550       -0.63508       -1.15875
| 10> H          4.20535       -1.17600       -3.73383
| 11> H          3.81723       -0.12585       -2.40604
| 12> H          3.14311       -3.36280       -3.81152
| 13> H          1.48768       -3.45893       -3.16521
| 14> H          1.46566       -3.19589       -5.64368
| 15> H          2.35406       -1.69850       -5.49654
| 16> H          0.73014       -1.81680       -4.86253
| 17> *
| 18>
| 19> %MaxCore 64000
| 20> %pal nprocs 4
| 21> end
| 22>
| 23> %scf
| 24>   MaxIter 150
| 25> end
| 26>
| 27>
| 28>                          ****END OF INPUT****

CARTESIAN COORDINATES (ANGSTROEM)
---------------------------------
  C      1.647030   -2.345280   -5.020410
  C      2.209960   -2.812390   -3.665710
  C      2.489010   -1.668510   -2.737540
  N      3.596310   -0.947610   -2.952250
  C      1.663940   -1.413690   -1.777810
  H      0.811640   -1.963180   -1.702750
  H      1.845500   -0.635080   -1.158750
  H      4.205350   -1.176000   -3.733830
  H      3.817230   -0.125850   -2.406040
  H      3.143110   -3.362800   -3.811520
  H      1.487680   -3.458930   -3.165210
  H      1.465660   -3.195890   -5.643680
  H      2.354060   -1.698500   -5.496540
  H      0.730140   -1.816800   -4.862530

 Total Charge           Charge          ....    0
 Multiplicity           Mult            ....    1
 Number of Electrons    NEL             ....   40
 Basis Dimension        Dim             ....  266

ORBITAL ENERGIES
----------------

  NO   OCC          E(Eh)            E(eV)
   0   2.0000     -14.387575      -391.5058
   1   2.0000     -10.261595      -279.2322
   2   2.0000     -10.241576      -278.6875
   3   2.0000     -10.227347      -278.3003
   4   2.0000     -10.174487      -276.8619
   5   2.0000      -1.004728       -27.3400
   6   2.0000      -0.862107       -23.4591
   7   2.0000      -0.803858       -21.8741
   8   2.0000      -0.713023       -19.4023
   9   2.0000      -0.638749       -17.3813
  10   2.0000      -0.592062       -16.1108
  11   2.0000      -0.552275       -15.0282
  12   2.0000      -0.504192       -13.7198
  13   2.0000      -0.492811       -13.4101
  14   2.0000      -0.466036       -12.6815
  15   2.0000      -0.451356       -12.2820
  16   2.0000      -0.417357       -11.3569
  17   2.0000      -0.398765       -10.8509
  18   2.0000      -0.392921       -10.6919
  19   2.0000      -0.254858        -6.9351
  20   0.0000       0.030433         0.8281
  21   0.0000       0.056239         1.5303
  22   0.0000       0.062374         1.6973
  23   0.0000       0.064320         1.7502
  24   0.0000       0.090431         2.4607

MULLIKEN ATOMIC CHARGES
-----------------------
   0 C :   -1.026084
   1 C :   -0.573462
   2 C :    0.741064
   3 N :   -0.387330
   4 C :   -1.098423
   5 H :    0.261055
   6 H :    0.288001
   7 H :    0.162859
   8 H :    0.148987
   9 H :    0.303272
  10 H :    0.255420
  11 H :    0.305547
  12 H :    0.304174
  13 H :    0.314919
Sum of atomic charges:   -0.0000000

LOEWDIN ATOMIC CHARGES
----------------------
   0 C :   -0.092257
   1 C :   -0.202431
   2 C :   -0.500661
   3 N :    0.098791
   4 C :    0.016702
   5 H :    0.030558
   6 H :    0.026823
   7 H :    0.103411
   8 H :    0.105871
   9 H :    0.111135
  10 H :    0.108118
  11 H :    0.062049
  12 H :    0.060640
  13 H :    0.071251

  Mayer bond orders larger than 0.100000
B(  0-C ,  1-C ) :   0.6066 B(  0-C , 11-H ) :   0.9709 B(  0-C , 12-H ) :   0.9482
B(  0-C , 13-H ) :   0.9936 B(  1-C ,  2-C ) :   0.6573 B(  1-C ,  3-N ) :   0.1088
B(  1-C ,  9-H ) :   0.9844 B(  1-C , 10-H ) :   0.9947 B(  2-C ,  3-N ) :   0.8654
B(  2-C ,  4-C ) :   1.2675 B(  2-C ,  6-H ) :  -0.1260 B(  3-N ,  7-H ) :   1.0270
B(  3-N ,  8-H ) :   1.0357 B(  4-C ,  5-H ) :   0.9906 B(  4-C ,  6-H ) :   1.0451

FINAL SINGLE POINT ENERGY      -212.527914247943

DIPOLE MOMENT
-------------
                                X             Y             Z
Electronic contribution:      1.62851       1.06047       1.99790
Nuclear contribution   :     -1.13902      -0.93906      -2.44135
                        -----------------------------------------
Total Dipole Moment    :      0.48949       0.12141      -0.44345
                        -----------------------------------------
Magnitude (a.u.)       :      0.67155
Magnitude (Debye)      :      1.70696

Rotational constants in cm-1:     0.267243     0.130607     0.102304
Rotational constants in MHz :  8011.748167  3915.504600  3066.999841

                             ****ORCA TERMINATED NORMALLY****
TOTAL RUN TIME: 0 days 0 hours 1 minutes 0 seconds 460 msec
