                         Program Version 5.0.0 -  RELEASE  -
|  1> !CAM-B3LYP RIJCOSX def2-TZVPD def2/J TightSCF xyzfile
|  2>
|  3> *xyzfile 0 1 D1.xyz
|  4>
|  5> %MaxCore 64000
|  6>
|  7> %pal nprocs 4
|  8> end
|  9>
| 10> %scf
| 11>   MaxIter 150
| 12> end
| 13>
| 14>
| 15>                          ****END OF INPUT****

CARTESIAN COORDINATES (ANGSTROEM)
---------------------------------
  C      1.647032   -2.345276   -5.020411
  C      0.217628   -1.814022   -4.924389
  C      2.209964   -2.812388   -3.665708
  C     -0.811356   -2.908780   -4.607625
  C     -1.916579   -2.485081   -3.643665
  H     -2.554525   -1.712428   -4.091993
  C     -1.363531   -1.981337   -2.293608
  H     -2.553448   -3.355667   -3.458815
  F     -0.350395   -2.749689   -1.796006
  H      2.308385   -1.588704   -5.457128
  H      1.674286   -3.203478   -5.697392
  C      2.489007   -1.668510   -2.737538
  C      3.596314   -0.947608   -2.952247
  N      1.663936   -1.413685   -1.777806
  H      0.811642   -1.963178   -1.702755
  H      1.845503   -0.635078   -1.158749
  H      4.205351   -1.176003   -3.733825
  H      3.817230   -0.125845   -2.406041
  H     -1.244829   -3.280884   -5.541040
  H     -0.306331   -3.757746   -4.142734
  H     -0.036244   -1.318555   -5.865303
  H      0.175004   -1.035382   -4.158095
  H      3.143106   -3.362803   -3.811524
  H      1.487683   -3.458935   -3.165211
  H     -2.226220   -1.908386   -1.602039
  H     -1.051353   -0.915671   -2.443331

 Total Charge           Charge          ....    0
 Multiplicity           Mult            ....    1
 Number of Electrons    NEL             ....   80
 Basis Dimension        Dim             ....  517

ORBITAL ENERGIES
----------------

  NO   OCC          E(Eh)            E(eV)
   0   2.0000     -24.791807      -674.6194
   1   2.0000     -14.357916      -390.6988
   2   2.0000     -10.343704      -281.4665
   3   2.0000     -10.261590      -279.2321
   4   2.0000     -10.248994      -278.8893
   5   2.0000     -10.244900      -278.7779
   6   2.0000     -10.236584      -278.5516
   7   2.0000     -10.233487      -278.4674
   8   2.0000     -10.229575      -278.3609
   9   2.0000     -10.155668      -276.3498
  10   2.0000      -1.339991       -36.4630
  11   2.0000      -1.001393       -27.2493
  12   2.0000      -0.905988       -24.6532
  13   2.0000      -0.863440       -23.4954
  14   2.0000      -0.817953       -22.2576
  15   2.0000      -0.772994       -21.0342
  16   2.0000      -0.746909       -20.3244
  17   2.0000      -0.690691       -18.7947
  18   2.0000      -0.666331       -18.1318
  19   2.0000      -0.652596       -17.7580
  20   2.0000      -0.610408       -16.6100
  21   2.0000      -0.604844       -16.4586
  22   2.0000      -0.585294       -15.9267
  23   2.0000      -0.558401       -15.1949
  24   2.0000      -0.538003       -14.6398
  25   2.0000      -0.530445       -14.4342
  26   2.0000      -0.510215       -13.8837
  27   2.0000      -0.488575       -13.2948
  28   2.0000      -0.487810       -13.2740
  29   2.0000      -0.456443       -12.4204
  30   2.0000      -0.437888       -11.9155
  31   2.0000      -0.430209       -11.7066
  32   2.0000      -0.427239       -11.6258
  33   2.0000      -0.421536       -11.4706
  34   2.0000      -0.405540       -11.0353
  35   2.0000      -0.396562       -10.7910
  36   2.0000      -0.384547       -10.4641
  37   2.0000      -0.374807       -10.1990
  38   2.0000      -0.372262       -10.1298
  39   2.0000      -0.225177        -6.1274
  40   0.0000       0.027263         0.7419
  41   0.0000       0.039888         1.0854
  42   0.0000       0.045824         1.2469
  43   0.0000       0.049375         1.3436
  44   0.0000       0.066499         1.8095

MULLIKEN ATOMIC CHARGES
-----------------------
   0 C :   -0.546765
   1 C :   -0.598864
   2 C :   -0.725311
   3 C :   -0.477854
   4 C :   -0.632992
   5 H :    0.272162
   6 C :   -0.374701
   7 H :    0.319488
   8 F :   -0.407603
   9 H :    0.358743
  10 H :    0.271481
  11 C :    0.612017
  12 C :   -1.279328
  13 N :   -0.392382
  14 H :    0.441841
  15 H :    0.080701
  16 H :    0.282541
  17 H :    0.300632
  18 H :    0.324948
  19 H :    0.238332
  20 H :    0.324257
  21 H :    0.292881
  22 H :    0.325797
  23 H :    0.345056
  24 H :    0.323102
  25 H :    0.321822
Sum of atomic charges:    0.0000000

LOEWDIN ATOMIC CHARGES
----------------------
   0 C :   -0.192166
   1 C :   -0.201549
   2 C :   -0.145692
   3 C :   -0.210965
   4 C :   -0.177285
   5 H :    0.121629
   6 C :   -0.212994
   7 H :    0.109660
   8 F :   -0.025552
   9 H :    0.111921
  10 H :    0.110870
  11 C :   -0.487168
  12 C :    0.010309
  13 N :    0.127503
  14 H :    0.017523
  15 H :    0.122655
  16 H :    0.016649
  17 H :    0.009760
  18 H :    0.115070
  19 H :    0.100668
  20 H :    0.112047
  21 H :    0.098065
  22 H :    0.120981
  23 H :    0.097289
  24 H :    0.125767
  25 H :    0.125003

  Mayer bond orders larger than 0.100000
B(  0-C ,  1-C ) :   0.8752 B(  0-C ,  2-C ) :   0.7686 B(  0-C ,  3-C ) :   0.1218
B(  0-C ,  9-H ) :   0.8719 B(  0-C , 10-H ) :   0.9703 B(  1-C ,  3-C ) :   0.5309
B(  1-C , 20-H ) :   0.9400 B(  1-C , 21-H ) :   1.0057 B(  2-C , 11-C ) :   0.6387
B(  2-C , 12-C ) :   0.1083 B(  2-C , 22-H ) :   0.9767 B(  2-C , 23-H ) :   0.9622
B(  3-C ,  4-C ) :   0.8220 B(  3-C , 18-H ) :   0.9480 B(  3-C , 19-H ) :   1.0324
B(  4-C ,  5-H ) :   0.9850 B(  4-C ,  6-C ) :   0.7911 B(  4-C ,  7-H ) :   0.9613
B(  4-C ,  8-F ) :   0.1333 B(  6-C ,  8-F ) :   0.7023 B(  6-C , 24-H ) :   0.9191
B(  6-C , 25-H ) :   0.9800 B( 11-C , 12-C ) :   1.1404 B( 11-C , 13-N ) :   1.0103
B( 11-C , 17-H ) :  -0.1026 B( 12-C , 13-N ) :   0.1253 B( 12-C , 16-H ) :   1.0213
B( 12-C , 17-H ) :   1.0185 B( 13-N , 14-H ) :   0.7043 B( 13-N , 15-H ) :   1.0797

FINAL SINGLE POINT ENERGY      -468.971452075986

DIPOLE MOMENT
-------------
                                X             Y             Z
Electronic contribution:     -1.31430      -1.74567       6.90663
Nuclear contribution   :     -0.37390       1.73388      -6.94752
                        -----------------------------------------
Total Dipole Moment    :     -1.68820      -0.01179      -0.04089
                        -----------------------------------------
Magnitude (a.u.)       :      1.68874
Magnitude (Debye)      :      4.29243

Rotational constants in cm-1:     0.062220     0.032742     0.024374
Rotational constants in MHz :  1865.297979   981.573941   730.711364

                             ****ORCA TERMINATED NORMALLY****
TOTAL RUN TIME: 0 days 0 hours 5 minutes 5 seconds 375 msec
