                         Program Version 5.0.0 -  RELEASE  -
|  1> !CAM-B3LYP RIJCOSX def2-TZVPD def2/J TightSCF xyzfile
|  2>
|  3> *xyzfile 0 1 D2.xyz
|  4>
|  5> %MaxCore 64000
|  6>
|  7> %pal nprocs 4
|  8> end
|  9>
| 10> %scf
| 11>   MaxIter 150
| 12> end
| 13>
| 14>
| 15>                          ****END OF INPUT****

CARTESIAN COORDINATES (ANGSTROEM)
---------------------------------
  C      1.647032   -2.345276   -5.020411
  C      0.217628   -1.814022   -4.924389
  C      2.209964   -2.812388   -3.665708
  C     -0.811356   -2.908780   -4.607625
  C     -1.916579   -2.485081   -3.643665
  H     -2.554525   -1.712428   -4.091993
  C     -1.363531   -1.981337   -2.293608
  H     -2.553448   -3.355667   -3.458815
  F     -0.350395   -2.749689   -1.796006
  H      2.308385   -1.588704   -5.457128
  H      1.674286   -3.203478   -5.697392
  C      2.489007   -1.668510   -2.737538
  N      3.596314   -0.947608   -2.952247
  C      1.663936   -1.413685   -1.777806
  H      0.811642   -1.963178   -1.702755
  H      1.845503   -0.635078   -1.158749
  H      4.205351   -1.176003   -3.733825
  H      3.817230   -0.125845   -2.406041
  H     -1.244829   -3.280884   -5.541040
  H     -0.306331   -3.757746   -4.142734
  H     -0.036244   -1.318555   -5.865303
  H      0.175004   -1.035382   -4.158095
  H      3.143106   -3.362803   -3.811524
  H      1.487683   -3.458935   -3.165211
  H     -2.226220   -1.908386   -1.602039
  H     -1.051353   -0.915671   -2.443331

 Total Charge           Charge          ....    0
 Multiplicity           Mult            ....    1
 Number of Electrons    NEL             ....   80
 Basis Dimension        Dim             ....  517

ORBITAL ENERGIES
----------------

  NO   OCC          E(Eh)            E(eV)
   0   2.0000     -24.758551      -673.7144
   1   2.0000     -14.373789      -391.1307
   2   2.0000     -10.324862      -280.9538
   3   2.0000     -10.249601      -278.9058
   4   2.0000     -10.244071      -278.7554
   5   2.0000     -10.237124      -278.5663
   6   2.0000     -10.234275      -278.4888
   7   2.0000     -10.230326      -278.3813
   8   2.0000     -10.228961      -278.3442
   9   2.0000     -10.141114      -275.9537
  10   2.0000      -1.309076       -35.6218
  11   2.0000      -0.990839       -26.9621
  12   2.0000      -0.896656       -24.3992
  13   2.0000      -0.860403       -23.4128
  14   2.0000      -0.809142       -22.0179
  15   2.0000      -0.782054       -21.2808
  16   2.0000      -0.737383       -20.0652
  17   2.0000      -0.681400       -18.5419
  18   2.0000      -0.646580       -17.5943
  19   2.0000      -0.642764       -17.4905
  20   2.0000      -0.600745       -16.3471
  21   2.0000      -0.587133       -15.9767
  22   2.0000      -0.570065       -15.5123
  23   2.0000      -0.559773       -15.2322
  24   2.0000      -0.533910       -14.5284
  25   2.0000      -0.517098       -14.0710
  26   2.0000      -0.512301       -13.9404
  27   2.0000      -0.499825       -13.6009
  28   2.0000      -0.470997       -12.8165
  29   2.0000      -0.450386       -12.2556
  30   2.0000      -0.435256       -11.8439
  31   2.0000      -0.424382       -11.5480
  32   2.0000      -0.417192       -11.3524
  33   2.0000      -0.403576       -10.9819
  34   2.0000      -0.392708       -10.6861
  35   2.0000      -0.388890       -10.5822
  36   2.0000      -0.375112       -10.2073
  37   2.0000      -0.370985       -10.0950
  38   2.0000      -0.358695        -9.7606
  39   2.0000      -0.238092        -6.4788
  40   0.0000       0.034395         0.9359
  41   0.0000       0.040130         1.0920
  42   0.0000       0.046498         1.2653
  43   0.0000       0.054954         1.4954
  44   0.0000       0.066629         1.8131

MULLIKEN ATOMIC CHARGES
-----------------------
   0 C :   -0.477176
   1 C :   -0.516096
   2 C :   -0.747258
   3 C :   -0.518124
   4 C :   -0.621092
   5 H :    0.274717
   6 C :   -0.381389
   7 H :    0.310181
   8 F :   -0.342393
   9 H :    0.318318
  10 H :    0.262257
  11 C :    0.633375
  12 N :   -0.396521
  13 C :   -1.470790
  14 H :    0.685177
  15 H :    0.199571
  16 H :    0.159770
  17 H :    0.144501
  18 H :    0.320773
  19 H :    0.240647
  20 H :    0.322048
  21 H :    0.315666
  22 H :    0.380717
  23 H :    0.259455
  24 H :    0.327670
  25 H :    0.315993
Sum of atomic charges:   -0.0000000

LOEWDIN ATOMIC CHARGES
----------------------
   0 C :   -0.195567
   1 C :   -0.202369
   2 C :   -0.145120
   3 C :   -0.210212
   4 C :   -0.178507
   5 H :    0.119509
   6 C :   -0.217296
   7 H :    0.108282
   8 F :   -0.046682
   9 H :    0.107118
  10 H :    0.110012
  11 C :   -0.471577
  12 N :    0.096580
  13 C :    0.032668
  14 H :   -0.038235
  15 H :    0.038233
  16 H :    0.099775
  17 H :    0.103296
  18 H :    0.113284
  19 H :    0.101325
  20 H :    0.110676
  21 H :    0.097426
  22 H :    0.117120
  23 H :    0.101924
  24 H :    0.124013
  25 H :    0.124325

  Mayer bond orders larger than 0.100000
B(  0-C ,  1-C ) :   0.9074 B(  0-C ,  2-C ) :   0.7809 B(  0-C ,  3-C ) :   0.1408
B(  0-C ,  9-H ) :   0.8587 B(  0-C , 10-H ) :   0.9823 B(  1-C ,  3-C ) :   0.5451
B(  1-C , 20-H ) :   0.9513 B(  1-C , 21-H ) :   0.9916 B(  2-C , 11-C ) :   0.6452
B(  2-C , 12-N ) :   0.1805 B(  2-C , 22-H ) :   0.9364 B(  2-C , 23-H ) :   1.0149
B(  3-C ,  4-C ) :   0.8364 B(  3-C , 18-H ) :   0.9526 B(  3-C , 19-H ) :   1.0263
B(  4-C ,  5-H ) :   0.9765 B(  4-C ,  6-C ) :   0.8066 B(  4-C ,  7-H ) :   0.9634
B(  4-C ,  8-F ) :   0.1203 B(  6-C ,  8-F ) :   0.7654 B(  6-C , 13-C ) :   0.1473
B(  6-C , 24-H ) :   0.8956 B(  6-C , 25-H ) :   0.9820 B(  8-F , 13-C ) :   0.1234
B(  8-F , 14-H ) :  -0.2838 B( 11-C , 12-N ) :   0.7973 B( 11-C , 13-C ) :   1.1906
B( 11-C , 15-H ) :  -0.1624 B( 12-N , 16-H ) :   1.0417 B( 12-N , 17-H ) :   1.0363
B( 13-C , 14-H ) :   0.6814 B( 13-C , 15-H ) :   1.2451

FINAL SINGLE POINT ENERGY      -468.954877492273

DIPOLE MOMENT
-------------
                                X             Y             Z
Electronic contribution:      0.38455      -1.32065       6.07063
Nuclear contribution   :     -0.73748       1.64619      -6.72655
                        -----------------------------------------
Total Dipole Moment    :     -0.35294       0.32554      -0.65592
                        -----------------------------------------
Magnitude (a.u.)       :      0.81288
Magnitude (Debye)      :      2.06617

Rotational constants in cm-1:     0.063169     0.031711     0.023958
Rotational constants in MHz :  1893.751676   950.657187   718.229932

                             ****ORCA TERMINATED NORMALLY****
TOTAL RUN TIME: 0 days 0 hours 5 minutes 12 seconds 991 msec
