                         Program Version 5.0.0 -  RELEASE  -
|  1> !LC-BLYP RIJCOSX def2-TZVPD def2/J TightSCF
|  2> *xyz -1 1
|  3> C          0.70466        1.44313       -4.50363
|  4> C          1.72854        1.42432       -5.63944
|  5> H          2.64672        1.95379       -5.38105
|  6> H          1.29992        1.93061       -6.50361
|  7> S          2.25263       -0.18811       -6.27184
|  8> O          3.56261       -0.44446       -5.63155
|  9> O          2.34494       -0.03374       -7.69650
| 10> O          1.26606       -1.15918       -5.80536
| 11> H         -0.17385        0.91270       -4.80656
| 12> H          0.44778        2.45562       -4.27173
| 13> H          1.12367        0.97423       -3.63791
| 14> *
| 15>
| 16> %MaxCore 64000
| 17>
| 18> %pal nprocs 4
| 19> end
| 20>
| 21> %scf
| 22>   MaxIter 150
| 23> end
| 24>
| 25>
| 26>                          ****END OF INPUT****

CARTESIAN COORDINATES (ANGSTROEM)
---------------------------------
  C      0.704660    1.443130   -4.503630
  C      1.728540    1.424320   -5.639440
  H      2.646720    1.953790   -5.381050
  H      1.299920    1.930610   -6.503610
  S      2.252630   -0.188110   -6.271840
  O      3.562610   -0.444460   -5.631550
  O      2.344940   -0.033740   -7.696500
  O      1.266060   -1.159180   -5.805360
  H     -0.173850    0.912700   -4.806560
  H      0.447780    2.455620   -4.271730
  H      1.123670    0.974230   -3.637910

 Total Charge           Charge          ....   -1
 Multiplicity           Mult            ....    1
 Number of Electrons    NEL             ....   58
 Basis Dimension        Dim             ....  285

ORBITAL ENERGIES
----------------

  NO   OCC          E(Eh)            E(eV)
   0   2.0000     -88.260403     -2401.6877
   1   2.0000     -18.723486      -509.4920
   2   2.0000     -18.716607      -509.3048
   3   2.0000     -18.708005      -509.0707
   4   2.0000      -9.932094      -270.2660
   5   2.0000      -9.926793      -270.1218
   6   2.0000      -7.802567      -212.3186
   7   2.0000      -5.830754      -158.6629
   8   2.0000      -5.829579      -158.6309
   9   2.0000      -5.829277      -158.6227
  10   2.0000      -1.022392       -27.8207
  11   2.0000      -0.887192       -24.1417
  12   2.0000      -0.864758       -23.5313
  13   2.0000      -0.744405       -20.2563
  14   2.0000      -0.618343       -16.8260
  15   2.0000      -0.487752       -13.2724
  16   2.0000      -0.426987       -11.6189
  17   2.0000      -0.421347       -11.4654
  18   2.0000      -0.381254       -10.3745
  19   2.0000      -0.363180        -9.8826
  20   2.0000      -0.360866        -9.8197
  21   2.0000      -0.328824        -8.9477
  22   2.0000      -0.319585        -8.6963
  23   2.0000      -0.255826        -6.9614
  24   2.0000      -0.254648        -6.9293
  25   2.0000      -0.216861        -5.9011
  26   2.0000      -0.209778        -5.7084
  27   2.0000      -0.200305        -5.4506
  28   2.0000      -0.163260        -4.4425
  29   0.0000       0.160579         4.3696
  30   0.0000       0.174764         4.7556
  31   0.0000       0.176825         4.8117
  32   0.0000       0.184288         5.0147
  33   0.0000       0.206705         5.6247

MULLIKEN ATOMIC CHARGES
-----------------------
   0 C :   -1.251456
   1 C :   -0.743557
   2 H :    0.397852
   3 H :    0.395273
   4 S :    1.097018
   5 O :   -0.705766
   6 O :   -0.656902
   7 O :   -0.680866
   8 H :    0.366551
   9 H :    0.431610
  10 H :    0.350244
Sum of atomic charges:   -1.0000000

LOEWDIN ATOMIC CHARGES
----------------------
   0 C :   -0.158952
   1 C :   -0.332667
   2 H :    0.085803
   3 H :    0.079841
   4 S :    0.315366
   5 O :   -0.412344
   6 O :   -0.374908
   7 O :   -0.386424
   8 H :    0.061407
   9 H :    0.054773
  10 H :    0.068105

  Mayer bond orders larger than 0.100000
B(  0-C ,  1-C ) :   0.3761 B(  0-C ,  8-H ) :   0.9484 B(  0-C ,  9-H ) :   0.8573
B(  0-C , 10-H ) :   0.9557 B(  1-C ,  2-H ) :   0.9145 B(  1-C ,  3-H ) :   0.9058
B(  1-C ,  4-S ) :   0.9538 B(  1-C ,  5-O ) :   0.1189 B(  1-C ,  6-O ) :   0.1123
B(  4-S ,  5-O ) :   1.4890 B(  4-S ,  6-O ) :   1.5253 B(  4-S ,  7-O ) :   1.4998

FINAL SINGLE POINT ENERGY      -702.481384797852

DIPOLE MOMENT
-------------
                                X             Y             Z
Electronic contribution:      3.62615      -5.57040      -4.28132
Nuclear contribution   :     -4.50297       7.24642       5.01775
                        -----------------------------------------
Total Dipole Moment    :     -0.87682       1.67602       0.73643
                        -----------------------------------------
Magnitude (a.u.)       :      2.02982
Magnitude (Debye)      :      5.15940

Rotational constants in cm-1:     0.162459     0.081286     0.079601
Rotational constants in MHz :  4870.394399  2436.893583  2386.374948

                             ****ORCA TERMINATED NORMALLY****
TOTAL RUN TIME: 0 days 0 hours 1 minutes 1 seconds 806 msec
