                         Program Version 5.0.0 -  RELEASE  -
|  1> !LC-BLYP RIJCOSX def2-TZVPD def2/J TightSCF
|  2> *xyz 1 1
|  3> C          2.91632       -1.24259       -1.54313
|  4> C          3.46659       -1.59097       -2.88908
|  5> N          4.65227       -1.14316       -3.25969
|  6> N          2.75226       -2.29204       -3.72803
|  7> H          1.77836       -2.48960       -3.51274
|  8> H          2.94861       -2.20854       -4.71681
|  9> H          5.14672       -0.51251       -2.63385
| 10> H          4.78303       -1.00720       -4.25350
| 11> C          2.80408        0.29070       -1.35924
| 12> H          1.94047       -1.71653       -1.44116
| 13> H          3.55857       -1.66343       -0.76637
| 14> H          2.17393        0.69633       -2.12297
| 15> H          3.77707        0.73043       -1.42880
| 16> H          2.38369        0.50492       -0.39889
| 17> *
| 18>
| 19> %MaxCore 64000
| 20>
| 21> %pal nprocs 4
| 22> end
| 23>
| 24> %scf
| 25>   MaxIter 150
| 26> end
| 27>
| 28>
| 29>                          ****END OF INPUT****

CARTESIAN COORDINATES (ANGSTROEM)
---------------------------------
  C      2.916320   -1.242590   -1.543130
  C      3.466590   -1.590970   -2.889080
  N      4.652270   -1.143160   -3.259690
  N      2.752260   -2.292040   -3.728030
  H      1.778360   -2.489600   -3.512740
  H      2.948610   -2.208540   -4.716810
  H      5.146720   -0.512510   -2.633850
  H      4.783030   -1.007200   -4.253500
  C      2.804080    0.290700   -1.359240
  H      1.940470   -1.716530   -1.441160
  H      3.558570   -1.663430   -0.766370
  H      2.173930    0.696330   -2.122970
  H      3.777070    0.730430   -1.428800
  H      2.383690    0.504920   -0.398890

 Total Charge           Charge          ....    1
 Multiplicity           Mult            ....    1
 Number of Electrons    NEL             ....   40
 Basis Dimension        Dim             ....  266

ORBITAL ENERGIES
----------------

  NO   OCC          E(Eh)            E(eV)
   0   2.0000     -14.418786      -392.3551
   1   2.0000     -14.413347      -392.2071
   2   2.0000     -10.396330      -282.8985
   3   2.0000     -10.270778      -279.4821
   4   2.0000     -10.229345      -278.3546
   5   2.0000      -1.313271       -35.7359
   6   2.0000      -1.213007       -33.0076
   7   2.0000      -1.081714       -29.4349
   8   2.0000      -0.971859       -26.4456
   9   2.0000      -0.925069       -25.1724
  10   2.0000      -0.874441       -23.7948
  11   2.0000      -0.858617       -23.3641
  12   2.0000      -0.799699       -21.7609
  13   2.0000      -0.775098       -21.0915
  14   2.0000      -0.730246       -19.8710
  15   2.0000      -0.705707       -19.2033
  16   2.0000      -0.653379       -17.7794
  17   2.0000      -0.643167       -17.5015
  18   2.0000      -0.629334       -17.1251
  19   2.0000      -0.598099       -16.2751
  20   0.0000      -0.142954        -3.8900
  21   0.0000      -0.112951        -3.0736
  22   0.0000      -0.074527        -2.0280
  23   0.0000      -0.069232        -1.8839
  24   0.0000      -0.049159        -1.3377

MULLIKEN ATOMIC CHARGES
-----------------------
   0 C :   -0.733553
   1 C :    0.614864
   2 N :   -0.337977
   3 N :   -0.320526
   4 H :    0.261469
   5 H :    0.248534
   6 H :    0.269865
   7 H :    0.235970
   8 C :   -1.246444
   9 H :    0.407061
  10 H :    0.381696
  11 H :    0.397174
  12 H :    0.413081
  13 H :    0.408787
Sum of atomic charges:    1.0000000

LOEWDIN ATOMIC CHARGES
----------------------
   0 C :   -0.149688
   1 C :   -0.379555
   2 N :    0.232292
   3 N :    0.236751
   4 H :    0.152830
   5 H :    0.148996
   6 H :    0.145207
   7 H :    0.148105
   8 C :   -0.061369
   9 H :    0.128301
  10 H :    0.144159
  11 H :    0.089459
  12 H :    0.072675
  13 H :    0.091837

  Mayer bond orders larger than 0.100000
B(  0-C ,  1-C ) :   0.7098 B(  0-C ,  8-C ) :   0.4869 B(  0-C ,  9-H ) :   0.8672
B(  0-C , 10-H ) :   0.9609 B(  1-C ,  2-N ) :   1.1405 B(  1-C ,  3-N ) :   1.2369
B(  2-N ,  6-H ) :   0.9050 B(  2-N ,  7-H ) :   0.9770 B(  3-N ,  4-H ) :   0.9262
B(  3-N ,  5-H ) :   0.9533 B(  8-C , 11-H ) :   0.9363 B(  8-C , 12-H ) :   0.8453
B(  8-C , 13-H ) :   0.9260

FINAL SINGLE POINT ENERGY      -228.501915381098

DIPOLE MOMENT
-------------
                                X             Y             Z
Electronic contribution:      1.30626      -2.85056      -2.77006
Nuclear contribution   :     -1.30215       2.77761       1.84194
                        -----------------------------------------
Total Dipole Moment    :      0.00411      -0.07295      -0.92812
                        -----------------------------------------
Magnitude (a.u.)       :      0.93099
Magnitude (Debye)      :      2.36640

Rotational constants in cm-1:     0.267442     0.127541     0.099068
Rotational constants in MHz :  8017.703171  3823.592522  2969.992494

                             ****ORCA TERMINATED NORMALLY****
TOTAL RUN TIME: 0 days 0 hours 0 minutes 46 seconds 279 msec
