                         Program Version 5.0.0 -  RELEASE  -
|  1> !LC-BLYP RIJCOSX def2-TZVPD def2/J TightSCF xyzfile
|  2>
|  3> *xyzfile 0 1 B.xyz
|  4>
|  5> %MaxCore 64000
|  6>
|  7> %pal nprocs 4
|  8> end
|  9>
| 10> %scf
| 11>   MaxIter 150
| 12> end
| 13>
| 14>
| 15>                          ****END OF INPUT****

CARTESIAN COORDINATES (ANGSTROEM)
---------------------------------
  C      2.916324   -1.242589   -1.543125
  C      0.704661    1.443129   -4.503630
  C      1.728539    1.424320   -5.639443
  H      2.646718    1.953794   -5.381054
  H      1.299916    1.930613   -6.503614
  S      2.252625   -0.188115   -6.271840
  C      3.466585   -1.590971   -2.889082
  N      4.652275   -1.143164   -3.259692
  N      2.752264   -2.292043   -3.728029
  H      1.778364   -2.489604   -3.512738
  H      2.948612   -2.208544   -4.716813
  H      5.146723   -0.512508   -2.633852
  H      4.783030   -1.007203   -4.253498
  O      3.562607   -0.444464   -5.631552
  O      2.344944   -0.033742   -7.696501
  C      2.804084    0.290698   -1.359243
  C      1.052550    0.695659   -3.214915
  H     -0.232483    1.032925   -4.884449
  H      0.511700    2.495794   -4.267966
  C      2.388380    1.093669   -2.597108
  H      3.763425    0.674718   -0.999889
  H      2.094788    0.461222   -0.545756
  O      1.266058   -1.159177   -5.805365
  H      3.167316    1.013242   -3.359430
  H      2.357690    2.149375   -2.310997
  H      1.039284   -0.368429   -3.449329
  H      0.250787    0.865605   -2.488283
  H      1.940472   -1.716529   -1.441161
  H      3.558569   -1.663433   -0.766371

 Total Charge           Charge          ....    0
 Multiplicity           Mult            ....    1
 Number of Electrons    NEL             ....  112
 Basis Dimension        Dim             ....  643

ORBITAL ENERGIES
----------------

  NO   OCC          E(Eh)            E(eV)
   0   2.0000     -88.414962     -2405.8934
   1   2.0000     -18.880949      -513.7767
   2   2.0000     -18.873811      -513.5825
   3   2.0000     -18.864989      -513.3424
   4   2.0000     -14.242837      -387.5673
   5   2.0000     -14.242303      -387.5528
   6   2.0000     -10.231960      -278.4258
   7   2.0000     -10.134059      -275.7618
   8   2.0000     -10.112656      -275.1794
   9   2.0000     -10.084249      -274.4064
  10   2.0000     -10.071638      -274.0632
  11   2.0000     -10.067955      -273.9630
  12   2.0000     -10.066941      -273.9354
  13   2.0000      -7.957539      -216.5356
  14   2.0000      -5.985631      -162.8773
  15   2.0000      -5.985066      -162.8619
  16   2.0000      -5.983696      -162.8247
  17   2.0000      -1.180439       -32.1214
  18   2.0000      -1.144062       -31.1315
  19   2.0000      -1.044936       -28.4341
  20   2.0000      -1.037597       -28.2344
  21   2.0000      -1.034160       -28.1409
  22   2.0000      -0.958888       -26.0927
  23   2.0000      -0.912525       -24.8311
  24   2.0000      -0.865042       -23.5390
  25   2.0000      -0.811285       -22.0762
  26   2.0000      -0.780714       -21.2443
  27   2.0000      -0.747927       -20.3521
  28   2.0000      -0.710413       -19.3313
  29   2.0000      -0.700023       -19.0486
  30   2.0000      -0.689447       -18.7608
  31   2.0000      -0.645820       -17.5736
  32   2.0000      -0.629919       -17.1410
  33   2.0000      -0.622367       -16.9355
  34   2.0000      -0.604232       -16.4420
  35   2.0000      -0.579278       -15.7629
  36   2.0000      -0.572908       -15.5896
  37   2.0000      -0.553671       -15.0661
  38   2.0000      -0.539140       -14.6707
  39   2.0000      -0.536864       -14.6088
  40   2.0000      -0.532092       -14.4790
  41   2.0000      -0.518330       -14.1045
  42   2.0000      -0.508155       -13.8276
  43   2.0000      -0.487017       -13.2524
  44   2.0000      -0.479046       -13.0355
  45   2.0000      -0.474216       -12.9041
  46   2.0000      -0.447290       -12.1714
  47   2.0000      -0.439508       -11.9596
  48   2.0000      -0.425173       -11.5696
  49   2.0000      -0.424190       -11.5428
  50   2.0000      -0.410207       -11.1623
  51   2.0000      -0.407838       -11.0978
  52   2.0000      -0.370393       -10.0789
  53   2.0000      -0.363929        -9.9030
  54   2.0000      -0.354724        -9.6525
  55   2.0000      -0.325993        -8.8707
  56   0.0000       0.012134         0.3302
  57   0.0000       0.027517         0.7488
  58   0.0000       0.039365         1.0712
  59   0.0000       0.050596         1.3768
  60   0.0000       0.057713         1.5705

MULLIKEN ATOMIC CHARGES
-----------------------
   0 C :   -0.828114
   1 C :   -0.894784
   2 C :   -1.134711
   3 H :    0.465728
   4 H :    0.493017
   5 S :    1.249657
   6 C :    0.453316
   7 N :   -0.335195
   8 N :   -0.373542
   9 H :    0.258813
  10 H :    0.300034
  11 H :    0.248455
  12 H :    0.343399
  13 O :   -0.834273
  14 O :   -0.613714
  15 C :   -0.880790
  16 C :   -0.587615
  17 H :    0.436132
  18 H :    0.433233
  19 C :   -0.733878
  20 H :    0.461881
  21 H :    0.444946
  22 O :   -0.742252
  23 H :    0.426664
  24 H :    0.432924
  25 H :    0.326401
  26 H :    0.386383
  27 H :    0.401055
  28 H :    0.396828
Sum of atomic charges:    0.0000000

LOEWDIN ATOMIC CHARGES
----------------------
   0 C :   -0.113869
   1 C :   -0.234196
   2 C :   -0.250991
   3 H :    0.097799
   4 H :    0.100865
   5 S :    0.400856
   6 C :   -0.397966
   7 N :    0.214404
   8 N :    0.226168
   9 H :    0.137540
  10 H :    0.094660
  11 H :    0.139121
  12 H :    0.095408
  13 O :   -0.394273
  14 O :   -0.311021
  15 C :   -0.192021
  16 C :   -0.218574
  17 H :    0.118819
  18 H :    0.119198
  19 C :   -0.216037
  20 H :    0.113522
  21 H :    0.121611
  22 O :   -0.349580
  23 H :    0.099220
  24 H :    0.128762
  25 H :    0.085755
  26 H :    0.125354
  27 H :    0.125952
  28 H :    0.133516

  Mayer bond orders larger than 0.100000
B(  0-C ,  6-C ) :   0.6586 B(  0-C , 15-C ) :   0.5474 B(  0-C , 19-C ) :  -0.1762
B(  0-C , 27-H ) :   0.9657 B(  0-C , 28-H ) :   0.9934 B(  1-C ,  2-C ) :   0.4993
B(  1-C , 16-C ) :   0.6931 B(  1-C , 17-H ) :   0.8844 B(  1-C , 18-H ) :   0.8951
B(  2-C ,  3-H ) :   0.8371 B(  2-C ,  4-H ) :   0.8625 B(  2-C ,  5-S ) :   0.9367
B(  2-C , 13-O ) :   0.1718 B(  2-C , 14-O ) :   0.1757 B(  5-S , 13-O ) :   1.4075
B(  5-S , 14-O ) :   1.4323 B(  5-S , 22-O ) :   1.3519 B(  6-C ,  7-N ) :   1.1899
B(  6-C ,  8-N ) :   1.2981 B(  6-C , 13-O ) :  -0.1121 B(  7-N , 11-H ) :   0.8955
B(  7-N , 12-H ) :   0.8351 B(  8-N ,  9-H ) :   0.8885 B(  8-N , 10-H ) :   0.8400
B( 13-O , 22-O ) :   0.1097 B( 15-C , 19-C ) :   0.5164 B( 15-C , 20-H ) :   0.8843
B( 15-C , 21-H ) :   0.8687 B( 16-C , 19-C ) :   0.2703 B( 16-C , 23-H ) :  -0.1048
B( 16-C , 25-H ) :   1.0689 B( 16-C , 26-H ) :   0.9400 B( 19-C , 23-H ) :   1.0462
B( 19-C , 24-H ) :   0.8766 B( 19-C , 25-H ) :  -0.1340

FINAL SINGLE POINT ENERGY     -1008.392928277993

DIPOLE MOMENT
-------------
                                X             Y             Z
Electronic contribution:      2.74235      -6.25060     -13.29974
Nuclear contribution   :     -1.90023       6.18953      17.82209
                        -----------------------------------------
Total Dipole Moment    :      0.84211      -0.06107       4.52235
                        -----------------------------------------
Magnitude (a.u.)       :      4.60049
Magnitude (Debye)      :     11.69351

Rotational constants in cm-1:     0.036337     0.018755     0.015005
Rotational constants in MHz :  1089.341704   562.266628   449.834770

                             ****ORCA TERMINATED NORMALLY****
TOTAL RUN TIME: 0 days 0 hours 6 minutes 6 seconds 540 msec
