                         Program Version 5.0.0 -  RELEASE  -
|  1> !LC-BLYP RIJCOSX def2-TZVPD def2/J TightSCF
|  2> *xyz 0 1
|  3> C          0.70466        1.44313       -4.50363
|  4> C          1.72854        1.42432       -5.63944
|  5> H          2.64672        1.95379       -5.38105
|  6> H          1.29992        1.93061       -6.50361
|  7> S          2.25263       -0.18811       -6.27184
|  8> F          3.56261       -0.44446       -5.63155
|  9> O          2.34494       -0.03374       -7.69650
| 10> O          1.26606       -1.15918       -5.80536
| 11> H         -0.17385        0.91270       -4.80656
| 12> H          0.44778        2.45562       -4.27173
| 13> H          1.12367        0.97423       -3.63791
| 14> *
| 15>
| 16> %MaxCore 64000
| 17>
| 18> %pal nprocs 4
| 19> end
| 20>
| 21> %scf
| 22>   MaxIter 150
| 23> end
| 24>
| 25>
| 26>                          ****END OF INPUT****

CARTESIAN COORDINATES (ANGSTROEM)
---------------------------------
  C      0.704660    1.443130   -4.503630
  C      1.728540    1.424320   -5.639440
  H      2.646720    1.953790   -5.381050
  H      1.299920    1.930610   -6.503610
  S      2.252630   -0.188110   -6.271840
  F      3.562610   -0.444460   -5.631550
  O      2.344940   -0.033740   -7.696500
  O      1.266060   -1.159180   -5.805360
  H     -0.173850    0.912700   -4.806560
  H      0.447780    2.455620   -4.271730
  H      1.123670    0.974230   -3.637910

 Total Charge           Charge          ....    0
 Multiplicity           Mult            ....    1
 Number of Electrons    NEL             ....   58
 Basis Dimension        Dim             ....  285

ORBITAL ENERGIES
----------------

  NO   OCC          E(Eh)            E(eV)
   0   2.0000     -88.519035     -2408.7254
   1   2.0000     -24.557754      -668.2505
   2   2.0000     -18.957002      -515.8462
   3   2.0000     -18.949667      -515.6466
   4   2.0000     -10.132464      -275.7184
   5   2.0000     -10.087367      -274.4912
   6   2.0000      -8.061706      -219.3702
   7   2.0000      -6.093557      -165.8141
   8   2.0000      -6.086755      -165.6290
   9   2.0000      -6.086125      -165.6119
  10   2.0000      -1.435786       -39.0697
  11   2.0000      -1.209612       -32.9152
  12   2.0000      -1.114753       -30.3340
  13   2.0000      -0.932967       -25.3873
  14   2.0000      -0.832356       -22.6496
  15   2.0000      -0.778534       -21.1850
  16   2.0000      -0.684454       -18.6249
  17   2.0000      -0.669398       -18.2152
  18   2.0000      -0.655615       -17.8402
  19   2.0000      -0.600211       -16.3326
  20   2.0000      -0.586164       -15.9503
  21   2.0000      -0.558566       -15.1994
  22   2.0000      -0.535093       -14.5606
  23   2.0000      -0.506098       -13.7716
  24   2.0000      -0.504770       -13.7355
  25   2.0000      -0.485712       -13.2169
  26   2.0000      -0.438826       -11.9411
  27   2.0000      -0.433556       -11.7977
  28   2.0000      -0.420245       -11.4354
  29   0.0000       0.035000         0.9524
  30   0.0000       0.051489         1.4011
  31   0.0000       0.056178         1.5287
  32   0.0000       0.060103         1.6355
  33   0.0000       0.086133         2.3438

MULLIKEN ATOMIC CHARGES
-----------------------
   0 C :   -1.262317
   1 C :   -0.742748
   2 H :    0.468620
   3 H :    0.427943
   4 S :    1.092754
   5 F :   -0.142987
   6 O :   -0.525444
   7 O :   -0.542967
   8 H :    0.400953
   9 H :    0.443197
  10 H :    0.382996
Sum of atomic charges:    0.0000000

LOEWDIN ATOMIC CHARGES
----------------------
   0 C :   -0.121137
   1 C :   -0.284662
   2 H :    0.103011
   3 H :    0.105521
   4 S :    0.563370
   5 F :   -0.070043
   6 O :   -0.259008
   7 O :   -0.271999
   8 H :    0.077109
   9 H :    0.078804
  10 H :    0.079035

  Mayer bond orders larger than 0.100000
B(  0-C ,  1-C ) :   0.4303 B(  0-C ,  8-H ) :   0.9224 B(  0-C ,  9-H ) :   0.8565
B(  0-C , 10-H ) :   0.9145 B(  1-C ,  2-H ) :   0.8036 B(  1-C ,  3-H ) :   0.8777
B(  1-C ,  4-S ) :   0.9354 B(  4-S ,  5-F ) :   0.9997 B(  4-S ,  6-O ) :   1.7157
B(  4-S ,  7-O ) :   1.6888

FINAL SINGLE POINT ENERGY      -726.999894526212

DIPOLE MOMENT
-------------
                                X             Y             Z
Electronic contribution:      6.30021      -6.45829      -3.69116
Nuclear contribution   :     -6.09914       7.80989       4.64238
                        -----------------------------------------
Total Dipole Moment    :      0.20108       1.35160       0.95123
                        -----------------------------------------
Magnitude (a.u.)       :      1.66496
Magnitude (Debye)      :      4.23200

Rotational constants in cm-1:     0.154372     0.078826     0.078033
Rotational constants in MHz :  4627.943144  2363.154585  2339.382767

                             ****ORCA TERMINATED NORMALLY****
TOTAL RUN TIME: 0 days 0 hours 0 minutes 50 seconds 140 msec
