                         Program Version 5.0.0 -  RELEASE  -
|  1> !LC-BLYP RIJCOSX def2-TZVPD def2/J TightSCF
|  2> *xyz 0 1
|  3> C          2.91632       -1.24259       -1.54313
|  4> C          3.46659       -1.59097       -2.88908
|  5> C          4.65227       -1.14316       -3.25969
|  6> N          2.75226       -2.29204       -3.72803
|  7> H          1.77836       -2.48960       -3.51274
|  8> H          2.94861       -2.20854       -4.71681
|  9> H          5.14672       -0.51251       -2.63385
| 10> H          4.78303       -1.00720       -4.25350
| 11> C          2.80408        0.29070       -1.35924
| 12> H          1.94047       -1.71653       -1.44116
| 13> H          3.55857       -1.66343       -0.76637
| 14> H          2.17393        0.69633       -2.12297
| 15> H          3.77707        0.73043       -1.42880
| 16> H          2.38369        0.50492       -0.39889
| 17> *
| 18>
| 19> %MaxCore 64000
| 20>
| 21> %pal nprocs 4
| 22> end
| 23>
| 24> %scf
| 25>   MaxIter 150
| 26> end
| 27>
| 28>
| 29>                          ****END OF INPUT****

CARTESIAN COORDINATES (ANGSTROEM)
---------------------------------
  C      2.916320   -1.242590   -1.543130
  C      3.466590   -1.590970   -2.889080
  C      4.652270   -1.143160   -3.259690
  N      2.752260   -2.292040   -3.728030
  H      1.778360   -2.489600   -3.512740
  H      2.948610   -2.208540   -4.716810
  H      5.146720   -0.512510   -2.633850
  H      4.783030   -1.007200   -4.253500
  C      2.804080    0.290700   -1.359240
  H      1.940470   -1.716530   -1.441160
  H      3.558570   -1.663430   -0.766370
  H      2.173930    0.696330   -2.122970
  H      3.777070    0.730430   -1.428800
  H      2.383690    0.504920   -0.398890

 Total Charge           Charge          ....    0
 Multiplicity           Mult            ....    1
 Number of Electrons    NEL             ....   40
 Basis Dimension        Dim             ....  266

ORBITAL ENERGIES
----------------

  NO   OCC          E(Eh)            E(eV)
   0   2.0000     -14.173569      -385.6824
   1   2.0000     -10.091964      -274.6163
   2   2.0000     -10.071834      -274.0685
   3   2.0000     -10.054546      -273.5981
   4   2.0000      -9.996740      -272.0251
   5   2.0000      -1.040282       -28.3075
   6   2.0000      -0.891862       -24.2688
   7   2.0000      -0.820299       -22.3215
   8   2.0000      -0.753912       -20.5150
   9   2.0000      -0.671105       -18.2617
  10   2.0000      -0.627973       -17.0880
  11   2.0000      -0.586250       -15.9527
  12   2.0000      -0.557010       -15.1570
  13   2.0000      -0.513918       -13.9844
  14   2.0000      -0.493114       -13.4183
  15   2.0000      -0.478445       -13.0191
  16   2.0000      -0.456647       -12.4260
  17   2.0000      -0.442621       -12.0443
  18   2.0000      -0.428619       -11.6633
  19   2.0000      -0.286441        -7.7944
  20   0.0000       0.051309         1.3962
  21   0.0000       0.073564         2.0018
  22   0.0000       0.077822         2.1177
  23   0.0000       0.087457         2.3798
  24   0.0000       0.107271         2.9190

MULLIKEN ATOMIC CHARGES
-----------------------
   0 C :   -0.782219
   1 C :    0.445458
   2 C :   -0.989401
   3 N :   -0.383111
   4 H :    0.207663
   5 H :    0.192489
   6 H :    0.356674
   7 H :    0.301640
   8 C :   -1.189822
   9 H :    0.385230
  10 H :    0.336963
  11 H :    0.352176
  12 H :    0.382681
  13 H :    0.383581
Sum of atomic charges:    0.0000000

LOEWDIN ATOMIC CHARGES
----------------------
   0 C :   -0.201271
   1 C :   -0.516361
   2 C :    0.003688
   3 N :    0.108003
   4 H :    0.106298
   5 H :    0.111846
   6 H :    0.024764
   7 H :    0.027763
   8 C :   -0.098653
   9 H :    0.105905
  10 H :    0.121549
  11 H :    0.076713
  12 H :    0.063273
  13 H :    0.066482

  Mayer bond orders larger than 0.100000
B(  0-C ,  1-C ) :   0.5542 B(  0-C ,  8-C ) :   0.4969 B(  0-C ,  9-H ) :   0.9741
B(  0-C , 10-H ) :   0.9802 B(  1-C ,  2-C ) :   1.3673 B(  1-C ,  3-N ) :   0.9739
B(  1-C ,  7-H ) :  -0.1321 B(  1-C ,  9-H ) :  -0.1356 B(  2-C ,  3-N ) :   0.1289
B(  2-C ,  6-H ) :   0.9020 B(  2-C ,  7-H ) :   1.0734 B(  3-N ,  4-H ) :   0.9864
B(  3-N ,  5-H ) :   0.9752 B(  8-C , 11-H ) :   0.9470 B(  8-C , 12-H ) :   0.9218
B(  8-C , 13-H ) :   0.9214

FINAL SINGLE POINT ENERGY      -212.032613767915

DIPOLE MOMENT
-------------
                                X             Y             Z
Electronic contribution:      0.09442      -2.71763      -1.80185
Nuclear contribution   :     -0.99366       2.78648       1.68526
                        -----------------------------------------
Total Dipole Moment    :     -0.89923       0.06885      -0.11659
                        -----------------------------------------
Magnitude (a.u.)       :      0.90937
Magnitude (Debye)      :      2.31143

Rotational constants in cm-1:     0.282898     0.128664     0.101801
Rotational constants in MHz :  8481.061354  3857.240210  3051.924245

                             ****ORCA TERMINATED NORMALLY****
TOTAL RUN TIME: 0 days 0 hours 0 minutes 58 seconds 152 msec
