                         Program Version 5.0.0 -  RELEASE  -
|  1> !LC-BLYP RIJCOSX def2-TZVPD def2/J TightSCF
|  2> *xyz 0 1
|  3> C          0.70466        1.44313       -4.50363
|  4> C          1.72854        1.42432       -5.63944
|  5> H          2.64672        1.95379       -5.38105
|  6> H          1.29992        1.93061       -6.50361
|  7> S          2.25263       -0.18811       -6.27184
|  8> O          3.56261       -0.44446       -5.63155
|  9> F          2.34494       -0.03374       -7.69650
| 10> O          1.26606       -1.15918       -5.80536
| 11> H         -0.17385        0.91270       -4.80656
| 12> H          0.44778        2.45562       -4.27173
| 13> H          1.12367        0.97423       -3.63791
| 14> *
| 15>
| 16> %MaxCore 64000
| 17>
| 18> %pal nprocs 4
| 19> end
| 20>
| 21> %scf
| 22>   MaxIter 150
| 23> end
| 24>
| 25>
| 26>                          ****END OF INPUT****

CARTESIAN COORDINATES (ANGSTROEM)
---------------------------------
  C      0.704660    1.443130   -4.503630
  C      1.728540    1.424320   -5.639440
  H      2.646720    1.953790   -5.381050
  H      1.299920    1.930610   -6.503610
  S      2.252630   -0.188110   -6.271840
  O      3.562610   -0.444460   -5.631550
  F      2.344940   -0.033740   -7.696500
  O      1.266060   -1.159180   -5.805360
  H     -0.173850    0.912700   -4.806560
  H      0.447780    2.455620   -4.271730
  H      1.123670    0.974230   -3.637910

 Total Charge           Charge          ....    0
 Multiplicity           Mult            ....    1
 Number of Electrons    NEL             ....   58
 Basis Dimension        Dim             ....  285

ORBITAL ENERGIES
----------------

  NO   OCC          E(Eh)            E(eV)
   0   2.0000     -88.521521     -2408.7931
   1   2.0000     -24.581066      -668.8848
   2   2.0000     -18.950088      -515.6581
   3   2.0000     -18.941850      -515.4339
   4   2.0000     -10.133552      -275.7480
   5   2.0000     -10.087922      -274.5063
   6   2.0000      -8.064174      -219.4373
   7   2.0000      -6.095867      -165.8770
   8   2.0000      -6.089087      -165.6925
   9   2.0000      -6.088723      -165.6826
  10   2.0000      -1.472900       -40.0797
  11   2.0000      -1.196285       -32.5526
  12   2.0000      -1.095530       -29.8109
  13   2.0000      -0.933774       -25.4093
  14   2.0000      -0.846251       -23.0277
  15   2.0000      -0.787001       -21.4154
  16   2.0000      -0.698589       -19.0096
  17   2.0000      -0.696283       -18.9468
  18   2.0000      -0.660818       -17.9818
  19   2.0000      -0.601165       -16.3585
  20   2.0000      -0.587811       -15.9952
  21   2.0000      -0.546993       -14.8844
  22   2.0000      -0.532385       -14.4869
  23   2.0000      -0.509201       -13.8561
  24   2.0000      -0.492289       -13.3959
  25   2.0000      -0.486898       -13.2492
  26   2.0000      -0.432725       -11.7751
  27   2.0000      -0.422448       -11.4954
  28   2.0000      -0.404677       -11.0118
  29   0.0000       0.032548         0.8857
  30   0.0000       0.049108         1.3363
  31   0.0000       0.056029         1.5246
  32   0.0000       0.061149         1.6640
  33   0.0000       0.085546         2.3278

MULLIKEN ATOMIC CHARGES
-----------------------
   0 C :   -1.293392
   1 C :   -0.732778
   2 H :    0.446192
   3 H :    0.450523
   4 S :    1.083320
   5 O :   -0.555091
   6 F :   -0.096152
   7 O :   -0.539937
   8 H :    0.403021
   9 H :    0.443099
  10 H :    0.391196
Sum of atomic charges:   -0.0000000

LOEWDIN ATOMIC CHARGES
----------------------
   0 C :   -0.115730
   1 C :   -0.289230
   2 H :    0.106095
   3 H :    0.096803
   4 S :    0.562199
   5 O :   -0.292102
   6 F :   -0.034752
   7 O :   -0.272782
   8 H :    0.075913
   9 H :    0.079711
  10 H :    0.083874

  Mayer bond orders larger than 0.100000
B(  0-C ,  1-C ) :   0.4519 B(  0-C ,  8-H ) :   0.9047 B(  0-C ,  9-H ) :   0.8485
B(  0-C , 10-H ) :   0.9220 B(  1-C ,  2-H ) :   0.8710 B(  1-C ,  3-H ) :   0.8116
B(  1-C ,  4-S ) :   0.9352 B(  4-S ,  5-O ) :   1.6816 B(  4-S ,  6-F ) :   1.0441
B(  4-S ,  7-O ) :   1.6936

FINAL SINGLE POINT ENERGY      -726.980448081648

DIPOLE MOMENT
-------------
                                X             Y             Z
Electronic contribution:      4.19877      -5.76028      -7.20886
Nuclear contribution   :     -4.83029       7.38191       6.79413
                        -----------------------------------------
Total Dipole Moment    :     -0.63152       1.62163      -0.41474
                        -----------------------------------------
Magnitude (a.u.)       :      1.78899
Magnitude (Debye)      :      4.54726

Rotational constants in cm-1:     0.156575     0.079070     0.076729
Rotational constants in MHz :  4694.010604  2370.444114  2300.280155

                             ****ORCA TERMINATED NORMALLY****
TOTAL RUN TIME: 0 days 0 hours 0 minutes 50 seconds 21 msec
