                         Program Version 5.0.0 -  RELEASE  -
|  1> !LC-BLYP RIJCOSX def2-TZVPD def2/J TightSCF
|  2> *xyz 0 1
|  3> C          2.91632       -1.24259       -1.54313
|  4> C          3.46659       -1.59097       -2.88908
|  5> N          4.65227       -1.14316       -3.25969
|  6> C          2.75226       -2.29204       -3.72803
|  7> H          1.77836       -2.48960       -3.51274
|  8> H          2.94861       -2.20854       -4.71681
|  9> H          5.14672       -0.51251       -2.63385
| 10> H          4.78303       -1.00720       -4.25350
| 11> C          2.80408        0.29070       -1.35924
| 12> H          1.94047       -1.71653       -1.44116
| 13> H          3.55857       -1.66343       -0.76637
| 14> H          2.17393        0.69633       -2.12297
| 15> H          3.77707        0.73043       -1.42880
| 16> H          2.38369        0.50492       -0.39889
| 17> *
| 18>
| 19> %MaxCore 64000
| 20>
| 21> %pal nprocs 4
| 22> end
| 23>
| 24> %scf
| 25>   MaxIter 150
| 26> end
| 27>
| 28>
| 29>                          ****END OF INPUT****

CARTESIAN COORDINATES (ANGSTROEM)
---------------------------------
  C      2.916320   -1.242590   -1.543130
  C      3.466590   -1.590970   -2.889080
  N      4.652270   -1.143160   -3.259690
  C      2.752260   -2.292040   -3.728030
  H      1.778360   -2.489600   -3.512740
  H      2.948610   -2.208540   -4.716810
  H      5.146720   -0.512510   -2.633850
  H      4.783030   -1.007200   -4.253500
  C      2.804080    0.290700   -1.359240
  H      1.940470   -1.716530   -1.441160
  H      3.558570   -1.663430   -0.766370
  H      2.173930    0.696330   -2.122970
  H      3.777070    0.730430   -1.428800
  H      2.383690    0.504920   -0.398890

 Total Charge           Charge          ....    0
 Multiplicity           Mult            ....    1
 Number of Electrons    NEL             ....   40
 Basis Dimension        Dim             ....  266

ORBITAL ENERGIES
----------------

  NO   OCC          E(Eh)            E(eV)
   0   2.0000     -14.169598      -385.5744
   1   2.0000     -10.090436      -274.5747
   2   2.0000     -10.070217      -274.0245
   3   2.0000     -10.059490      -273.7326
   4   2.0000     -10.000660      -272.1318
   5   2.0000      -1.035399       -28.1746
   6   2.0000      -0.888970       -24.1901
   7   2.0000      -0.832042       -22.6410
   8   2.0000      -0.745855       -20.2957
   9   2.0000      -0.671140       -18.2626
  10   2.0000      -0.632196       -17.2029
  11   2.0000      -0.583377       -15.8745
  12   2.0000      -0.541885       -14.7454
  13   2.0000      -0.540241       -14.7007
  14   2.0000      -0.489207       -13.3120
  15   2.0000      -0.483944       -13.1688
  16   2.0000      -0.456525       -12.4227
  17   2.0000      -0.442972       -12.0539
  18   2.0000      -0.422547       -11.4981
  19   2.0000      -0.293372        -7.9831
  20   0.0000       0.049800         1.3551
  21   0.0000       0.075088         2.0433
  22   0.0000       0.078684         2.1411
  23   0.0000       0.086927         2.3654
  24   0.0000       0.106057         2.8859

MULLIKEN ATOMIC CHARGES
-----------------------
   0 C :   -0.762814
   1 C :    0.512959
   2 N :   -0.405828
   3 C :   -0.982045
   4 H :    0.281804
   5 H :    0.333506
   6 H :    0.207485
   7 H :    0.182900
   8 C :   -1.196648
   9 H :    0.354635
  10 H :    0.355571
  11 H :    0.351597
  12 H :    0.370292
  13 H :    0.396587
Sum of atomic charges:   -0.0000000

LOEWDIN ATOMIC CHARGES
----------------------
   0 C :   -0.204178
   1 C :   -0.517401
   2 N :    0.107898
   3 C :    0.009387
   4 H :    0.028368
   5 H :    0.028668
   6 H :    0.102244
   7 H :    0.111471
   8 C :   -0.099745
   9 H :    0.112434
  10 H :    0.117780
  11 H :    0.077814
  12 H :    0.057136
  13 H :    0.068125

  Mayer bond orders larger than 0.100000
B(  0-C ,  1-C ) :   0.7297 B(  0-C ,  3-C ) :   0.1095 B(  0-C ,  8-C ) :   0.5100
B(  0-C ,  9-H ) :   0.9119 B(  0-C , 10-H ) :   0.9501 B(  1-C ,  2-N ) :   0.8397
B(  1-C ,  3-C ) :   1.3513 B(  1-C ,  5-H ) :  -0.1242 B(  1-C ,  8-C ) :  -0.1131
B(  2-N ,  3-C ) :   0.1120 B(  2-N ,  6-H ) :   0.9539 B(  2-N ,  7-H ) :   0.9980
B(  3-C ,  4-H ) :   1.0106 B(  3-C ,  5-H ) :   1.0266 B(  8-C , 11-H ) :   0.9897
B(  8-C , 12-H ) :   0.8881 B(  8-C , 13-H ) :   0.9304

FINAL SINGLE POINT ENERGY      -212.036401980019

DIPOLE MOMENT
-------------
                                X             Y             Z
Electronic contribution:      1.71203      -1.73125      -1.39931
Nuclear contribution   :     -1.43372       2.52039       1.57679
                        -----------------------------------------
Total Dipole Moment    :      0.27832       0.78913       0.17748
                        -----------------------------------------
Magnitude (a.u.)       :      0.85539
Magnitude (Debye)      :      2.17423

Rotational constants in cm-1:     0.274962     0.131786     0.102554
Rotational constants in MHz :  8243.150005  3950.846092  3074.493018

                             ****ORCA TERMINATED NORMALLY****
TOTAL RUN TIME: 0 days 0 hours 0 minutes 46 seconds 488 msec
