                         Program Version 5.0.0 -  RELEASE  -
|  1> !LC-BLYP RIJCOSX def2-TZVPD def2/J TightSCF
|  2> *xyz 0 1
|  3> C          0.70466        1.44313       -4.50363
|  4> C          1.72854        1.42432       -5.63944
|  5> H          2.64672        1.95379       -5.38105
|  6> H          1.29992        1.93061       -6.50361
|  7> S          2.25263       -0.18811       -6.27184
|  8> O          3.56261       -0.44446       -5.63155
|  9> O          2.34494       -0.03374       -7.69650
| 10> F          1.26606       -1.15918       -5.80536
| 11> H         -0.17385        0.91270       -4.80656
| 12> H          0.44778        2.45562       -4.27173
| 13> H          1.12367        0.97423       -3.63791
| 14> *
| 15>
| 16> %MaxCore 64000
| 17>
| 18> %pal nprocs 4
| 19> end
| 20>
| 21> %scf
| 22>   MaxIter 150
| 23> end
| 24>
| 25>
| 26>                          ****END OF INPUT****

CARTESIAN COORDINATES (ANGSTROEM)
---------------------------------
  C      0.704660    1.443130   -4.503630
  C      1.728540    1.424320   -5.639440
  H      2.646720    1.953790   -5.381050
  H      1.299920    1.930610   -6.503610
  S      2.252630   -0.188110   -6.271840
  O      3.562610   -0.444460   -5.631550
  O      2.344940   -0.033740   -7.696500
  F      1.266060   -1.159180   -5.805360
  H     -0.173850    0.912700   -4.806560
  H      0.447780    2.455620   -4.271730
  H      1.123670    0.974230   -3.637910

 Total Charge           Charge          ....    0
 Multiplicity           Mult            ....    1
 Number of Electrons    NEL             ....   58
 Basis Dimension        Dim             ....  285

ORBITAL ENERGIES
----------------

  NO   OCC          E(Eh)            E(eV)
   0   2.0000     -88.519838     -2408.7473
   1   2.0000     -24.568554      -668.5443
   2   2.0000     -18.957093      -515.8487
   3   2.0000     -18.941320      -515.4195
   4   2.0000     -10.132332      -275.7148
   5   2.0000     -10.095314      -274.7075
   6   2.0000      -8.062531      -219.3926
   7   2.0000      -6.094435      -165.8380
   8   2.0000      -6.087293      -165.6437
   9   2.0000      -6.087123      -165.6390
  10   2.0000      -1.451986       -39.5105
  11   2.0000      -1.205717       -32.8092
  12   2.0000      -1.103424       -30.0257
  13   2.0000      -0.936988       -25.4967
  14   2.0000      -0.835243       -22.7281
  15   2.0000      -0.788061       -21.4442
  16   2.0000      -0.699801       -19.0426
  17   2.0000      -0.681976       -18.5575
  18   2.0000      -0.648569       -17.6485
  19   2.0000      -0.604601       -16.4520
  20   2.0000      -0.579333       -15.7644
  21   2.0000      -0.556133       -15.1332
  22   2.0000      -0.546335       -14.8665
  23   2.0000      -0.517069       -14.0702
  24   2.0000      -0.498092       -13.5538
  25   2.0000      -0.490578       -13.3493
  26   2.0000      -0.437343       -11.9007
  27   2.0000      -0.423663       -11.5285
  28   2.0000      -0.411047       -11.1852
  29   0.0000       0.033045         0.8992
  30   0.0000       0.050904         1.3852
  31   0.0000       0.057135         1.5547
  32   0.0000       0.059806         1.6274
  33   0.0000       0.086554         2.3553

MULLIKEN ATOMIC CHARGES
-----------------------
   0 C :   -1.344639
   1 C :   -0.670977
   2 H :    0.437296
   3 H :    0.446355
   4 S :    1.092727
   5 O :   -0.560889
   6 O :   -0.519490
   7 F :   -0.132826
   8 H :    0.422985
   9 H :    0.425096
  10 H :    0.404361
Sum of atomic charges:    0.0000000

LOEWDIN ATOMIC CHARGES
----------------------
   0 C :   -0.123149
   1 C :   -0.281578
   2 H :    0.112031
   3 H :    0.101809
   4 S :    0.561005
   5 O :   -0.293402
   6 O :   -0.258374
   7 F :   -0.051412
   8 H :    0.073386
   9 H :    0.079575
  10 H :    0.080107

  Mayer bond orders larger than 0.100000
B(  0-C ,  1-C ) :   0.3814 B(  0-C ,  8-H ) :   0.8712 B(  0-C ,  9-H ) :   0.8837
B(  0-C , 10-H ) :   0.9130 B(  1-C ,  2-H ) :   0.8640 B(  1-C ,  3-H ) :   0.8549
B(  1-C ,  4-S ) :   0.9277 B(  4-S ,  5-O ) :   1.6801 B(  4-S ,  6-O ) :   1.7201
B(  4-S ,  7-F ) :   1.0196

FINAL SINGLE POINT ENERGY      -726.990174041876

DIPOLE MOMENT
-------------
                                X             Y             Z
Electronic contribution:      2.36364      -7.63703      -3.98756
Nuclear contribution   :     -3.70606       8.55465       4.82350
                        -----------------------------------------
Total Dipole Moment    :     -1.34242       0.91762       0.83594
                        -----------------------------------------
Magnitude (a.u.)       :      1.82836
Magnitude (Debye)      :      4.64733

Rotational constants in cm-1:     0.153201     0.080978     0.077494
Rotational constants in MHz :  4592.852844  2427.650814  2323.207507

                             ****ORCA TERMINATED NORMALLY****
TOTAL RUN TIME: 0 days 0 hours 0 minutes 49 seconds 759 msec
