                         Program Version 5.0.0 -  RELEASE  -
|  1> !LC-BLYP RIJCOSX def2-TZVPD def2/J TightSCF xyzfile
|  2>
|  3> *xyzfile 0 1 D1.xyz
|  4>
|  5> %MaxCore 64000
|  6>
|  7> %pal nprocs 4
|  8> end
|  9>
| 10> %scf
| 11>   MaxIter 150
| 12> end
| 13>
| 14>
| 15>                          ****END OF INPUT****

CARTESIAN COORDINATES (ANGSTROEM)
---------------------------------
  C      2.916324   -1.242589   -1.543125
  C      0.704661    1.443129   -4.503630
  C      1.728539    1.424320   -5.639443
  H      2.646718    1.953794   -5.381054
  H      1.299916    1.930613   -6.503614
  S      2.252625   -0.188115   -6.271840
  C      3.466585   -1.590971   -2.889082
  C      4.652275   -1.143164   -3.259692
  N      2.752264   -2.292043   -3.728029
  H      1.778364   -2.489604   -3.512738
  H      2.948612   -2.208544   -4.716813
  H      5.146723   -0.512508   -2.633852
  H      4.783030   -1.007203   -4.253498
  F      3.562607   -0.444464   -5.631552
  O      2.344944   -0.033742   -7.696501
  C      2.804084    0.290698   -1.359243
  C      1.052550    0.695659   -3.214915
  H     -0.232483    1.032925   -4.884449
  H      0.511700    2.495794   -4.267966
  C      2.388380    1.093669   -2.597108
  H      3.763425    0.674718   -0.999889
  H      2.094788    0.461222   -0.545756
  O      1.266058   -1.159177   -5.805365
  H      3.167316    1.013242   -3.359430
  H      2.357690    2.149375   -2.310997
  H      1.039284   -0.368429   -3.449329
  H      0.250787    0.865605   -2.488283
  H      1.940472   -1.716529   -1.441161
  H      3.558569   -1.663433   -0.766371

 Total Charge           Charge          ....    0
 Multiplicity           Mult            ....    1
 Number of Electrons    NEL             ....  112
 Basis Dimension        Dim             ....  643

ORBITAL ENERGIES
----------------

  NO   OCC          E(Eh)            E(eV)
   0   2.0000     -88.526664     -2408.9330
   1   2.0000     -24.566482      -668.4879
   2   2.0000     -18.964009      -516.0369
   3   2.0000     -18.959911      -515.9254
   4   2.0000     -14.165175      -385.4540
   5   2.0000     -10.134349      -275.7697
   6   2.0000     -10.098820      -274.8029
   7   2.0000     -10.090710      -274.5822
   8   2.0000     -10.076250      -274.1887
   9   2.0000     -10.074204      -274.1330
  10   2.0000     -10.072665      -274.0911
  11   2.0000     -10.071860      -274.0692
  12   2.0000      -9.994346      -271.9600
  13   2.0000      -8.069739      -219.5888
  14   2.0000      -6.101676      -166.0350
  15   2.0000      -6.094666      -165.8443
  16   2.0000      -6.094083      -165.8284
  17   2.0000      -1.447813       -39.3970
  18   2.0000      -1.219042       -33.1718
  19   2.0000      -1.125631       -30.6300
  20   2.0000      -1.037451       -28.2305
  21   2.0000      -0.953508       -25.9463
  22   2.0000      -0.915713       -24.9178
  23   2.0000      -0.874379       -23.7931
  24   2.0000      -0.842348       -22.9215
  25   2.0000      -0.807743       -21.9798
  26   2.0000      -0.799470       -21.7547
  27   2.0000      -0.745538       -20.2871
  28   2.0000      -0.707854       -19.2617
  29   2.0000      -0.688334       -18.7305
  30   2.0000      -0.679355       -18.4862
  31   2.0000      -0.670146       -18.2356
  32   2.0000      -0.654752       -17.8167
  33   2.0000      -0.622778       -16.9466
  34   2.0000      -0.608305       -16.5528
  35   2.0000      -0.601521       -16.3682
  36   2.0000      -0.585994       -15.9457
  37   2.0000      -0.580983       -15.8094
  38   2.0000      -0.565043       -15.3756
  39   2.0000      -0.550030       -14.9671
  40   2.0000      -0.538925       -14.6649
  41   2.0000      -0.528344       -14.3770
  42   2.0000      -0.507445       -13.8083
  43   2.0000      -0.496075       -13.4989
  44   2.0000      -0.488531       -13.2936
  45   2.0000      -0.484064       -13.1721
  46   2.0000      -0.476939       -12.9782
  47   2.0000      -0.461525       -12.5587
  48   2.0000      -0.453649       -12.3444
  49   2.0000      -0.444346       -12.0913
  50   2.0000      -0.439664       -11.9639
  51   2.0000      -0.429314       -11.6822
  52   2.0000      -0.422942       -11.5088
  53   2.0000      -0.419935       -11.4270
  54   2.0000      -0.415655       -11.3106
  55   2.0000      -0.283070        -7.7027
  56   0.0000       0.035468         0.9651
  57   0.0000       0.045801         1.2463
  58   0.0000       0.050669         1.3788
  59   0.0000       0.052321         1.4237
  60   0.0000       0.069526         1.8919

MULLIKEN ATOMIC CHARGES
-----------------------
   0 C :   -0.969116
   1 C :   -0.852841
   2 C :   -1.115098
   3 H :    0.540489
   4 H :    0.497588
   5 S :    1.166920
   6 C :    0.224386
   7 C :   -1.072526
   8 N :   -0.420685
   9 H :    0.250871
  10 H :    0.191719
  11 H :    0.352802
  12 H :    0.574411
  13 F :   -0.188347
  14 O :   -0.525730
  15 C :   -0.882538
  16 C :   -0.668540
  17 H :    0.437357
  18 H :    0.454807
  19 C :   -0.685887
  20 H :    0.429538
  21 H :    0.444054
  22 O :   -0.611806
  23 H :    0.426560
  24 H :    0.415130
  25 H :    0.373149
  26 H :    0.390551
  27 H :    0.424837
  28 H :    0.397945
Sum of atomic charges:   -0.0000000

LOEWDIN ATOMIC CHARGES
----------------------
   0 C :   -0.143244
   1 C :   -0.226391
   2 C :   -0.222028
   3 H :    0.108684
   4 H :    0.111924
   5 S :    0.592520
   6 C :   -0.505066
   7 C :    0.001075
   8 N :    0.118991
   9 H :    0.111695
  10 H :    0.075920
  11 H :    0.039767
  12 H :    0.013483
  13 F :   -0.095576
  14 O :   -0.242740
  15 C :   -0.195718
  16 C :   -0.215648
  17 H :    0.121367
  18 H :    0.126806
  19 C :   -0.218109
  20 H :    0.114484
  21 H :    0.114389
  22 O :   -0.265640
  23 H :    0.095754
  24 H :    0.124674
  25 H :    0.089168
  26 H :    0.128715
  27 H :    0.114301
  28 H :    0.126443

  Mayer bond orders larger than 0.100000
B(  0-C ,  6-C ) :   0.4368 B(  0-C , 15-C ) :   0.6165 B(  0-C , 19-C ) :  -0.1227
B(  0-C , 27-H ) :   0.9783 B(  0-C , 28-H ) :   0.9543 B(  1-C ,  2-C ) :   0.4988
B(  1-C , 16-C ) :   0.6464 B(  1-C , 17-H ) :   0.9039 B(  1-C , 18-H ) :   0.8720
B(  2-C ,  3-H ) :   0.7412 B(  2-C ,  4-H ) :   0.8476 B(  2-C ,  5-S ) :   0.9488
B(  2-C , 14-O ) :   0.1326 B(  5-S , 13-F ) :   1.0757 B(  5-S , 14-O ) :   1.5385
B(  5-S , 22-O ) :   1.5715 B(  6-C ,  7-C ) :   1.5744 B(  6-C ,  8-N ) :   0.7437
B(  6-C , 11-H ) :  -0.1168 B(  6-C , 12-H ) :  -0.1277 B(  6-C , 27-H ) :  -0.1290
B(  7-C , 11-H ) :   1.0895 B(  7-C , 12-H ) :   0.6656 B(  7-C , 23-H ) :  -0.1063
B(  8-N ,  9-H ) :   0.8576 B(  8-N , 10-H ) :   0.9200 B( 15-C , 19-C ) :   0.6425
B( 15-C , 20-H ) :   0.9158 B( 15-C , 21-H ) :   0.8677 B( 16-C , 19-C ) :   0.2538
B( 16-C , 23-H ) :  -0.1363 B( 16-C , 25-H ) :   1.0903 B( 16-C , 26-H ) :   0.9190
B( 19-C , 23-H ) :   1.0385 B( 19-C , 24-H ) :   0.8715 B( 19-C , 25-H ) :  -0.1317

FINAL SINGLE POINT ENERGY     -1016.265502375999

DIPOLE MOMENT
-------------
                                X             Y             Z
Electronic contribution:      2.13652      -4.90560     -18.54973
Nuclear contribution   :     -2.89481       6.29550      19.36835
                        -----------------------------------------
Total Dipole Moment    :     -0.75829       1.38990       0.81863
                        -----------------------------------------
Magnitude (a.u.)       :      1.78241
Magnitude (Debye)      :      4.53052

Rotational constants in cm-1:     0.036515     0.018832     0.015081
Rotational constants in MHz :  1094.679513   564.567051   452.109105

                             ****ORCA TERMINATED NORMALLY****
TOTAL RUN TIME: 0 days 0 hours 6 minutes 10 seconds 332 msec
