                         Program Version 5.0.0 -  RELEASE  -
|  1> !LC-BLYP RIJCOSX def2-TZVPD def2/J TightSCF xyzfile
|  2>
|  3> *xyzfile 0 1 D2.xyz
|  4>
|  5> %MaxCore 64000
|  6>
|  7> %pal nprocs 4
|  8> end
|  9>
| 10> %scf
| 11>   MaxIter 150
| 12> end
| 13>
| 14>
| 15>                          ****END OF INPUT****

CARTESIAN COORDINATES (ANGSTROEM)
---------------------------------
  C      2.916324   -1.242589   -1.543125
  C      0.704661    1.443129   -4.503630
  C      1.728539    1.424320   -5.639443
  H      2.646718    1.953794   -5.381054
  H      1.299916    1.930613   -6.503614
  S      2.252625   -0.188115   -6.271840
  C      3.466585   -1.590971   -2.889082
  N      4.652275   -1.143164   -3.259692
  C      2.752264   -2.292043   -3.728029
  H      1.778364   -2.489604   -3.512738
  H      2.948612   -2.208544   -4.716813
  H      5.146723   -0.512508   -2.633852
  H      4.783030   -1.007203   -4.253498
  F      3.562607   -0.444464   -5.631552
  O      2.344944   -0.033742   -7.696501
  C      2.804084    0.290698   -1.359243
  C      1.052550    0.695659   -3.214915
  H     -0.232483    1.032925   -4.884449
  H      0.511700    2.495794   -4.267966
  C      2.388380    1.093669   -2.597108
  H      3.763425    0.674718   -0.999889
  H      2.094788    0.461222   -0.545756
  O      1.266058   -1.159177   -5.805365
  H      3.167316    1.013242   -3.359430
  H      2.357690    2.149375   -2.310997
  H      1.039284   -0.368429   -3.449329
  H      0.250787    0.865605   -2.488283
  H      1.940472   -1.716529   -1.441161
  H      3.558569   -1.663433   -0.766371

 Total Charge           Charge          ....    0
 Multiplicity           Mult            ....    1
 Number of Electrons    NEL             ....  112
 Basis Dimension        Dim             ....  643

ORBITAL ENERGIES
----------------

  NO   OCC          E(Eh)            E(eV)
   0   2.0000     -88.520554     -2408.7667
   1   2.0000     -24.564525      -668.4347
   2   2.0000     -18.959033      -515.9015
   3   2.0000     -18.948826      -515.6238
   4   2.0000     -14.167947      -385.5294
   5   2.0000     -10.130920      -275.6764
   6   2.0000     -10.094749      -274.6921
   7   2.0000     -10.086361      -274.4638
   8   2.0000     -10.077156      -274.2133
   9   2.0000     -10.075231      -274.1610
  10   2.0000     -10.070400      -274.0295
  11   2.0000     -10.070178      -274.0235
  12   2.0000      -9.996714      -272.0244
  13   2.0000      -8.063525      -219.4197
  14   2.0000      -6.095634      -165.8706
  15   2.0000      -6.088322      -165.6717
  16   2.0000      -6.087815      -165.6579
  17   2.0000      -1.445269       -39.3278
  18   2.0000      -1.212180       -32.9851
  19   2.0000      -1.116699       -30.3869
  20   2.0000      -1.036696       -28.2099
  21   2.0000      -0.950013       -25.8512
  22   2.0000      -0.913617       -24.8608
  23   2.0000      -0.871775       -23.7222
  24   2.0000      -0.843947       -22.9650
  25   2.0000      -0.818110       -22.2619
  26   2.0000      -0.791726       -21.5440
  27   2.0000      -0.739358       -20.1189
  28   2.0000      -0.706505       -19.2250
  29   2.0000      -0.682619       -18.5750
  30   2.0000      -0.678482       -18.4624
  31   2.0000      -0.665680       -18.1141
  32   2.0000      -0.654970       -17.8226
  33   2.0000      -0.630254       -17.1501
  34   2.0000      -0.603217       -16.4144
  35   2.0000      -0.600760       -16.3475
  36   2.0000      -0.586824       -15.9683
  37   2.0000      -0.571789       -15.5592
  38   2.0000      -0.557440       -15.1687
  39   2.0000      -0.549112       -14.9421
  40   2.0000      -0.540698       -14.7131
  41   2.0000      -0.522628       -14.2214
  42   2.0000      -0.508209       -13.8291
  43   2.0000      -0.495519       -13.4838
  44   2.0000      -0.488834       -13.3019
  45   2.0000      -0.485052       -13.1989
  46   2.0000      -0.468579       -12.7507
  47   2.0000      -0.459185       -12.4951
  48   2.0000      -0.449559       -12.2331
  49   2.0000      -0.436573       -11.8798
  50   2.0000      -0.433729       -11.8024
  51   2.0000      -0.425110       -11.5678
  52   2.0000      -0.423159       -11.5147
  53   2.0000      -0.414015       -11.2659
  54   2.0000      -0.413216       -11.2442
  55   2.0000      -0.290206        -7.8969
  56   0.0000       0.032037         0.8718
  57   0.0000       0.045453         1.2368
  58   0.0000       0.049881         1.3573
  59   0.0000       0.055134         1.5003
  60   0.0000       0.071745         1.9523

MULLIKEN ATOMIC CHARGES
-----------------------
   0 C :   -0.930423
   1 C :   -0.867026
   2 C :   -1.117155
   3 H :    0.531991
   4 H :    0.498011
   5 S :    1.200995
   6 C :    0.264976
   7 N :   -0.365402
   8 C :   -1.532665
   9 H :    0.493593
  10 H :    0.756441
  11 H :    0.226677
  12 H :    0.257637
  13 F :   -0.201573
  14 O :   -0.538814
  15 C :   -0.913260
  16 C :   -0.614217
  17 H :    0.449991
  18 H :    0.452095
  19 C :   -0.663272
  20 H :    0.450437
  21 H :    0.423340
  22 O :   -0.584345
  23 H :    0.374522
  24 H :    0.414420
  25 H :    0.401992
  26 H :    0.379483
  27 H :    0.359280
  28 H :    0.392271
Sum of atomic charges:   -0.0000000

LOEWDIN ATOMIC CHARGES
----------------------
   0 C :   -0.145810
   1 C :   -0.226018
   2 C :   -0.223900
   3 H :    0.105830
   4 H :    0.111376
   5 S :    0.592859
   6 C :   -0.504301
   7 N :    0.116389
   8 C :   -0.003598
   9 H :    0.045809
  10 H :    0.009236
  11 H :    0.113633
  12 H :    0.087625
  13 F :   -0.099268
  14 O :   -0.244577
  15 C :   -0.199089
  16 C :   -0.213329
  17 H :    0.122166
  18 H :    0.125535
  19 C :   -0.219260
  20 H :    0.108914
  21 H :    0.115450
  22 O :   -0.256617
  23 H :    0.093876
  24 H :    0.123836
  25 H :    0.092159
  26 H :    0.128932
  27 H :    0.120065
  28 H :    0.122077

  Mayer bond orders larger than 0.100000
B(  0-C ,  6-C ) :   0.5822 B(  0-C ,  8-C ) :   0.1373 B(  0-C , 15-C ) :   0.5724
B(  0-C , 19-C ) :  -0.1814 B(  0-C , 27-H ) :   1.0026 B(  0-C , 28-H ) :   0.9790
B(  1-C ,  2-C ) :   0.5025 B(  1-C , 16-C ) :   0.6414 B(  1-C , 17-H ) :   0.8812
B(  1-C , 18-H ) :   0.8813 B(  2-C ,  3-H ) :   0.7499 B(  2-C ,  4-H ) :   0.8491
B(  2-C ,  5-S ) :   0.9486 B(  2-C , 14-O ) :   0.1374 B(  2-C , 19-C ) :   0.1145
B(  5-S , 13-F ) :   1.0964 B(  5-S , 14-O ) :   1.5274 B(  5-S , 22-O ) :   1.6176
B(  6-C ,  7-N ) :   0.7562 B(  6-C ,  8-C ) :   1.4457 B(  6-C ,  9-H ) :  -0.1534
B(  6-C , 10-H ) :  -0.2015 B(  7-N , 11-H ) :   0.8762 B(  7-N , 12-H ) :   0.8653
B(  8-C ,  9-H ) :   0.9230 B(  8-C , 10-H ) :   0.5552 B(  9-H , 10-H ) :   0.1306
B( 15-C , 19-C ) :   0.5870 B( 15-C , 20-H ) :   0.9013 B( 15-C , 21-H ) :   0.8823
B( 16-C , 19-C ) :   0.2336 B( 16-C , 23-H ) :  -0.1253 B( 16-C , 25-H ) :   1.0669
B( 16-C , 26-H ) :   0.9343 B( 19-C , 23-H ) :   1.0592 B( 19-C , 24-H ) :   0.9038
B( 19-C , 25-H ) :  -0.1211

FINAL SINGLE POINT ENERGY     -1016.265796155183

DIPOLE MOMENT
-------------
                                X             Y             Z
Electronic contribution:      3.43531      -4.22570     -18.22198
Nuclear contribution   :     -3.13969       6.14743      19.30799
                        -----------------------------------------
Total Dipole Moment    :      0.29562       1.92173       1.08602
                        -----------------------------------------
Magnitude (a.u.)       :      2.22708
Magnitude (Debye)      :      5.66078

Rotational constants in cm-1:     0.036460     0.018762     0.015014
Rotational constants in MHz :  1093.039020   562.475626   450.105862

                             ****ORCA TERMINATED NORMALLY****
TOTAL RUN TIME: 0 days 0 hours 6 minutes 38 seconds 128 msec
