                         Program Version 5.0.0 -  RELEASE  -
|  1> !LC-BLYP RIJCOSX def2-TZVPD def2/J TightSCF xyzfile
|  2>
|  3> *xyzfile 0 1 D3.xyz
|  4>
|  5> %MaxCore 64000
|  6>
|  7> %pal nprocs 4
|  8> end
|  9>
| 10> %scf
| 11>   MaxIter 150
| 12> end
| 13>
| 14>
| 15>                          ****END OF INPUT****

CARTESIAN COORDINATES (ANGSTROEM)
---------------------------------
  C      2.916324   -1.242589   -1.543125
  C      0.704661    1.443129   -4.503630
  C      1.728539    1.424320   -5.639443
  H      2.646718    1.953794   -5.381054
  H      1.299916    1.930613   -6.503614
  S      2.252625   -0.188115   -6.271840
  C      3.466585   -1.590971   -2.889082
  C      4.652275   -1.143164   -3.259692
  N      2.752264   -2.292043   -3.728029
  H      1.778364   -2.489604   -3.512738
  H      2.948612   -2.208544   -4.716813
  H      5.146723   -0.512508   -2.633852
  H      4.783030   -1.007203   -4.253498
  O      3.562607   -0.444464   -5.631552
  F      2.344944   -0.033742   -7.696501
  C      2.804084    0.290698   -1.359243
  C      1.052550    0.695659   -3.214915
  H     -0.232483    1.032925   -4.884449
  H      0.511700    2.495794   -4.267966
  C      2.388380    1.093669   -2.597108
  H      3.763425    0.674718   -0.999889
  H      2.094788    0.461222   -0.545756
  O      1.266058   -1.159177   -5.805365
  H      3.167316    1.013242   -3.359430
  H      2.357690    2.149375   -2.310997
  H      1.039284   -0.368429   -3.449329
  H      0.250787    0.865605   -2.488283
  H      1.940472   -1.716529   -1.441161
  H      3.558569   -1.663433   -0.766371

 Total Charge           Charge          ....    0
 Multiplicity           Mult            ....    1
 Number of Electrons    NEL             ....  112
 Basis Dimension        Dim             ....  643

ORBITAL ENERGIES
----------------

  NO   OCC          E(Eh)            E(eV)
   0   2.0000     -88.533289     -2409.1133
   1   2.0000     -24.590549      -669.1429
   2   2.0000     -18.964305      -516.0450
   3   2.0000     -18.954963      -515.7908
   4   2.0000     -14.141351      -384.8057
   5   2.0000     -10.138097      -275.8716
   6   2.0000     -10.100242      -274.8416
   7   2.0000     -10.069940      -274.0170
   8   2.0000     -10.067357      -273.9467
   9   2.0000     -10.061706      -273.7929
  10   2.0000     -10.059851      -273.7425
  11   2.0000     -10.057176      -273.6697
  12   2.0000      -9.968300      -271.2512
  13   2.0000      -8.076427      -219.7708
  14   2.0000      -6.108053      -166.2086
  15   2.0000      -6.101354      -166.0263
  16   2.0000      -6.100939      -166.0150
  17   2.0000      -1.482723       -40.3470
  18   2.0000      -1.213152       -33.0116
  19   2.0000      -1.112582       -30.2749
  20   2.0000      -1.014075       -27.5944
  21   2.0000      -0.952529       -25.9196
  22   2.0000      -0.906936       -24.6790
  23   2.0000      -0.873184       -23.7606
  24   2.0000      -0.835705       -22.7407
  25   2.0000      -0.806935       -21.9578
  26   2.0000      -0.783620       -21.3234
  27   2.0000      -0.744711       -20.2646
  28   2.0000      -0.710339       -19.3293
  29   2.0000      -0.705316       -19.1926
  30   2.0000      -0.679603       -18.4930
  31   2.0000      -0.670605       -18.2481
  32   2.0000      -0.642275       -17.4772
  33   2.0000      -0.613222       -16.6866
  34   2.0000      -0.604442       -16.4477
  35   2.0000      -0.600812       -16.3489
  36   2.0000      -0.585524       -15.9329
  37   2.0000      -0.574032       -15.6202
  38   2.0000      -0.554215       -15.0810
  39   2.0000      -0.542464       -14.7612
  40   2.0000      -0.530920       -14.4471
  41   2.0000      -0.518292       -14.1034
  42   2.0000      -0.505500       -13.7554
  43   2.0000      -0.487298       -13.2601
  44   2.0000      -0.480589       -13.0775
  45   2.0000      -0.463973       -12.6253
  46   2.0000      -0.458367       -12.4728
  47   2.0000      -0.451866       -12.2959
  48   2.0000      -0.444391       -12.0925
  49   2.0000      -0.435857       -11.8603
  50   2.0000      -0.426771       -11.6130
  51   2.0000      -0.423264       -11.5176
  52   2.0000      -0.412132       -11.2147
  53   2.0000      -0.404159       -10.9977
  54   2.0000      -0.399006       -10.8575
  55   2.0000      -0.259452        -7.0600
  56   0.0000       0.022949         0.6245
  57   0.0000       0.044560         1.2125
  58   0.0000       0.046395         1.2625
  59   0.0000       0.056960         1.5500
  60   0.0000       0.070457         1.9172

MULLIKEN ATOMIC CHARGES
-----------------------
   0 C :   -0.969385
   1 C :   -0.885696
   2 C :   -1.146878
   3 H :    0.502952
   4 H :    0.564591
   5 S :    1.174627
   6 C :    0.184825
   7 C :   -1.096578
   8 N :   -0.439507
   9 H :    0.243521
  10 H :    0.248288
  11 H :    0.333873
  12 H :    0.641847
  13 O :   -0.638969
  14 F :   -0.045198
  15 C :   -0.861676
  16 C :   -0.645969
  17 H :    0.423399
  18 H :    0.444646
  19 C :   -0.756552
  20 H :    0.427801
  21 H :    0.442205
  22 O :   -0.619825
  23 H :    0.496398
  24 H :    0.405827
  25 H :    0.365756
  26 H :    0.389037
  27 H :    0.423827
  28 H :    0.392813
Sum of atomic charges:   -0.0000000

LOEWDIN ATOMIC CHARGES
----------------------
   0 C :   -0.146819
   1 C :   -0.224059
   2 C :   -0.224541
   3 H :    0.111804
   4 H :    0.103630
   5 S :    0.615706
   6 C :   -0.507695
   7 C :   -0.001578
   8 N :    0.115020
   9 H :    0.106519
  10 H :    0.071854
  11 H :    0.036971
  12 H :    0.003715
  13 O :   -0.296644
  14 F :   -0.021676
  15 C :   -0.197616
  16 C :   -0.212430
  17 H :    0.119518
  18 H :    0.127704
  19 C :   -0.216398
  20 H :    0.113623
  21 H :    0.111966
  22 O :   -0.265730
  23 H :    0.099324
  24 H :    0.122665
  25 H :    0.091065
  26 H :    0.128118
  27 H :    0.111933
  28 H :    0.124051

  Mayer bond orders larger than 0.100000
B(  0-C ,  6-C ) :   0.4199 B(  0-C , 15-C ) :   0.6207 B(  0-C , 19-C ) :  -0.1213
B(  0-C , 27-H ) :   0.9827 B(  0-C , 28-H ) :   0.9582 B(  1-C ,  2-C ) :   0.5662
B(  1-C , 16-C ) :   0.6325 B(  1-C , 17-H ) :   0.9038 B(  1-C , 18-H ) :   0.8755
B(  2-C ,  3-H ) :   0.8285 B(  2-C ,  4-H ) :   0.7238 B(  2-C ,  5-S ) :   0.9420
B(  2-C , 13-O ) :   0.1487 B(  5-S , 13-O ) :   1.6795 B(  5-S , 14-F ) :   0.9374
B(  5-S , 22-O ) :   1.6136 B(  6-C ,  7-C ) :   1.6086 B(  6-C ,  8-N ) :   0.7698
B(  6-C , 11-H ) :  -0.1236 B(  6-C , 12-H ) :  -0.1168 B(  6-C , 27-H ) :  -0.1311
B(  7-C , 11-H ) :   1.1219 B(  7-C , 12-H ) :   0.6083 B(  7-C , 23-H ) :  -0.1103
B(  8-N ,  9-H ) :   0.8624 B(  8-N , 10-H ) :   0.8668 B( 13-O , 22-O ) :   0.1301
B( 15-C , 19-C ) :   0.6206 B( 15-C , 20-H ) :   0.9166 B( 15-C , 21-H ) :   0.8687
B( 16-C , 19-C ) :   0.2642 B( 16-C , 23-H ) :  -0.1109 B( 16-C , 25-H ) :   1.0754
B( 16-C , 26-H ) :   0.9289 B( 19-C , 23-H ) :   0.9727 B( 19-C , 24-H ) :   0.8955
B( 19-C , 25-H ) :  -0.1147

FINAL SINGLE POINT ENERGY     -1016.248295024341

DIPOLE MOMENT
-------------
                                X             Y             Z
Electronic contribution:      0.02857      -4.10493     -22.52222
Nuclear contribution   :     -1.50273       5.82595      21.72909
                        -----------------------------------------
Total Dipole Moment    :     -1.47416       1.72102      -0.79313
                        -----------------------------------------
Magnitude (a.u.)       :      2.40086
Magnitude (Debye)      :      6.10249

Rotational constants in cm-1:     0.036883     0.018294     0.014745
Rotational constants in MHz :  1105.724679   548.429785   442.050481

                             ****ORCA TERMINATED NORMALLY****
TOTAL RUN TIME: 0 days 0 hours 6 minutes 44 seconds 25 msec
