                         Program Version 5.0.0 -  RELEASE  -
|  1> !LC-BLYP RIJCOSX def2-TZVPD def2/J TightSCF xyzfile
|  2>
|  3> *xyzfile 0 1 D4.xyz
|  4>
|  5> %MaxCore 64000
|  6>
|  7> %pal nprocs 4
|  8> end
|  9>
| 10> %scf
| 11>   MaxIter 150
| 12> end
| 13>
| 14>
| 15>                          ****END OF INPUT****

CARTESIAN COORDINATES (ANGSTROEM)
---------------------------------
  C      2.916324   -1.242589   -1.543125
  C      0.704661    1.443129   -4.503630
  C      1.728539    1.424320   -5.639443
  H      2.646718    1.953794   -5.381054
  H      1.299916    1.930613   -6.503614
  S      2.252625   -0.188115   -6.271840
  C      3.466585   -1.590971   -2.889082
  N      4.652275   -1.143164   -3.259692
  C      2.752264   -2.292043   -3.728029
  H      1.778364   -2.489604   -3.512738
  H      2.948612   -2.208544   -4.716813
  H      5.146723   -0.512508   -2.633852
  H      4.783030   -1.007203   -4.253498
  O      3.562607   -0.444464   -5.631552
  F      2.344944   -0.033742   -7.696501
  C      2.804084    0.290698   -1.359243
  C      1.052550    0.695659   -3.214915
  H     -0.232483    1.032925   -4.884449
  H      0.511700    2.495794   -4.267966
  C      2.388380    1.093669   -2.597108
  H      3.763425    0.674718   -0.999889
  H      2.094788    0.461222   -0.545756
  O      1.266058   -1.159177   -5.805365
  H      3.167316    1.013242   -3.359430
  H      2.357690    2.149375   -2.310997
  H      1.039284   -0.368429   -3.449329
  H      0.250787    0.865605   -2.488283
  H      1.940472   -1.716529   -1.441161
  H      3.558569   -1.663433   -0.766371

 Total Charge           Charge          ....    0
 Multiplicity           Mult            ....    1
 Number of Electrons    NEL             ....  112
 Basis Dimension        Dim             ....  643

ORBITAL ENERGIES
----------------

  NO   OCC          E(Eh)            E(eV)
   0   2.0000     -88.529201     -2409.0020
   1   2.0000     -24.586715      -669.0385
   2   2.0000     -18.955302      -515.8000
   3   2.0000     -18.951847      -515.7060
   4   2.0000     -14.140279      -384.7766
   5   2.0000     -10.134842      -275.7831
   6   2.0000     -10.096380      -274.7365
   7   2.0000     -10.064818      -273.8776
   8   2.0000     -10.064795      -273.8770
   9   2.0000     -10.063996      -273.8553
  10   2.0000     -10.062988      -273.8278
  11   2.0000     -10.055203      -273.6160
  12   2.0000      -9.973033      -271.3800
  13   2.0000      -8.071990      -219.6500
  14   2.0000      -6.103625      -166.0881
  15   2.0000      -6.096876      -165.9044
  16   2.0000      -6.096614      -165.8973
  17   2.0000      -1.478754       -40.2390
  18   2.0000      -1.206327       -32.8258
  19   2.0000      -1.106862       -30.1193
  20   2.0000      -1.010718       -27.5030
  21   2.0000      -0.948894       -25.8207
  22   2.0000      -0.905484       -24.6395
  23   2.0000      -0.868059       -23.6211
  24   2.0000      -0.836225       -22.7549
  25   2.0000      -0.813620       -22.1397
  26   2.0000      -0.781570       -21.2676
  27   2.0000      -0.736773       -20.0486
  28   2.0000      -0.707159       -19.2428
  29   2.0000      -0.701206       -19.0808
  30   2.0000      -0.677151       -18.4262
  31   2.0000      -0.669635       -18.2217
  32   2.0000      -0.640140       -17.4191
  33   2.0000      -0.613582       -16.6964
  34   2.0000      -0.605693       -16.4817
  35   2.0000      -0.601664       -16.3721
  36   2.0000      -0.577836       -15.7237
  37   2.0000      -0.562678       -15.3113
  38   2.0000      -0.553439       -15.0598
  39   2.0000      -0.545109       -14.8332
  40   2.0000      -0.530992       -14.4490
  41   2.0000      -0.512086       -13.9346
  42   2.0000      -0.503206       -13.6929
  43   2.0000      -0.485155       -13.2017
  44   2.0000      -0.481069       -13.0905
  45   2.0000      -0.470715       -12.8088
  46   2.0000      -0.457590       -12.4517
  47   2.0000      -0.450963       -12.2713
  48   2.0000      -0.441312       -12.0087
  49   2.0000      -0.427360       -11.6290
  50   2.0000      -0.422661       -11.5012
  51   2.0000      -0.417334       -11.3562
  52   2.0000      -0.412635       -11.2284
  53   2.0000      -0.403518       -10.9803
  54   2.0000      -0.394374       -10.7315
  55   2.0000      -0.267166        -7.2700
  56   0.0000       0.024360         0.6629
  57   0.0000       0.045627         1.2416
  58   0.0000       0.047465         1.2916
  59   0.0000       0.057422         1.5625
  60   0.0000       0.071997         1.9591

MULLIKEN ATOMIC CHARGES
-----------------------
   0 C :   -0.930340
   1 C :   -0.898341
   2 C :   -1.144231
   3 H :    0.491291
   4 H :    0.563288
   5 S :    1.168757
   6 C :    0.243640
   7 N :   -0.367013
   8 C :   -1.519561
   9 H :    0.514764
  10 H :    0.739401
  11 H :    0.221956
  12 H :    0.303070
  13 O :   -0.653727
  14 F :   -0.047337
  15 C :   -0.893675
  16 C :   -0.577572
  17 H :    0.436464
  18 H :    0.440559
  19 C :   -0.720476
  20 H :    0.447550
  21 H :    0.418504
  22 O :   -0.593025
  23 H :    0.438154
  24 H :    0.406275
  25 H :    0.387136
  26 H :    0.377257
  27 H :    0.359732
  28 H :    0.387503
Sum of atomic charges:   -0.0000000

LOEWDIN ATOMIC CHARGES
----------------------
   0 C :   -0.149084
   1 C :   -0.223687
   2 C :   -0.226331
   3 H :    0.109088
   4 H :    0.103169
   5 S :    0.616766
   6 C :   -0.505885
   7 N :    0.115722
   8 C :   -0.009825
   9 H :    0.040924
  10 H :    0.005204
  11 H :    0.109629
  12 H :    0.075759
  13 O :   -0.303518
  14 F :   -0.022065
  15 C :   -0.200688
  16 C :   -0.210197
  17 H :    0.120277
  18 H :    0.126486
  19 C :   -0.217673
  20 H :    0.108171
  21 H :    0.113104
  22 O :   -0.254474
  23 H :    0.097381
  24 H :    0.121817
  25 H :    0.093837
  26 H :    0.128319
  27 H :    0.117754
  28 H :    0.120019

  Mayer bond orders larger than 0.100000
B(  0-C ,  6-C ) :   0.5864 B(  0-C ,  8-C ) :   0.1484 B(  0-C , 15-C ) :   0.5777
B(  0-C , 19-C ) :  -0.1843 B(  0-C , 27-H ) :   1.0003 B(  0-C , 28-H ) :   0.9812
B(  1-C ,  2-C ) :   0.5759 B(  1-C , 16-C ) :   0.6304 B(  1-C , 17-H ) :   0.8789
B(  1-C , 18-H ) :   0.8845 B(  2-C ,  3-H ) :   0.8400 B(  2-C ,  4-H ) :   0.7291
B(  2-C ,  5-S ) :   0.9289 B(  2-C , 13-O ) :   0.1556 B(  2-C , 19-C ) :   0.1106
B(  5-S , 13-O ) :   1.7109 B(  5-S , 14-F ) :   0.9334 B(  5-S , 22-O ) :   1.6466
B(  6-C ,  7-N ) :   0.7671 B(  6-C ,  8-C ) :   1.4729 B(  6-C ,  9-H ) :  -0.1448
B(  6-C , 10-H ) :  -0.2108 B(  6-C , 13-O ) :  -0.1156 B(  7-N , 11-H ) :   0.8717
B(  7-N , 12-H ) :   0.8411 B(  8-C ,  9-H ) :   0.8946 B(  8-C , 10-H ) :   0.6208
B(  9-H , 10-H ) :   0.1353 B( 13-O , 22-O ) :   0.1408 B( 15-C , 19-C ) :   0.5735
B( 15-C , 20-H ) :   0.9010 B( 15-C , 21-H ) :   0.8856 B( 16-C , 19-C ) :   0.2488
B( 16-C , 23-H ) :  -0.1041 B( 16-C , 25-H ) :   1.0591 B( 16-C , 26-H ) :   0.9463
B( 19-C , 23-H ) :   1.0042 B( 19-C , 24-H ) :   0.9266 B( 19-C , 25-H ) :  -0.1120

FINAL SINGLE POINT ENERGY     -1016.251533067572

DIPOLE MOMENT
-------------
                                X             Y             Z
Electronic contribution:      1.30212      -3.42263     -22.20075
Nuclear contribution   :     -1.74760       5.67788      21.66873
                        -----------------------------------------
Total Dipole Moment    :     -0.44548       2.25525      -0.53202
                        -----------------------------------------
Magnitude (a.u.)       :      2.35958
Magnitude (Debye)      :      5.99758

Rotational constants in cm-1:     0.036818     0.018222     0.014682
Rotational constants in MHz :  1103.783048   546.296792   440.157914

                             ****ORCA TERMINATED NORMALLY****
TOTAL RUN TIME: 0 days 0 hours 6 minutes 39 seconds 230 msec
