                         Program Version 5.0.0 -  RELEASE  -
|  1> !LC-BLYP RIJCOSX def2-TZVPD def2/J TightSCF xyzfile
|  2>
|  3> *xyzfile 0 1 D5.xyz
|  4>
|  5> %MaxCore 64000
|  6>
|  7> %pal nprocs 4
|  8> end
|  9>
| 10> %scf
| 11>   MaxIter 150
| 12> end
| 13>
| 14>
| 15>                          ****END OF INPUT****

CARTESIAN COORDINATES (ANGSTROEM)
---------------------------------
  C      2.916324   -1.242589   -1.543125
  C      0.704661    1.443129   -4.503630
  C      1.728539    1.424320   -5.639443
  H      2.646718    1.953794   -5.381054
  H      1.299916    1.930613   -6.503614
  S      2.252625   -0.188115   -6.271840
  C      3.466585   -1.590971   -2.889082
  C      4.652275   -1.143164   -3.259692
  N      2.752264   -2.292043   -3.728029
  H      1.778364   -2.489604   -3.512738
  H      2.948612   -2.208544   -4.716813
  H      5.146723   -0.512508   -2.633852
  H      4.783030   -1.007203   -4.253498
  O      3.562607   -0.444464   -5.631552
  O      2.344944   -0.033742   -7.696501
  C      2.804084    0.290698   -1.359243
  C      1.052550    0.695659   -3.214915
  H     -0.232483    1.032925   -4.884449
  H      0.511700    2.495794   -4.267966
  C      2.388380    1.093669   -2.597108
  H      3.763425    0.674718   -0.999889
  H      2.094788    0.461222   -0.545756
  F      1.266058   -1.159177   -5.805365
  H      3.167316    1.013242   -3.359430
  H      2.357690    2.149375   -2.310997
  H      1.039284   -0.368429   -3.449329
  H      0.250787    0.865605   -2.488283
  H      1.940472   -1.716529   -1.441161
  H      3.558569   -1.663433   -0.766371

 Total Charge           Charge          ....    0
 Multiplicity           Mult            ....    1
 Number of Electrons    NEL             ....  112
 Basis Dimension        Dim             ....  643

ORBITAL ENERGIES
----------------

  NO   OCC          E(Eh)            E(eV)
   0   2.0000     -88.528697     -2408.9883
   1   2.0000     -24.580213      -668.8616
   2   2.0000     -18.965397      -516.0747
   3   2.0000     -18.951206      -515.6885
   4   2.0000     -14.159290      -385.2939
   5   2.0000     -10.135264      -275.7946
   6   2.0000     -10.105331      -274.9800
   7   2.0000     -10.082435      -274.3570
   8   2.0000     -10.077380      -274.2195
   9   2.0000     -10.069422      -274.0029
  10   2.0000     -10.067946      -273.9627
  11   2.0000     -10.066411      -273.9210
  12   2.0000      -9.978348      -271.5247
  13   2.0000      -8.071869      -219.6467
  14   2.0000      -6.103815      -166.0933
  15   2.0000      -6.096602      -165.8970
  16   2.0000      -6.096277      -165.8881
  17   2.0000      -1.465074       -39.8667
  18   2.0000      -1.216106       -33.0919
  19   2.0000      -1.117102       -30.3979
  20   2.0000      -1.029628       -28.0176
  21   2.0000      -0.957694       -26.0602
  22   2.0000      -0.912827       -24.8393
  23   2.0000      -0.873717       -23.7751
  24   2.0000      -0.835096       -22.7241
  25   2.0000      -0.814224       -22.1562
  26   2.0000      -0.790494       -21.5104
  27   2.0000      -0.750660       -20.4265
  28   2.0000      -0.713079       -19.4039
  29   2.0000      -0.701055       -19.0767
  30   2.0000      -0.686281       -18.6747
  31   2.0000      -0.663766       -18.0620
  32   2.0000      -0.650721       -17.7070
  33   2.0000      -0.618201       -16.8221
  34   2.0000      -0.607211       -16.5231
  35   2.0000      -0.604376       -16.4459
  36   2.0000      -0.583034       -15.8652
  37   2.0000      -0.578026       -15.7289
  38   2.0000      -0.561381       -15.2759
  39   2.0000      -0.555795       -15.1239
  40   2.0000      -0.537761       -14.6332
  41   2.0000      -0.521799       -14.1989
  42   2.0000      -0.509846       -13.8736
  43   2.0000      -0.491663       -13.3788
  44   2.0000      -0.490502       -13.3472
  45   2.0000      -0.478590       -13.0231
  46   2.0000      -0.471342       -12.8259
  47   2.0000      -0.456744       -12.4286
  48   2.0000      -0.450480       -12.2582
  49   2.0000      -0.440963       -11.9992
  50   2.0000      -0.432584       -11.7712
  51   2.0000      -0.427276       -11.6268
  52   2.0000      -0.419789       -11.4230
  53   2.0000      -0.410593       -11.1728
  54   2.0000      -0.405028       -11.0214
  55   2.0000      -0.271923        -7.3994
  56   0.0000       0.027881         0.7587
  57   0.0000       0.041813         1.1378
  58   0.0000       0.049810         1.3554
  59   0.0000       0.053852         1.4654
  60   0.0000       0.066440         1.8079

MULLIKEN ATOMIC CHARGES
-----------------------
   0 C :   -0.965922
   1 C :   -0.954764
   2 C :   -1.031908
   3 H :    0.514148
   4 H :    0.497345
   5 S :    1.187924
   6 C :    0.232433
   7 C :   -1.101266
   8 N :   -0.469367
   9 H :    0.256358
  10 H :    0.233163
  11 H :    0.335511
  12 H :    0.640953
  13 O :   -0.633786
  14 O :   -0.529119
  15 C :   -0.862956
  16 C :   -0.589238
  17 H :    0.429977
  18 H :    0.443861
  19 C :   -0.735982
  20 H :    0.430352
  21 H :    0.445056
  22 F :   -0.183779
  23 H :    0.479929
  24 H :    0.413872
  25 H :    0.316440
  26 H :    0.387246
  27 H :    0.422347
  28 H :    0.391174
Sum of atomic charges:   -0.0000000

LOEWDIN ATOMIC CHARGES
----------------------
   0 C :   -0.146796
   1 C :   -0.231507
   2 C :   -0.217296
   3 H :    0.117384
   4 H :    0.108334
   5 S :    0.602510
   6 C :   -0.509100
   7 C :    0.007167
   8 N :    0.106257
   9 H :    0.104941
  10 H :    0.073629
  11 H :    0.040340
  12 H :    0.006866
  13 O :   -0.294459
  14 O :   -0.240688
  15 C :   -0.196661
  16 C :   -0.216417
  17 H :    0.117705
  18 H :    0.127252
  19 C :   -0.214687
  20 H :    0.114784
  21 H :    0.112637
  22 F :   -0.050798
  23 H :    0.100277
  24 H :    0.124699
  25 H :    0.088616
  26 H :    0.128474
  27 H :    0.111443
  28 H :    0.125093

  Mayer bond orders larger than 0.100000
B(  0-C ,  6-C ) :   0.4205 B(  0-C , 15-C ) :   0.6184 B(  0-C , 19-C ) :  -0.1248
B(  0-C , 27-H ) :   0.9841 B(  0-C , 28-H ) :   0.9568 B(  1-C ,  2-C ) :   0.5076
B(  1-C , 16-C ) :   0.5651 B(  1-C , 17-H ) :   0.9378 B(  1-C , 18-H ) :   0.8743
B(  2-C ,  3-H ) :   0.7904 B(  2-C ,  4-H ) :   0.8726 B(  2-C ,  5-S ) :   0.9301
B(  2-C , 13-O ) :   0.1389 B(  2-C , 14-O ) :   0.1330 B(  2-C , 16-C ) :  -0.1047
B(  5-S , 13-O ) :   1.6732 B(  5-S , 14-O ) :   1.5772 B(  5-S , 22-F ) :   1.0045
B(  6-C ,  7-C ) :   1.6158 B(  6-C ,  8-N ) :   0.7431 B(  6-C , 11-H ) :  -0.1184
B(  6-C , 12-H ) :  -0.1153 B(  6-C , 13-O ) :  -0.1112 B(  6-C , 27-H ) :  -0.1311
B(  7-C , 11-H ) :   1.1217 B(  7-C , 12-H ) :   0.6067 B(  8-N ,  9-H ) :   0.8636
B(  8-N , 10-H ) :   0.8578 B( 15-C , 19-C ) :   0.6182 B( 15-C , 20-H ) :   0.9136
B( 15-C , 21-H ) :   0.8680 B( 16-C , 19-C ) :   0.2786 B( 16-C , 23-H ) :  -0.1095
B( 16-C , 25-H ) :   1.0791 B( 16-C , 26-H ) :   0.9394 B( 19-C , 23-H ) :   0.9916
B( 19-C , 24-H ) :   0.8828 B( 19-C , 25-H ) :  -0.1130

FINAL SINGLE POINT ENERGY     -1016.253453432852

DIPOLE MOMENT
-------------
                                X             Y             Z
Electronic contribution:     -1.74084      -6.02267     -18.99401
Nuclear contribution   :     -0.26930       7.11259      19.56706
                        -----------------------------------------
Total Dipole Moment    :     -2.01014       1.08992       0.57305
                        -----------------------------------------
Magnitude (a.u.)       :      2.35732
Magnitude (Debye)      :      5.99184

Rotational constants in cm-1:     0.036519     0.018683     0.015073
Rotational constants in MHz :  1094.801738   560.111127   451.890222

                             ****ORCA TERMINATED NORMALLY****
TOTAL RUN TIME: 0 days 0 hours 6 minutes 40 seconds 746 msec
