                         Program Version 5.0.0 -  RELEASE  -
|  1> !LC-BLYP RIJCOSX def2-TZVPD def2/J TightSCF xyzfile
|  2>
|  3> *xyzfile 0 1 D6.xyz
|  4>
|  5> %MaxCore 64000
|  6>
|  7> %pal nprocs 4
|  8> end
|  9>
| 10> %scf
| 11>   MaxIter 150
| 12> end
| 13>
| 14>
| 15>                          ****END OF INPUT****

CARTESIAN COORDINATES (ANGSTROEM)
---------------------------------
  C      2.916324   -1.242589   -1.543125
  C      0.704661    1.443129   -4.503630
  C      1.728539    1.424320   -5.639443
  H      2.646718    1.953794   -5.381054
  H      1.299916    1.930613   -6.503614
  S      2.252625   -0.188115   -6.271840
  C      3.466585   -1.590971   -2.889082
  N      4.652275   -1.143164   -3.259692
  C      2.752264   -2.292043   -3.728029
  H      1.778364   -2.489604   -3.512738
  H      2.948612   -2.208544   -4.716813
  H      5.146723   -0.512508   -2.633852
  H      4.783030   -1.007203   -4.253498
  O      3.562607   -0.444464   -5.631552
  O      2.344944   -0.033742   -7.696501
  C      2.804084    0.290698   -1.359243
  C      1.052550    0.695659   -3.214915
  H     -0.232483    1.032925   -4.884449
  H      0.511700    2.495794   -4.267966
  C      2.388380    1.093669   -2.597108
  H      3.763425    0.674718   -0.999889
  H      2.094788    0.461222   -0.545756
  F      1.266058   -1.159177   -5.805365
  H      3.167316    1.013242   -3.359430
  H      2.357690    2.149375   -2.310997
  H      1.039284   -0.368429   -3.449329
  H      0.250787    0.865605   -2.488283
  H      1.940472   -1.716529   -1.441161
  H      3.558569   -1.663433   -0.766371

 Total Charge           Charge          ....    0
 Multiplicity           Mult            ....    1
 Number of Electrons    NEL             ....  112
 Basis Dimension        Dim             ....  643

ORBITAL ENERGIES
----------------

  NO   OCC          E(Eh)            E(eV)
   0   2.0000     -88.525835     -2408.9104
   1   2.0000     -24.569671      -668.5747
   2   2.0000     -18.961710      -515.9744
   3   2.0000     -18.947601      -515.5904
   4   2.0000     -14.149850      -385.0370
   5   2.0000     -10.132423      -275.7173
   6   2.0000     -10.101643      -274.8797
   7   2.0000     -10.079846      -274.2865
   8   2.0000     -10.076426      -274.1935
   9   2.0000     -10.073588      -274.1163
  10   2.0000     -10.071441      -274.0578
  11   2.0000     -10.065721      -273.9022
  12   2.0000      -9.988950      -271.8131
  13   2.0000      -8.068523      -219.5557
  14   2.0000      -6.100323      -165.9982
  15   2.0000      -6.093484      -165.8121
  16   2.0000      -6.093025      -165.7996
  17   2.0000      -1.454527       -39.5797
  18   2.0000      -1.211931       -32.9783
  19   2.0000      -1.113410       -30.2974
  20   2.0000      -1.021107       -27.7857
  21   2.0000      -0.954404       -25.9707
  22   2.0000      -0.911222       -24.7956
  23   2.0000      -0.868082       -23.6217
  24   2.0000      -0.839894       -22.8547
  25   2.0000      -0.815471       -22.1901
  26   2.0000      -0.788695       -21.4615
  27   2.0000      -0.742422       -20.2023
  28   2.0000      -0.708131       -19.2692
  29   2.0000      -0.690829       -18.7984
  30   2.0000      -0.681833       -18.5536
  31   2.0000      -0.666936       -18.1483
  32   2.0000      -0.646122       -17.5819
  33   2.0000      -0.614928       -16.7331
  34   2.0000      -0.604128       -16.4392
  35   2.0000      -0.601420       -16.3655
  36   2.0000      -0.582189       -15.8422
  37   2.0000      -0.570567       -15.5259
  38   2.0000      -0.563430       -15.3317
  39   2.0000      -0.548846       -14.9349
  40   2.0000      -0.541212       -14.7271
  41   2.0000      -0.519063       -14.1244
  42   2.0000      -0.509599       -13.8669
  43   2.0000      -0.498024       -13.5519
  44   2.0000      -0.488066       -13.2809
  45   2.0000      -0.484037       -13.1713
  46   2.0000      -0.466217       -12.6864
  47   2.0000      -0.461289       -12.5523
  48   2.0000      -0.451498       -12.2859
  49   2.0000      -0.435709       -11.8563
  50   2.0000      -0.430201       -11.7064
  51   2.0000      -0.422830       -11.5058
  52   2.0000      -0.421326       -11.4649
  53   2.0000      -0.407039       -11.0761
  54   2.0000      -0.404828       -11.0159
  55   2.0000      -0.281156        -7.6506
  56   0.0000       0.032118         0.8740
  57   0.0000       0.044684         1.2159
  58   0.0000       0.051591         1.4039
  59   0.0000       0.054745         1.4897
  60   0.0000       0.071234         1.9384

MULLIKEN ATOMIC CHARGES
-----------------------
   0 C :   -0.916766
   1 C :   -0.962952
   2 C :   -1.040463
   3 H :    0.504412
   4 H :    0.500698
   5 S :    1.221490
   6 C :    0.262769
   7 N :   -0.363128
   8 C :   -1.637500
   9 H :    0.541605
  10 H :    0.796997
  11 H :    0.224314
  12 H :    0.297007
  13 O :   -0.657034
  14 O :   -0.535620
  15 C :   -0.899778
  16 C :   -0.528720
  17 H :    0.440907
  18 H :    0.441073
  19 C :   -0.701927
  20 H :    0.450437
  21 H :    0.421849
  22 F :   -0.169578
  23 H :    0.424427
  24 H :    0.413452
  25 H :    0.349033
  26 H :    0.378190
  27 H :    0.358585
  28 H :    0.386220
Sum of atomic charges:   -0.0000000

LOEWDIN ATOMIC CHARGES
----------------------
   0 C :   -0.147013
   1 C :   -0.230945
   2 C :   -0.218538
   3 H :    0.114906
   4 H :    0.107974
   5 S :    0.605386
   6 C :   -0.504326
   7 N :    0.122377
   8 C :   -0.017802
   9 H :    0.037765
  10 H :    0.005039
  11 H :    0.112422
  12 H :    0.078844
  13 O :   -0.302227
  14 O :   -0.241096
  15 C :   -0.199051
  16 C :   -0.214474
  17 H :    0.118555
  18 H :    0.126064
  19 C :   -0.215996
  20 H :    0.109580
  21 H :    0.114054
  22 F :   -0.043109
  23 H :    0.098304
  24 H :    0.123896
  25 H :    0.091242
  26 H :    0.128609
  27 H :    0.117685
  28 H :    0.121875

  Mayer bond orders larger than 0.100000
B(  0-C ,  6-C ) :   0.5947 B(  0-C ,  8-C ) :   0.1388 B(  0-C , 15-C ) :   0.5748
B(  0-C , 19-C ) :  -0.1861 B(  0-C , 27-H ) :   1.0018 B(  0-C , 28-H ) :   0.9753
B(  1-C ,  2-C ) :   0.5130 B(  1-C , 16-C ) :   0.5597 B(  1-C , 17-H ) :   0.9129
B(  1-C , 18-H ) :   0.8833 B(  2-C ,  3-H ) :   0.8013 B(  2-C ,  4-H ) :   0.8746
B(  2-C ,  5-S ) :   0.9262 B(  2-C , 13-O ) :   0.1556 B(  2-C , 14-O ) :   0.1412
B(  2-C , 16-C ) :  -0.1097 B(  2-C , 19-C ) :   0.1003 B(  5-S , 13-O ) :   1.6964
B(  5-S , 14-O ) :   1.5598 B(  5-S , 22-F ) :   1.0260 B(  6-C ,  7-N ) :   0.8019
B(  6-C ,  8-C ) :   1.4345 B(  6-C ,  9-H ) :  -0.1542 B(  6-C , 10-H ) :  -0.1758
B(  6-C , 13-O ) :  -0.1616 B(  7-N , 11-H ) :   0.8709 B(  7-N , 12-H ) :   0.8363
B(  8-C ,  9-H ) :   0.8831 B(  8-C , 10-H ) :   0.4906 B(  9-H , 10-H ) :   0.1321
B( 15-C , 19-C ) :   0.5732 B( 15-C , 20-H ) :   0.8997 B( 15-C , 21-H ) :   0.8845
B( 16-C , 19-C ) :   0.2528 B( 16-C , 23-H ) :  -0.1079 B( 16-C , 25-H ) :   1.0646
B( 16-C , 26-H ) :   0.9526 B( 19-C , 23-H ) :   1.0219 B( 19-C , 24-H ) :   0.9132
B( 19-C , 25-H ) :  -0.1117

FINAL SINGLE POINT ENERGY     -1016.263267495253

DIPOLE MOMENT
-------------
                                X             Y             Z
Electronic contribution:     -0.47205      -5.31609     -18.64265
Nuclear contribution   :     -0.51418       6.96452      19.50670
                        -----------------------------------------
Total Dipole Moment    :     -0.98623       1.64843       0.86405
                        -----------------------------------------
Magnitude (a.u.)       :      2.10631
Magnitude (Debye)      :      5.35381

Rotational constants in cm-1:     0.036455     0.018603     0.015008
Rotational constants in MHz :  1092.895336   557.693628   449.926016

                             ****ORCA TERMINATED NORMALLY****
TOTAL RUN TIME: 0 days 0 hours 6 minutes 44 seconds 207 msec
