                         Program Version 5.0.0 -  RELEASE  -
|  1> !LC-PBE RIJCOSX def2-SVP def2/J TightSCF
|  2> *xyz -1 1
|  3> C          0.96805        1.63064       -3.71575
|  4> C         -0.50835        1.72268       -4.12430
|  5> S         -1.32861        0.14674       -4.43578
|  6> H         -0.59151        2.29496       -5.04722
|  7> H         -1.11411        2.23561       -3.37436
|  8> O         -2.57135        0.47573       -5.06834
|  9> O         -1.51496       -0.40051       -3.06342
| 10> O         -0.37793       -0.62756       -5.20114
| 11> H          1.51840        1.12197       -4.47946
| 12> H          1.05062        1.08971       -2.79625
| 13> H          1.36450        2.61606       -3.58668
| 14> *
| 15> %MaxCore 64000
| 16>
| 17> %pal nprocs 4
| 18> end
| 19>
| 20> %scf
| 21>   MaxIter 150
| 22> end
| 23>
| 24>
| 25>                          ****END OF INPUT****

CARTESIAN COORDINATES (ANGSTROEM)
---------------------------------
  C      0.968050    1.630640   -3.715750
  C     -0.508350    1.722680   -4.124300
  S     -1.328610    0.146740   -4.435780
  H     -0.591510    2.294960   -5.047220
  H     -1.114110    2.235610   -3.374360
  O     -2.571350    0.475730   -5.068340
  O     -1.514960   -0.400510   -3.063420
  O     -0.377930   -0.627560   -5.201140
  H      1.518400    1.121970   -4.479460
  H      1.050620    1.089710   -2.796250
  H      1.364500    2.616060   -3.586680

 Total Charge           Charge          ....   -1
 Multiplicity           Mult            ....    1
 Number of Electrons    NEL             ....   58
 Basis Dimension        Dim             ....  113

ORBITAL ENERGIES
----------------

  NO   OCC          E(Eh)            E(eV)
   0   2.0000     -88.275630     -2402.1020
   1   2.0000     -18.744066      -510.0520
   2   2.0000     -18.740579      -509.9571
   3   2.0000     -18.720870      -509.4208
   4   2.0000      -9.976904      -271.4854
   5   2.0000      -9.973904      -271.4037
   6   2.0000      -7.905463      -215.1186
   7   2.0000      -5.927410      -161.2930
   8   2.0000      -5.927123      -161.2852
   9   2.0000      -5.926891      -161.2789
  10   2.0000      -1.085411       -29.5355
  11   2.0000      -0.933138       -25.3920
  12   2.0000      -0.899782       -24.4843
  13   2.0000      -0.794034       -21.6068
  14   2.0000      -0.657998       -17.9050
  15   2.0000      -0.514326       -13.9955
  16   2.0000      -0.453998       -12.3539
  17   2.0000      -0.449102       -12.2207
  18   2.0000      -0.407335       -11.0841
  19   2.0000      -0.389718       -10.6048
  20   2.0000      -0.382430       -10.4064
  21   2.0000      -0.354384        -9.6433
  22   2.0000      -0.335854        -9.1390
  23   2.0000      -0.267781        -7.2867
  24   2.0000      -0.265129        -7.2145
  25   2.0000      -0.230761        -6.2793
  26   2.0000      -0.215962        -5.8766
  27   2.0000      -0.202442        -5.5087
  28   2.0000      -0.170277        -4.6335
  29   0.0000       0.294715         8.0196
  30   0.0000       0.348619         9.4864
  31   0.0000       0.354880         9.6568
  32   0.0000       0.361408         9.8344
  33   0.0000       0.389858        10.6086

MULLIKEN ATOMIC CHARGES
-----------------------
   0 C :   -0.108750
   1 C :   -0.217123
   2 S :    0.820401
   3 H :    0.045327
   4 H :    0.057222
   5 O :   -0.548175
   6 O :   -0.616199
   7 O :   -0.563697
   8 H :    0.058652
   9 H :    0.056453
  10 H :    0.015889
Sum of atomic charges:   -1.0000000

LOEWDIN ATOMIC CHARGES
----------------------
   0 C :   -0.106761
   1 C :   -0.216848
   2 S :    1.081230
   3 H :    0.016766
   4 H :    0.023441
   5 O :   -0.597686
   6 O :   -0.665337
   7 O :   -0.610774
   8 H :    0.030455
   9 H :    0.030825
  10 H :    0.014688

  Mayer bond orders larger than 0.100000
B(  0-C ,  1-C ) :   1.0366 B(  0-C ,  8-H ) :   0.9705 B(  0-C ,  9-H ) :   0.9719
B(  0-C , 10-H ) :   0.9741 B(  1-C ,  2-S ) :   0.9087 B(  1-C ,  3-H ) :   0.9515
B(  1-C ,  4-H ) :   0.9527 B(  2-S ,  5-O ) :   1.6743 B(  2-S ,  6-O ) :   1.6000
B(  2-S ,  7-O ) :   1.6497

FINAL SINGLE POINT ENERGY      -701.518018666470

DIPOLE MOMENT
-------------
                                X             Y             Z
Electronic contribution:     -5.62234      -5.31942      -1.95972
Nuclear contribution   :      6.64523       6.80157       2.07300
                        -----------------------------------------
Total Dipole Moment    :      1.02288       1.48215       0.11328
                        -----------------------------------------
Magnitude (a.u.)       :      1.80441
Magnitude (Debye)      :      4.58645

Rotational constants in cm-1:     0.163070     0.082807     0.081541
Rotational constants in MHz :  4888.719902  2482.497026  2444.541148

                             ****ORCA TERMINATED NORMALLY****
TOTAL RUN TIME: 0 days 0 hours 0 minutes 14 seconds 893 msec
