                         Program Version 5.0.0 -  RELEASE  -
|  1> !LC-PBE RIJCOSX def2-SVP def2/J TightSCF
|  2> *xyz 1 1
|  3> C          1.36401        0.46874       -2.81376
|  4> N          0.42884        0.32140       -1.65531
|  5> C          0.96805        1.63064       -3.71575
|  6> H          0.74858       -0.40054       -1.00134
|  7> H         -0.46105        0.02333       -2.07773
|  8> H          0.31026        1.20137       -1.13495
|  9> H          1.29485       -0.46874       -3.36468
| 10> H          2.37622        0.59740       -2.43149
| 11> H          1.65923        1.70213       -4.52942
| 12> H          0.98421        2.54058       -3.15304
| 13> H         -0.01744        1.46536       -4.09838
| 14> *
| 15> %MaxCore 64000
| 16>
| 17> %pal nprocs 4
| 18> end
| 19>
| 20> %scf
| 21>   MaxIter 150
| 22> end
| 23>
| 24>
| 25>                          ****END OF INPUT****

CARTESIAN COORDINATES (ANGSTROEM)
---------------------------------
  C      1.364010    0.468740   -2.813760
  N      0.428840    0.321400   -1.655310
  C      0.968050    1.630640   -3.715750
  H      0.748580   -0.400540   -1.001340
  H     -0.461050    0.023330   -2.077730
  H      0.310260    1.201370   -1.134950
  H      1.294850   -0.468740   -3.364680
  H      2.376220    0.597400   -2.431490
  H      1.659230    1.702130   -4.529420
  H      0.984210    2.540580   -3.153040
  H     -0.017440    1.465360   -4.098380

 Total Charge           Charge          ....    1
 Multiplicity           Mult            ....    1
 Number of Electrons    NEL             ....   26
 Basis Dimension        Dim             ....   82

ORBITAL ENERGIES
----------------

  NO   OCC          E(Eh)            E(eV)
   0   2.0000     -14.567435      -396.4001
   1   2.0000     -10.381627      -282.4984
   2   2.0000     -10.301123      -280.3078
   3   2.0000      -1.384075       -37.6626
   4   2.0000      -1.134540       -30.8724
   5   2.0000      -1.002009       -27.2660
   6   2.0000      -0.956138       -26.0178
   7   2.0000      -0.938058       -25.5259
   8   2.0000      -0.838568       -22.8186
   9   2.0000      -0.786935       -21.4136
  10   2.0000      -0.719885       -19.5891
  11   2.0000      -0.701050       -19.0765
  12   2.0000      -0.682976       -18.5847
  13   0.0000      -0.086443        -2.3522
  14   0.0000      -0.025294        -0.6883
  15   0.0000      -0.020763        -0.5650
  16   0.0000       0.007116         0.1936
  17   0.0000       0.047765         1.2997

MULLIKEN ATOMIC CHARGES
-----------------------
   0 C :   -0.148452
   1 N :   -0.081533
   2 C :   -0.164601
   3 H :    0.248894
   4 H :    0.246608
   5 H :    0.246082
   6 H :    0.149064
   7 H :    0.153943
   8 H :    0.143653
   9 H :    0.105116
  10 H :    0.101227
Sum of atomic charges:    1.0000000

LOEWDIN ATOMIC CHARGES
----------------------
   0 C :    0.025648
   1 N :    0.274069
   2 C :   -0.077131
   3 H :    0.156151
   4 H :    0.156534
   5 H :    0.154270
   6 H :    0.065721
   7 H :    0.066667
   8 H :    0.076186
   9 H :    0.051449
  10 H :    0.050437

  Mayer bond orders larger than 0.100000
B(  0-C ,  1-N ) :   0.9053 B(  0-C ,  2-C ) :   1.0692 B(  0-C ,  6-H ) :   0.9531
B(  0-C ,  7-H ) :   0.9514 B(  1-N ,  3-H ) :   0.9228 B(  1-N ,  4-H ) :   0.9273
B(  1-N ,  5-H ) :   0.9222 B(  2-C ,  8-H ) :   0.9570 B(  2-C ,  9-H ) :   0.9690
B(  2-C , 10-H ) :   0.9692

FINAL SINGLE POINT ENERGY      -134.984037629749

DIPOLE MOMENT
-------------
                                X             Y             Z
Electronic contribution:     -0.38072      -0.97774       1.63609
Nuclear contribution   :     -0.20470       0.31427      -0.31587
                        -----------------------------------------
Total Dipole Moment    :     -0.58542      -0.66348       1.32022
                        -----------------------------------------
Magnitude (a.u.)       :      1.58931
Magnitude (Debye)      :      4.03970

Rotational constants in cm-1:     1.011480     0.279280     0.248378
Rotational constants in MHz : 30323.408050  8372.602834  7446.185305

                             ****ORCA TERMINATED NORMALLY****
TOTAL RUN TIME: 0 days 0 hours 0 minutes 10 seconds 196 msec
