                         Program Version 5.0.0 -  RELEASE  -
|  1> !LC-PBE RIJCOSX def2-TZVP def2/J TightSCF xyzfile
|  2>
|  3> *xyzfile 0 1 B.xyz
|  4>
|  5> %MaxCore 64000
|  6>
|  7> %pal nprocs 18
|  8> end
|  9>
| 10> %scf
| 11>   MaxIter 150
| 12> end
| 13>
| 14>
| 15>                          ****END OF INPUT****

CARTESIAN COORDINATES (ANGSTROEM)
---------------------------------
  C      1.364014    0.468742   -2.813764
  N      0.428844    0.321402   -1.655312
  C      0.968045    1.630639   -3.715749
  C     -0.508347    1.722679   -4.124300
  S     -1.328608    0.146737   -4.435781
  H     -0.591511    2.294958   -5.047219
  H     -1.114114    2.235610   -3.374362
  H      0.748578   -0.400542   -1.001345
  H     -0.461053    0.023332   -2.077731
  H      0.310258    1.201375   -1.134948
  O     -2.571347    0.475733   -5.068341
  O     -1.514963   -0.400512   -3.063420
  H      1.294847   -0.468742   -3.364684
  H      2.376216    0.597400   -2.431495
  H      1.578688    1.520652   -4.612733
  H      1.266653    2.575988   -3.250448
  O     -0.377928   -0.627558   -5.201141

 Total Charge           Charge          ....    0
 Multiplicity           Mult            ....    1
 Number of Electrons    NEL             ....   74
 Basis Dimension        Dim             ....  308

ORBITAL ENERGIES
----------------

  NO   OCC          E(Eh)            E(eV)
   0   2.0000     -88.436882     -2406.4899
   1   2.0000     -18.932608      -515.1825
   2   2.0000     -18.915789      -514.7248
   3   2.0000     -18.913124      -514.6523
   4   2.0000     -14.350481      -390.4965
   5   2.0000     -10.209735      -277.8210
   6   2.0000     -10.160225      -276.4738
   7   2.0000     -10.139329      -275.9052
   8   2.0000      -8.047684      -218.9886
   9   2.0000      -6.065005      -165.0372
  10   2.0000      -6.063543      -164.9974
  11   2.0000      -6.061846      -164.9512
  12   2.0000      -1.270266       -34.5657
  13   2.0000      -1.207406       -32.8552
  14   2.0000      -1.118418       -30.4337
  15   2.0000      -1.116585       -30.3838
  16   2.0000      -1.005528       -27.3618
  17   2.0000      -0.910750       -24.7828
  18   2.0000      -0.816657       -22.2224
  19   2.0000      -0.779864       -21.2212
  20   2.0000      -0.762212       -20.7408
  21   2.0000      -0.697610       -18.9829
  22   2.0000      -0.671205       -18.2644
  23   2.0000      -0.634325       -17.2609
  24   2.0000      -0.617201       -16.7949
  25   2.0000      -0.607253       -16.5242
  26   2.0000      -0.574884       -15.6434
  27   2.0000      -0.565246       -15.3811
  28   2.0000      -0.536596       -14.6015
  29   2.0000      -0.527627       -14.3575
  30   2.0000      -0.508159       -13.8277
  31   2.0000      -0.464817       -12.6483
  32   2.0000      -0.456436       -12.4202
  33   2.0000      -0.420541       -11.4435
  34   2.0000      -0.411445       -11.1960
  35   2.0000      -0.396032       -10.7766
  36   2.0000      -0.368786       -10.0352
  37   0.0000       0.047663         1.2970
  38   0.0000       0.095798         2.6068
  39   0.0000       0.111663         3.0385
  40   0.0000       0.142596         3.8802
  41   0.0000       0.152323         4.1449

MULLIKEN ATOMIC CHARGES
-----------------------
   0 C :   -0.360512
   1 N :   -0.313072
   2 C :   -0.298321
   3 C :   -0.414205
   4 S :    0.759861
   5 H :    0.189402
   6 H :    0.178357
   7 H :    0.308376
   8 H :    0.333413
   9 H :    0.300671
  10 O :   -0.447269
  11 O :   -0.558931
  12 H :    0.265311
  13 H :    0.183254
  14 H :    0.186821
  15 H :    0.167806
  16 O :   -0.480963
Sum of atomic charges:   -0.0000000

LOEWDIN ATOMIC CHARGES
----------------------
   0 C :   -0.293530
   1 N :    0.134946
   2 C :   -0.309164
   3 C :   -0.405325
   4 S :    0.415529
   5 H :    0.150867
   6 H :    0.137658
   7 H :    0.205796
   8 H :    0.142844
   9 H :    0.205272
  10 O :   -0.302514
  11 O :   -0.369233
  12 H :    0.163348
  13 H :    0.142240
  14 H :    0.167650
  15 H :    0.147093
  16 O :   -0.333477

  Mayer bond orders larger than 0.100000
B(  0-C ,  1-N ) :   0.8585 B(  0-C ,  2-C ) :   0.9443 B(  0-C , 12-H ) :   0.9401
B(  0-C , 13-H ) :   0.9665 B(  1-N ,  7-H ) :   0.8931 B(  1-N ,  8-H ) :   0.7171
B(  1-N ,  9-H ) :   0.8899 B(  2-C ,  3-C ) :   0.9196 B(  2-C , 14-H ) :   0.9575
B(  2-C , 15-H ) :   0.9683 B(  3-C ,  4-S ) :   0.9227 B(  3-C ,  5-H ) :   0.9553
B(  3-C ,  6-H ) :   0.9549 B(  4-S , 10-O ) :   1.9515 B(  4-S , 11-O ) :   1.4752
B(  4-S , 16-O ) :   1.8006 B(  8-H , 11-O ) :   0.2473

FINAL SINGLE POINT ENERGY      -797.024286702223

DIPOLE MOMENT
-------------
                                X             Y             Z
Electronic contribution:     -6.84361      -4.08853      -4.22944
Nuclear contribution   :      9.95459       5.57517       7.68169
                        -----------------------------------------
Total Dipole Moment    :      3.11097       1.48665       3.45224
                        -----------------------------------------
Magnitude (a.u.)       :      4.87917
Magnitude (Debye)      :     12.40186

Rotational constants in cm-1:     0.102119     0.045768     0.041299
Rotational constants in MHz :  3061.441288  1372.093000  1238.124534

                             ****ORCA TERMINATED NORMALLY****
TOTAL RUN TIME: 0 days 0 hours 0 minutes 17 seconds 33 msec
