                         Program Version 5.0.0 -  RELEASE  -
|  1> !LC-PBE RIJCOSX def2-SVP def2/J TightSCF
|  2> *xyz 0 1
|  3> C          0.96805        1.63064       -3.71575
|  4> C         -0.50835        1.72268       -4.12430
|  5> S         -1.32861        0.14674       -4.43578
|  6> H         -0.59151        2.29496       -5.04722
|  7> H         -1.11411        2.23561       -3.37436
|  8> F         -2.57135        0.47573       -5.06834
|  9> O         -1.51496       -0.40051       -3.06342
| 10> O         -0.37793       -0.62756       -5.20114
| 11> H          1.51840        1.12197       -4.47946
| 12> H          1.05062        1.08971       -2.79625
| 13> H          1.36450        2.61606       -3.58668
| 14> *
| 15> %MaxCore 64000
| 16>
| 17> %pal nprocs 4
| 18> end
| 19>
| 20> %scf
| 21>   MaxIter 150
| 22> end
| 23>
| 24>
| 25>                          ****END OF INPUT****

CARTESIAN COORDINATES (ANGSTROEM)
---------------------------------
  C      0.968050    1.630640   -3.715750
  C     -0.508350    1.722680   -4.124300
  S     -1.328610    0.146740   -4.435780
  H     -0.591510    2.294960   -5.047220
  H     -1.114110    2.235610   -3.374360
  F     -2.571350    0.475730   -5.068340
  O     -1.514960   -0.400510   -3.063420
  O     -0.377930   -0.627560   -5.201140
  H      1.518400    1.121970   -4.479460
  H      1.050620    1.089710   -2.796250
  H      1.364500    2.616060   -3.586680

 Total Charge           Charge          ....    0
 Multiplicity           Mult            ....    1
 Number of Electrons    NEL             ....   58
 Basis Dimension        Dim             ....  113

ORBITAL ENERGIES
----------------

  NO   OCC          E(Eh)            E(eV)
   0   2.0000     -88.551433     -2409.6070
   1   2.0000     -24.622717      -670.0182
   2   2.0000     -18.992248      -516.8053
   3   2.0000     -18.973787      -516.3030
   4   2.0000     -10.186281      -277.1828
   5   2.0000     -10.144165      -276.0368
   6   2.0000      -8.183728      -222.6906
   7   2.0000      -6.210220      -168.9887
   8   2.0000      -6.202696      -168.7839
   9   2.0000      -6.201747      -168.7581
  10   2.0000      -1.544436       -42.0263
  11   2.0000      -1.270516       -34.5725
  12   2.0000      -1.154248       -31.4087
  13   2.0000      -0.992362       -27.0035
  14   2.0000      -0.896215       -24.3873
  15   2.0000      -0.836698       -22.7677
  16   2.0000      -0.746183       -20.3047
  17   2.0000      -0.745490       -20.2858
  18   2.0000      -0.699800       -19.0425
  19   2.0000      -0.638699       -17.3799
  20   2.0000      -0.624851       -17.0031
  21   2.0000      -0.573423       -15.6036
  22   2.0000      -0.568913       -15.4809
  23   2.0000      -0.543345       -14.7852
  24   2.0000      -0.518806       -14.1174
  25   2.0000      -0.517486       -14.0815
  26   2.0000      -0.459997       -12.5171
  27   2.0000      -0.440742       -11.9932
  28   2.0000      -0.428702       -11.6656
  29   0.0000       0.136026         3.7015
  30   0.0000       0.142121         3.8673
  31   0.0000       0.174793         4.7563
  32   0.0000       0.183190         4.9849
  33   0.0000       0.193098         5.2545

MULLIKEN ATOMIC CHARGES
-----------------------
   0 C :   -0.118335
   1 C :   -0.250977
   2 S :    0.903796
   3 H :    0.106602
   4 H :    0.122302
   5 F :   -0.140447
   6 O :   -0.477043
   7 O :   -0.427052
   8 H :    0.097182
   9 H :    0.098179
  10 H :    0.085792
Sum of atomic charges:    0.0000000

LOEWDIN ATOMIC CHARGES
----------------------
   0 C :   -0.080520
   1 C :   -0.181204
   2 S :    1.138805
   3 H :    0.041851
   4 H :    0.050608
   5 F :   -0.094846
   6 O :   -0.535602
   7 O :   -0.483266
   8 H :    0.047307
   9 H :    0.048801
  10 H :    0.048066

  Mayer bond orders larger than 0.100000
B(  0-C ,  1-C ) :   1.0454 B(  0-C ,  8-H ) :   0.9688 B(  0-C ,  9-H ) :   0.9714
B(  0-C , 10-H ) :   0.9687 B(  1-C ,  2-S ) :   0.9322 B(  1-C ,  3-H ) :   0.9358
B(  1-C ,  4-H ) :   0.9349 B(  2-S ,  5-F ) :   1.0688 B(  2-S ,  6-O ) :   1.7487
B(  2-S ,  7-O ) :   1.7976

FINAL SINGLE POINT ENERGY      -725.981742786558

DIPOLE MOMENT
-------------
                                X             Y             Z
Electronic contribution:     -8.38278      -5.10662      -3.28309
Nuclear contribution   :      8.31000       6.74109       2.87442
                        -----------------------------------------
Total Dipole Moment    :     -0.07277       1.63447      -0.40867
                        -----------------------------------------
Magnitude (a.u.)       :      1.68635
Magnitude (Debye)      :      4.28637

Rotational constants in cm-1:     0.158705     0.080192     0.078179
Rotational constants in MHz :  4757.865601  2404.095079  2343.752507

                             ****ORCA TERMINATED NORMALLY****
TOTAL RUN TIME: 0 days 0 hours 0 minutes 16 seconds 196 msec
