                         Program Version 5.0.0 -  RELEASE  -
|  1> !LC-PBE RIJCOSX def2-SVP def2/J TightSCF
|  2> *xyz 0 1
|  3> C          1.36401        0.46874       -2.81376
|  4> C          0.42884        0.32140       -1.65531
|  5> C          0.96805        1.63064       -3.71575
|  6> H          0.74858       -0.40054       -1.00134
|  7> H         -0.46105        0.02333       -2.07773
|  8> H          0.31026        1.20137       -1.13495
|  9> H          1.29485       -0.46874       -3.36468
| 10> H          2.37622        0.59740       -2.43149
| 11> H          1.65923        1.70213       -4.52942
| 12> H          0.98421        2.54058       -3.15304
| 13> H         -0.01744        1.46536       -4.09838
| 14> *
| 15> %MaxCore 64000
| 16>
| 17> %pal nprocs 4
| 18> end
| 19>
| 20> %scf
| 21>   MaxIter 150
| 22> end
| 23>
| 24>
| 25>                          ****END OF INPUT****

CARTESIAN COORDINATES (ANGSTROEM)
---------------------------------
  C      1.364010    0.468740   -2.813760
  C      0.428840    0.321400   -1.655310
  C      0.968050    1.630640   -3.715750
  H      0.748580   -0.400540   -1.001340
  H     -0.461050    0.023330   -2.077730
  H      0.310260    1.201370   -1.134950
  H      1.294850   -0.468740   -3.364680
  H      2.376220    0.597400   -2.431490
  H      1.659230    1.702130   -4.529420
  H      0.984210    2.540580   -3.153040
  H     -0.017440    1.465360   -4.098380

 Total Charge           Charge          ....    0
 Multiplicity           Mult            ....    1
 Number of Electrons    NEL             ....   26
 Basis Dimension        Dim             ....   82

ORBITAL ENERGIES
----------------

  NO   OCC          E(Eh)            E(eV)
   0   2.0000     -10.112029      -275.1623
   1   2.0000     -10.103358      -274.9264
   2   2.0000     -10.087077      -274.4833
   3   2.0000      -0.964386       -26.2423
   4   2.0000      -0.852238       -23.1906
   5   2.0000      -0.737202       -20.0603
   6   2.0000      -0.617958       -16.8155
   7   2.0000      -0.588675       -16.0186
   8   2.0000      -0.540426       -14.7057
   9   2.0000      -0.525468       -14.2987
  10   2.0000      -0.466976       -12.7071
  11   2.0000      -0.460613       -12.5339
  12   2.0000      -0.454889       -12.3782
  13   0.0000       0.155345         4.2272
  14   0.0000       0.206941         5.6312
  15   0.0000       0.207481         5.6459
  16   0.0000       0.212429         5.7805
  17   0.0000       0.241522         6.5722

MULLIKEN ATOMIC CHARGES
-----------------------
   0 C :   -0.200754
   1 C :   -0.074115
   2 C :   -0.129019
   3 H :    0.042020
   4 H :    0.037305
   5 H :    0.038673
   6 H :    0.058680
   7 H :    0.058903
   8 H :    0.060295
   9 H :    0.055123
  10 H :    0.052890
Sum of atomic charges:    0.0000000

LOEWDIN ATOMIC CHARGES
----------------------
   0 C :   -0.067562
   1 C :   -0.077274
   2 C :   -0.088373
   3 H :    0.025685
   4 H :    0.026412
   5 H :    0.023340
   6 H :    0.032347
   7 H :    0.029481
   8 H :    0.033179
   9 H :    0.031473
  10 H :    0.031293

  Mayer bond orders larger than 0.100000
B(  0-C ,  1-C ) :   1.0712 B(  0-C ,  2-C ) :   1.0718 B(  0-C ,  6-H ) :   0.9681
B(  0-C ,  7-H ) :   0.9674 B(  1-C ,  3-H ) :   0.9737 B(  1-C ,  4-H ) :   0.9771
B(  1-C ,  5-H ) :   0.9776 B(  2-C ,  8-H ) :   0.9772 B(  2-C ,  9-H ) :   0.9782
B(  2-C , 10-H ) :   0.9782

FINAL SINGLE POINT ENERGY      -118.608607969639

DIPOLE MOMENT
-------------
                                X             Y             Z
Electronic contribution:      0.35612      -0.17759      -0.02044
Nuclear contribution   :     -0.35842       0.15752       0.02695
                        -----------------------------------------
Total Dipole Moment    :     -0.00230      -0.02007       0.00651
                        -----------------------------------------
Magnitude (a.u.)       :      0.02123
Magnitude (Debye)      :      0.05395

Rotational constants in cm-1:     1.019891     0.293671     0.260247
Rotational constants in MHz : 30575.551403  8804.039097  7802.009261

                             ****ORCA TERMINATED NORMALLY****
TOTAL RUN TIME: 0 days 0 hours 0 minutes 8 seconds 416 msec
