                         Program Version 5.0.0 -  RELEASE  -
|  1> !LC-PBE RIJCOSX def2-SVP def2/J TightSCF
|  2> *xyz 0 1
|  3> C          0.96805        1.63064       -3.71575
|  4> C         -0.50835        1.72268       -4.12430
|  5> S         -1.32861        0.14674       -4.43578
|  6> H         -0.59151        2.29496       -5.04722
|  7> H         -1.11411        2.23561       -3.37436
|  8> O         -2.57135        0.47573       -5.06834
|  9> F         -1.51496       -0.40051       -3.06342
| 10> O         -0.37793       -0.62756       -5.20114
| 11> H          1.51840        1.12197       -4.47946
| 12> H          1.05062        1.08971       -2.79625
| 13> H          1.36450        2.61606       -3.58668
| 14> *
| 15> %MaxCore 64000
| 16>
| 17> %pal nprocs 4
| 18> end
| 19>
| 20> %scf
| 21>   MaxIter 150
| 22> end
| 23>
| 24>
| 25>                          ****END OF INPUT****

CARTESIAN COORDINATES (ANGSTROEM)
---------------------------------
  C      0.968050    1.630640   -3.715750
  C     -0.508350    1.722680   -4.124300
  S     -1.328610    0.146740   -4.435780
  H     -0.591510    2.294960   -5.047220
  H     -1.114110    2.235610   -3.374360
  O     -2.571350    0.475730   -5.068340
  F     -1.514960   -0.400510   -3.063420
  O     -0.377930   -0.627560   -5.201140
  H      1.518400    1.121970   -4.479460
  H      1.050620    1.089710   -2.796250
  H      1.364500    2.616060   -3.586680

 Total Charge           Charge          ....    0
 Multiplicity           Mult            ....    1
 Number of Electrons    NEL             ....   58
 Basis Dimension        Dim             ....  113

ORBITAL ENERGIES
----------------

  NO   OCC          E(Eh)            E(eV)
   0   2.0000     -88.549793     -2409.5624
   1   2.0000     -24.592148      -669.1864
   2   2.0000     -18.996319      -516.9161
   3   2.0000     -18.992935      -516.8240
   4   2.0000     -10.185183      -277.1529
   5   2.0000     -10.146478      -276.0997
   6   2.0000      -8.181778      -222.6375
   7   2.0000      -6.208047      -168.9296
   8   2.0000      -6.201128      -168.7413
   9   2.0000      -6.200052      -168.7120
  10   2.0000      -1.495961       -40.7072
  11   2.0000      -1.285273       -34.9741
  12   2.0000      -1.182558       -32.1790
  13   2.0000      -0.994871       -27.0718
  14   2.0000      -0.877642       -23.8818
  15   2.0000      -0.827074       -22.5058
  16   2.0000      -0.731596       -19.9077
  17   2.0000      -0.710672       -19.3384
  18   2.0000      -0.690838       -18.7986
  19   2.0000      -0.639091       -17.3905
  20   2.0000      -0.620964       -16.8973
  21   2.0000      -0.594954       -16.1895
  22   2.0000      -0.572071       -15.5668
  23   2.0000      -0.542559       -14.7638
  24   2.0000      -0.537909       -14.6372
  25   2.0000      -0.514344       -13.9960
  26   2.0000      -0.472813       -12.8659
  27   2.0000      -0.455988       -12.4081
  28   2.0000      -0.450583       -12.2610
  29   0.0000       0.127931         3.4812
  30   0.0000       0.155422         4.2292
  31   0.0000       0.176843         4.8122
  32   0.0000       0.187176         5.0933
  33   0.0000       0.191977         5.2240

MULLIKEN ATOMIC CHARGES
-----------------------
   0 C :   -0.130597
   1 C :   -0.262018
   2 S :    0.915581
   3 H :    0.139935
   4 H :    0.117805
   5 O :   -0.414663
   6 F :   -0.200551
   7 O :   -0.431509
   8 H :    0.101528
   9 H :    0.078403
  10 H :    0.086086
Sum of atomic charges:   -0.0000000

LOEWDIN ATOMIC CHARGES
----------------------
   0 C :   -0.093312
   1 C :   -0.182808
   2 S :    1.146470
   3 H :    0.062393
   4 H :    0.047771
   5 O :   -0.473506
   6 F :   -0.155422
   7 O :   -0.486431
   8 H :    0.047407
   9 H :    0.039704
  10 H :    0.047733

  Mayer bond orders larger than 0.100000
B(  0-C ,  1-C ) :   1.0269 B(  0-C ,  8-H ) :   0.9683 B(  0-C ,  9-H ) :   0.9759
B(  0-C , 10-H ) :   0.9674 B(  1-C ,  2-S ) :   0.9296 B(  1-C ,  3-H ) :   0.9383
B(  1-C ,  4-H ) :   0.9377 B(  2-S ,  5-O ) :   1.8252 B(  2-S ,  6-F ) :   0.9997
B(  2-S ,  7-O ) :   1.8036

FINAL SINGLE POINT ENERGY      -726.009091765586

DIPOLE MOMENT
-------------
                                X             Y             Z
Electronic contribution:     -6.56550      -6.62487       0.19992
Nuclear contribution   :      7.20921       7.65416       0.78523
                        -----------------------------------------
Total Dipole Moment    :      0.64371       1.02929       0.98515
                        -----------------------------------------
Magnitude (a.u.)       :      1.56344
Magnitude (Debye)      :      3.97394

Rotational constants in cm-1:     0.153780     0.081282     0.079816
Rotational constants in MHz :  4610.199589  2436.778679  2392.820729

                             ****ORCA TERMINATED NORMALLY****
TOTAL RUN TIME: 0 days 0 hours 0 minutes 14 seconds 121 msec
