                         Program Version 5.0.0 -  RELEASE  -
|  1> !LC-PBE RIJCOSX def2-SVP def2/J TightSCF
|  2> *xyz 0 1
|  3> C          0.96805        1.63064       -3.71575
|  4> C         -0.50835        1.72268       -4.12430
|  5> S         -1.32861        0.14674       -4.43578
|  6> H         -0.59151        2.29496       -5.04722
|  7> H         -1.11411        2.23561       -3.37436
|  8> O         -2.57135        0.47573       -5.06834
|  9> O         -1.51496       -0.40051       -3.06342
| 10> F         -0.37793       -0.62756       -5.20114
| 11> H          1.51840        1.12197       -4.47946
| 12> H          1.05062        1.08971       -2.79625
| 13> H          1.36450        2.61606       -3.58668
| 14> *
| 15> %MaxCore 64000
| 16>
| 17> %pal nprocs 4
| 18> end
| 19>
| 20> %scf
| 21>   MaxIter 150
| 22> end
| 23>
| 24>
| 25>                          ****END OF INPUT****

CARTESIAN COORDINATES (ANGSTROEM)
---------------------------------
  C      0.968050    1.630640   -3.715750
  C     -0.508350    1.722680   -4.124300
  S     -1.328610    0.146740   -4.435780
  H     -0.591510    2.294960   -5.047220
  H     -1.114110    2.235610   -3.374360
  O     -2.571350    0.475730   -5.068340
  O     -1.514960   -0.400510   -3.063420
  F     -0.377930   -0.627560   -5.201140
  H      1.518400    1.121970   -4.479460
  H      1.050620    1.089710   -2.796250
  H      1.364500    2.616060   -3.586680

 Total Charge           Charge          ....    0
 Multiplicity           Mult            ....    1
 Number of Electrons    NEL             ....   58
 Basis Dimension        Dim             ....  113

ORBITAL ENERGIES
----------------

  NO   OCC          E(Eh)            E(eV)
   0   2.0000     -88.550658     -2409.5859
   1   2.0000     -24.616277      -669.8429
   2   2.0000     -18.996226      -516.9136
   3   2.0000     -18.973983      -516.3083
   4   2.0000     -10.185930      -277.1732
   5   2.0000     -10.150406      -276.2066
   6   2.0000      -8.182929      -222.6688
   7   2.0000      -6.209488      -168.9688
   8   2.0000      -6.201938      -168.7633
   9   2.0000      -6.200942      -168.7362
  10   2.0000      -1.533268       -41.7223
  11   2.0000      -1.276278       -34.7293
  12   2.0000      -1.157483       -31.4967
  13   2.0000      -0.997012       -27.1301
  14   2.0000      -0.888097       -24.1664
  15   2.0000      -0.839870       -22.8540
  16   2.0000      -0.752948       -20.4888
  17   2.0000      -0.737386       -20.0653
  18   2.0000      -0.688906       -18.7461
  19   2.0000      -0.639750       -17.4085
  20   2.0000      -0.620051       -16.8724
  21   2.0000      -0.591641       -16.0994
  22   2.0000      -0.572347       -15.5744
  23   2.0000      -0.547425       -14.8962
  24   2.0000      -0.529783       -14.4161
  25   2.0000      -0.515393       -14.0246
  26   2.0000      -0.462660       -12.5896
  27   2.0000      -0.441998       -12.0274
  28   2.0000      -0.431924       -11.7532
  29   0.0000       0.122448         3.3320
  30   0.0000       0.156697         4.2640
  31   0.0000       0.173012         4.7079
  32   0.0000       0.188516         5.1298
  33   0.0000       0.193298         5.2599

MULLIKEN ATOMIC CHARGES
-----------------------
   0 C :   -0.138301
   1 C :   -0.253359
   2 S :    0.904867
   3 H :    0.116303
   4 H :    0.147511
   5 O :   -0.408798
   6 O :   -0.477263
   7 F :   -0.155698
   8 H :    0.076285
   9 H :    0.097813
  10 H :    0.090638
Sum of atomic charges:    0.0000000

LOEWDIN ATOMIC CHARGES
----------------------
   0 C :   -0.096172
   1 C :   -0.177697
   2 S :    1.140699
   3 H :    0.046290
   4 H :    0.066790
   5 O :   -0.469008
   6 O :   -0.535985
   7 F :   -0.108172
   8 H :    0.037242
   9 H :    0.046299
  10 H :    0.049714

  Mayer bond orders larger than 0.100000
B(  0-C ,  1-C ) :   1.0244 B(  0-C ,  8-H ) :   0.9755 B(  0-C ,  9-H ) :   0.9703
B(  0-C , 10-H ) :   0.9674 B(  1-C ,  2-S ) :   0.9359 B(  1-C ,  3-H ) :   0.9387
B(  1-C ,  4-H ) :   0.9353 B(  2-S ,  5-O ) :   1.8210 B(  2-S ,  6-O ) :   1.7492
B(  2-S ,  7-F ) :   1.0477

FINAL SINGLE POINT ENERGY      -725.987286337350

DIPOLE MOMENT
-------------
                                X             Y             Z
Electronic contribution:     -4.59464      -6.99456      -3.49413
Nuclear contribution   :      6.02439       7.89075       3.01280
                        -----------------------------------------
Total Dipole Moment    :      1.42975       0.89619      -0.48133
                        -----------------------------------------
Magnitude (a.u.)       :      1.75472
Magnitude (Debye)      :      4.46014

Rotational constants in cm-1:     0.153652     0.082400     0.079295
Rotational constants in MHz :  4606.361242  2470.285703  2377.214112

                             ****ORCA TERMINATED NORMALLY****
TOTAL RUN TIME: 0 days 0 hours 0 minutes 14 seconds 289 msec
