                         Program Version 5.0.0 -  RELEASE  -
|  1> !LC-PBE RIJCOSX def2-TZVP def2/J TightSCF xyzfile
|  2>
|  3> *xyzfile 0 1 D1.xyz
|  4>
|  5> %MaxCore 64000
|  6>
|  7> %pal nprocs 18
|  8> end
|  9>
| 10> %scf
| 11>   MaxIter 150
| 12> end
| 13>
| 14>
| 15>                          ****END OF INPUT****

CARTESIAN COORDINATES (ANGSTROEM)
---------------------------------
  C      1.364014    0.468742   -2.813764
  C      0.428844    0.321402   -1.655312
  C      0.968045    1.630639   -3.715749
  C     -0.508347    1.722679   -4.124300
  S     -1.328608    0.146737   -4.435781
  H     -0.591511    2.294958   -5.047219
  H     -1.114114    2.235610   -3.374362
  H      0.748578   -0.400542   -1.001345
  H     -0.461053    0.023332   -2.077731
  H      0.310258    1.201375   -1.134948
  F     -2.571347    0.475733   -5.068341
  O     -1.514963   -0.400512   -3.063420
  H      1.294847   -0.468742   -3.364684
  H      2.376216    0.597400   -2.431495
  H      1.578688    1.520652   -4.612733
  H      1.266653    2.575988   -3.250448
  O     -0.377928   -0.627558   -5.201141

 Total Charge           Charge          ....    0
 Multiplicity           Mult            ....    1
 Number of Electrons    NEL             ....   74
 Basis Dimension        Dim             ....  308

ORBITAL ENERGIES
----------------

  NO   OCC          E(Eh)            E(eV)
   0   2.0000     -88.542141     -2409.3541
   1   2.0000     -24.627137      -670.1385
   2   2.0000     -18.999151      -516.9932
   3   2.0000     -18.985730      -516.6280
   4   2.0000     -10.179362      -276.9945
   5   2.0000     -10.137123      -275.8451
   6   2.0000     -10.099684      -274.8264
   7   2.0000     -10.038916      -273.1728
   8   2.0000      -8.153470      -221.8672
   9   2.0000      -6.173696      -167.9948
  10   2.0000      -6.166736      -167.8054
  11   2.0000      -6.166506      -167.7992
  12   2.0000      -1.561576       -42.4926
  13   2.0000      -1.285807       -34.9886
  14   2.0000      -1.181465       -32.1493
  15   2.0000      -1.012705       -27.5571
  16   2.0000      -0.949018       -25.8241
  17   2.0000      -0.888143       -24.1676
  18   2.0000      -0.845561       -23.0089
  19   2.0000      -0.771282       -20.9877
  20   2.0000      -0.758656       -20.6441
  21   2.0000      -0.734326       -19.9820
  22   2.0000      -0.700270       -19.0553
  23   2.0000      -0.659519       -17.9464
  24   2.0000      -0.644401       -17.5350
  25   2.0000      -0.608943       -16.5702
  26   2.0000      -0.601122       -16.3573
  27   2.0000      -0.564241       -15.3538
  28   2.0000      -0.543382       -14.7862
  29   2.0000      -0.539907       -14.6916
  30   2.0000      -0.525754       -14.3065
  31   2.0000      -0.491739       -13.3809
  32   2.0000      -0.480770       -13.0824
  33   2.0000      -0.454916       -12.3789
  34   2.0000      -0.450527       -12.2595
  35   2.0000      -0.444832       -12.1045
  36   2.0000      -0.404695       -11.0123
  37   0.0000       0.106336         2.8935
  38   0.0000       0.116807         3.1785
  39   0.0000       0.143976         3.9178
  40   0.0000       0.147927         4.0253
  41   0.0000       0.161760         4.4017

MULLIKEN ATOMIC CHARGES
-----------------------
   0 C :   -0.345117
   1 C :   -0.454073
   2 C :   -0.283835
   3 C :   -0.374737
   4 S :    0.769251
   5 H :    0.193690
   6 H :    0.207868
   7 H :    0.137400
   8 H :    0.197517
   9 H :    0.125000
  10 F :   -0.056192
  11 O :   -0.403815
  12 H :    0.189497
  13 H :    0.136498
  14 H :    0.166186
  15 H :    0.167546
  16 O :   -0.372685
Sum of atomic charges:   -0.0000000

LOEWDIN ATOMIC CHARGES
----------------------
   0 C :   -0.322781
   1 C :   -0.337637
   2 C :   -0.293536
   3 C :   -0.379616
   4 S :    0.521095
   5 H :    0.146436
   6 H :    0.152143
   7 H :    0.111854
   8 H :    0.089942
   9 H :    0.107504
  10 F :    0.126793
  11 O :   -0.270425
  12 H :    0.150754
  13 H :    0.141322
  14 H :    0.153687
  15 H :    0.154699
  16 O :   -0.252234

  Mayer bond orders larger than 0.100000
B(  0-C ,  1-C ) :   0.9007 B(  0-C ,  2-C ) :   0.9385 B(  0-C , 12-H ) :   0.9758
B(  0-C , 13-H ) :   0.9779 B(  1-C ,  7-H ) :   0.9851 B(  1-C ,  8-H ) :   0.9370
B(  1-C ,  9-H ) :   0.9840 B(  2-C ,  3-C ) :   0.9309 B(  2-C , 14-H ) :   0.9754
B(  2-C , 15-H ) :   0.9616 B(  3-C ,  4-S ) :   0.9470 B(  3-C ,  5-H ) :   0.9413
B(  3-C ,  6-H ) :   0.9306 B(  4-S , 10-F ) :   1.2072 B(  4-S , 11-O ) :   1.8036
B(  4-S , 16-O ) :   1.9338

FINAL SINGLE POINT ENERGY      -804.918425557575

DIPOLE MOMENT
-------------
                                X             Y             Z
Electronic contribution:    -12.50341      -4.02802      -9.77142
Nuclear contribution   :     12.25227       5.48563       9.26621
                        -----------------------------------------
Total Dipole Moment    :     -0.25113       1.45761      -0.50521
                        -----------------------------------------
Magnitude (a.u.)       :      1.56299
Magnitude (Debye)      :      3.97280

Rotational constants in cm-1:     0.103176     0.044975     0.040960
Rotational constants in MHz :  3093.138469  1348.317425  1227.945122

                             ****ORCA TERMINATED NORMALLY****
TOTAL RUN TIME: 0 days 0 hours 0 minutes 20 seconds 620 msec
