                         Program Version 5.0.0 -  RELEASE  -
|  1> !LC-BLYP RIJCOSX def2-SVPD def2/J TightSCF
|  2> *xyz -1 1
|  3> C         -7.33044       -2.67899       -3.20681
|  4> S         -6.01966       -2.92697       -4.41913
|  5> O         -5.64583       -1.58838       -4.91931
|  6> O         -4.88196       -3.50370       -3.66724
|  7> O         -6.54927       -3.80515       -5.42507
|  8> C         -7.46900       -1.24615       -2.71383
|  9> H         -7.11825       -3.37982       -2.39805
| 10> H         -8.24184       -3.00474       -3.70651
| 11> H         -7.67580       -0.60214       -3.54292
| 12> H         -6.55749       -0.94096       -2.24382
| 13> H         -8.27114       -1.18777       -2.00810
| 14> *
| 15> %MaxCore 64000
| 16>
| 17> %pal nprocs 4
| 18> end
| 19>
| 20> %scf
| 21>   MaxIter 150
| 22> end
| 23>
| 24>
| 25>                          ****END OF INPUT****

CARTESIAN COORDINATES (ANGSTROEM)
---------------------------------
  C     -7.330440   -2.678990   -3.206810
  S     -6.019660   -2.926970   -4.419130
  O     -5.645830   -1.588380   -4.919310
  O     -4.881960   -3.503700   -3.667240
  O     -6.549270   -3.805150   -5.425070
  C     -7.469000   -1.246150   -2.713830
  H     -7.118250   -3.379820   -2.398050
  H     -8.241840   -3.004740   -3.706510
  H     -7.675800   -0.602140   -3.542920
  H     -6.557490   -0.940960   -2.243820
  H     -8.271140   -1.187770   -2.008100

 Total Charge           Charge          ....   -1
 Multiplicity           Mult            ....    1
 Number of Electrons    NEL             ....   58
 Basis Dimension        Dim             ....  176

ORBITAL ENERGIES
----------------

  NO   OCC          E(Eh)            E(eV)
   0   2.0000     -88.309690     -2403.0288
   1   2.0000     -18.742823      -510.0181
   2   2.0000     -18.731838      -509.7192
   3   2.0000     -18.728460      -509.6273
   4   2.0000      -9.954001      -270.8622
   5   2.0000      -9.946334      -270.6535
   6   2.0000      -7.858664      -213.8451
   7   2.0000      -5.892996      -160.3566
   8   2.0000      -5.892934      -160.3549
   9   2.0000      -5.892371      -160.3396
  10   2.0000      -1.028919       -27.9983
  11   2.0000      -0.882623       -24.0174
  12   2.0000      -0.859780       -23.3958
  13   2.0000      -0.745269       -20.2798
  14   2.0000      -0.618466       -16.8293
  15   2.0000      -0.490844       -13.3565
  16   2.0000      -0.432235       -11.7617
  17   2.0000      -0.425346       -11.5743
  18   2.0000      -0.385876       -10.5002
  19   2.0000      -0.366265        -9.9666
  20   2.0000      -0.362683        -9.8691
  21   2.0000      -0.334318        -9.0973
  22   2.0000      -0.323331        -8.7983
  23   2.0000      -0.253830        -6.9071
  24   2.0000      -0.253018        -6.8850
  25   2.0000      -0.215042        -5.8516
  26   2.0000      -0.208707        -5.6792
  27   2.0000      -0.200538        -5.4569
  28   2.0000      -0.162577        -4.4239
  29   0.0000       0.187712         5.1079
  30   0.0000       0.212335         5.7779
  31   0.0000       0.217220         5.9108
  32   0.0000       0.224200         6.1008
  33   0.0000       0.244565         6.6550

MULLIKEN ATOMIC CHARGES
-----------------------
   0 C :   -0.189505
   1 S :    1.089233
   2 O :   -0.766418
   3 O :   -0.758554
   4 O :   -0.701084
   5 C :    1.011843
   6 H :   -0.122988
   7 H :   -0.100398
   8 H :   -0.094171
   9 H :   -0.117563
  10 H :   -0.250397
Sum of atomic charges:   -1.0000000

LOEWDIN ATOMIC CHARGES
----------------------
   0 C :   -0.135493
   1 S :    0.816142
   2 O :   -0.572133
   3 O :   -0.586389
   4 O :   -0.560724
   5 C :    0.084844
   6 H :    0.007516
   7 H :    0.001021
   8 H :   -0.017426
   9 H :   -0.007733
  10 H :   -0.029623

  Mayer bond orders larger than 0.100000
B(  0-C ,  1-S ) :   0.8815 B(  0-C ,  5-C ) :   1.2664 B(  0-C ,  6-H ) :   0.9479
B(  0-C ,  7-H ) :   0.9554 B(  0-C ,  8-H ) :   0.2295 B(  0-C ,  9-H ) :   0.2156
B(  0-C , 10-H ) :   0.2531 B(  1-S ,  2-O ) :   1.3432 B(  1-S ,  3-O ) :   1.3354
B(  1-S ,  4-O ) :   1.4077 B(  5-C ,  8-H ) :   0.7464 B(  5-C ,  9-H ) :   0.7465
B(  5-C , 10-H ) :   0.7100

FINAL SINGLE POINT ENERGY      -701.943232091062

DIPOLE MOMENT
-------------
                                X             Y             Z
Electronic contribution:      4.58570      -3.48531      -5.01758
Nuclear contribution   :     -6.18165       4.01759       6.33106
                        -----------------------------------------
Total Dipole Moment    :     -1.59595       0.53229       1.31348
                        -----------------------------------------
Magnitude (a.u.)       :      2.13439
Magnitude (Debye)      :      5.42520

Rotational constants in cm-1:     0.161711     0.082788     0.081165
Rotational constants in MHz :  4847.971521  2481.906910  2433.276832

                             ****ORCA TERMINATED NORMALLY****
TOTAL RUN TIME: 0 days 0 hours 0 minutes 24 seconds 676 msec
