                         Program Version 5.0.0 -  RELEASE  -
|  1> !LC-BLYP RIJCOSX def2-SVPD def2/J TightSCF
|  2> *xyz 1 1
|  3> C         -2.16038       -1.36949       -3.46710
|  4> N         -3.03011       -1.91086       -4.54107
|  5> C         -2.04772        0.14658       -3.51177
|  6> H         -3.47744       -2.79151       -4.25710
|  7> H         -2.53801       -2.01786       -5.43808
|  8> H         -3.89159       -1.37604       -4.71437
|  9> H         -1.18444       -1.84400       -3.56639
| 10> H         -2.59819       -1.70838       -2.52848
| 11> H         -1.61525        0.44478       -4.44395
| 12> H         -1.42718        0.48198       -2.70720
| 13> H         -3.02145        0.57958       -3.41560
| 14> *
| 15> %MaxCore 64000
| 16>
| 17> %pal nprocs 4
| 18> end
| 19>
| 20> %scf
| 21>   MaxIter 150
| 22> end
| 23>
| 24>
| 25>                          ****END OF INPUT****

CARTESIAN COORDINATES (ANGSTROEM)
---------------------------------
  C     -2.160380   -1.369490   -3.467100
  N     -3.030110   -1.910860   -4.541070
  C     -2.047720    0.146580   -3.511770
  H     -3.477440   -2.791510   -4.257100
  H     -2.538010   -2.017860   -5.438080
  H     -3.891590   -1.376040   -4.714370
  H     -1.184440   -1.844000   -3.566390
  H     -2.598190   -1.708380   -2.528480
  H     -1.615250    0.444780   -4.443950
  H     -1.427180    0.481980   -2.707200
  H     -3.021450    0.579580   -3.415600

 Total Charge           Charge          ....    1
 Multiplicity           Mult            ....    1
 Number of Electrons    NEL             ....   26
 Basis Dimension        Dim             ....  124

ORBITAL ENERGIES
----------------

  NO   OCC          E(Eh)            E(eV)
   0   2.0000     -14.522600      -395.1800
   1   2.0000     -10.339332      -281.3475
   2   2.0000     -10.259414      -279.1728
   3   2.0000      -1.311118       -35.6773
   4   2.0000      -1.071542       -29.1581
   5   2.0000      -0.952057       -25.9068
   6   2.0000      -0.915638       -24.9158
   7   2.0000      -0.875109       -23.8129
   8   2.0000      -0.804208       -21.8836
   9   2.0000      -0.747081       -20.3291
  10   2.0000      -0.683398       -18.5962
  11   2.0000      -0.668063       -18.1789
  12   2.0000      -0.647894       -17.6301
  13   0.0000      -0.133840        -3.6420
  14   0.0000      -0.073381        -1.9968
  15   0.0000      -0.071141        -1.9358
  16   0.0000      -0.063505        -1.7281
  17   0.0000      -0.032534        -0.8853

MULLIKEN ATOMIC CHARGES
-----------------------
   0 C :    0.354621
   1 N :   -0.741165
   2 C :    0.867927
   3 H :    0.343789
   4 H :    0.390393
   5 H :    0.353761
   6 H :   -0.168357
   7 H :   -0.132999
   8 H :   -0.059830
   9 H :   -0.089939
  10 H :   -0.118201
Sum of atomic charges:    1.0000000

LOEWDIN ATOMIC CHARGES
----------------------
   0 C :    0.036664
   1 N :    0.323511
   2 C :    0.161084
   3 H :    0.108979
   4 H :    0.116683
   5 H :    0.108348
   6 H :    0.059177
   7 H :    0.056835
   8 H :    0.005913
   9 H :    0.019297
  10 H :    0.003510

  Mayer bond orders larger than 0.100000
B(  0-C ,  1-N ) :   0.7817 B(  0-C ,  2-C ) :   1.3194 B(  0-C ,  6-H ) :   0.8770
B(  0-C ,  7-H ) :   0.8747 B(  0-C ,  8-H ) :   0.1811 B(  0-C ,  9-H ) :   0.2119
B(  0-C , 10-H ) :   0.2012 B(  1-N ,  3-H ) :   0.7812 B(  1-N ,  4-H ) :   0.7258
B(  1-N ,  5-H ) :   0.7809 B(  1-N ,  6-H ) :   0.1326 B(  2-C ,  8-H ) :   0.7619
B(  2-C ,  9-H ) :   0.7749 B(  2-C , 10-H ) :   0.7865

FINAL SINGLE POINT ENERGY      -135.042407422384

DIPOLE MOMENT
-------------
                                X             Y             Z
Electronic contribution:     -0.65634      -1.50119      -0.77983
Nuclear contribution   :     -0.15215       0.37393      -0.04773
                        -----------------------------------------
Total Dipole Moment    :     -0.80849      -1.12725      -0.82757
                        -----------------------------------------
Magnitude (a.u.)       :      1.61531
Magnitude (Debye)      :      4.10578

Rotational constants in cm-1:     1.020762     0.277172     0.247319
Rotational constants in MHz : 30601.664035  8309.399682  7414.438136

                             ****ORCA TERMINATED NORMALLY****
TOTAL RUN TIME: 0 days 0 hours 0 minutes 12 seconds 779 msec
