                         Program Version 5.0.0 -  RELEASE  -
|  1> !LC-BLYP RIJCOSX def2-SVPD def2/J TightSCF
|  2> *xyz 0 1
|  3> C         -7.33044       -2.67899       -3.20681
|  4> S         -6.01966       -2.92697       -4.41913
|  5> F         -5.64583       -1.58838       -4.91931
|  6> O         -4.88196       -3.50370       -3.66724
|  7> O         -6.54927       -3.80515       -5.42507
|  8> C         -7.46900       -1.24615       -2.71383
|  9> H         -7.11825       -3.37982       -2.39805
| 10> H         -8.24184       -3.00474       -3.70651
| 11> H         -7.67580       -0.60214       -3.54292
| 12> H         -6.55749       -0.94096       -2.24382
| 13> H         -8.27114       -1.18777       -2.00810
| 14> *
| 15> %MaxCore 64000
| 16>
| 17> %pal nprocs 4
| 18> end
| 19>
| 20> %scf
| 21>   MaxIter 150
| 22> end
| 23>
| 24>
| 25>                          ****END OF INPUT****

CARTESIAN COORDINATES (ANGSTROEM)
---------------------------------
  C     -7.330440   -2.678990   -3.206810
  S     -6.019660   -2.926970   -4.419130
  F     -5.645830   -1.588380   -4.919310
  O     -4.881960   -3.503700   -3.667240
  O     -6.549270   -3.805150   -5.425070
  C     -7.469000   -1.246150   -2.713830
  H     -7.118250   -3.379820   -2.398050
  H     -8.241840   -3.004740   -3.706510
  H     -7.675800   -0.602140   -3.542920
  H     -6.557490   -0.940960   -2.243820
  H     -8.271140   -1.187770   -2.008100

 Total Charge           Charge          ....    0
 Multiplicity           Mult            ....    1
 Number of Electrons    NEL             ....   58
 Basis Dimension        Dim             ....  176

ORBITAL ENERGIES
----------------

  NO   OCC          E(Eh)            E(eV)
   0   2.0000     -88.565448     -2409.9884
   1   2.0000     -24.580556      -668.8709
   2   2.0000     -18.976158      -516.3675
   3   2.0000     -18.961190      -515.9602
   4   2.0000     -10.155038      -276.3326
   5   2.0000     -10.117119      -275.3008
   6   2.0000      -8.115285      -220.8281
   7   2.0000      -6.154128      -167.4623
   8   2.0000      -6.147372      -167.2785
   9   2.0000      -6.145859      -167.2373
  10   2.0000      -1.434239       -39.0276
  11   2.0000      -1.209898       -32.9230
  12   2.0000      -1.103999       -30.0413
  13   2.0000      -0.941362       -25.6158
  14   2.0000      -0.832525       -22.6541
  15   2.0000      -0.787755       -21.4359
  16   2.0000      -0.699868       -19.0444
  17   2.0000      -0.676387       -18.4054
  18   2.0000      -0.648871       -17.6567
  19   2.0000      -0.610774       -16.6200
  20   2.0000      -0.582165       -15.8415
  21   2.0000      -0.560284       -15.2461
  22   2.0000      -0.549546       -14.9539
  23   2.0000      -0.522018       -14.2048
  24   2.0000      -0.502554       -13.6752
  25   2.0000      -0.492959       -13.4141
  26   2.0000      -0.438584       -11.9345
  27   2.0000      -0.425827       -11.5873
  28   2.0000      -0.412864       -11.2346
  29   0.0000       0.042335         1.1520
  30   0.0000       0.075745         2.0611
  31   0.0000       0.078443         2.1345
  32   0.0000       0.081961         2.2303
  33   0.0000       0.107217         2.9175

MULLIKEN ATOMIC CHARGES
-----------------------
   0 C :   -0.179827
   1 S :    1.238657
   2 F :   -0.377736
   3 O :   -0.613536
   4 O :   -0.555973
   5 C :    1.022102
   6 H :   -0.077274
   7 H :   -0.054243
   8 H :   -0.092603
   9 H :   -0.107034
  10 H :   -0.202533
Sum of atomic charges:    0.0000000

LOEWDIN ATOMIC CHARGES
----------------------
   0 C :   -0.087663
   1 S :    1.075927
   2 F :   -0.254600
   3 O :   -0.469060
   4 O :   -0.444776
   5 C :    0.116029
   6 H :    0.037639
   7 H :    0.026420
   8 H :   -0.004440
   9 H :    0.003886
  10 H :    0.000638

  Mayer bond orders larger than 0.100000
B(  0-C ,  1-S ) :   0.9495 B(  0-C ,  5-C ) :   1.2813 B(  0-C ,  6-H ) :   0.9445
B(  0-C ,  7-H ) :   0.9583 B(  0-C ,  8-H ) :   0.2120 B(  0-C ,  9-H ) :   0.1995
B(  0-C , 10-H ) :   0.2485 B(  1-S ,  2-F ) :   0.7262 B(  1-S ,  3-O ) :   1.5490
B(  1-S ,  4-O ) :   1.6159 B(  5-C ,  8-H ) :   0.7474 B(  5-C ,  9-H ) :   0.7522
B(  5-C , 10-H ) :   0.7173

FINAL SINGLE POINT ENERGY      -726.425454489226

DIPOLE MOMENT
-------------
                                X             Y             Z
Electronic contribution:      5.57848      -1.69204      -6.32574
Nuclear contribution   :     -6.81251       2.87933       7.15058
                        -----------------------------------------
Total Dipole Moment    :     -1.23403       1.18729       0.82483
                        -----------------------------------------
Magnitude (a.u.)       :      1.90075
Magnitude (Debye)      :      4.83132

Rotational constants in cm-1:     0.152543     0.082494     0.078987
Rotational constants in MHz :  4573.135887  2473.116216  2367.980829

                             ****ORCA TERMINATED NORMALLY****
TOTAL RUN TIME: 0 days 0 hours 0 minutes 25 seconds 492 msec
