                         Program Version 5.0.0 -  RELEASE  -
|  1> !LC-BLYP RIJCOSX def2-SVPD def2/J TightSCF
|  2> *xyz 0 1
|  3> C         -2.16038       -1.36949       -3.46710
|  4> C         -3.03011       -1.91086       -4.54107
|  5> C         -2.04772        0.14658       -3.51177
|  6> H         -3.47744       -2.79151       -4.25710
|  7> H         -2.53801       -2.01786       -5.43808
|  8> H         -3.89159       -1.37604       -4.71437
|  9> H         -1.18444       -1.84400       -3.56639
| 10> H         -2.59819       -1.70838       -2.52848
| 11> H         -1.61525        0.44478       -4.44395
| 12> H         -1.42718        0.48198       -2.70720
| 13> H         -3.02145        0.57958       -3.41560
| 14> *
| 15> %MaxCore 64000
| 16>
| 17> %pal nprocs 4
| 18> end
| 19>
| 20> %scf
| 21>   MaxIter 150
| 22> end
| 23>
| 24>
| 25>                          ****END OF INPUT****

CARTESIAN COORDINATES (ANGSTROEM)
---------------------------------
  C     -2.160380   -1.369490   -3.467100
  C     -3.030110   -1.910860   -4.541070
  C     -2.047720    0.146580   -3.511770
  H     -3.477440   -2.791510   -4.257100
  H     -2.538010   -2.017860   -5.438080
  H     -3.891590   -1.376040   -4.714370
  H     -1.184440   -1.844000   -3.566390
  H     -2.598190   -1.708380   -2.528480
  H     -1.615250    0.444780   -4.443950
  H     -1.427180    0.481980   -2.707200
  H     -3.021450    0.579580   -3.415600

 Total Charge           Charge          ....    0
 Multiplicity           Mult            ....    1
 Number of Electrons    NEL             ....   26
 Basis Dimension        Dim             ....  124

ORBITAL ENERGIES
----------------

  NO   OCC          E(Eh)            E(eV)
   0   2.0000     -10.072504      -274.0868
   1   2.0000     -10.063431      -273.8399
   2   2.0000     -10.047210      -273.3985
   3   2.0000      -0.895321       -24.3629
   4   2.0000      -0.794728       -21.6256
   5   2.0000      -0.691464       -18.8157
   6   2.0000      -0.577426       -15.7126
   7   2.0000      -0.546109       -14.8604
   8   2.0000      -0.504972       -13.7410
   9   2.0000      -0.494946       -13.4682
  10   2.0000      -0.438905       -11.9432
  11   2.0000      -0.426747       -11.6124
  12   2.0000      -0.423890       -11.5346
  13   0.0000       0.078628         2.1396
  14   0.0000       0.105282         2.8649
  15   0.0000       0.112822         3.0701
  16   0.0000       0.143145         3.8952
  17   0.0000       0.163451         4.4477

MULLIKEN ATOMIC CHARGES
-----------------------
   0 C :   -0.351510
   1 C :    1.115259
   2 C :    0.865500
   3 H :   -0.277279
   4 H :   -0.279654
   5 H :   -0.322875
   6 H :   -0.197432
   7 H :   -0.144911
   8 H :   -0.134491
   9 H :   -0.165663
  10 H :   -0.106944
Sum of atomic charges:   -0.0000000

LOEWDIN ATOMIC CHARGES
----------------------
   0 C :   -0.125263
   1 C :    0.098196
   2 C :    0.105286
   3 H :   -0.032546
   4 H :   -0.023048
   5 H :   -0.031114
   6 H :    0.026458
   7 H :    0.024778
   8 H :   -0.011498
   9 H :   -0.018076
  10 H :   -0.013173

  Mayer bond orders larger than 0.100000
B(  0-C ,  1-C ) :   1.3120 B(  0-C ,  2-C ) :   1.2714 B(  0-C ,  3-H ) :   0.2386
B(  0-C ,  4-H ) :   0.2552 B(  0-C ,  5-H ) :   0.1967 B(  0-C ,  6-H ) :   0.8995
B(  0-C ,  7-H ) :   0.8755 B(  0-C ,  8-H ) :   0.2082 B(  0-C ,  9-H ) :   0.2277
B(  0-C , 10-H ) :   0.1762 B(  1-C ,  3-H ) :   0.5633 B(  1-C ,  4-H ) :   0.6190
B(  1-C ,  5-H ) :   0.5746 B(  1-C ,  6-H ) :   0.1330 B(  1-C ,  7-H ) :   0.1243
B(  2-C ,  8-H ) :   0.7715 B(  2-C ,  9-H ) :   0.7545 B(  2-C , 10-H ) :   0.7909
B(  3-H ,  5-H ) :   0.2320 B(  4-H ,  5-H ) :   0.1322

FINAL SINGLE POINT ENERGY      -118.649477640905

DIPOLE MOMENT
-------------
                                X             Y             Z
Electronic contribution:      0.31423      -0.13483       0.27646
Nuclear contribution   :     -0.34625       0.09603      -0.26933
                        -----------------------------------------
Total Dipole Moment    :     -0.03201      -0.03879       0.00712
                        -----------------------------------------
Magnitude (a.u.)       :      0.05080
Magnitude (Debye)      :      0.12912

Rotational constants in cm-1:     1.028617     0.291238     0.258956
Rotational constants in MHz : 30837.159054  8731.095379  7763.318586

                             ****ORCA TERMINATED NORMALLY****
TOTAL RUN TIME: 0 days 0 hours 0 minutes 11 seconds 901 msec
