                         Program Version 5.0.0 -  RELEASE  -
|  1> !LC-BLYP RIJCOSX def2-SVPD def2/J TightSCF
|  2> *xyz 0 1
|  3> C         -7.33044       -2.67899       -3.20681
|  4> S         -6.01966       -2.92697       -4.41913
|  5> O         -5.64583       -1.58838       -4.91931
|  6> F         -4.88196       -3.50370       -3.66724
|  7> O         -6.54927       -3.80515       -5.42507
|  8> C         -7.46900       -1.24615       -2.71383
|  9> H         -7.11825       -3.37982       -2.39805
| 10> H         -8.24184       -3.00474       -3.70651
| 11> H         -7.67580       -0.60214       -3.54292
| 12> H         -6.55749       -0.94096       -2.24382
| 13> H         -8.27114       -1.18777       -2.00810
| 14> *
| 15> %MaxCore 64000
| 16>
| 17> %pal nprocs 4
| 18> end
| 19>
| 20> %scf
| 21>   MaxIter 150
| 22> end
| 23>
| 24>
| 25>                          ****END OF INPUT****

CARTESIAN COORDINATES (ANGSTROEM)
---------------------------------
  C     -7.330440   -2.678990   -3.206810
  S     -6.019660   -2.926970   -4.419130
  O     -5.645830   -1.588380   -4.919310
  F     -4.881960   -3.503700   -3.667240
  O     -6.549270   -3.805150   -5.425070
  C     -7.469000   -1.246150   -2.713830
  H     -7.118250   -3.379820   -2.398050
  H     -8.241840   -3.004740   -3.706510
  H     -7.675800   -0.602140   -3.542920
  H     -6.557490   -0.940960   -2.243820
  H     -8.271140   -1.187770   -2.008100

 Total Charge           Charge          ....    0
 Multiplicity           Mult            ....    1
 Number of Electrons    NEL             ....   58
 Basis Dimension        Dim             ....  176

ORBITAL ENERGIES
----------------

  NO   OCC          E(Eh)            E(eV)
   0   2.0000     -88.565543     -2409.9910
   1   2.0000     -24.577672      -668.7924
   2   2.0000     -18.976162      -516.3676
   3   2.0000     -18.964516      -516.0507
   4   2.0000     -10.155402      -276.3425
   5   2.0000     -10.107979      -275.0521
   6   2.0000      -8.115375      -220.8306
   7   2.0000      -6.154118      -167.4621
   8   2.0000      -6.147467      -167.2811
   9   2.0000      -6.146047      -167.2424
  10   2.0000      -1.430702       -38.9314
  11   2.0000      -1.210759       -32.9464
  12   2.0000      -1.107362       -30.1329
  13   2.0000      -0.936979       -25.4965
  14   2.0000      -0.834048       -22.6956
  15   2.0000      -0.780513       -21.2388
  16   2.0000      -0.689561       -18.7639
  17   2.0000      -0.672379       -18.2964
  18   2.0000      -0.658478       -17.9181
  19   2.0000      -0.605147       -16.4669
  20   2.0000      -0.590960       -16.0808
  21   2.0000      -0.561758       -15.2862
  22   2.0000      -0.536219       -14.5913
  23   2.0000      -0.509673       -13.8689
  24   2.0000      -0.504210       -13.7203
  25   2.0000      -0.488672       -13.2974
  26   2.0000      -0.437861       -11.9148
  27   2.0000      -0.432217       -11.7612
  28   2.0000      -0.415784       -11.3141
  29   0.0000       0.045264         1.2317
  30   0.0000       0.071171         1.9367
  31   0.0000       0.079826         2.1722
  32   0.0000       0.081300         2.2123
  33   0.0000       0.103626         2.8198

MULLIKEN ATOMIC CHARGES
-----------------------
   0 C :   -0.207272
   1 S :    1.257143
   2 O :   -0.627744
   3 F :   -0.365295
   4 O :   -0.562249
   5 C :    1.046566
   6 H :   -0.084336
   7 H :   -0.058260
   8 H :   -0.071530
   9 H :   -0.114225
  10 H :   -0.212799
Sum of atomic charges:   -0.0000000

LOEWDIN ATOMIC CHARGES
----------------------
   0 C :   -0.093239
   1 S :    1.079202
   2 O :   -0.459569
   3 F :   -0.259519
   4 O :   -0.445498
   5 C :    0.119658
   6 H :    0.025563
   7 H :    0.030644
   8 H :    0.000464
   9 H :    0.002838
  10 H :   -0.000545

  Mayer bond orders larger than 0.100000
B(  0-C ,  1-S ) :   0.9363 B(  0-C ,  5-C ) :   1.3087 B(  0-C ,  6-H ) :   0.9222
B(  0-C ,  7-H ) :   0.9594 B(  0-C ,  8-H ) :   0.2247 B(  0-C ,  9-H ) :   0.2136
B(  0-C , 10-H ) :   0.2504 B(  1-S ,  2-O ) :   1.5569 B(  1-S ,  3-F ) :   0.7131
B(  1-S ,  4-O ) :   1.6172 B(  5-C ,  8-H ) :   0.7498 B(  5-C ,  9-H ) :   0.7401
B(  5-C , 10-H ) :   0.7111

FINAL SINGLE POINT ENERGY      -726.428614546798

DIPOLE MOMENT
-------------
                                X             Y             Z
Electronic contribution:      6.92317      -4.96484      -4.21160
Nuclear contribution   :     -7.60849       4.87515       5.84588
                        -----------------------------------------
Total Dipole Moment    :     -0.68532      -0.08969       1.63428
                        -----------------------------------------
Magnitude (a.u.)       :      1.77443
Magnitude (Debye)      :      4.51023

Rotational constants in cm-1:     0.153704     0.080342     0.079431
Rotational constants in MHz :  4607.928650  2408.599360  2381.267225

                             ****ORCA TERMINATED NORMALLY****
TOTAL RUN TIME: 0 days 0 hours 0 minutes 25 seconds 557 msec
