                         Program Version 5.0.0 -  RELEASE  -
|  1> !LC-BLYP RIJCOSX def2-SVPD def2/J TightSCF
|  2> *xyz 0 1
|  3> C         -7.33044       -2.67899       -3.20681
|  4> S         -6.01966       -2.92697       -4.41913
|  5> O         -5.64583       -1.58838       -4.91931
|  6> O         -4.88196       -3.50370       -3.66724
|  7> F         -6.54927       -3.80515       -5.42507
|  8> C         -7.46900       -1.24615       -2.71383
|  9> H         -7.11825       -3.37982       -2.39805
| 10> H         -8.24184       -3.00474       -3.70651
| 11> H         -7.67580       -0.60214       -3.54292
| 12> H         -6.55749       -0.94096       -2.24382
| 13> H         -8.27114       -1.18777       -2.00810
| 14> *
| 15> %MaxCore 64000
| 16>
| 17> %pal nprocs 4
| 18> end
| 19>
| 20> %scf
| 21>   MaxIter 150
| 22> end
| 23>
| 24>
| 25>                          ****END OF INPUT****

CARTESIAN COORDINATES (ANGSTROEM)
---------------------------------
  C     -7.330440   -2.678990   -3.206810
  S     -6.019660   -2.926970   -4.419130
  O     -5.645830   -1.588380   -4.919310
  O     -4.881960   -3.503700   -3.667240
  F     -6.549270   -3.805150   -5.425070
  C     -7.469000   -1.246150   -2.713830
  H     -7.118250   -3.379820   -2.398050
  H     -8.241840   -3.004740   -3.706510
  H     -7.675800   -0.602140   -3.542920
  H     -6.557490   -0.940960   -2.243820
  H     -8.271140   -1.187770   -2.008100

 Total Charge           Charge          ....    0
 Multiplicity           Mult            ....    1
 Number of Electrons    NEL             ....   58
 Basis Dimension        Dim             ....  176

ORBITAL ENERGIES
----------------

  NO   OCC          E(Eh)            E(eV)
   0   2.0000     -88.567695     -2410.0495
   1   2.0000     -24.599439      -669.3848
   2   2.0000     -18.964936      -516.0621
   3   2.0000     -18.961863      -515.9785
   4   2.0000     -10.156281      -276.3665
   5   2.0000     -10.108058      -275.0542
   6   2.0000      -8.117626      -220.8918
   7   2.0000      -6.156556      -167.5284
   8   2.0000      -6.149521      -167.3370
   9   2.0000      -6.148064      -167.2973
  10   2.0000      -1.467354       -39.9287
  11   2.0000      -1.196332       -32.5538
  12   2.0000      -1.090191       -29.6656
  13   2.0000      -0.937348       -25.5065
  14   2.0000      -0.847584       -23.0639
  15   2.0000      -0.788341       -21.4519
  16   2.0000      -0.701717       -19.0947
  17   2.0000      -0.698551       -19.0085
  18   2.0000      -0.664405       -18.0794
  19   2.0000      -0.606942       -16.5157
  20   2.0000      -0.590884       -16.0788
  21   2.0000      -0.550845       -14.9892
  22   2.0000      -0.533385       -14.5141
  23   2.0000      -0.512360       -13.9420
  24   2.0000      -0.493398       -13.4260
  25   2.0000      -0.486886       -13.2488
  26   2.0000      -0.430812       -11.7230
  27   2.0000      -0.423891       -11.5347
  28   2.0000      -0.402364       -10.9489
  29   0.0000       0.044332         1.2063
  30   0.0000       0.068109         1.8533
  31   0.0000       0.078798         2.1442
  32   0.0000       0.082287         2.2391
  33   0.0000       0.105218         2.8631

MULLIKEN ATOMIC CHARGES
-----------------------
   0 C :   -0.209422
   1 S :    1.262760
   2 O :   -0.617753
   3 O :   -0.606352
   4 F :   -0.335078
   5 C :    1.023376
   6 H :   -0.080832
   7 H :   -0.061657
   8 H :   -0.070518
   9 H :   -0.091329
  10 H :   -0.213195
Sum of atomic charges:    0.0000000

LOEWDIN ATOMIC CHARGES
----------------------
   0 C :   -0.098453
   1 S :    1.082618
   2 O :   -0.460429
   3 O :   -0.468038
   4 F :   -0.240073
   5 C :    0.126182
   6 H :    0.030492
   7 H :    0.019264
   8 H :   -0.001504
   9 H :    0.009200
  10 H :    0.000741

  Mayer bond orders larger than 0.100000
B(  0-C ,  1-S ) :   0.9295 B(  0-C ,  5-C ) :   1.3173 B(  0-C ,  6-H ) :   0.9549
B(  0-C ,  7-H ) :   0.9213 B(  0-C ,  8-H ) :   0.2273 B(  0-C ,  9-H ) :   0.2066
B(  0-C , 10-H ) :   0.2499 B(  1-S ,  2-O ) :   1.5488 B(  1-S ,  3-O ) :   1.5461
B(  1-S ,  4-F ) :   0.7807 B(  5-C ,  8-H ) :   0.7446 B(  5-C ,  9-H ) :   0.7510
B(  5-C , 10-H ) :   0.7127

FINAL SINGLE POINT ENERGY      -726.409874249991

DIPOLE MOMENT
-------------
                                X             Y             Z
Electronic contribution:      4.07416      -5.46024      -7.21518
Nuclear contribution   :     -5.87110       5.18927       7.67759
                        -----------------------------------------
Total Dipole Moment    :     -1.79694      -0.27097       0.46241
                        -----------------------------------------
Magnitude (a.u.)       :      1.87516
Magnitude (Debye)      :      4.76628

Rotational constants in cm-1:     0.155988     0.080452     0.078187
Rotational constants in MHz :  4676.405251  2411.902056  2343.983816

                             ****ORCA TERMINATED NORMALLY****
TOTAL RUN TIME: 0 days 0 hours 0 minutes 25 seconds 261 msec
