                         Program Version 5.0.0 -  RELEASE  -
|  1> !LC-BLYP RIJCOSX def2-SVPD def2/J TightSCF xyzfile
|  2>
|  3> *xyzfile 0 1 D1.xyz
|  4>
|  5> %MaxCore 64000
|  6>
|  7> %pal nprocs 4
|  8> end
|  9>
| 10> %scf
| 11>   MaxIter 150
| 12> end
| 13>
| 14>
| 15>                          ****END OF INPUT****

CARTESIAN COORDINATES (ANGSTROEM)
---------------------------------
  C     -2.160376   -1.369486   -3.467104
  C     -3.030108   -1.910857   -4.541074
  C     -2.047717    0.146583   -3.511774
  C     -7.330440   -2.678991   -3.206811
  S     -6.019659   -2.926965   -4.419128
  H     -3.477443   -2.791513   -4.257096
  H     -2.538013   -2.017860   -5.438075
  H     -3.891589   -1.376039   -4.714365
  F     -5.645830   -1.588384   -4.919307
  O     -4.881961   -3.503697   -3.667235
  H     -1.184438   -1.843997   -3.566393
  H     -2.598195   -1.708376   -2.528477
  O     -6.549267   -3.805150   -5.425071
  C     -3.328755    0.875037   -3.103669
  H     -1.740034    0.452343   -4.517126
  H     -1.232611    0.434938   -2.842208
  C     -3.628487    0.771601   -1.609363
  H     -4.175106    0.490791   -3.682203
  H     -3.237812    1.928663   -3.381480
  C     -4.975718    1.361432   -1.190644
  H     -2.830700    1.276234   -1.054766
  H     -3.594312   -0.275838   -1.294603
  C     -6.184720    0.784347   -1.926464
  H     -4.956292    2.445725   -1.342200
  H     -5.097256    1.205252   -0.114136
  C     -6.286921   -0.735882   -1.893531
  H     -6.163994    1.100199   -2.974250
  H     -7.094530    1.223459   -1.504509
  C     -7.468999   -1.246153   -2.713833
  H     -6.360641   -1.090347   -0.859176
  H     -5.369848   -1.171853   -2.295982
  H     -7.601914   -0.601349   -3.585329
  H     -8.389791   -1.173436   -2.126922
  H     -7.118254   -3.379818   -2.398055
  H     -8.241838   -3.004745   -3.706513

 Total Charge           Charge          ....    0
 Multiplicity           Mult            ....    1
 Number of Electrons    NEL             ....  122
 Basis Dimension        Dim             ....  464

ORBITAL ENERGIES
----------------

  NO   OCC          E(Eh)            E(eV)
   0   2.0000     -88.572160     -2410.1710
   1   2.0000     -24.585651      -669.0096
   2   2.0000     -18.981016      -516.4997
   3   2.0000     -18.964695      -516.0556
   4   2.0000     -10.153277      -276.2847
   5   2.0000     -10.121164      -275.4109
   6   2.0000     -10.099054      -274.8092
   7   2.0000     -10.090638      -274.5802
   8   2.0000     -10.083333      -274.3814
   9   2.0000     -10.076338      -274.1911
  10   2.0000     -10.073935      -274.1257
  11   2.0000     -10.065999      -273.9098
  12   2.0000     -10.056582      -273.6535
  13   2.0000     -10.011140      -272.4170
  14   2.0000      -8.120513      -220.9704
  15   2.0000      -6.159426      -167.6065
  16   2.0000      -6.152789      -167.4259
  17   2.0000      -6.151053      -167.3787
  18   2.0000      -1.441583       -39.2275
  19   2.0000      -1.215448       -33.0740
  20   2.0000      -1.112540       -30.2737
  21   2.0000      -0.957369       -26.0513
  22   2.0000      -0.923896       -25.1405
  23   2.0000      -0.894316       -24.3356
  24   2.0000      -0.867537       -23.6069
  25   2.0000      -0.827261       -22.5109
  26   2.0000      -0.813554       -22.1379
  27   2.0000      -0.778592       -21.1866
  28   2.0000      -0.744451       -20.2575
  29   2.0000      -0.729106       -19.8400
  30   2.0000      -0.702302       -19.1106
  31   2.0000      -0.690838       -18.7987
  32   2.0000      -0.673445       -18.3254
  33   2.0000      -0.658292       -17.9130
  34   2.0000      -0.650401       -17.6983
  35   2.0000      -0.608258       -16.5515
  36   2.0000      -0.600573       -16.3424
  37   2.0000      -0.587550       -15.9881
  38   2.0000      -0.578366       -15.7382
  39   2.0000      -0.571181       -15.5426
  40   2.0000      -0.557898       -15.1812
  41   2.0000      -0.545367       -14.8402
  42   2.0000      -0.537547       -14.6274
  43   2.0000      -0.532990       -14.5034
  44   2.0000      -0.516121       -14.0444
  45   2.0000      -0.501413       -13.6441
  46   2.0000      -0.494572       -13.4580
  47   2.0000      -0.493292       -13.4232
  48   2.0000      -0.477808       -13.0018
  49   2.0000      -0.469349       -12.7716
  50   2.0000      -0.456937       -12.4339
  51   2.0000      -0.454114       -12.3571
  52   2.0000      -0.440606       -11.9895
  53   2.0000      -0.435988       -11.8638
  54   2.0000      -0.429464       -11.6863
  55   2.0000      -0.422910       -11.5080
  56   2.0000      -0.415923       -11.3178
  57   2.0000      -0.411722       -11.2035
  58   2.0000      -0.401457       -10.9242
  59   2.0000      -0.398253       -10.8370
  60   2.0000      -0.374532       -10.1915
  61   0.0000       0.045637         1.2418
  62   0.0000       0.067250         1.8300
  63   0.0000       0.073683         2.0050
  64   0.0000       0.079055         2.1512
  65   0.0000       0.088328         2.4035

MULLIKEN ATOMIC CHARGES
-----------------------
   0 C :    0.305940
   1 C :    2.523765
   2 C :    0.741340
   3 C :    0.638859
   4 S :    1.161968
   5 H :   -0.785443
   6 H :   -0.363493
   7 H :   -1.250671
   8 F :   -0.435328
   9 O :   -0.655402
  10 H :   -0.381085
  11 H :   -0.140108
  12 O :   -0.577090
  13 C :    0.720956
  14 H :   -0.187865
  15 H :   -0.189568
  16 C :    0.050856
  17 H :   -0.808763
  18 H :   -0.150837
  19 C :    0.873311
  20 H :   -0.448857
  21 H :    0.004871
  22 C :    0.059341
  23 H :   -0.108869
  24 H :   -0.076897
  25 C :    0.683055
  26 H :    0.142593
  27 H :   -0.542329
  28 C :    0.505364
  29 H :   -0.122549
  30 H :   -0.648888
  31 H :   -0.015370
  32 H :   -0.287693
  33 H :   -0.116451
  34 H :   -0.118665
Sum of atomic charges:    0.0000000

LOEWDIN ATOMIC CHARGES
----------------------
   0 C :   -0.046167
   1 C :    0.114044
   2 C :   -0.038108
   3 C :   -0.033974
   4 S :    1.113639
   5 H :   -0.123574
   6 H :   -0.007588
   7 H :   -0.095902
   8 F :   -0.249714
   9 O :   -0.438012
  10 H :    0.030187
  11 H :    0.016956
  12 O :   -0.423064
  13 C :   -0.032645
  14 H :    0.031240
  15 H :    0.023528
  16 C :   -0.044968
  17 H :   -0.003331
  18 H :    0.032555
  19 C :   -0.039230
  20 H :    0.031290
  21 H :    0.009870
  22 C :   -0.048216
  23 H :    0.029371
  24 H :    0.028505
  25 C :   -0.032631
  26 H :    0.021592
  27 H :    0.032139
  28 C :   -0.051900
  29 H :    0.047845
  30 H :    0.001221
  31 H :    0.028667
  32 H :    0.043421
  33 H :    0.043335
  34 H :    0.029619

  Mayer bond orders larger than 0.100000
B(  0-C ,  1-C ) :   0.7575 B(  0-C ,  2-C ) :   1.2001 B(  0-C ,  5-H ) :   0.5436
B(  0-C ,  6-H ) :   0.1080 B(  0-C ,  7-H ) :   0.5359 B(  0-C , 10-H ) :   0.7872
B(  0-C , 11-H ) :   0.6946 B(  0-C , 13-C ) :   0.1766 B(  0-C , 14-H ) :   0.1310
B(  0-C , 15-H ) :   0.2167 B(  0-C , 17-H ) :  -0.1084 B(  1-C ,  2-C ) :   0.1233
B(  1-C ,  5-H ) :  -0.8003 B(  1-C ,  6-H ) :   0.4816 B(  1-C ,  7-H ) :  -1.5001
B(  1-C ,  9-O ) :  -0.1354 B(  1-C , 11-H ) :   0.2782 B(  2-C ,  7-H ) :  -0.1154
B(  2-C , 11-H ) :   0.1166 B(  2-C , 13-C ) :   1.1724 B(  2-C , 14-H ) :   0.6054
B(  2-C , 15-H ) :   0.6515 B(  2-C , 17-H ) :   0.1676 B(  2-C , 19-C ) :   0.1140
B(  3-C ,  4-S ) :   0.8834 B(  3-C , 25-C ) :   0.1601 B(  3-C , 28-C ) :   1.1910
B(  3-C , 30-H ) :  -0.1020 B(  3-C , 33-H ) :   0.8484 B(  3-C , 34-H ) :   0.6706
B(  4-S ,  8-F ) :   0.6928 B(  4-S ,  9-O ) :   1.5224 B(  4-S , 12-O ) :   1.6482
B(  4-S , 33-H ) :   0.1121 B(  5-H ,  6-H ) :  -0.1697 B(  5-H ,  7-H ) :   1.1398
B(  5-H ,  9-O ) :   0.2610 B(  6-H ,  7-H ) :   0.1872 B(  7-H ,  8-F ) :   0.1826
B(  7-H ,  9-O ) :   0.1036 B(  7-H , 15-H ) :  -0.1025 B(  7-H , 17-H ) :   0.1991
B(  9-O , 12-O ) :   0.1009 B( 10-H , 11-H ) :  -0.1292 B( 10-H , 18-H ) :   0.1034
B( 11-H , 21-H ) :   0.1234 B( 13-C , 14-H ) :   0.2598 B( 13-C , 15-H ) :   0.1577
B( 13-C , 16-C ) :   1.1200 B( 13-C , 17-H ) :   0.4826 B( 13-C , 18-H ) :   0.6726
B( 13-C , 20-H ) :   0.2168 B( 13-C , 21-H ) :   0.1048 B( 14-H , 15-H ) :  -0.1951
B( 16-C , 17-H ) :   0.2737 B( 16-C , 18-H ) :   0.2145 B( 16-C , 19-C ) :   1.1560
B( 16-C , 20-H ) :   0.8950 B( 16-C , 21-H ) :   0.8437 B( 16-C , 22-C ) :   0.2055
B( 16-C , 23-H ) :   0.1574 B( 16-C , 24-H ) :   0.3345 B( 17-H , 26-H ) :   0.1238
B( 19-C , 22-C ) :   1.1139 B( 19-C , 23-H ) :   0.5808 B( 19-C , 24-H ) :   0.5944
B( 22-C , 23-H ) :   0.2946 B( 22-C , 24-H ) :   0.1181 B( 22-C , 25-C ) :   1.2100
B( 22-C , 26-H ) :   0.7680 B( 22-C , 27-H ) :   0.9516 B( 22-C , 28-C ) :   0.1786
B( 22-C , 29-H ) :   0.1071 B( 22-C , 30-H ) :   0.1961 B( 23-H , 24-H ) :  -0.1508
B( 25-C , 26-H ) :   0.1172 B( 25-C , 27-H ) :   0.1894 B( 25-C , 28-C ) :   1.1338
B( 25-C , 29-H ) :   0.6314 B( 25-C , 30-H ) :   0.4348 B( 25-C , 32-H ) :   0.2217
B( 27-H , 31-H ) :  -0.1063 B( 28-C , 29-H ) :   0.1540 B( 28-C , 31-H ) :   0.8025
B( 28-C , 32-H ) :   0.7154 B( 28-C , 34-H ) :   0.2688 B( 29-H , 30-H ) :   0.2511

FINAL SINGLE POINT ENERGY     -1039.723472754859

DIPOLE MOMENT
-------------
                                X             Y             Z
Electronic contribution:    -10.90496     -16.15911     -13.11941
Nuclear contribution   :      9.63012      17.20461      14.03552
                        -----------------------------------------
Total Dipole Moment    :     -1.27484       1.04549       0.91611
                        -----------------------------------------
Magnitude (a.u.)       :      1.88614
Magnitude (Debye)      :      4.79419

Rotational constants in cm-1:     0.025899     0.015189     0.010690
Rotational constants in MHz :   776.424978   455.369614   320.488876

                             ****ORCA TERMINATED NORMALLY****
TOTAL RUN TIME: 0 days 0 hours 3 minutes 49 seconds 541 msec
