                         Program Version 5.0.0 -  RELEASE  -
|  1> !LC-BLYP RIJCOSX def2-SVPD def2/J TightSCF xyzfile
|  2>
|  3> *xyzfile 0 1 D2.xyz
|  4>
|  5> %MaxCore 64000
|  6>
|  7> %pal nprocs 4
|  8> end
|  9>
| 10> %scf
| 11>   MaxIter 150
| 12> end
| 13>
| 14>
| 15>                          ****END OF INPUT****

CARTESIAN COORDINATES (ANGSTROEM)
---------------------------------
  C     -2.160376   -1.369486   -3.467104
  C     -3.030108   -1.910857   -4.541074
  C     -2.047717    0.146583   -3.511774
  C     -7.330440   -2.678991   -3.206811
  S     -6.019659   -2.926965   -4.419128
  H     -3.477443   -2.791513   -4.257096
  H     -2.538013   -2.017860   -5.438075
  H     -3.891589   -1.376039   -4.714365
  O     -5.645830   -1.588384   -4.919307
  F     -4.881961   -3.503697   -3.667235
  H     -1.184438   -1.843997   -3.566393
  H     -2.598195   -1.708376   -2.528477
  O     -6.549267   -3.805150   -5.425071
  C     -3.328755    0.875037   -3.103669
  H     -1.740034    0.452343   -4.517126
  H     -1.232611    0.434938   -2.842208
  C     -3.628487    0.771601   -1.609363
  H     -4.175106    0.490791   -3.682203
  H     -3.237812    1.928663   -3.381480
  C     -4.975718    1.361432   -1.190644
  H     -2.830700    1.276234   -1.054766
  H     -3.594312   -0.275838   -1.294603
  C     -6.184720    0.784347   -1.926464
  H     -4.956292    2.445725   -1.342200
  H     -5.097256    1.205252   -0.114136
  C     -6.286921   -0.735882   -1.893531
  H     -6.163994    1.100199   -2.974250
  H     -7.094530    1.223459   -1.504509
  C     -7.468999   -1.246153   -2.713833
  H     -6.360641   -1.090347   -0.859176
  H     -5.369848   -1.171853   -2.295982
  H     -7.601914   -0.601349   -3.585329
  H     -8.389791   -1.173436   -2.126922
  H     -7.118254   -3.379818   -2.398055
  H     -8.241838   -3.004745   -3.706513

 Total Charge           Charge          ....    0
 Multiplicity           Mult            ....    1
 Number of Electrons    NEL             ....  122
 Basis Dimension        Dim             ....  464

ORBITAL ENERGIES
----------------

  NO   OCC          E(Eh)            E(eV)
   0   2.0000     -88.572574     -2410.1823
   1   2.0000     -24.582935      -668.9357
   2   2.0000     -18.981150      -516.5034
   3   2.0000     -18.968663      -516.1636
   4   2.0000     -10.154128      -276.3079
   5   2.0000     -10.113870      -275.2124
   6   2.0000     -10.095776      -274.7200
   7   2.0000     -10.084885      -274.4237
   8   2.0000     -10.079600      -274.2799
   9   2.0000     -10.073623      -274.1172
  10   2.0000     -10.068020      -273.9648
  11   2.0000     -10.064850      -273.8785
  12   2.0000     -10.059347      -273.7287
  13   2.0000     -10.014362      -272.5046
  14   2.0000      -8.120795      -220.9781
  15   2.0000      -6.159611      -167.6115
  16   2.0000      -6.153096      -167.4343
  17   2.0000      -6.151417      -167.3886
  18   2.0000      -1.439625       -39.1742
  19   2.0000      -1.216272       -33.0964
  20   2.0000      -1.114945       -30.3392
  21   2.0000      -0.952429       -25.9169
  22   2.0000      -0.921035       -25.0626
  23   2.0000      -0.893182       -24.3047
  24   2.0000      -0.868149       -23.6235
  25   2.0000      -0.826838       -22.4994
  26   2.0000      -0.812958       -22.1217
  27   2.0000      -0.774711       -21.0809
  28   2.0000      -0.741214       -20.1695
  29   2.0000      -0.727692       -19.8015
  30   2.0000      -0.689289       -18.7565
  31   2.0000      -0.686501       -18.6806
  32   2.0000      -0.678472       -18.4622
  33   2.0000      -0.664386       -18.0789
  34   2.0000      -0.647716       -17.6253
  35   2.0000      -0.614208       -16.7135
  36   2.0000      -0.595615       -16.2075
  37   2.0000      -0.586170       -15.9505
  38   2.0000      -0.578946       -15.7539
  39   2.0000      -0.570311       -15.5190
  40   2.0000      -0.551735       -15.0135
  41   2.0000      -0.539687       -14.6856
  42   2.0000      -0.536276       -14.5928
  43   2.0000      -0.532205       -14.4820
  44   2.0000      -0.510697       -13.8968
  45   2.0000      -0.503581       -13.7031
  46   2.0000      -0.492693       -13.4069
  47   2.0000      -0.485260       -13.2046
  48   2.0000      -0.475023       -12.9260
  49   2.0000      -0.465970       -12.6797
  50   2.0000      -0.459209       -12.4957
  51   2.0000      -0.445382       -12.1195
  52   2.0000      -0.438039       -11.9197
  53   2.0000      -0.433757       -11.8031
  54   2.0000      -0.427609       -11.6358
  55   2.0000      -0.425135       -11.5685
  56   2.0000      -0.417564       -11.3625
  57   2.0000      -0.411201       -11.1894
  58   2.0000      -0.398477       -10.8431
  59   2.0000      -0.395650       -10.7662
  60   2.0000      -0.383359       -10.4317
  61   0.0000       0.049152         1.3375
  62   0.0000       0.066934         1.8214
  63   0.0000       0.072849         1.9823
  64   0.0000       0.079810         2.1718
  65   0.0000       0.087813         2.3895

MULLIKEN ATOMIC CHARGES
-----------------------
   0 C :    0.317213
   1 C :    2.576219
   2 C :    0.737605
   3 C :    0.613837
   4 S :    1.184535
   5 H :   -0.841270
   6 H :   -0.371973
   7 H :   -1.242335
   8 O :   -0.651826
   9 F :   -0.475555
  10 H :   -0.380412
  11 H :   -0.138148
  12 O :   -0.575504
  13 C :    0.758329
  14 H :   -0.171622
  15 H :   -0.193121
  16 C :    0.059648
  17 H :   -0.847555
  18 H :   -0.136343
  19 C :    0.872137
  20 H :   -0.444716
  21 H :   -0.013288
  22 C :    0.039977
  23 H :   -0.112168
  24 H :   -0.078535
  25 C :    0.671537
  26 H :    0.150805
  27 H :   -0.530468
  28 C :    0.511200
  29 H :   -0.123224
  30 H :   -0.651895
  31 H :    0.044732
  32 H :   -0.304729
  33 H :   -0.125543
  34 H :   -0.127547
Sum of atomic charges:   -0.0000000

LOEWDIN ATOMIC CHARGES
----------------------
   0 C :   -0.052316
   1 C :    0.119194
   2 C :   -0.035837
   3 C :   -0.039551
   4 S :    1.113205
   5 H :   -0.094678
   6 H :   -0.004702
   7 H :   -0.117662
   8 O :   -0.432133
   9 F :   -0.259016
  10 H :    0.027317
  11 H :    0.012081
  12 O :   -0.423914
  13 C :   -0.027691
  14 H :    0.032775
  15 H :    0.022952
  16 C :   -0.046880
  17 H :    0.002323
  18 H :    0.033010
  19 C :   -0.039917
  20 H :    0.030088
  21 H :    0.006865
  22 C :   -0.043707
  23 H :    0.029341
  24 H :    0.027138
  25 C :   -0.035542
  26 H :    0.026710
  27 H :    0.032179
  28 C :   -0.046368
  29 H :    0.043446
  30 H :   -0.000616
  31 H :    0.032558
  32 H :    0.043586
  33 H :    0.032121
  34 H :    0.033641

  Mayer bond orders larger than 0.100000
B(  0-C ,  1-C ) :   0.7673 B(  0-C ,  2-C ) :   1.2052 B(  0-C ,  5-H ) :   0.5220
B(  0-C ,  7-H ) :   0.5258 B(  0-C , 10-H ) :   0.7894 B(  0-C , 11-H ) :   0.6857
B(  0-C , 13-C ) :   0.1741 B(  0-C , 14-H ) :   0.1404 B(  0-C , 15-H ) :   0.2145
B(  0-C , 17-H ) :  -0.1032 B(  1-C ,  2-C ) :   0.1191 B(  1-C ,  5-H ) :  -0.9268
B(  1-C ,  6-H ) :   0.4633 B(  1-C ,  7-H ) :  -1.3563 B(  1-C ,  9-F ) :  -0.1124
B(  1-C , 11-H ) :   0.2659 B(  2-C ,  7-H ) :  -0.1276 B(  2-C , 11-H ) :   0.1229
B(  2-C , 13-C ) :   1.1695 B(  2-C , 14-H ) :   0.5962 B(  2-C , 15-H ) :   0.6557
B(  2-C , 17-H ) :   0.1643 B(  2-C , 19-C ) :   0.1120 B(  3-C ,  4-S ) :   0.8792
B(  3-C , 25-C ) :   0.1753 B(  3-C , 28-C ) :   1.1846 B(  3-C , 30-H ) :  -0.1050
B(  3-C , 31-H ) :   0.1075 B(  3-C , 33-H ) :   0.8417 B(  3-C , 34-H ) :   0.6780
B(  4-S ,  8-O ) :   1.5283 B(  4-S ,  9-F ) :   0.6584 B(  4-S , 12-O ) :   1.6471
B(  4-S , 33-H ) :   0.1074 B(  5-H ,  6-H ) :  -0.1770 B(  5-H ,  7-H ) :   1.1265
B(  5-H ,  9-F ) :   0.2860 B(  6-H ,  7-H ) :   0.2162 B(  7-H ,  8-O ) :   0.1640
B(  7-H ,  9-F ) :   0.1240 B(  7-H , 15-H ) :  -0.1040 B(  7-H , 17-H ) :   0.2052
B( 10-H , 11-H ) :  -0.1366 B( 10-H , 18-H ) :   0.1002 B( 11-H , 21-H ) :   0.1278
B( 13-C , 14-H ) :   0.2590 B( 13-C , 15-H ) :   0.1580 B( 13-C , 16-C ) :   1.1049
B( 13-C , 17-H ) :   0.4382 B( 13-C , 18-H ) :   0.6655 B( 13-C , 20-H ) :   0.2137
B( 14-H , 15-H ) :  -0.1927 B( 16-C , 17-H ) :   0.2857 B( 16-C , 18-H ) :   0.2148
B( 16-C , 19-C ) :   1.1572 B( 16-C , 20-H ) :   0.8901 B( 16-C , 21-H ) :   0.8369
B( 16-C , 22-C ) :   0.2083 B( 16-C , 23-H ) :   0.1565 B( 16-C , 24-H ) :   0.3378
B( 17-H , 26-H ) :   0.1273 B( 19-C , 22-C ) :   1.1105 B( 19-C , 23-H ) :   0.5841
B( 19-C , 24-H ) :   0.5899 B( 22-C , 23-H ) :   0.2911 B( 22-C , 24-H ) :   0.1177
B( 22-C , 25-C ) :   1.2256 B( 22-C , 26-H ) :   0.7633 B( 22-C , 27-H ) :   0.9550
B( 22-C , 28-C ) :   0.1815 B( 22-C , 29-H ) :   0.1050 B( 22-C , 30-H ) :   0.2029
B( 23-H , 24-H ) :  -0.1514 B( 25-C , 26-H ) :   0.1193 B( 25-C , 27-H ) :   0.1855
B( 25-C , 28-C ) :   1.1437 B( 25-C , 29-H ) :   0.6060 B( 25-C , 30-H ) :   0.4423
B( 25-C , 32-H ) :   0.2262 B( 27-H , 31-H ) :  -0.1031 B( 28-C , 29-H ) :   0.1515
B( 28-C , 31-H ) :   0.7957 B( 28-C , 32-H ) :   0.7187 B( 28-C , 34-H ) :   0.2425
B( 29-H , 30-H ) :   0.3015

FINAL SINGLE POINT ENERGY     -1039.727058277774

DIPOLE MOMENT
-------------
                                X             Y             Z
Electronic contribution:     -9.56936     -19.48544     -11.03220
Nuclear contribution   :      8.71934      19.48829      12.54264
                        -----------------------------------------
Total Dipole Moment    :     -0.85002       0.00284       1.51044
                        -----------------------------------------
Magnitude (a.u.)       :      1.73319
Magnitude (Debye)      :      4.40543

Rotational constants in cm-1:     0.025810     0.015137     0.010647
Rotational constants in MHz :   773.773140   453.802427   319.195213

                             ****ORCA TERMINATED NORMALLY****
TOTAL RUN TIME: 0 days 0 hours 3 minutes 51 seconds 718 msec
