                         Program Version 5.0.0 -  RELEASE  -
|  1> !LC-BLYP RIJCOSX def2-SVPD def2/J TightSCF xyzfile
|  2>
|  3> *xyzfile 0 1 D3.xyz
|  4>
|  5> %MaxCore 64000
|  6>
|  7> %pal nprocs 4
|  8> end
|  9>
| 10> %scf
| 11>   MaxIter 150
| 12> end
| 13>
| 14>
| 15>                          ****END OF INPUT****

CARTESIAN COORDINATES (ANGSTROEM)
---------------------------------
  C     -2.160376   -1.369486   -3.467104
  C     -3.030108   -1.910857   -4.541074
  C     -2.047717    0.146583   -3.511774
  C     -7.330440   -2.678991   -3.206811
  S     -6.019659   -2.926965   -4.419128
  H     -3.477443   -2.791513   -4.257096
  H     -2.538013   -2.017860   -5.438075
  H     -3.891589   -1.376039   -4.714365
  O     -5.645830   -1.588384   -4.919307
  O     -4.881961   -3.503697   -3.667235
  H     -1.184438   -1.843997   -3.566393
  H     -2.598195   -1.708376   -2.528477
  F     -6.549267   -3.805150   -5.425071
  C     -3.328755    0.875037   -3.103669
  H     -1.740034    0.452343   -4.517126
  H     -1.232611    0.434938   -2.842208
  C     -3.628487    0.771601   -1.609363
  H     -4.175106    0.490791   -3.682203
  H     -3.237812    1.928663   -3.381480
  C     -4.975718    1.361432   -1.190644
  H     -2.830700    1.276234   -1.054766
  H     -3.594312   -0.275838   -1.294603
  C     -6.184720    0.784347   -1.926464
  H     -4.956292    2.445725   -1.342200
  H     -5.097256    1.205252   -0.114136
  C     -6.286921   -0.735882   -1.893531
  H     -6.163994    1.100199   -2.974250
  H     -7.094530    1.223459   -1.504509
  C     -7.468999   -1.246153   -2.713833
  H     -6.360641   -1.090347   -0.859176
  H     -5.369848   -1.171853   -2.295982
  H     -7.601914   -0.601349   -3.585329
  H     -8.389791   -1.173436   -2.126922
  H     -7.118254   -3.379818   -2.398055
  H     -8.241838   -3.004745   -3.706513

 Total Charge           Charge          ....    0
 Multiplicity           Mult            ....    1
 Number of Electrons    NEL             ....  122
 Basis Dimension        Dim             ....  464

ORBITAL ENERGIES
----------------

  NO   OCC          E(Eh)            E(eV)
   0   2.0000     -88.578618     -2410.3467
   1   2.0000     -24.606896      -669.5877
   2   2.0000     -18.973777      -516.3027
   3   2.0000     -18.970185      -516.2050
   4   2.0000     -10.156312      -276.3673
   5   2.0000     -10.114458      -275.2284
   6   2.0000     -10.087901      -274.5057
   7   2.0000     -10.079459      -274.2760
   8   2.0000     -10.073387      -274.1108
   9   2.0000     -10.065242      -273.8891
  10   2.0000     -10.059295      -273.7273
  11   2.0000     -10.053151      -273.5601
  12   2.0000     -10.042492      -273.2701
  13   2.0000      -9.988778      -271.8085
  14   2.0000      -8.126853      -221.1429
  15   2.0000      -6.165909      -167.7829
  16   2.0000      -6.158938      -167.5932
  17   2.0000      -6.157308      -167.5489
  18   2.0000      -1.473784       -40.1037
  19   2.0000      -1.209414       -32.9098
  20   2.0000      -1.103147       -30.0182
  21   2.0000      -0.951750       -25.8984
  22   2.0000      -0.914830       -24.8938
  23   2.0000      -0.884640       -24.0723
  24   2.0000      -0.865031       -23.5387
  25   2.0000      -0.830271       -22.5928
  26   2.0000      -0.805088       -21.9076
  27   2.0000      -0.770637       -20.9701
  28   2.0000      -0.736207       -20.0332
  29   2.0000      -0.715855       -19.4794
  30   2.0000      -0.708120       -19.2689
  31   2.0000      -0.698400       -19.0044
  32   2.0000      -0.672554       -18.3011
  33   2.0000      -0.665729       -18.1154
  34   2.0000      -0.636834       -17.3291
  35   2.0000      -0.610540       -16.6136
  36   2.0000      -0.598333       -16.2815
  37   2.0000      -0.582297       -15.8451
  38   2.0000      -0.577078       -15.7031
  39   2.0000      -0.568642       -15.4735
  40   2.0000      -0.553133       -15.0515
  41   2.0000      -0.538076       -14.6418
  42   2.0000      -0.525669       -14.3042
  43   2.0000      -0.522327       -14.2132
  44   2.0000      -0.509851       -13.8737
  45   2.0000      -0.490892       -13.3578
  46   2.0000      -0.486685       -13.2434
  47   2.0000      -0.479891       -13.0585
  48   2.0000      -0.466143       -12.6844
  49   2.0000      -0.455610       -12.3978
  50   2.0000      -0.448924       -12.2158
  51   2.0000      -0.437882       -11.9154
  52   2.0000      -0.434405       -11.8208
  53   2.0000      -0.430685       -11.7195
  54   2.0000      -0.422650       -11.5009
  55   2.0000      -0.412190       -11.2163
  56   2.0000      -0.405838       -11.0434
  57   2.0000      -0.400391       -10.8952
  58   2.0000      -0.385317       -10.4850
  59   2.0000      -0.375923       -10.2294
  60   2.0000      -0.362213        -9.8563
  61   0.0000       0.041054         1.1171
  62   0.0000       0.065154         1.7729
  63   0.0000       0.069819         1.8999
  64   0.0000       0.080959         2.2030
  65   0.0000       0.089544         2.4366

MULLIKEN ATOMIC CHARGES
-----------------------
   0 C :    0.301202
   1 C :    2.537619
   2 C :    0.740998
   3 C :    0.600286
   4 S :    1.342767
   5 H :   -0.830697
   6 H :   -0.346777
   7 H :   -1.284560
   8 O :   -0.652490
   9 O :   -0.655876
  10 H :   -0.392281
  11 H :   -0.133045
  12 F :   -0.463222
  13 C :    0.761935
  14 H :   -0.179757
  15 H :   -0.195861
  16 C :    0.044849
  17 H :   -0.846267
  18 H :   -0.139461
  19 C :    0.870780
  20 H :   -0.451865
  21 H :    0.011848
  22 C :    0.049914
  23 H :   -0.110191
  24 H :   -0.080788
  25 C :    0.639713
  26 H :    0.149267
  27 H :   -0.535881
  28 C :    0.481772
  29 H :   -0.119601
  30 H :   -0.629384
  31 H :    0.048184
  32 H :   -0.306177
  33 H :   -0.098650
  34 H :   -0.128304
Sum of atomic charges:    0.0000000

LOEWDIN ATOMIC CHARGES
----------------------
   0 C :   -0.050682
   1 C :    0.112188
   2 C :   -0.039017
   3 C :   -0.044362
   4 S :    1.148519
   5 H :   -0.124808
   6 H :   -0.010907
   7 H :   -0.116838
   8 O :   -0.433705
   9 O :   -0.437447
  10 H :    0.025847
  11 H :    0.014738
  12 F :   -0.225661
  13 C :   -0.029260
  14 H :    0.030576
  15 H :    0.020910
  16 C :   -0.046227
  17 H :    0.001543
  18 H :    0.031140
  19 C :   -0.040728
  20 H :    0.029403
  21 H :    0.009032
  22 C :   -0.045663
  23 H :    0.028330
  24 H :    0.026624
  25 C :   -0.029987
  26 H :    0.025416
  27 H :    0.030187
  28 C :   -0.042203
  29 H :    0.044630
  30 H :    0.005101
  31 H :    0.030256
  32 H :    0.043709
  33 H :    0.036655
  34 H :    0.022689

  Mayer bond orders larger than 0.100000
B(  0-C ,  1-C ) :   0.7655 B(  0-C ,  2-C ) :   1.2004 B(  0-C ,  5-H ) :   0.5403
B(  0-C ,  6-H ) :   0.1143 B(  0-C ,  7-H ) :   0.5313 B(  0-C , 10-H ) :   0.7938
B(  0-C , 11-H ) :   0.6891 B(  0-C , 13-C ) :   0.1707 B(  0-C , 14-H ) :   0.1390
B(  0-C , 15-H ) :   0.2171 B(  0-C , 17-H ) :  -0.1081 B(  1-C ,  2-C ) :   0.1079
B(  1-C ,  5-H ) :  -0.8124 B(  1-C ,  6-H ) :   0.4867 B(  1-C ,  7-H ) :  -1.4078
B(  1-C ,  9-O ) :  -0.1227 B(  1-C , 11-H ) :   0.2857 B(  2-C ,  7-H ) :  -0.1173
B(  2-C , 11-H ) :   0.1180 B(  2-C , 13-C ) :   1.1670 B(  2-C , 14-H ) :   0.6026
B(  2-C , 15-H ) :   0.6463 B(  2-C , 17-H ) :   0.1732 B(  2-C , 19-C ) :   0.1137
B(  3-C ,  4-S ) :   0.9043 B(  3-C , 25-C ) :   0.1692 B(  3-C , 28-C ) :   1.2003
B(  3-C , 30-H ) :  -0.1003 B(  3-C , 31-H ) :   0.1005 B(  3-C , 33-H ) :   0.8673
B(  3-C , 34-H ) :   0.6367 B(  4-S ,  8-O ) :   1.4446 B(  4-S ,  9-O ) :   1.4469
B(  4-S , 12-F ) :   0.6822 B(  5-H ,  6-H ) :  -0.2097 B(  5-H ,  7-H ) :   1.1646
B(  5-H ,  9-O ) :   0.2826 B(  6-H ,  7-H ) :   0.2033 B(  7-H ,  8-O ) :   0.1582
B(  7-H ,  9-O ) :   0.1438 B(  7-H , 10-H ) :   0.1057 B(  7-H , 15-H ) :  -0.1104
B(  7-H , 17-H ) :   0.2090 B(  8-O ,  9-O ) :   0.1153 B( 10-H , 11-H ) :  -0.1366
B( 11-H , 21-H ) :   0.1282 B( 13-C , 14-H ) :   0.2566 B( 13-C , 15-H ) :   0.1568
B( 13-C , 16-C ) :   1.1061 B( 13-C , 17-H ) :   0.4333 B( 13-C , 18-H ) :   0.6632
B( 13-C , 20-H ) :   0.2159 B( 14-H , 15-H ) :  -0.1935 B( 14-H , 17-H ) :   0.1026
B( 16-C , 17-H ) :   0.2881 B( 16-C , 18-H ) :   0.2170 B( 16-C , 19-C ) :   1.1553
B( 16-C , 20-H ) :   0.8970 B( 16-C , 21-H ) :   0.8393 B( 16-C , 22-C ) :   0.2093
B( 16-C , 23-H ) :   0.1596 B( 16-C , 24-H ) :   0.3357 B( 17-H , 26-H ) :   0.1254
B( 19-C , 22-C ) :   1.1130 B( 19-C , 23-H ) :   0.5828 B( 19-C , 24-H ) :   0.5917
B( 22-C , 23-H ) :   0.2944 B( 22-C , 24-H ) :   0.1186 B( 22-C , 25-C ) :   1.2258
B( 22-C , 26-H ) :   0.7628 B( 22-C , 27-H ) :   0.9496 B( 22-C , 28-C ) :   0.1875
B( 22-C , 29-H ) :   0.1078 B( 22-C , 30-H ) :   0.1866 B( 23-H , 24-H ) :  -0.1504
B( 25-C , 26-H ) :   0.1199 B( 25-C , 27-H ) :   0.1877 B( 25-C , 28-C ) :   1.1431
B( 25-C , 29-H ) :   0.6299 B( 25-C , 30-H ) :   0.4637 B( 25-C , 32-H ) :   0.2247
B( 27-H , 31-H ) :  -0.1032 B( 28-C , 29-H ) :   0.1524 B( 28-C , 31-H ) :   0.8001
B( 28-C , 32-H ) :   0.7194 B( 28-C , 34-H ) :   0.2768 B( 29-H , 30-H ) :   0.2726

FINAL SINGLE POINT ENERGY     -1039.708153880207

DIPOLE MOMENT
-------------
                                X             Y             Z
Electronic contribution:    -12.71438     -20.26437     -14.25737
Nuclear contribution   :     10.70731      19.84772      14.63855
                        -----------------------------------------
Total Dipole Moment    :     -2.00707      -0.41665       0.38118
                        -----------------------------------------
Magnitude (a.u.)       :      2.08500
Magnitude (Debye)      :      5.29965

Rotational constants in cm-1:     0.026014     0.014812     0.010477
Rotational constants in MHz :   779.874765   444.063394   314.081855

                             ****ORCA TERMINATED NORMALLY****
TOTAL RUN TIME: 0 days 0 hours 3 minutes 54 seconds 911 msec
