                         Program Version 5.0.0 -  RELEASE  -
|  1> !PBE0 D3BJ RIJCOSX def2-TZVPD def2/J TightSCF
|  2> *xyz -1 1
|  3> C         -5.57236       -5.80780       -0.81644
|  4> S         -6.90318       -4.61903       -0.52846
|  5> O         -8.11485       -5.25093       -0.95701
|  6> O         -6.53271       -3.42684       -1.31485
|  7> O         -6.86563       -4.29496        0.91412
|  8> C         -4.45780       -5.94187        0.22919
|  9> H         -5.17735       -5.54257       -1.79771
| 10> H         -6.07420       -6.76889       -0.92127
| 11> H         -3.75515       -6.68239       -0.09144
| 12> H         -4.88182       -6.23486        1.16689
| 13> H         -3.95908       -5.00189        0.34143
| 14> *
| 15> %MaxCore 64000
| 16>
| 17> %pal nprocs 4
| 18> end
| 19>
| 20> %scf
| 21>   MaxIter 150
| 22> end
| 23>
| 24>                          ****END OF INPUT****

CARTESIAN COORDINATES (ANGSTROEM)
---------------------------------
  C     -5.572360   -5.807800   -0.816440
  S     -6.903180   -4.619030   -0.528460
  O     -8.114850   -5.250930   -0.957010
  O     -6.532710   -3.426840   -1.314850
  O     -6.865630   -4.294960    0.914120
  C     -4.457800   -5.941870    0.229190
  H     -5.177350   -5.542570   -1.797710
  H     -6.074200   -6.768890   -0.921270
  H     -3.755150   -6.682390   -0.091440
  H     -4.881820   -6.234860    1.166890
  H     -3.959080   -5.001890    0.341430

 Total Charge           Charge          ....   -1
 Multiplicity           Mult            ....    1
 Number of Electrons    NEL             ....   58
 Basis Dimension        Dim             ....  285

ORBITAL ENERGIES
----------------

  NO   OCC          E(Eh)            E(eV)
   0   2.0000     -89.000790     -2421.8346
   1   2.0000     -18.989771      -516.7379
   2   2.0000     -18.976165      -516.3677
   3   2.0000     -18.975345      -516.3454
   4   2.0000     -10.084157      -274.4039
   5   2.0000     -10.078464      -274.2489
   6   2.0000      -7.946429      -216.2333
   7   2.0000      -5.883785      -160.1059
   8   2.0000      -5.882479      -160.0704
   9   2.0000      -5.882283      -160.0651
  10   2.0000      -0.948652       -25.8141
  11   2.0000      -0.817914       -22.2566
  12   2.0000      -0.794540       -21.6205
  13   2.0000      -0.654503       -17.8099
  14   2.0000      -0.529072       -14.3968
  15   2.0000      -0.398440       -10.8421
  16   2.0000      -0.332231        -9.0405
  17   2.0000      -0.326753        -8.8914
  18   2.0000      -0.289599        -7.8804
  19   2.0000      -0.273243        -7.4353
  20   2.0000      -0.271673        -7.3926
  21   2.0000      -0.238271        -6.4837
  22   2.0000      -0.231290        -6.2937
  23   2.0000      -0.163555        -4.4506
  24   2.0000      -0.161414        -4.3923
  25   2.0000      -0.128687        -3.5018
  26   2.0000      -0.116857        -3.1798
  27   2.0000      -0.112132        -3.0513
  28   2.0000      -0.074944        -2.0393
  29   0.0000       0.126936         3.4541
  30   0.0000       0.149301         4.0627
  31   0.0000       0.154800         4.2123
  32   0.0000       0.163636         4.4528
  33   0.0000       0.179648         4.8885

MULLIKEN ATOMIC CHARGES
-----------------------
   0 C :   -0.267244
   1 S :    1.093011
   2 O :   -0.667700
   3 O :   -0.707982
   4 O :   -0.713364
   5 C :   -0.666528
   6 H :    0.185266
   7 H :    0.174873
   8 H :    0.188942
   9 H :    0.196205
  10 H :    0.184520
Sum of atomic charges:   -1.0000000

LOEWDIN ATOMIC CHARGES
----------------------
   0 C :   -0.319394
   1 S :    0.354240
   2 O :   -0.381610
   3 O :   -0.418361
   4 O :   -0.411452
   5 C :   -0.145337
   6 H :    0.078444
   7 H :    0.074536
   8 H :    0.048761
   9 H :    0.057628
  10 H :    0.062545

  Mayer bond orders larger than 0.100000
B(  0-C ,  1-S ) :   0.8570 B(  0-C ,  2-O ) :   0.1305 B(  0-C ,  3-O ) :   0.1305
B(  0-C ,  5-C ) :   0.8221 B(  0-C ,  6-H ) :   0.9928 B(  0-C ,  7-H ) :   0.9917
B(  1-S ,  2-O ) :   1.5716 B(  1-S ,  3-O ) :   1.5240 B(  1-S ,  4-O ) :   1.5118
B(  5-C ,  8-H ) :   0.9706 B(  5-C ,  9-H ) :   0.9884 B(  5-C , 10-H ) :   0.9927

Dispersion correction           -0.008153665
FINAL SINGLE POINT ENERGY      -702.842861453173

DIPOLE MOMENT
-------------
                                X             Y             Z
Electronic contribution:     -6.69013       4.32316      -0.91629
Nuclear contribution   :      8.13140      -5.68016       0.80206
                        -----------------------------------------
Total Dipole Moment    :      1.44128      -1.35700      -0.11423
                        -----------------------------------------
Magnitude (a.u.)       :      1.98287
Magnitude (Debye)      :      5.04006

Rotational constants in cm-1:     0.162101     0.080498     0.079099
Rotational constants in MHz :  4859.669771  2413.267251  2371.338602

                             ****ORCA TERMINATED NORMALLY****
TOTAL RUN TIME: 0 days 0 hours 0 minutes 39 seconds 412 msec
