                         Program Version 5.0.0 -  RELEASE  -
|  1> !PBE0 D3BJ RIJCOSX def2-TZVPD def2/J TightSCF
|  2> *xyz 1 1
|  3> C         -4.38262       -1.67089        1.21620
|  4> N         -5.76354       -1.91517        0.70501
|  5> C         -3.28173       -2.19127        0.29436
|  6> H         -5.84081       -2.11520       -0.30065
|  7> H         -6.40882       -1.14866        0.93612
|  8> H         -6.17478       -2.79061        1.05143
|  9> H         -4.32862       -2.13922        2.19810
| 10> H         -4.26158       -0.59740        1.35725
| 11> H         -3.36057       -1.71407       -0.66008
| 12> H         -3.38775       -3.24919        0.17403
| 13> H         -2.32559       -1.97514        0.72329
| 14> *
| 15> %MaxCore 64000
| 16>
| 17> %pal nprocs 4
| 18> end
| 19>
| 20> %scf
| 21>   MaxIter 150
| 22> end
| 23>
| 24>                          ****END OF INPUT****

CARTESIAN COORDINATES (ANGSTROEM)
---------------------------------
  C     -4.382620   -1.670890    1.216200
  N     -5.763540   -1.915170    0.705010
  C     -3.281730   -2.191270    0.294360
  H     -5.840810   -2.115200   -0.300650
  H     -6.408820   -1.148660    0.936120
  H     -6.174780   -2.790610    1.051430
  H     -4.328620   -2.139220    2.198100
  H     -4.261580   -0.597400    1.357250
  H     -3.360570   -1.714070   -0.660080
  H     -3.387750   -3.249190    0.174030
  H     -2.325590   -1.975140    0.723290

 Total Charge           Charge          ....    1
 Multiplicity           Mult            ....    1
 Number of Electrons    NEL             ....   26
 Basis Dimension        Dim             ....  183

ORBITAL ENERGIES
----------------

  NO   OCC          E(Eh)            E(eV)
   0   2.0000     -14.718925      -400.5223
   1   2.0000     -10.475730      -285.0591
   2   2.0000     -10.393685      -282.8265
   3   2.0000      -1.241967       -33.7957
   4   2.0000      -0.989785       -26.9334
   5   2.0000      -0.868785       -23.6408
   6   2.0000      -0.812321       -22.1044
   7   2.0000      -0.790943       -21.5227
   8   2.0000      -0.717478       -19.5236
   9   2.0000      -0.653899       -17.7935
  10   2.0000      -0.596400       -16.2289
  11   2.0000      -0.578924       -15.7533
  12   2.0000      -0.560385       -15.2488
  13   0.0000      -0.192121        -5.2279
  14   0.0000      -0.136058        -3.7023
  15   0.0000      -0.134002        -3.6464
  16   0.0000      -0.122029        -3.3206
  17   0.0000      -0.096213        -2.6181

MULLIKEN ATOMIC CHARGES
-----------------------
   0 C :   -0.191986
   1 N :   -0.216749
   2 C :   -0.790227
   3 H :    0.326728
   4 H :    0.332524
   5 H :    0.360635
   6 H :    0.203403
   7 H :    0.213726
   8 H :    0.278514
   9 H :    0.269915
  10 H :    0.213516
Sum of atomic charges:    1.0000000

LOEWDIN ATOMIC CHARGES
----------------------
   0 C :   -0.192949
   1 N :    0.180826
   2 C :   -0.055511
   3 H :    0.178494
   4 H :    0.182724
   5 H :    0.180240
   6 H :    0.134886
   7 H :    0.133774
   8 H :    0.082927
   9 H :    0.082255
  10 H :    0.092334

  Mayer bond orders larger than 0.100000
B(  0-C ,  1-N ) :   1.0480 B(  0-C ,  2-C ) :   0.8598 B(  0-C ,  6-H ) :   0.9599
B(  0-C ,  7-H ) :   0.9301 B(  1-N ,  3-H ) :   0.8633 B(  1-N ,  4-H ) :   0.8682
B(  1-N ,  5-H ) :   0.8466 B(  2-C ,  8-H ) :   0.9456 B(  2-C ,  9-H ) :   0.9652
B(  2-C , 10-H ) :   0.9860

Dispersion correction           -0.004977265
FINAL SINGLE POINT ENERGY      -135.419733931364

DIPOLE MOMENT
-------------
                                X             Y             Z
Electronic contribution:     -1.78459       0.23943       0.30619
Nuclear contribution   :      0.19437      -0.25358      -0.32106
                        -----------------------------------------
Total Dipole Moment    :     -1.59022      -0.01415      -0.01487
                        -----------------------------------------
Magnitude (a.u.)       :      1.59035
Magnitude (Debye)      :      4.04236

Rotational constants in cm-1:     1.030014     0.272489     0.242697
Rotational constants in MHz : 30879.030706  8169.007780  7275.865152

                             ****ORCA TERMINATED NORMALLY****
TOTAL RUN TIME: 0 days 0 hours 0 minutes 17 seconds 90 msec
