                         Program Version 5.0.0 -  RELEASE  -
|  1> !PBE0 D3BJ RIJCOSX def2-TZVPD def2/J TightSCF xyzfile
|  2>
|  3> *xyzfile 0 1 B.xyz
|  4>
|  5> %MaxCore 64000
|  6>
|  7> %pal nprocs 4
|  8> end
|  9>
| 10> %scf
| 11>   MaxIter 150
| 12> end
| 13>
| 14>
| 15>                          ****END OF INPUT****

CARTESIAN COORDINATES (ANGSTROEM)
---------------------------------
  C     -4.382623   -1.670889    1.216201
  N     -5.763539   -1.915170    0.705012
  C     -3.281728   -2.191272    0.294361
  C     -5.572364   -5.807798   -0.816445
  S     -6.903179   -4.619033   -0.528458
  H     -5.840812   -2.115205   -0.300646
  H     -6.408823   -1.148656    0.936124
  H     -6.174781   -2.790606    1.051433
  O     -8.114853   -5.250932   -0.957007
  O     -6.532715   -3.426838   -1.314848
  H     -4.328618   -2.139223    2.198103
  H     -4.261583   -0.597399    1.357248
  O     -6.865632   -4.294957    0.914118
  C     -3.474641   -3.605898   -0.259608
  H     -2.354548   -2.127602    0.871433
  H     -3.166611   -1.499693   -0.545037
  C     -3.827078   -4.661097    0.786174
  H     -2.560559   -3.889391   -0.788050
  H     -4.255932   -3.570040   -1.019300
  C     -4.457800   -5.941875    0.229195
  H     -5.177347   -5.542575   -1.797714
  H     -6.074202   -6.768894   -0.921272
  H     -4.530506   -4.253640    1.511979
  H     -2.933400   -4.932302    1.356825
  H     -3.681064   -6.562236   -0.229885
  H     -4.843942   -6.512728    1.075805

 Total Charge           Charge          ....    0
 Multiplicity           Mult            ....    1
 Number of Electrons    NEL             ....   98
 Basis Dimension        Dim             ....  560

ORBITAL ENERGIES
----------------

  NO   OCC          E(Eh)            E(eV)
   0   2.0000     -89.171235     -2426.4727
   1   2.0000     -19.162326      -521.4334
   2   2.0000     -19.158347      -521.3251
   3   2.0000     -19.146333      -520.9982
   4   2.0000     -14.489944      -394.2914
   5   2.0000     -10.309247      -280.5289
   6   2.0000     -10.256624      -279.0969
   7   2.0000     -10.230893      -278.3967
   8   2.0000     -10.227783      -278.3121
   9   2.0000     -10.226286      -278.2714
  10   2.0000     -10.224954      -278.2351
  11   2.0000      -8.117596      -220.8910
  12   2.0000      -6.054734      -164.7577
  13   2.0000      -6.054228      -164.7439
  14   2.0000      -6.052858      -164.7066
  15   2.0000      -1.125075       -30.6148
  16   2.0000      -1.033486       -28.1226
  17   2.0000      -0.987519       -26.8717
  18   2.0000      -0.984388       -26.7865
  19   2.0000      -0.856077       -23.2950
  20   2.0000      -0.815133       -22.1809
  21   2.0000      -0.764057       -20.7910
  22   2.0000      -0.711810       -19.3693
  23   2.0000      -0.656999       -17.8778
  24   2.0000      -0.616530       -16.7766
  25   2.0000      -0.605418       -16.4743
  26   2.0000      -0.590594       -16.0709
  27   2.0000      -0.556534       -15.1441
  28   2.0000      -0.527815       -14.3626
  29   2.0000      -0.504217       -13.7204
  30   2.0000      -0.498528       -13.5656
  31   2.0000      -0.483658       -13.1610
  32   2.0000      -0.463055       -12.6004
  33   2.0000      -0.455923       -12.4063
  34   2.0000      -0.446645       -12.1538
  35   2.0000      -0.434270       -11.8171
  36   2.0000      -0.432184       -11.7603
  37   2.0000      -0.400838       -10.9074
  38   2.0000      -0.389260       -10.5923
  39   2.0000      -0.385148       -10.4804
  40   2.0000      -0.358471        -9.7545
  41   2.0000      -0.351100        -9.5539
  42   2.0000      -0.345334        -9.3970
  43   2.0000      -0.336033        -9.1439
  44   2.0000      -0.331532        -9.0214
  45   2.0000      -0.295295        -8.0354
  46   2.0000      -0.289232        -7.8704
  47   2.0000      -0.281086        -7.6488
  48   2.0000      -0.258345        -7.0299
  49   0.0000      -0.023391        -0.6365
  50   0.0000       0.007678         0.2089
  51   0.0000       0.012999         0.3537
  52   0.0000       0.017666         0.4807
  53   0.0000       0.035914         0.9773

MULLIKEN ATOMIC CHARGES
-----------------------
   0 C :   -0.542282
   1 N :   -0.032153
   2 C :   -0.213467
   3 C :   -0.568741
   4 S :    1.166618
   5 H :    0.323658
   6 H :    0.321362
   7 H :    0.232124
   8 O :   -0.595475
   9 O :   -0.818610
  10 H :    0.286273
  11 H :    0.146248
  12 O :   -0.832482
  13 C :   -0.331218
  14 H :    0.144535
  15 H :    0.165000
  16 C :   -0.152862
  17 H :    0.144677
  18 H :    0.314931
  19 C :   -0.297979
  20 H :    0.327224
  21 H :    0.133504
  22 H :    0.236431
  23 H :    0.138938
  24 H :    0.124265
  25 H :    0.179483
Sum of atomic charges:    0.0000000

LOEWDIN ATOMIC CHARGES
----------------------
   0 C :   -0.162151
   1 N :    0.156041
   2 C :   -0.181610
   3 C :   -0.234853
   4 S :    0.458528
   5 H :    0.102703
   6 H :    0.171944
   7 H :    0.063731
   8 O :   -0.306817
   9 O :   -0.386677
  10 H :    0.124274
  11 H :    0.120810
  12 O :   -0.367958
  13 C :   -0.201087
  14 H :    0.118501
  15 H :    0.116674
  16 C :   -0.211311
  17 H :    0.121748
  18 H :    0.087637
  19 C :   -0.215225
  20 H :    0.097803
  21 H :    0.096698
  22 H :    0.086268
  23 H :    0.117828
  24 H :    0.112759
  25 H :    0.113742

  Mayer bond orders larger than 0.100000
B(  0-C ,  1-N ) :   1.0459 B(  0-C ,  2-C ) :   1.0036 B(  0-C , 10-H ) :   0.9010
B(  0-C , 11-H ) :   0.9528 B(  0-C , 16-C ) :   0.2437 B(  1-N ,  5-H ) :   0.8203
B(  1-N ,  6-H ) :   0.8196 B(  1-N ,  7-H ) :   0.9201 B(  2-C , 13-C ) :   1.0619
B(  2-C , 14-H ) :   0.9184 B(  2-C , 15-H ) :   0.9428 B(  2-C , 16-C ) :   0.1048
B(  2-C , 18-H ) :   0.1276 B(  3-C ,  4-S ) :   0.8213 B(  3-C ,  8-O ) :   0.1957
B(  3-C ,  9-O ) :   0.1326 B(  3-C , 13-C ) :   0.1338 B(  3-C , 19-C ) :   0.9930
B(  3-C , 20-H ) :   0.8762 B(  3-C , 21-H ) :   1.0322 B(  4-S ,  8-O ) :   1.4773
B(  4-S ,  9-O ) :   1.4026 B(  4-S , 12-O ) :   1.4087 B(  7-H , 12-O ) :   0.1227
B(  9-O , 12-O ) :   0.1319 B( 13-C , 16-C ) :   0.6410 B( 13-C , 17-H ) :   0.9126
B( 13-C , 18-H ) :   0.9859 B( 13-C , 19-C ) :   0.2496 B( 16-C , 19-C ) :   1.1415
B( 16-C , 22-H ) :   0.9556 B( 16-C , 23-H ) :   0.9070 B( 19-C , 22-H ) :   0.1128
B( 19-C , 24-H ) :   0.9182 B( 19-C , 25-H ) :   0.9061

Dispersion correction           -0.027146421
FINAL SINGLE POINT ENERGY      -915.817649471782

DIPOLE MOMENT
-------------
                                X             Y             Z
Electronic contribution:    -13.54500      -2.93249      -3.68013
Nuclear contribution   :     16.18863       5.15617       4.97370
                        -----------------------------------------
Total Dipole Moment    :      2.64363       2.22368       1.29358
                        -----------------------------------------
Magnitude (a.u.)       :      3.68875
Magnitude (Debye)      :      9.37605

Rotational constants in cm-1:     0.048546     0.025588     0.020102
Rotational constants in MHz :  1455.374030   767.095631   602.645620

                             ****ORCA TERMINATED NORMALLY****
TOTAL RUN TIME: 0 days 0 hours 3 minutes 20 seconds 65 msec
