                         Program Version 5.0.0 -  RELEASE  -
|  1> !PBE0 D3BJ RIJCOSX def2-TZVPD def2/J TightSCF
|  2> *xyz 0 1
|  3> C         -5.57236       -5.80780       -0.81644
|  4> S         -6.90318       -4.61903       -0.52846
|  5> F         -8.11485       -5.25093       -0.95701
|  6> O         -6.53271       -3.42684       -1.31485
|  7> O         -6.86563       -4.29496        0.91412
|  8> C         -4.45780       -5.94187        0.22919
|  9> H         -5.17735       -5.54257       -1.79771
| 10> H         -6.07420       -6.76889       -0.92127
| 11> H         -3.75515       -6.68239       -0.09144
| 12> H         -4.88182       -6.23486        1.16689
| 13> H         -3.95908       -5.00189        0.34143
| 14> *
| 15> %MaxCore 64000
| 16>
| 17> %pal nprocs 4
| 18> end
| 19>
| 20> %scf
| 21>   MaxIter 150
| 22> end
| 23>
| 24>                          ****END OF INPUT****

CARTESIAN COORDINATES (ANGSTROEM)
---------------------------------
  C     -5.572360   -5.807800   -0.816440
  S     -6.903180   -4.619030   -0.528460
  F     -8.114850   -5.250930   -0.957010
  O     -6.532710   -3.426840   -1.314850
  O     -6.865630   -4.294960    0.914120
  C     -4.457800   -5.941870    0.229190
  H     -5.177350   -5.542570   -1.797710
  H     -6.074200   -6.768890   -0.921270
  H     -3.755150   -6.682390   -0.091440
  H     -4.881820   -6.234860    1.166890
  H     -3.959080   -5.001890    0.341430

 Total Charge           Charge          ....    0
 Multiplicity           Mult            ....    1
 Number of Electrons    NEL             ....   58
 Basis Dimension        Dim             ....  285

ORBITAL ENERGIES
----------------

  NO   OCC          E(Eh)            E(eV)
   0   2.0000     -89.264690     -2429.0157
   1   2.0000     -24.899657      -677.5541
   2   2.0000     -19.211121      -522.7612
   3   2.0000     -19.211008      -522.7581
   4   2.0000     -10.286508      -279.9101
   5   2.0000     -10.240752      -278.6650
   6   2.0000      -8.210740      -223.4256
   7   2.0000      -6.151013      -167.3776
   8   2.0000      -6.144969      -167.2131
   9   2.0000      -6.144416      -167.1981
  10   2.0000      -1.426852       -38.8266
  11   2.0000      -1.122035       -30.5321
  12   2.0000      -1.024825       -27.8869
  13   2.0000      -0.845160       -22.9980
  14   2.0000      -0.763524       -20.7766
  15   2.0000      -0.700049       -19.0493
  16   2.0000      -0.613215       -16.6864
  17   2.0000      -0.610741       -16.6191
  18   2.0000      -0.573609       -15.6087
  19   2.0000      -0.508211       -13.8291
  20   2.0000      -0.495139       -13.4734
  21   2.0000      -0.460123       -12.5206
  22   2.0000      -0.443612       -12.0713
  23   2.0000      -0.419495       -11.4150
  24   2.0000      -0.404091       -10.9959
  25   2.0000      -0.394338       -10.7305
  26   2.0000      -0.338799        -9.2192
  27   2.0000      -0.337080        -9.1724
  28   2.0000      -0.314893        -8.5687
  29   0.0000      -0.004571        -0.1244
  30   0.0000       0.010665         0.2902
  31   0.0000       0.029359         0.7989
  32   0.0000       0.029950         0.8150
  33   0.0000       0.045007         1.2247

MULLIKEN ATOMIC CHARGES
-----------------------
   0 C :   -0.241089
   1 S :    1.042822
   2 F :   -0.096588
   3 O :   -0.552398
   4 O :   -0.562082
   5 C :   -0.715377
   6 H :    0.231061
   7 H :    0.238363
   8 H :    0.200853
   9 H :    0.230337
  10 H :    0.224096
Sum of atomic charges:   -0.0000000

LOEWDIN ATOMIC CHARGES
----------------------
   0 C :   -0.277157
   1 S :    0.603437
   2 F :   -0.046032
   3 O :   -0.298592
   4 O :   -0.296693
   5 C :   -0.100833
   6 H :    0.099056
   7 H :    0.091242
   8 H :    0.074714
   9 H :    0.072486
  10 H :    0.078371

  Mayer bond orders larger than 0.100000
B(  0-C ,  1-S ) :   0.8537 B(  0-C ,  5-C ) :   0.9049 B(  0-C ,  6-H ) :   0.9654
B(  0-C ,  7-H ) :   0.9095 B(  1-S ,  2-F ) :   1.0873 B(  1-S ,  3-O ) :   1.7233
B(  1-S ,  4-O ) :   1.7133 B(  5-C ,  8-H ) :   0.9617 B(  5-C ,  9-H ) :   0.9598
B(  5-C , 10-H ) :   0.9699

Dispersion correction           -0.007790481
FINAL SINGLE POINT ENERGY      -727.343666029396

DIPOLE MOMENT
-------------
                                X             Y             Z
Electronic contribution:     -9.39285       3.58696      -1.85105
Nuclear contribution   :      9.80704      -5.24335       1.35017
                        -----------------------------------------
Total Dipole Moment    :      0.41419      -1.65639      -0.50087
                        -----------------------------------------
Magnitude (a.u.)       :      1.77934
Magnitude (Debye)      :      4.52273

Rotational constants in cm-1:     0.156316     0.078308     0.076228
Rotational constants in MHz :  4686.224999  2347.601204  2285.245115

                             ****ORCA TERMINATED NORMALLY****
TOTAL RUN TIME: 0 days 0 hours 0 minutes 42 seconds 48 msec
