                         Program Version 5.0.0 -  RELEASE  -
|  1> !PBE0 D3BJ RIJCOSX def2-TZVPD def2/J TightSCF
|  2> *xyz 0 1
|  3> C         -4.38262       -1.67089        1.21620
|  4> C         -5.76354       -1.91517        0.70501
|  5> C         -3.28173       -2.19127        0.29436
|  6> H         -5.84081       -2.11520       -0.30065
|  7> H         -6.40882       -1.14866        0.93612
|  8> H         -6.17478       -2.79061        1.05143
|  9> H         -4.32862       -2.13922        2.19810
| 10> H         -4.26158       -0.59740        1.35725
| 11> H         -3.36057       -1.71407       -0.66008
| 12> H         -3.38775       -3.24919        0.17403
| 13> H         -2.32559       -1.97514        0.72329
| 14> *
| 15> %MaxCore 64000
| 16>
| 17> %pal nprocs 4
| 18> end
| 19>
| 20> %scf
| 21>   MaxIter 150
| 22> end
| 23>
| 24>                          ****END OF INPUT****

CARTESIAN COORDINATES (ANGSTROEM)
---------------------------------
  C     -4.382620   -1.670890    1.216200
  C     -5.763540   -1.915170    0.705010
  C     -3.281730   -2.191270    0.294360
  H     -5.840810   -2.115200   -0.300650
  H     -6.408820   -1.148660    0.936120
  H     -6.174780   -2.790610    1.051430
  H     -4.328620   -2.139220    2.198100
  H     -4.261580   -0.597400    1.357250
  H     -3.360570   -1.714070   -0.660080
  H     -3.387750   -3.249190    0.174030
  H     -2.325590   -1.975140    0.723290

 Total Charge           Charge          ....    0
 Multiplicity           Mult            ....    1
 Number of Electrons    NEL             ....   26
 Basis Dimension        Dim             ....  183

ORBITAL ENERGIES
----------------

  NO   OCC          E(Eh)            E(eV)
   0   2.0000     -10.208036      -277.7748
   1   2.0000     -10.197078      -277.4766
   2   2.0000     -10.177435      -276.9421
   3   2.0000      -0.811383       -22.0788
   4   2.0000      -0.712966       -19.4008
   5   2.0000      -0.608082       -16.5468
   6   2.0000      -0.476067       -12.9544
   7   2.0000      -0.454912       -12.3788
   8   2.0000      -0.422615       -11.4999
   9   2.0000      -0.397353       -10.8125
  10   2.0000      -0.351898        -9.5756
  11   2.0000      -0.344767        -9.3816
  12   2.0000      -0.331770        -9.0279
  13   0.0000       0.020144         0.5481
  14   0.0000       0.044310         1.2057
  15   0.0000       0.047047         1.2802
  16   0.0000       0.068626         1.8674
  17   0.0000       0.092229         2.5097

MULLIKEN ATOMIC CHARGES
-----------------------
   0 C :    0.251607
   1 C :   -1.022658
   2 C :   -0.848087
   3 H :    0.277254
   4 H :    0.217129
   5 H :    0.251200
   6 H :    0.111911
   7 H :    0.135410
   8 H :    0.223154
   9 H :    0.219454
  10 H :    0.183627
Sum of atomic charges:    0.0000000

LOEWDIN ATOMIC CHARGES
----------------------
   0 C :   -0.308166
   1 C :   -0.128128
   2 C :   -0.116760
   3 H :    0.052078
   4 H :    0.052773
   5 H :    0.051796
   6 H :    0.102351
   7 H :    0.100763
   8 H :    0.066369
   9 H :    0.066612
  10 H :    0.060311

  Mayer bond orders larger than 0.100000
B(  0-C ,  1-C ) :   0.8182 B(  0-C ,  2-C ) :   0.7484 B(  0-C ,  6-H ) :   0.9706
B(  0-C ,  7-H ) :   0.9620 B(  1-C ,  2-C ) :   0.2427 B(  1-C ,  3-H ) :   0.9491
B(  1-C ,  4-H ) :   0.9797 B(  1-C ,  5-H ) :   0.9838 B(  2-C ,  8-H ) :   1.0014
B(  2-C ,  9-H ) :   1.0046 B(  2-C , 10-H ) :   1.0110

Dispersion correction           -0.004997554
FINAL SINGLE POINT ENERGY      -119.016570637491

DIPOLE MOMENT
-------------
                                X             Y             Z
Electronic contribution:      0.18660       0.23827       0.33934
Nuclear contribution   :     -0.21528      -0.24783      -0.32864
                        -----------------------------------------
Total Dipole Moment    :     -0.02868      -0.00956       0.01069
                        -----------------------------------------
Magnitude (a.u.)       :      0.03206
Magnitude (Debye)      :      0.08150

Rotational constants in cm-1:     1.037566     0.286459     0.254172
Rotational constants in MHz : 31105.431429  8587.814531  7619.871198

                             ****ORCA TERMINATED NORMALLY****
TOTAL RUN TIME: 0 days 0 hours 0 minutes 21 seconds 452 msec
