                         Program Version 5.0.0 -  RELEASE  -
|  1> !PBE0 D3BJ RIJCOSX def2-TZVPD def2/J TightSCF
|  2> *xyz 0 1
|  3> C         -5.57236       -5.80780       -0.81644
|  4> S         -6.90318       -4.61903       -0.52846
|  5> O         -8.11485       -5.25093       -0.95701
|  6> F         -6.53271       -3.42684       -1.31485
|  7> O         -6.86563       -4.29496        0.91412
|  8> C         -4.45780       -5.94187        0.22919
|  9> H         -5.17735       -5.54257       -1.79771
| 10> H         -6.07420       -6.76889       -0.92127
| 11> H         -3.75515       -6.68239       -0.09144
| 12> H         -4.88182       -6.23486        1.16689
| 13> H         -3.95908       -5.00189        0.34143
| 14> *
| 15> %MaxCore 64000
| 16>
| 17> %pal nprocs 4
| 18> end
| 19>
| 20> %scf
| 21>   MaxIter 150
| 22> end
| 23>
| 24>                          ****END OF INPUT****

CARTESIAN COORDINATES (ANGSTROEM)
---------------------------------
  C     -5.572360   -5.807800   -0.816440
  S     -6.903180   -4.619030   -0.528460
  O     -8.114850   -5.250930   -0.957010
  F     -6.532710   -3.426840   -1.314850
  O     -6.865630   -4.294960    0.914120
  C     -4.457800   -5.941870    0.229190
  H     -5.177350   -5.542570   -1.797710
  H     -6.074200   -6.768890   -0.921270
  H     -3.755150   -6.682390   -0.091440
  H     -4.881820   -6.234860    1.166890
  H     -3.959080   -5.001890    0.341430

 Total Charge           Charge          ....    0
 Multiplicity           Mult            ....    1
 Number of Electrons    NEL             ....   58
 Basis Dimension        Dim             ....  285

ORBITAL ENERGIES
----------------

  NO   OCC          E(Eh)            E(eV)
   0   2.0000     -89.262265     -2428.9497
   1   2.0000     -24.877217      -676.9435
   2   2.0000     -19.225139      -523.1426
   3   2.0000     -19.210773      -522.7517
   4   2.0000     -10.285814      -279.8912
   5   2.0000     -10.240198      -278.6499
   6   2.0000      -8.208383      -223.3615
   7   2.0000      -6.148743      -167.3158
   8   2.0000      -6.142739      -167.1524
   9   2.0000      -6.141982      -167.1318
  10   2.0000      -1.389898       -37.8210
  11   2.0000      -1.139493       -31.0072
  12   2.0000      -1.040292       -28.3078
  13   2.0000      -0.844748       -22.9868
  14   2.0000      -0.749092       -20.3838
  15   2.0000      -0.692251       -18.8371
  16   2.0000      -0.595615       -16.2075
  17   2.0000      -0.585601       -15.9350
  18   2.0000      -0.569591       -15.4994
  19   2.0000      -0.507019       -13.7967
  20   2.0000      -0.495992       -13.4966
  21   2.0000      -0.471245       -12.8232
  22   2.0000      -0.446659       -12.1542
  23   2.0000      -0.416950       -11.3458
  24   2.0000      -0.414019       -11.2660
  25   2.0000      -0.397146       -10.8069
  26   2.0000      -0.352568        -9.5938
  27   2.0000      -0.340458        -9.2643
  28   2.0000      -0.327649        -8.9158
  29   0.0000      -0.004538        -0.1235
  30   0.0000       0.015777         0.4293
  31   0.0000       0.028110         0.7649
  32   0.0000       0.029747         0.8094
  33   0.0000       0.044328         1.2062

MULLIKEN ATOMIC CHARGES
-----------------------
   0 C :   -0.242406
   1 S :    1.045110
   2 O :   -0.527456
   3 F :   -0.135206
   4 O :   -0.564485
   5 C :   -0.695064
   6 H :    0.263256
   7 H :    0.209338
   8 H :    0.199304
   9 H :    0.227869
  10 H :    0.219741
Sum of atomic charges:   -0.0000000

LOEWDIN ATOMIC CHARGES
----------------------
   0 C :   -0.271988
   1 S :    0.604011
   2 O :   -0.265702
   3 F :   -0.081203
   4 O :   -0.295642
   5 C :   -0.106610
   6 H :    0.095316
   7 H :    0.101119
   8 H :    0.073465
   9 H :    0.073617
  10 H :    0.073616

  Mayer bond orders larger than 0.100000
B(  0-C ,  1-S ) :   0.8536 B(  0-C ,  2-O ) :   0.1064 B(  0-C ,  5-C ) :   0.8911
B(  0-C ,  6-H ) :   0.9002 B(  0-C ,  7-H ) :   0.9695 B(  1-S ,  2-O ) :   1.7695
B(  1-S ,  3-F ) :   1.0368 B(  1-S ,  4-O ) :   1.7078 B(  2-O ,  4-O ) :   0.1013
B(  5-C ,  8-H ) :   0.9717 B(  5-C ,  9-H ) :   0.9756 B(  5-C , 10-H ) :   0.9555

Dispersion correction           -0.007776780
FINAL SINGLE POINT ENERGY      -727.362137992268

DIPOLE MOMENT
-------------
                                X             Y             Z
Electronic contribution:     -6.72517       6.67884      -2.47522
Nuclear contribution   :      8.15840      -7.14411       1.72305
                        -----------------------------------------
Total Dipole Moment    :      1.43323      -0.46527      -0.75216
                        -----------------------------------------
Magnitude (a.u.)       :      1.68415
Magnitude (Debye)      :      4.28077

Rotational constants in cm-1:     0.153926     0.078297     0.077402
Rotational constants in MHz :  4614.585804  2347.272644  2320.438903

                             ****ORCA TERMINATED NORMALLY****
TOTAL RUN TIME: 0 days 0 hours 0 minutes 41 seconds 698 msec
