                         Program Version 5.0.0 -  RELEASE  -
|  1> !PBE0 D3BJ RIJCOSX def2-TZVPD def2/J TightSCF
|  2> *xyz 0 1
|  3> C         -5.57236       -5.80780       -0.81644
|  4> S         -6.90318       -4.61903       -0.52846
|  5> O         -8.11485       -5.25093       -0.95701
|  6> O         -6.53271       -3.42684       -1.31485
|  7> F         -6.86563       -4.29496        0.91412
|  8> C         -4.45780       -5.94187        0.22919
|  9> H         -5.17735       -5.54257       -1.79771
| 10> H         -6.07420       -6.76889       -0.92127
| 11> H         -3.75515       -6.68239       -0.09144
| 12> H         -4.88182       -6.23486        1.16689
| 13> H         -3.95908       -5.00189        0.34143
| 14> *
| 15> %MaxCore 64000
| 16>
| 17> %pal nprocs 4
| 18> end
| 19>
| 20> %scf
| 21>   MaxIter 150
| 22> end
| 23>
| 24>                          ****END OF INPUT****

CARTESIAN COORDINATES (ANGSTROEM)
---------------------------------
  C     -5.572360   -5.807800   -0.816440
  S     -6.903180   -4.619030   -0.528460
  O     -8.114850   -5.250930   -0.957010
  O     -6.532710   -3.426840   -1.314850
  F     -6.865630   -4.294960    0.914120
  C     -4.457800   -5.941870    0.229190
  H     -5.177350   -5.542570   -1.797710
  H     -6.074200   -6.768890   -0.921270
  H     -3.755150   -6.682390   -0.091440
  H     -4.881820   -6.234860    1.166890
  H     -3.959080   -5.001890    0.341430

 Total Charge           Charge          ....    0
 Multiplicity           Mult            ....    1
 Number of Electrons    NEL             ....   58
 Basis Dimension        Dim             ....  285

ORBITAL ENERGIES
----------------

  NO   OCC          E(Eh)            E(eV)
   0   2.0000     -89.261790     -2428.9368
   1   2.0000     -24.875944      -676.9089
   2   2.0000     -19.224859      -523.1350
   3   2.0000     -19.210086      -522.7330
   4   2.0000     -10.285102      -279.8719
   5   2.0000     -10.247214      -278.8409
   6   2.0000      -8.207946      -223.3496
   7   2.0000      -6.148400      -167.3065
   8   2.0000      -6.142114      -167.1354
   9   2.0000      -6.141649      -167.1228
  10   2.0000      -1.387051       -37.7436
  11   2.0000      -1.140108       -31.0239
  12   2.0000      -1.041042       -28.3282
  13   2.0000      -0.847607       -23.0646
  14   2.0000      -0.746220       -20.3057
  15   2.0000      -0.696614       -18.9558
  16   2.0000      -0.600597       -16.3431
  17   2.0000      -0.584614       -15.9082
  18   2.0000      -0.562389       -15.3034
  19   2.0000      -0.511557       -13.9202
  20   2.0000      -0.489994       -13.3334
  21   2.0000      -0.466547       -12.6954
  22   2.0000      -0.460855       -12.5405
  23   2.0000      -0.426402       -11.6030
  24   2.0000      -0.411030       -11.1847
  25   2.0000      -0.401186       -10.9168
  26   2.0000      -0.353049        -9.6069
  27   2.0000      -0.339123        -9.2280
  28   2.0000      -0.327254        -8.9050
  29   0.0000      -0.009871        -0.2686
  30   0.0000       0.023996         0.6530
  31   0.0000       0.026129         0.7110
  32   0.0000       0.032307         0.8791
  33   0.0000       0.045339         1.2337

MULLIKEN ATOMIC CHARGES
-----------------------
   0 C :   -0.164564
   1 S :    1.052323
   2 O :   -0.527195
   3 O :   -0.562561
   4 F :   -0.146534
   5 C :   -0.761946
   6 H :    0.217214
   7 H :    0.218679
   8 H :    0.194676
   9 H :    0.246703
  10 H :    0.233204
Sum of atomic charges:    0.0000000

LOEWDIN ATOMIC CHARGES
----------------------
   0 C :   -0.267879
   1 S :    0.602984
   2 O :   -0.265520
   3 O :   -0.300121
   4 F :   -0.080248
   5 C :   -0.109577
   6 H :    0.105376
   7 H :    0.097041
   8 H :    0.074084
   9 H :    0.069470
  10 H :    0.074390

  Mayer bond orders larger than 0.100000
B(  0-C ,  1-S ) :   0.8328 B(  0-C ,  2-O ) :   0.1025 B(  0-C ,  5-C ) :   0.8427
B(  0-C ,  6-H ) :   0.9607 B(  0-C ,  7-H ) :   0.9623 B(  1-S ,  2-O ) :   1.7703
B(  1-S ,  3-O ) :   1.7174 B(  1-S ,  4-F ) :   1.0316 B(  5-C ,  8-H ) :   0.9793
B(  5-C ,  9-H ) :   0.9450 B(  5-C , 10-H ) :   0.9741

Dispersion correction           -0.007744215
FINAL SINGLE POINT ENERGY      -727.362406875275

DIPOLE MOMENT
-------------
                                X             Y             Z
Electronic contribution:     -7.26933       5.17925       1.29651
Nuclear contribution   :      8.50531      -6.23950      -0.59960
                        -----------------------------------------
Total Dipole Moment    :      1.23598      -1.06025       0.69691
                        -----------------------------------------
Magnitude (a.u.)       :      1.77129
Magnitude (Debye)      :      4.50227

Rotational constants in cm-1:     0.152799     0.080212     0.076962
Rotational constants in MHz :  4580.804531  2404.707790  2307.252710

                             ****ORCA TERMINATED NORMALLY****
TOTAL RUN TIME: 0 days 0 hours 0 minutes 43 seconds 97 msec
