                         Program Version 5.0.0 -  RELEASE  -
|  1> !PBE0 D3BJ RIJCOSX def2-TZVPD def2/J TightSCF xyzfile
|  2>
|  3> *xyzfile 0 1 D1.xyz
|  4>
|  5> %MaxCore 64000
|  6>
|  7> %pal nprocs 4
|  8> end
|  9>
| 10> %scf
| 11>   MaxIter 150
| 12> end
| 13>
| 14>
| 15>                          ****END OF INPUT****

CARTESIAN COORDINATES (ANGSTROEM)
---------------------------------
  C     -4.382623   -1.670889    1.216201
  C     -5.763539   -1.915170    0.705012
  C     -3.281728   -2.191272    0.294361
  C     -5.572364   -5.807798   -0.816445
  S     -6.903179   -4.619033   -0.528458
  H     -5.840812   -2.115205   -0.300646
  H     -6.408823   -1.148656    0.936124
  H     -6.174781   -2.790606    1.051433
  F     -8.114853   -5.250932   -0.957007
  O     -6.532715   -3.426838   -1.314848
  H     -4.328618   -2.139223    2.198103
  H     -4.261583   -0.597399    1.357248
  O     -6.865632   -4.294957    0.914118
  C     -3.474641   -3.605898   -0.259608
  H     -2.354548   -2.127602    0.871433
  H     -3.166611   -1.499693   -0.545037
  C     -3.827078   -4.661097    0.786174
  H     -2.560559   -3.889391   -0.788050
  H     -4.255932   -3.570040   -1.019300
  C     -4.457800   -5.941875    0.229195
  H     -5.177347   -5.542575   -1.797714
  H     -6.074202   -6.768894   -0.921272
  H     -4.530506   -4.253640    1.511979
  H     -2.933400   -4.932302    1.356825
  H     -3.681064   -6.562236   -0.229885
  H     -4.843942   -6.512728    1.075805

 Total Charge           Charge          ....    0
 Multiplicity           Mult            ....    1
 Number of Electrons    NEL             ....   98
 Basis Dimension        Dim             ....  560

ORBITAL ENERGIES
----------------

  NO   OCC          E(Eh)            E(eV)
   0   2.0000     -89.271825     -2429.2099
   1   2.0000     -24.904311      -677.6807
   2   2.0000     -19.219713      -522.9950
   3   2.0000     -19.218547      -522.9632
   4   2.0000     -10.287503      -279.9372
   5   2.0000     -10.250369      -278.9267
   6   2.0000     -10.217508      -278.0325
   7   2.0000     -10.206856      -277.7427
   8   2.0000     -10.198664      -277.5198
   9   2.0000     -10.184355      -277.1304
  10   2.0000     -10.125043      -275.5164
  11   2.0000      -8.218154      -223.6273
  12   2.0000      -6.158319      -167.5764
  13   2.0000      -6.152395      -167.4152
  14   2.0000      -6.151919      -167.4022
  15   2.0000      -1.431798       -38.9612
  16   2.0000      -1.135722       -30.9046
  17   2.0000      -1.038709       -28.2647
  18   2.0000      -0.859332       -23.3836
  19   2.0000      -0.818938       -22.2844
  20   2.0000      -0.777831       -21.1659
  21   2.0000      -0.750678       -20.4270
  22   2.0000      -0.713260       -19.4088
  23   2.0000      -0.665740       -18.1157
  24   2.0000      -0.631330       -17.1794
  25   2.0000      -0.619930       -16.8692
  26   2.0000      -0.605281       -16.4705
  27   2.0000      -0.573481       -15.6052
  28   2.0000      -0.557582       -15.1726
  29   2.0000      -0.510666       -13.8959
  30   2.0000      -0.508524       -13.8376
  31   2.0000      -0.485612       -13.2142
  32   2.0000      -0.482838       -13.1387
  33   2.0000      -0.455058       -12.3828
  34   2.0000      -0.447233       -12.1698
  35   2.0000      -0.430045       -11.7021
  36   2.0000      -0.423508       -11.5242
  37   2.0000      -0.400127       -10.8880
  38   2.0000      -0.392019       -10.6674
  39   2.0000      -0.388082       -10.5603
  40   2.0000      -0.358470        -9.7545
  41   2.0000      -0.354201        -9.6383
  42   2.0000      -0.349241        -9.5033
  43   2.0000      -0.345239        -9.3944
  44   2.0000      -0.336076        -9.1451
  45   2.0000      -0.322710        -8.7814
  46   2.0000      -0.305168        -8.3040
  47   2.0000      -0.299637        -8.1535
  48   2.0000      -0.278058        -7.5663
  49   0.0000      -0.008088        -0.2201
  50   0.0000       0.006395         0.1740
  51   0.0000       0.020726         0.5640
  52   0.0000       0.025388         0.6908
  53   0.0000       0.034909         0.9499

MULLIKEN ATOMIC CHARGES
-----------------------
   0 C :    0.041048
   1 C :   -1.281636
   2 C :   -0.482917
   3 C :   -0.571734
   4 S :    1.023855
   5 H :    0.495680
   6 H :    0.198312
   7 H :    0.417341
   8 F :   -0.057756
   9 O :   -0.626062
  10 H :    0.199582
  11 H :    0.070312
  12 O :   -0.625428
  13 C :   -0.164718
  14 H :    0.101940
  15 H :    0.147107
  16 C :   -0.177836
  17 H :    0.144335
  18 H :    0.197496
  19 C :   -0.257870
  20 H :    0.334565
  21 H :    0.200699
  22 H :    0.222749
  23 H :    0.140444
  24 H :    0.126375
  25 H :    0.184118
Sum of atomic charges:   -0.0000000

LOEWDIN ATOMIC CHARGES
----------------------
   0 C :   -0.243047
   1 C :   -0.127115
   2 C :   -0.205365
   3 C :   -0.216793
   4 S :    0.662352
   5 H :    0.023354
   6 H :    0.066951
   7 H :   -0.006027
   8 F :   -0.033627
   9 O :   -0.302839
  10 H :    0.104133
  11 H :    0.104113
  12 O :   -0.292409
  13 C :   -0.202673
  14 H :    0.105562
  15 H :    0.113034
  16 C :   -0.200732
  17 H :    0.114900
  18 H :    0.086202
  19 C :   -0.205146
  20 H :    0.106067
  21 H :    0.097180
  22 H :    0.095986
  23 H :    0.121086
  24 H :    0.119972
  25 H :    0.114880

  Mayer bond orders larger than 0.100000
B(  0-C ,  1-C ) :   0.6252 B(  0-C ,  2-C ) :   1.0138 B(  0-C , 10-H ) :   0.8570
B(  0-C , 11-H ) :   0.9837 B(  0-C , 16-C ) :   0.2289 B(  1-C ,  2-C ) :   0.1771
B(  1-C ,  5-H ) :   0.9075 B(  1-C ,  6-H ) :   0.9134 B(  1-C ,  7-H ) :   1.0891
B(  1-C ,  9-O ) :   0.1188 B(  1-C , 12-O ) :   0.1310 B(  2-C , 13-C ) :   1.0783
B(  2-C , 14-H ) :   0.9349 B(  2-C , 15-H ) :   0.9357 B(  2-C , 16-C ) :   0.1988
B(  2-C , 18-H ) :   0.1824 B(  3-C ,  4-S ) :   0.8434 B(  3-C ,  8-F ) :   0.1029
B(  3-C ,  9-O ) :   0.1217 B(  3-C , 13-C ) :   0.1720 B(  3-C , 19-C ) :   1.0154
B(  3-C , 20-H ) :   0.8737 B(  3-C , 21-H ) :   0.9461 B(  4-S ,  8-F ) :   0.9690
B(  4-S ,  9-O ) :   1.7202 B(  4-S , 12-O ) :   1.7508 B(  5-H ,  9-O ) :  -0.1246
B(  7-H , 12-O ) :  -0.2004 B(  9-O , 12-O ) :   0.1869 B( 13-C , 16-C ) :   0.6996
B( 13-C , 17-H ) :   0.9067 B( 13-C , 18-H ) :   0.9841 B( 13-C , 19-C ) :   0.2281
B( 16-C , 19-C ) :   1.0892 B( 16-C , 22-H ) :   0.9780 B( 16-C , 23-H ) :   0.8955
B( 19-C , 24-H ) :   0.9122 B( 19-C , 25-H ) :   0.9034

Dispersion correction           -0.026783552
FINAL SINGLE POINT ENERGY      -923.694251613971

DIPOLE MOMENT
-------------
                                X             Y             Z
Electronic contribution:    -18.96265      -8.64834      -6.72106
Nuclear contribution   :     19.08524       6.89775       6.14221
                        -----------------------------------------
Total Dipole Moment    :      0.12259      -1.75059      -0.57885
                        -----------------------------------------
Magnitude (a.u.)       :      1.84788
Magnitude (Debye)      :      4.69693

Rotational constants in cm-1:     0.049343     0.024787     0.019726
Rotational constants in MHz :  1479.262779   743.087234   591.370705

                             ****ORCA TERMINATED NORMALLY****
TOTAL RUN TIME: 0 days 0 hours 3 minutes 52 seconds 43 msec
