                         Program Version 5.0.0 -  RELEASE  -
|  1> !PBE0 D3BJ RIJCOSX def2-TZVPD def2/J TightSCF xyzfile
|  2>
|  3> *xyzfile 0 1 D2.xyz
|  4>
|  5> %MaxCore 64000
|  6>
|  7> %pal nprocs 4
|  8> end
|  9>
| 10> %scf
| 11>   MaxIter 150
| 12> end
| 13>
| 14>
| 15>                          ****END OF INPUT****

CARTESIAN COORDINATES (ANGSTROEM)
---------------------------------
  C     -4.382623   -1.670889    1.216201
  C     -5.763539   -1.915170    0.705012
  C     -3.281728   -2.191272    0.294361
  C     -5.572364   -5.807798   -0.816445
  S     -6.903179   -4.619033   -0.528458
  H     -5.840812   -2.115205   -0.300646
  H     -6.408823   -1.148656    0.936124
  H     -6.174781   -2.790606    1.051433
  O     -8.114853   -5.250932   -0.957007
  F     -6.532715   -3.426838   -1.314848
  H     -4.328618   -2.139223    2.198103
  H     -4.261583   -0.597399    1.357248
  O     -6.865632   -4.294957    0.914118
  C     -3.474641   -3.605898   -0.259608
  H     -2.354548   -2.127602    0.871433
  H     -3.166611   -1.499693   -0.545037
  C     -3.827078   -4.661097    0.786174
  H     -2.560559   -3.889391   -0.788050
  H     -4.255932   -3.570040   -1.019300
  C     -4.457800   -5.941875    0.229195
  H     -5.177347   -5.542575   -1.797714
  H     -6.074202   -6.768894   -0.921272
  H     -4.530506   -4.253640    1.511979
  H     -2.933400   -4.932302    1.356825
  H     -3.681064   -6.562236   -0.229885
  H     -4.843942   -6.512728    1.075805

 Total Charge           Charge          ....    0
 Multiplicity           Mult            ....    1
 Number of Electrons    NEL             ....   98
 Basis Dimension        Dim             ....  560

ORBITAL ENERGIES
----------------

  NO   OCC          E(Eh)            E(eV)
   0   2.0000     -89.266788     -2429.0728
   1   2.0000     -24.881012      -677.0468
   2   2.0000     -19.228760      -523.2412
   3   2.0000     -19.215315      -522.8753
   4   2.0000     -10.285844      -279.8920
   5   2.0000     -10.250063      -278.9184
   6   2.0000     -10.224593      -278.2253
   7   2.0000     -10.223042      -278.1831
   8   2.0000     -10.212423      -277.8942
   9   2.0000     -10.199290      -277.5368
  10   2.0000     -10.147356      -276.1236
  11   2.0000      -8.213213      -223.4929
  12   2.0000      -6.153535      -167.4462
  13   2.0000      -6.147527      -167.2827
  14   2.0000      -6.146795      -167.2628
  15   2.0000      -1.397784       -38.0356
  16   2.0000      -1.145583       -31.1729
  17   2.0000      -1.050508       -28.5858
  18   2.0000      -0.862093       -23.4587
  19   2.0000      -0.827882       -22.5278
  20   2.0000      -0.779278       -21.2052
  21   2.0000      -0.752536       -20.4775
  22   2.0000      -0.715299       -19.4643
  23   2.0000      -0.676560       -18.4101
  24   2.0000      -0.635807       -17.3012
  25   2.0000      -0.601372       -16.3642
  26   2.0000      -0.590063       -16.0564
  27   2.0000      -0.573926       -15.6173
  28   2.0000      -0.572035       -15.5659
  29   2.0000      -0.513416       -13.9708
  30   2.0000      -0.504465       -13.7272
  31   2.0000      -0.486561       -13.2400
  32   2.0000      -0.480242       -13.0681
  33   2.0000      -0.470411       -12.8005
  34   2.0000      -0.452451       -12.3118
  35   2.0000      -0.438304       -11.9269
  36   2.0000      -0.419523       -11.4158
  37   2.0000      -0.410135       -11.1603
  38   2.0000      -0.404388       -11.0039
  39   2.0000      -0.400537       -10.8992
  40   2.0000      -0.372486       -10.1359
  41   2.0000      -0.367004        -9.9867
  42   2.0000      -0.365591        -9.9482
  43   2.0000      -0.350218        -9.5299
  44   2.0000      -0.340347        -9.2613
  45   2.0000      -0.333768        -9.0823
  46   2.0000      -0.322766        -8.7829
  47   2.0000      -0.321847        -8.7579
  48   2.0000      -0.288759        -7.8575
  49   0.0000      -0.003013        -0.0820
  50   0.0000       0.010434         0.2839
  51   0.0000       0.016879         0.4593
  52   0.0000       0.021996         0.5985
  53   0.0000       0.034749         0.9456

MULLIKEN ATOMIC CHARGES
-----------------------
   0 C :    0.046361
   1 C :   -1.378072
   2 C :   -0.483460
   3 C :   -0.551032
   4 S :    1.009471
   5 H :    0.486668
   6 H :    0.204270
   7 H :    0.511184
   8 O :   -0.510397
   9 F :   -0.189758
  10 H :    0.204171
  11 H :    0.067751
  12 O :   -0.611440
  13 C :   -0.163622
  14 H :    0.104774
  15 H :    0.148786
  16 C :   -0.168921
  17 H :    0.151960
  18 H :    0.162843
  19 C :   -0.247648
  20 H :    0.387959
  21 H :    0.124900
  22 H :    0.228135
  23 H :    0.135651
  24 H :    0.139403
  25 H :    0.190061
Sum of atomic charges:   -0.0000000

LOEWDIN ATOMIC CHARGES
----------------------
   0 C :   -0.239958
   1 C :   -0.124607
   2 C :   -0.205682
   3 C :   -0.213115
   4 S :    0.645408
   5 H :    0.034384
   6 H :    0.069055
   7 H :   -0.007384
   8 O :   -0.249292
   9 F :   -0.103545
  10 H :    0.107347
  11 H :    0.106001
  12 O :   -0.289702
  13 C :   -0.204289
  14 H :    0.108293
  15 H :    0.112910
  16 C :   -0.202563
  17 H :    0.117161
  18 H :    0.084317
  19 C :   -0.207438
  20 H :    0.102527
  21 H :    0.106738
  22 H :    0.095965
  23 H :    0.122112
  24 H :    0.118462
  25 H :    0.116896

  Mayer bond orders larger than 0.100000
B(  0-C ,  1-C ) :   0.6348 B(  0-C ,  2-C ) :   1.0101 B(  0-C , 10-H ) :   0.8605
B(  0-C , 11-H ) :   0.9910 B(  0-C , 16-C ) :   0.2289 B(  1-C ,  2-C ) :   0.1883
B(  1-C ,  4-S ) :   0.1324 B(  1-C ,  5-H ) :   0.8780 B(  1-C ,  6-H ) :   0.9084
B(  1-C ,  7-H ) :   0.9589 B(  1-C ,  9-F ) :   0.1706 B(  1-C , 12-O ) :   0.2004
B(  2-C , 13-C ) :   1.0836 B(  2-C , 14-H ) :   0.9256 B(  2-C , 15-H ) :   0.9414
B(  2-C , 16-C ) :   0.1904 B(  2-C , 18-H ) :   0.1741 B(  3-C ,  4-S ) :   0.8391
B(  3-C ,  8-O ) :   0.1612 B(  3-C , 13-C ) :   0.1555 B(  3-C , 19-C ) :   0.9800
B(  3-C , 20-H ) :   0.7973 B(  3-C , 21-H ) :   1.0322 B(  4-S ,  8-O ) :   1.5753
B(  4-S ,  9-F ) :   1.0648 B(  4-S , 12-O ) :   1.7159 B(  5-H ,  9-F ) :  -0.1126
B(  7-H , 12-O ) :  -0.2155 B( 13-C , 16-C ) :   0.7083 B( 13-C , 17-H ) :   0.9073
B( 13-C , 18-H ) :   1.0015 B( 13-C , 19-C ) :   0.2105 B( 16-C , 19-C ) :   1.0972
B( 16-C , 22-H ) :   0.9755 B( 16-C , 23-H ) :   0.8891 B( 19-C , 24-H ) :   0.9314
B( 19-C , 25-H ) :   0.9027

Dispersion correction           -0.026527128
FINAL SINGLE POINT ENERGY      -923.711481041620

DIPOLE MOMENT
-------------
                                X             Y             Z
Electronic contribution:    -15.98895      -5.36155      -7.20561
Nuclear contribution   :     17.25367       4.78608       6.55647
                        -----------------------------------------
Total Dipole Moment    :      1.26472      -0.57547      -0.64914
                        -----------------------------------------
Magnitude (a.u.)       :      1.53364
Magnitude (Debye)      :      3.89820

Rotational constants in cm-1:     0.048508     0.025517     0.020225
Rotational constants in MHz :  1454.219007   764.979652   606.316599

                             ****ORCA TERMINATED NORMALLY****
TOTAL RUN TIME: 0 days 0 hours 3 minutes 50 seconds 766 msec
