                         Program Version 5.0.0 -  RELEASE  -
|  1> !PBE0 D3BJ RIJCOSX def2-TZVPD def2/J TightSCF xyzfile
|  2>
|  3> *xyzfile 0 1 D3.xyz
|  4>
|  5> %MaxCore 64000
|  6>
|  7> %pal nprocs 4
|  8> end
|  9>
| 10> %scf
| 11>   MaxIter 150
| 12> end
| 13>
| 14>
| 15>                          ****END OF INPUT****

CARTESIAN COORDINATES (ANGSTROEM)
---------------------------------
  C     -4.382623   -1.670889    1.216201
  C     -5.763539   -1.915170    0.705012
  C     -3.281728   -2.191272    0.294361
  C     -5.572364   -5.807798   -0.816445
  S     -6.903179   -4.619033   -0.528458
  H     -5.840812   -2.115205   -0.300646
  H     -6.408823   -1.148656    0.936124
  H     -6.174781   -2.790606    1.051433
  O     -8.114853   -5.250932   -0.957007
  O     -6.532715   -3.426838   -1.314848
  H     -4.328618   -2.139223    2.198103
  H     -4.261583   -0.597399    1.357248
  F     -6.865632   -4.294957    0.914118
  C     -3.474641   -3.605898   -0.259608
  H     -2.354548   -2.127602    0.871433
  H     -3.166611   -1.499693   -0.545037
  C     -3.827078   -4.661097    0.786174
  H     -2.560559   -3.889391   -0.788050
  H     -4.255932   -3.570040   -1.019300
  C     -4.457800   -5.941875    0.229195
  H     -5.177347   -5.542575   -1.797714
  H     -6.074202   -6.768894   -0.921272
  H     -4.530506   -4.253640    1.511979
  H     -2.933400   -4.932302    1.356825
  H     -3.681064   -6.562236   -0.229885
  H     -4.843942   -6.512728    1.075805

 Total Charge           Charge          ....    0
 Multiplicity           Mult            ....    1
 Number of Electrons    NEL             ....   98
 Basis Dimension        Dim             ....  560

ORBITAL ENERGIES
----------------

  NO   OCC          E(Eh)            E(eV)
   0   2.0000     -89.266009     -2429.0516
   1   2.0000     -24.881030      -677.0473
   2   2.0000     -19.228404      -523.2315
   3   2.0000     -19.213482      -522.8254
   4   2.0000     -10.284980      -279.8685
   5   2.0000     -10.254686      -279.0442
   6   2.0000     -10.231258      -278.4067
   7   2.0000     -10.216348      -278.0010
   8   2.0000     -10.209661      -277.8190
   9   2.0000     -10.199717      -277.5484
  10   2.0000     -10.149202      -276.1738
  11   2.0000      -8.212507      -223.4737
  12   2.0000      -6.152981      -167.4311
  13   2.0000      -6.146592      -167.2573
  14   2.0000      -6.146158      -167.2455
  15   2.0000      -1.397361       -38.0241
  16   2.0000      -1.145700       -31.1761
  17   2.0000      -1.049327       -28.5536
  18   2.0000      -0.864885       -23.5347
  19   2.0000      -0.826796       -22.4983
  20   2.0000      -0.779069       -21.1995
  21   2.0000      -0.752012       -20.4633
  22   2.0000      -0.716304       -19.4916
  23   2.0000      -0.676396       -18.4057
  24   2.0000      -0.639519       -17.4022
  25   2.0000      -0.604298       -16.4438
  26   2.0000      -0.598013       -16.2728
  27   2.0000      -0.570578       -15.5262
  28   2.0000      -0.562923       -15.3179
  29   2.0000      -0.511529       -13.9194
  30   2.0000      -0.505133       -13.7454
  31   2.0000      -0.490507       -13.3474
  32   2.0000      -0.475830       -12.9480
  33   2.0000      -0.466052       -12.6819
  34   2.0000      -0.460472       -12.5301
  35   2.0000      -0.440751       -11.9935
  36   2.0000      -0.419475       -11.4145
  37   2.0000      -0.408389       -11.1128
  38   2.0000      -0.403293       -10.9742
  39   2.0000      -0.402958       -10.9650
  40   2.0000      -0.374061       -10.1787
  41   2.0000      -0.367750       -10.0070
  42   2.0000      -0.360053        -9.7975
  43   2.0000      -0.346161        -9.4195
  44   2.0000      -0.344598        -9.3770
  45   2.0000      -0.335671        -9.1341
  46   2.0000      -0.318348        -8.6627
  47   2.0000      -0.315261        -8.5787
  48   2.0000      -0.300031        -8.1643
  49   0.0000      -0.009018        -0.2454
  50   0.0000       0.016204         0.4409
  51   0.0000       0.016791         0.4569
  52   0.0000       0.020688         0.5629
  53   0.0000       0.034881         0.9492

MULLIKEN ATOMIC CHARGES
-----------------------
   0 C :    0.075677
   1 C :   -1.468488
   2 C :   -0.499804
   3 C :   -0.459854
   4 S :    1.034446
   5 H :    0.594550
   6 H :    0.227060
   7 H :    0.444956
   8 O :   -0.521513
   9 O :   -0.616677
  10 H :    0.205063
  11 H :    0.068829
  12 F :   -0.198037
  13 C :   -0.138505
  14 H :    0.108096
  15 H :    0.155241
  16 C :   -0.147029
  17 H :    0.143609
  18 H :    0.218200
  19 C :   -0.340792
  20 H :    0.335716
  21 H :    0.140754
  22 H :    0.186931
  23 H :    0.130995
  24 H :    0.135398
  25 H :    0.185178
Sum of atomic charges:    0.0000000

LOEWDIN ATOMIC CHARGES
----------------------
   0 C :   -0.241936
   1 C :   -0.122864
   2 C :   -0.203520
   3 C :   -0.207182
   4 S :    0.644034
   5 H :    0.023536
   6 H :    0.069266
   7 H :    0.011180
   8 O :   -0.249240
   9 O :   -0.302839
  10 H :    0.103751
  11 H :    0.106823
  12 F :   -0.099477
  13 C :   -0.202645
  14 H :    0.106988
  15 H :    0.114870
  16 C :   -0.204193
  17 H :    0.117242
  18 H :    0.086953
  19 C :   -0.213906
  20 H :    0.112481
  21 H :    0.102708
  22 H :    0.093726
  23 H :    0.122142
  24 H :    0.119053
  25 H :    0.113049

  Mayer bond orders larger than 0.100000
B(  0-C ,  1-C ) :   0.6074 B(  0-C ,  2-C ) :   1.0087 B(  0-C , 10-H ) :   0.8582
B(  0-C , 11-H ) :   0.9784 B(  0-C , 16-C ) :   0.2114 B(  1-C ,  2-C ) :   0.1838
B(  1-C ,  4-S ) :   0.1186 B(  1-C ,  5-H ) :   0.7752 B(  1-C ,  6-H ) :   0.8704
B(  1-C ,  7-H ) :   1.0300 B(  1-C ,  9-O ) :   0.2054 B(  1-C , 12-F ) :   0.1743
B(  2-C , 13-C ) :   1.0916 B(  2-C , 14-H ) :   0.9375 B(  2-C , 15-H ) :   0.9323
B(  2-C , 16-C ) :   0.2136 B(  2-C , 18-H ) :   0.1745 B(  3-C ,  4-S ) :   0.7935
B(  3-C ,  8-O ) :   0.1704 B(  3-C ,  9-O ) :   0.1314 B(  3-C , 13-C ) :   0.1490
B(  3-C , 19-C ) :   0.9951 B(  3-C , 20-H ) :   0.8575 B(  3-C , 21-H ) :   1.0596
B(  4-S ,  8-O ) :   1.5700 B(  4-S ,  9-O ) :   1.6910 B(  4-S , 12-F ) :   1.1169
B(  4-S , 19-C ) :   0.1155 B(  5-H ,  9-O ) :  -0.1696 B(  7-H , 12-F ) :  -0.1803
B( 13-C , 16-C ) :   0.6763 B( 13-C , 17-H ) :   0.9018 B( 13-C , 18-H ) :   0.9928
B( 13-C , 19-C ) :   0.1989 B( 16-C , 19-C ) :   1.0405 B( 16-C , 22-H ) :   0.9983
B( 16-C , 23-H ) :   0.9046 B( 19-C , 24-H ) :   0.9060 B( 19-C , 25-H ) :   0.9469

Dispersion correction           -0.026500464
FINAL SINGLE POINT ENERGY      -923.710810355922

DIPOLE MOMENT
-------------
                                X             Y             Z
Electronic contribution:    -16.54722      -6.83676      -3.45281
Nuclear contribution   :     17.63907       5.79106       3.97609
                        -----------------------------------------
Total Dipole Moment    :      1.09185      -1.04570       0.52328
                        -----------------------------------------
Magnitude (a.u.)       :      1.59983
Magnitude (Debye)      :      4.06644

Rotational constants in cm-1:     0.048663     0.025472     0.020259
Rotational constants in MHz :  1458.892793   763.621130   607.350055

                             ****ORCA TERMINATED NORMALLY****
TOTAL RUN TIME: 0 days 0 hours 4 minutes 4 seconds 404 msec
