                         Program Version 5.0.0 -  RELEASE  -
|  1> !wB97X-D3 RIJCOSX def2-SVPD def2/J TightSCF CPCM(Water)
|  2> *xyz -1 1
|  3> C         -2.79070       -0.78527        5.70281
|  4> C         -2.45380        0.05510        6.94145
|  5> C         -2.07842        1.48042        6.56410
|  6> H         -1.62558       -0.38216        7.49891
|  7> H         -3.32527        0.08775        7.59917
|  8> O         -0.90125        1.85816        6.82810
|  9> O         -2.93658        2.17731        5.96415
| 10> H         -1.94052       -0.82114        5.05412
| 11> H         -3.61590       -0.34261        5.18514
| 12> H         -3.05063       -1.77815        6.00536
| 13> *
| 14> %MaxCore 64000
| 15>
| 16> %pal nprocs 18
| 17> end
| 18>
| 19> %scf
| 20>   MaxIter 150
| 21> end
| 22>
| 23>
| 24>                          ****END OF INPUT****

CARTESIAN COORDINATES (ANGSTROEM)
---------------------------------
  C     -2.790700   -0.785270    5.702810
  C     -2.453800    0.055100    6.941450
  C     -2.078420    1.480420    6.564100
  H     -1.625580   -0.382160    7.498910
  H     -3.325270    0.087750    7.599170
  O     -0.901250    1.858160    6.828100
  O     -2.936580    2.177310    5.964150
  H     -1.940520   -0.821140    5.054120
  H     -3.615900   -0.342610    5.185140
  H     -3.050630   -1.778150    6.005360

 Total Charge           Charge          ....   -1
 Multiplicity           Mult            ....    1
 Number of Electrons    NEL             ....   40
 Basis Dimension        Dim             ....  146

ORBITAL ENERGIES
----------------

  NO   OCC          E(Eh)            E(eV)
   0   2.0000     -19.178261      -521.8670
   1   2.0000     -19.177642      -521.8502
   2   2.0000     -10.366606      -282.0897
   3   2.0000     -10.270691      -279.4797
   4   2.0000     -10.266646      -279.3696
   5   2.0000      -1.121811       -30.5260
   6   2.0000      -1.025951       -27.9175
   7   2.0000      -0.866462       -23.5776
   8   2.0000      -0.733411       -19.9571
   9   2.0000      -0.591777       -16.1031
  10   2.0000      -0.546539       -14.8721
  11   2.0000      -0.537233       -14.6189
  12   2.0000      -0.507561       -13.8114
  13   2.0000      -0.492252       -13.3949
  14   2.0000      -0.466486       -12.6937
  15   2.0000      -0.438245       -11.9253
  16   2.0000      -0.426943       -11.6177
  17   2.0000      -0.343049        -9.3348
  18   2.0000      -0.330594        -8.9959
  19   2.0000      -0.322544        -8.7769
  20   0.0000       0.095018         2.5856
  21   0.0000       0.119391         3.2488
  22   0.0000       0.130262         3.5446
  23   0.0000       0.141698         3.8558
  24   0.0000       0.151047         4.1102

MULLIKEN ATOMIC CHARGES
-----------------------
   0 C :    0.483834
   1 C :   -0.296034
   2 C :    0.398777
   3 H :   -0.037014
   4 H :    0.029244
   5 O :   -0.727109
   6 O :   -0.740383
   7 H :   -0.042861
   8 H :   -0.044996
   9 H :   -0.023458
Sum of atomic charges:   -1.0000000

LOEWDIN ATOMIC CHARGES
----------------------
   0 C :    0.119019
   1 C :   -0.036228
   2 C :   -0.324551
   3 H :    0.010820
   4 H :    0.024693
   5 O :   -0.374725
   6 O :   -0.363396
   7 H :   -0.012831
   8 H :   -0.023704
   9 H :   -0.019097

  Mayer bond orders larger than 0.100000
B(  0-C ,  1-C ) :   1.2799 B(  0-C ,  7-H ) :   0.8718 B(  0-C ,  8-H ) :   0.8479
B(  0-C ,  9-H ) :   0.8658 B(  1-C ,  2-C ) :   1.0500 B(  1-C ,  3-H ) :   0.9656
B(  1-C ,  4-H ) :   0.8959 B(  1-C ,  7-H ) :   0.1495 B(  1-C ,  8-H ) :   0.1683
B(  1-C ,  9-H ) :   0.1352 B(  2-C ,  3-H ) :   0.1545 B(  2-C ,  5-O ) :   1.4689
B(  2-C ,  6-O ) :   1.4919 B(  5-O ,  6-O ) :   0.1396

Dispersion correction           -0.001962864
FINAL SINGLE POINT ENERGY      -267.692741100705

DIPOLE MOMENT
-------------
                                X             Y             Z
Electronic contribution:      1.40783       4.77934       0.76216
Nuclear contribution   :     -2.24498      -7.51881      -0.57245
                        -----------------------------------------
Total Dipole Moment    :     -0.83715      -2.73947       0.18970
                        -----------------------------------------
Magnitude (a.u.)       :      2.87080
Magnitude (Debye)      :      7.29700

Rotational constants in cm-1:     0.305589     0.135336     0.107479
Rotational constants in MHz :  9161.317320  4057.276612  3222.126231

                             ****ORCA TERMINATED NORMALLY****
TOTAL RUN TIME: 0 days 0 hours 0 minutes 8 seconds 508 msec
