                         Program Version 5.0.0 -  RELEASE  -
|  1> !wB97X-D3 RIJCOSX def2-SVPD def2/J TightSCF CPCM(Water)
|  2> *xyz 1 1
|  3> C         -0.69912        3.48945        3.75516
|  4> H         -0.96672        4.34901        3.14049
|  5> N         -1.08067        3.79296        5.15686
|  6> C          0.77696        3.13839        3.61741
|  7> H         -1.33146        2.65651        3.44632
|  8> H         -0.87449        4.76274        5.42734
|  9> H         -0.68079        3.13476        5.83900
| 10> H         -2.05755        3.53169        5.34620
| 11> H          0.99957        2.92898        2.59199
| 12> H          0.99576        2.27685        4.21303
| 13> H          1.37223        3.96279        3.95046
| 14> *
| 15> %MaxCore 64000
| 16>
| 17> %pal nprocs 18
| 18> end
| 19>
| 20> %scf
| 21>   MaxIter 150
| 22> end
| 23>
| 24>
| 25>                          ****END OF INPUT****

CARTESIAN COORDINATES (ANGSTROEM)
---------------------------------
  C     -0.699120    3.489450    3.755160
  H     -0.966720    4.349010    3.140490
  N     -1.080670    3.792960    5.156860
  C      0.776960    3.138390    3.617410
  H     -1.331460    2.656510    3.446320
  H     -0.874490    4.762740    5.427340
  H     -0.680790    3.134760    5.839000
  H     -2.057550    3.531690    5.346200
  H      0.999570    2.928980    2.591990
  H      0.995760    2.276850    4.213030
  H      1.372230    3.962790    3.950460

 Total Charge           Charge          ....    1
 Multiplicity           Mult            ....    1
 Number of Electrons    NEL             ....   26
 Basis Dimension        Dim             ....  124

ORBITAL ENERGIES
----------------

  NO   OCC          E(Eh)            E(eV)
   0   2.0000     -14.555143      -396.0656
   1   2.0000     -10.351993      -281.6920
   2   2.0000     -10.289086      -279.9803
   3   2.0000      -1.109380       -30.1878
   4   2.0000      -0.886566       -24.1247
   5   2.0000      -0.761812       -20.7300
   6   2.0000      -0.700144       -19.0519
   7   2.0000      -0.655414       -17.8347
   8   2.0000      -0.600820       -16.3491
   9   2.0000      -0.555533       -15.1168
  10   2.0000      -0.499898       -13.6029
  11   2.0000      -0.481114       -13.0918
  12   2.0000      -0.463150       -12.6030
  13   0.0000       0.085661         2.3309
  14   0.0000       0.119029         3.2389
  15   0.0000       0.127086         3.4582
  16   0.0000       0.147417         4.0114
  17   0.0000       0.165889         4.5141

MULLIKEN ATOMIC CHARGES
-----------------------
   0 C :    0.136322
   1 H :   -0.032999
   2 N :   -0.945770
   3 C :    0.436570
   4 H :    0.007020
   5 H :    0.472461
   6 H :    0.435837
   7 H :    0.420257
   8 H :    0.024245
   9 H :    0.002804
  10 H :    0.043252
Sum of atomic charges:    1.0000000

LOEWDIN ATOMIC CHARGES
----------------------
   0 C :    0.057648
   1 H :    0.050571
   2 N :    0.343936
   3 C :    0.150069
   4 H :    0.050064
   5 H :    0.123367
   6 H :    0.115562
   7 H :    0.117062
   8 H :   -0.000315
   9 H :   -0.004525
  10 H :   -0.003440

  Mayer bond orders larger than 0.100000
B(  0-C ,  1-H ) :   0.9611 B(  0-C ,  2-N ) :   0.6985 B(  0-C ,  3-C ) :   1.2992
B(  0-C ,  4-H ) :   0.9524 B(  0-C ,  8-H ) :   0.1633 B(  0-C ,  9-H ) :   0.1496
B(  0-C , 10-H ) :   0.1370 B(  1-H ,  2-N ) :   0.1052 B(  2-N ,  5-H ) :   0.6332
B(  2-N ,  6-H ) :   0.6946 B(  2-N ,  7-H ) :   0.7097 B(  3-C ,  8-H ) :   0.8479
B(  3-C ,  9-H ) :   0.8710 B(  3-C , 10-H ) :   0.8445

Dispersion correction           -0.001535741
FINAL SINGLE POINT ENERGY      -135.517783398009

DIPOLE MOMENT
-------------
                                X             Y             Z
Electronic contribution:     -1.58638       0.65508       1.43084
Nuclear contribution   :      0.33986      -0.24565       0.10678
                        -----------------------------------------
Total Dipole Moment    :     -1.24652       0.40943       1.53762
                        -----------------------------------------
Magnitude (a.u.)       :      2.02132
Magnitude (Debye)      :      5.13778

Rotational constants in cm-1:     1.016237     0.277523     0.247812
Rotational constants in MHz : 30466.024354  8319.937961  7429.230177

                             ****ORCA TERMINATED NORMALLY****
TOTAL RUN TIME: 0 days 0 hours 0 minutes 6 seconds 201 msec
