                         Program Version 5.0.0 -  RELEASE  -
|  1> !wB97X-D3 RIJCOSX def2-SVPD def2/J TightSCF CPCM(Water) xyzfile
|  2>
|  3> *xyzfile 0 1 B.xyz
|  4>
|  5> %MaxCore 64000
|  6>
|  7> %pal nprocs 18
|  8> end
|  9>
| 10> %scf
| 11>   MaxIter 150
| 12> end
| 13>
| 14>
| 15>                          ****END OF INPUT****

CARTESIAN COORDINATES (ANGSTROEM)
---------------------------------
  C     -0.699123    3.489451    3.755163
  H     -0.966716    4.349013    3.140491
  N     -1.080669    3.792957    5.156857
  C      0.776956    3.138391    3.617408
  H     -1.331455    2.656510    3.446323
  H      1.371398    3.888342    4.149744
  H      1.046926    3.232057    2.561331
  C      1.118917    1.731170    4.115155
  H      2.200573    1.654226    4.254882
  C      0.659466    0.635182    3.153306
  H      0.677024    1.576674    5.103150
  H      1.312288    0.638870    2.274207
  H     -0.339563    0.868049    2.772876
  C      0.639957   -0.771175    3.755619
  C     -0.341821   -0.965537    4.915046
  H      1.648266   -1.028665    4.097015
  H      0.398568   -1.482386    2.958453
  H     -0.279892   -2.005646    5.252547
  C     -1.789164   -0.639231    4.557496
  H     -0.032380   -0.352918    5.765118
  H     -2.107151   -1.270102    3.719619
  H     -1.856352    0.391636    4.197604
  C     -2.790700   -0.785275    5.702812
  H     -2.867308   -1.835651    6.001675
  H     -3.774554   -0.486577    5.334807
  C     -2.453797    0.055101    6.941445
  C     -2.078419    1.480421    6.564098
  H     -1.625584   -0.382163    7.498914
  H     -3.325274    0.087746    7.599175
  H     -0.874488    4.762737    5.427344
  H     -0.680793    3.134762    5.839000
  H     -2.057550    3.531691    5.346197
  O     -0.901252    1.858156    6.828104
  O     -2.936582    2.177309    5.964151

 Total Charge           Charge          ....    0
 Multiplicity           Mult            ....    1
 Number of Electrons    NEL             ....  104
 Basis Dimension        Dim             ....  434

ORBITAL ENERGIES
----------------

  NO   OCC          E(Eh)            E(eV)
   0   2.0000     -19.202050      -522.5143
   1   2.0000     -19.201841      -522.5087
   2   2.0000     -14.494489      -394.4151
   3   2.0000     -10.389119      -282.7023
   4   2.0000     -10.332694      -281.1669
   5   2.0000     -10.289355      -279.9876
   6   2.0000     -10.280377      -279.7433
   7   2.0000     -10.276702      -279.6433
   8   2.0000     -10.276465      -279.6368
   9   2.0000     -10.275456      -279.6094
  10   2.0000     -10.275309      -279.6054
  11   2.0000     -10.273910      -279.5673
  12   2.0000     -10.271753      -279.5086
  13   2.0000      -1.155196       -31.4345
  14   2.0000      -1.068174       -29.0665
  15   2.0000      -1.055216       -28.7139
  16   2.0000      -0.925569       -25.1860
  17   2.0000      -0.902917       -24.5696
  18   2.0000      -0.873436       -23.7674
  19   2.0000      -0.823771       -22.4160
  20   2.0000      -0.792217       -21.5573
  21   2.0000      -0.750672       -20.4268
  22   2.0000      -0.710584       -19.3360
  23   2.0000      -0.689346       -18.7581
  24   2.0000      -0.666674       -18.1411
  25   2.0000      -0.650705       -17.7066
  26   2.0000      -0.633475       -17.2377
  27   2.0000      -0.600424       -16.3384
  28   2.0000      -0.583301       -15.8724
  29   2.0000      -0.576693       -15.6926
  30   2.0000      -0.564071       -15.3492
  31   2.0000      -0.555005       -15.1025
  32   2.0000      -0.549262       -14.9462
  33   2.0000      -0.534310       -14.5393
  34   2.0000      -0.521644       -14.1946
  35   2.0000      -0.509959       -13.8767
  36   2.0000      -0.499274       -13.5859
  37   2.0000      -0.496613       -13.5135
  38   2.0000      -0.481138       -13.0924
  39   2.0000      -0.476616       -12.9694
  40   2.0000      -0.455446       -12.3933
  41   2.0000      -0.448682       -12.2093
  42   2.0000      -0.443930       -12.0799
  43   2.0000      -0.428261       -11.6536
  44   2.0000      -0.417875       -11.3710
  45   2.0000      -0.412817       -11.2333
  46   2.0000      -0.400190       -10.8897
  47   2.0000      -0.393862       -10.7175
  48   2.0000      -0.391499       -10.6532
  49   2.0000      -0.365564        -9.9475
  50   2.0000      -0.351401        -9.5621
  51   2.0000      -0.346508        -9.4290
  52   0.0000       0.091266         2.4835
  53   0.0000       0.101188         2.7535
  54   0.0000       0.105608         2.8737
  55   0.0000       0.109311         2.9745
  56   0.0000       0.115940         3.1549

MULLIKEN ATOMIC CHARGES
-----------------------
   0 C :    1.001882
   1 H :   -0.138562
   2 N :   -0.800973
   3 C :    0.226935
   4 H :   -0.251510
   5 H :   -0.017225
   6 H :   -0.012460
   7 C :    0.670713
   8 H :    0.021921
   9 C :   -0.022862
  10 H :   -0.738586
  11 H :   -0.219926
  12 H :   -0.119710
  13 C :    0.675547
  14 C :   -0.037831
  15 H :   -0.107321
  16 H :    0.052597
  17 H :   -0.260176
  18 C :    0.265418
  19 H :   -0.004107
  20 H :   -0.071188
  21 H :   -0.523787
  22 C :    0.405395
  23 H :   -0.157836
  24 H :    0.063803
  25 C :    0.283642
  26 C :    0.306477
  27 H :    0.131586
  28 H :   -0.123515
  29 H :    0.434427
  30 H :    0.255886
  31 H :    0.284731
  32 O :   -0.756492
  33 O :   -0.716895
Sum of atomic charges:   -0.0000000

LOEWDIN ATOMIC CHARGES
----------------------
   0 C :    0.110904
   1 H :    0.043639
   2 N :    0.338395
   3 C :   -0.005806
   4 H :    0.025297
   5 H :    0.031720
   6 H :    0.032311
   7 C :   -0.012251
   8 H :    0.030376
   9 C :   -0.031222
  10 H :   -0.020532
  11 H :    0.026264
  12 H :    0.002125
  13 C :   -0.029833
  14 C :   -0.025876
  15 H :    0.023782
  16 H :    0.023007
  17 H :    0.027310
  18 C :   -0.026371
  19 H :   -0.006164
  20 H :    0.031096
  21 H :   -0.003535
  22 C :   -0.019976
  23 H :    0.024116
  24 H :    0.021215
  25 C :    0.029717
  26 C :   -0.195407
  27 H :    0.018502
  28 H :    0.031572
  29 H :    0.115743
  30 H :   -0.053517
  31 H :   -0.017374
  32 O :   -0.271294
  33 O :   -0.267932

  Mayer bond orders larger than 0.100000
B(  0-C ,  1-H ) :   0.8136 B(  0-C ,  2-N ) :   0.5918 B(  0-C ,  3-C ) :   1.1518
B(  0-C ,  4-H ) :   0.6780 B(  0-C ,  7-C ) :   0.1860 B(  0-C , 10-H ) :  -0.1731
B(  0-C , 18-C ) :   0.1026 B(  1-H ,  3-C ) :   0.1258 B(  2-N ,  4-H ) :   0.2798
B(  2-N , 26-C ) :   0.1248 B(  2-N , 29-H ) :   0.7849 B(  2-N , 30-H ) :   0.7415
B(  2-N , 31-H ) :   0.7218 B(  3-C ,  4-H ) :   0.1520 B(  3-C ,  5-H ) :   0.7724
B(  3-C ,  6-H ) :   0.8239 B(  3-C ,  7-C ) :   1.1412 B(  3-C , 10-H ) :   0.1856
B(  4-H , 12-H ) :   0.1118 B(  4-H , 21-H ) :   0.1707 B(  5-H ,  7-C ) :   0.1179
B(  7-C ,  8-H ) :   0.7179 B(  7-C ,  9-C ) :   1.1080 B(  7-C , 10-H ) :   0.3983
B(  7-C , 11-H ) :   0.1970 B(  8-H ,  9-C ) :   0.1811 B(  9-C , 10-H ) :   0.2652
B(  9-C , 11-H ) :   0.9162 B(  9-C , 12-H ) :   0.9001 B(  9-C , 13-C ) :   1.1691
B(  9-C , 15-H ) :   0.1344 B(  9-C , 16-H ) :   0.2227 B( 10-H , 13-C ) :  -0.1095
B( 10-H , 19-H ) :   0.1226 B( 13-C , 14-C ) :   1.1304 B( 13-C , 15-H ) :   0.6991
B( 13-C , 16-H ) :   0.6977 B( 14-C , 15-H ) :   0.2644 B( 14-C , 17-H ) :   0.9427
B( 14-C , 18-C ) :   1.1491 B( 14-C , 19-H ) :   0.8863 B( 14-C , 20-H ) :   0.1729
B( 14-C , 21-H ) :   0.2286 B( 15-H , 16-H ) :  -0.1172 B( 17-H , 18-C ) :   0.1510
B( 18-C , 19-H ) :   0.1004 B( 18-C , 20-H ) :   0.6976 B( 18-C , 21-H ) :   0.7476
B( 18-C , 22-C ) :   1.2347 B( 18-C , 23-H ) :   0.1696 B( 18-C , 24-H ) :   0.2379
B( 20-H , 21-H ) :   0.1626 B( 21-H , 22-C ) :   0.1146 B( 22-C , 23-H ) :   0.8278
B( 22-C , 24-H ) :   0.6856 B( 22-C , 25-C ) :   1.1532 B( 22-C , 28-H ) :   0.1599
B( 23-H , 24-H ) :  -0.1324 B( 23-H , 25-C ) :   0.1250 B( 25-C , 26-C ) :   1.1706
B( 25-C , 27-H ) :   0.7961 B( 25-C , 28-H ) :   0.6986 B( 26-C , 27-H ) :   0.1718
B( 26-C , 28-H ) :   0.2628 B( 26-C , 32-O ) :   1.3453 B( 26-C , 33-O ) :   1.3388
B( 30-H , 32-O ) :   0.2087 B( 31-H , 33-O ) :   0.1652

Dispersion correction           -0.017663531
FINAL SINGLE POINT ENERGY      -598.431675873090

DIPOLE MOMENT
-------------
                                X             Y             Z
Electronic contribution:     -4.44387       5.23893       6.25996
Nuclear contribution   :      5.60885      -3.40606      -8.06960
                        -----------------------------------------
Total Dipole Moment    :      1.16497       1.83287      -1.80964
                        -----------------------------------------
Magnitude (a.u.)       :      2.82690
Magnitude (Debye)      :      7.18542

Rotational constants in cm-1:     0.028465     0.023505     0.015110
Rotational constants in MHz :   853.363165   704.655786   452.976312

                             ****ORCA TERMINATED NORMALLY****
TOTAL RUN TIME: 0 days 0 hours 1 minutes 18 seconds 120 msec
