                         Program Version 5.0.0 -  RELEASE  -
|  1> !wB97X-D3 RIJCOSX def2-SVPD def2/J TightSCF CPCM(Water)
|  2> *xyz 0 1
|  3> C         -2.79070       -0.78527        5.70281
|  4> C         -2.45380        0.05510        6.94145
|  5> C         -2.07842        1.48042        6.56410
|  6> H         -1.62558       -0.38216        7.49891
|  7> H         -3.32527        0.08775        7.59917
|  8> F         -0.90125        1.85816        6.82810
|  9> O         -2.93658        2.17731        5.96415
| 10> H         -1.94052       -0.82114        5.05412
| 11> H         -3.61590       -0.34261        5.18514
| 12> H         -3.05063       -1.77815        6.00536
| 13> *
| 14> %MaxCore 64000
| 15>
| 16> %pal nprocs 18
| 17> end
| 18>
| 19> %scf
| 20>   MaxIter 150
| 21> end
| 22>
| 23>
| 24>                          ****END OF INPUT****

CARTESIAN COORDINATES (ANGSTROEM)
---------------------------------
  C     -2.790700   -0.785270    5.702810
  C     -2.453800    0.055100    6.941450
  C     -2.078420    1.480420    6.564100
  H     -1.625580   -0.382160    7.498910
  H     -3.325270    0.087750    7.599170
  F     -0.901250    1.858160    6.828100
  O     -2.936580    2.177310    5.964150
  H     -1.940520   -0.821140    5.054120
  H     -3.615900   -0.342610    5.185140
  H     -3.050630   -1.778150    6.005360

 Total Charge           Charge          ....    0
 Multiplicity           Mult            ....    1
 Number of Electrons    NEL             ....   40
 Basis Dimension        Dim             ....  146

ORBITAL ENERGIES
----------------

  NO   OCC          E(Eh)            E(eV)
   0   2.0000     -24.874423      -676.8675
   1   2.0000     -19.263978      -524.1995
   2   2.0000     -10.481115      -285.2056
   3   2.0000     -10.311599      -280.5929
   4   2.0000     -10.284329      -279.8508
   5   2.0000      -1.420618       -38.6570
   6   2.0000      -1.150404       -31.3041
   7   2.0000      -0.904475       -24.6120
   8   2.0000      -0.793120       -21.5819
   9   2.0000      -0.742245       -20.1975
  10   2.0000      -0.655366       -17.8334
  11   2.0000      -0.638927       -17.3861
  12   2.0000      -0.616531       -16.7767
  13   2.0000      -0.556947       -15.1553
  14   2.0000      -0.535733       -14.5780
  15   2.0000      -0.495051       -13.4710
  16   2.0000      -0.471785       -12.8379
  17   2.0000      -0.462952       -12.5976
  18   2.0000      -0.445883       -12.1331
  19   2.0000      -0.402783       -10.9603
  20   0.0000       0.047386         1.2894
  21   0.0000       0.090853         2.4722
  22   0.0000       0.123611         3.3636
  23   0.0000       0.133975         3.6456
  24   0.0000       0.147745         4.0203

MULLIKEN ATOMIC CHARGES
-----------------------
   0 C :    0.448867
   1 C :   -0.442426
   2 C :    0.776575
   3 H :    0.054465
   4 H :    0.117717
   5 F :   -0.386291
   6 O :   -0.555069
   7 H :   -0.011053
   8 H :   -0.013267
   9 H :    0.010482
Sum of atomic charges:    0.0000000

LOEWDIN ATOMIC CHARGES
----------------------
   0 C :    0.142794
   1 C :    0.011537
   2 C :    0.007894
   3 H :    0.033138
   4 H :    0.048809
   5 F :   -0.039732
   6 O :   -0.183115
   7 H :   -0.003935
   8 H :   -0.011508
   9 H :   -0.005883

  Mayer bond orders larger than 0.100000
B(  0-C ,  1-C ) :   1.2922 B(  0-C ,  7-H ) :   0.8783 B(  0-C ,  8-H ) :   0.8559
B(  0-C ,  9-H ) :   0.8723 B(  1-C ,  2-C ) :   1.1066 B(  1-C ,  3-H ) :   0.9661
B(  1-C ,  4-H ) :   0.8945 B(  1-C ,  7-H ) :   0.1395 B(  1-C ,  8-H ) :   0.1517
B(  1-C ,  9-H ) :   0.1282 B(  2-C ,  5-F ) :   0.7449 B(  2-C ,  6-O ) :   1.7908

Dispersion correction           -0.001919396
FINAL SINGLE POINT ENERGY      -292.125830079869

DIPOLE MOMENT
-------------
                                X             Y             Z
Electronic contribution:      4.11295       7.11685       1.67078
Nuclear contribution   :     -3.69486      -8.49563      -1.04945
                        -----------------------------------------
Total Dipole Moment    :      0.41809      -1.37879       0.62133
                        -----------------------------------------
Magnitude (a.u.)       :      1.56904
Magnitude (Debye)      :      3.98819

Rotational constants in cm-1:     0.293725     0.129218     0.102393
Rotational constants in MHz :  8805.653529  3873.869810  3069.666716

                             ****ORCA TERMINATED NORMALLY****
TOTAL RUN TIME: 0 days 0 hours 0 minutes 9 seconds 794 msec
