                         Program Version 5.0.0 -  RELEASE  -
|  1> !wB97X-D3 RIJCOSX def2-SVPD def2/J TightSCF CPCM(Water)
|  2> *xyz 0 1
|  3> C         -0.69912        3.48945        3.75516
|  4> H         -0.96672        4.34901        3.14049
|  5> C         -1.08067        3.79296        5.15686
|  6> C          0.77696        3.13839        3.61741
|  7> H         -1.33146        2.65651        3.44632
|  8> H         -0.87449        4.76274        5.42734
|  9> H         -0.68079        3.13476        5.83900
| 10> H         -2.05755        3.53169        5.34620
| 11> H          0.99957        2.92898        2.59199
| 12> H          0.99576        2.27685        4.21303
| 13> H          1.37223        3.96279        3.95046
| 14> *
| 15> %MaxCore 64000
| 16>
| 17> %pal nprocs 18
| 18> end
| 19>
| 20> %scf
| 21>   MaxIter 150
| 22> end
| 23>
| 24>
| 25>                          ****END OF INPUT****

CARTESIAN COORDINATES (ANGSTROEM)
---------------------------------
  C     -0.699120    3.489450    3.755160
  H     -0.966720    4.349010    3.140490
  C     -1.080670    3.792960    5.156860
  C      0.776960    3.138390    3.617410
  H     -1.331460    2.656510    3.446320
  H     -0.874490    4.762740    5.427340
  H     -0.680790    3.134760    5.839000
  H     -2.057550    3.531690    5.346200
  H      0.999570    2.928980    2.591990
  H      0.995760    2.276850    4.213030
  H      1.372230    3.962790    3.950460

 Total Charge           Charge          ....    0
 Multiplicity           Mult            ....    1
 Number of Electrons    NEL             ....   26
 Basis Dimension        Dim             ....  124

ORBITAL ENERGIES
----------------

  NO   OCC          E(Eh)            E(eV)
   0   2.0000     -10.272380      -279.5257
   1   2.0000     -10.263665      -279.2885
   2   2.0000     -10.245190      -278.7858
   3   2.0000      -0.897939       -24.4342
   4   2.0000      -0.795586       -21.6490
   5   2.0000      -0.688996       -18.7485
   6   2.0000      -0.569877       -15.5072
   7   2.0000      -0.536407       -14.5964
   8   2.0000      -0.494180       -13.4473
   9   2.0000      -0.489321       -13.3151
  10   2.0000      -0.430367       -11.7109
  11   2.0000      -0.417697       -11.3661
  12   2.0000      -0.414799       -11.2873
  13   0.0000       0.101866         2.7719
  14   0.0000       0.127478         3.4688
  15   0.0000       0.134960         3.6725
  16   0.0000       0.167759         4.5650
  17   0.0000       0.186627         5.0784

MULLIKEN ATOMIC CHARGES
-----------------------
   0 C :   -0.597053
   1 H :   -0.094958
   2 C :    0.824021
   3 C :    0.545793
   4 H :   -0.021612
   5 H :   -0.170249
   6 H :   -0.221076
   7 H :   -0.164131
   8 H :   -0.049513
   9 H :   -0.013742
  10 H :   -0.037480
Sum of atomic charges:   -0.0000000

LOEWDIN ATOMIC CHARGES
----------------------
   0 C :   -0.116683
   1 H :    0.022132
   2 C :    0.104597
   3 C :    0.110149
   4 H :    0.021630
   5 H :   -0.024110
   6 H :   -0.032803
   7 H :   -0.034236
   8 H :   -0.021286
   9 H :   -0.015213
  10 H :   -0.014177

  Mayer bond orders larger than 0.100000
B(  0-C ,  1-H ) :   0.9839 B(  0-C ,  2-C ) :   1.2769 B(  0-C ,  3-C ) :   1.2302
B(  0-C ,  4-H ) :   0.9351 B(  0-C ,  5-H ) :   0.2099 B(  0-C ,  6-H ) :   0.1875
B(  0-C ,  7-H ) :   0.1861 B(  0-C ,  8-H ) :   0.1725 B(  0-C ,  9-H ) :   0.1396
B(  0-C , 10-H ) :   0.1652 B(  1-H ,  2-C ) :   0.1003 B(  2-C ,  4-H ) :   0.1010
B(  2-C ,  5-H ) :   0.7600 B(  2-C ,  6-H ) :   0.7071 B(  2-C ,  7-H ) :   0.6875
B(  3-C ,  8-H ) :   0.8452 B(  3-C ,  9-H ) :   0.8583 B(  3-C , 10-H ) :   0.8519
B(  6-H ,  7-H ) :   0.2583

Dispersion correction           -0.001483159
FINAL SINGLE POINT ENERGY      -119.009452814524

DIPOLE MOMENT
-------------
                                X             Y             Z
Electronic contribution:     -0.15591       0.11069      -0.38549
Nuclear contribution   :      0.10024      -0.14218       0.41628
                        -----------------------------------------
Total Dipole Moment    :     -0.05566      -0.03150       0.03080
                        -----------------------------------------
Magnitude (a.u.)       :      0.07098
Magnitude (Debye)      :      0.18042

Rotational constants in cm-1:     1.024179     0.291605     0.259489
Rotational constants in MHz : 30704.103454  8742.106283  7779.285909

                             ****ORCA TERMINATED NORMALLY****
TOTAL RUN TIME: 0 days 0 hours 0 minutes 5 seconds 953 msec
