                         Program Version 5.0.0 -  RELEASE  -
|  1> !wB97X-D3 RIJCOSX def2-SVPD def2/J TightSCF CPCM(Water)
|  2> *xyz 0 1
|  3> C         -2.79070       -0.78527        5.70281
|  4> C         -2.45380        0.05510        6.94145
|  5> C         -2.07842        1.48042        6.56410
|  6> H         -1.62558       -0.38216        7.49891
|  7> H         -3.32527        0.08775        7.59917
|  8> O         -0.90125        1.85816        6.82810
|  9> F         -2.93658        2.17731        5.96415
| 10> H         -1.94052       -0.82114        5.05412
| 11> H         -3.61590       -0.34261        5.18514
| 12> H         -3.05063       -1.77815        6.00536
| 13> *
| 14> %MaxCore 64000
| 15>
| 16> %pal nprocs 18
| 17> end
| 18>
| 19> %scf
| 20>   MaxIter 150
| 21> end
| 22>
| 23>
| 24>                          ****END OF INPUT****

CARTESIAN COORDINATES (ANGSTROEM)
---------------------------------
  C     -2.790700   -0.785270    5.702810
  C     -2.453800    0.055100    6.941450
  C     -2.078420    1.480420    6.564100
  H     -1.625580   -0.382160    7.498910
  H     -3.325270    0.087750    7.599170
  O     -0.901250    1.858160    6.828100
  F     -2.936580    2.177310    5.964150
  H     -1.940520   -0.821140    5.054120
  H     -3.615900   -0.342610    5.185140
  H     -3.050630   -1.778150    6.005360

 Total Charge           Charge          ....    0
 Multiplicity           Mult            ....    1
 Number of Electrons    NEL             ....   40
 Basis Dimension        Dim             ....  146

ORBITAL ENERGIES
----------------

  NO   OCC          E(Eh)            E(eV)
   0   2.0000     -24.877676      -676.9560
   1   2.0000     -19.262885      -524.1697
   2   2.0000     -10.481576      -285.2182
   3   2.0000     -10.311605      -280.5930
   4   2.0000     -10.284954      -279.8678
   5   2.0000      -1.425968       -38.8026
   6   2.0000      -1.146439       -31.1962
   7   2.0000      -0.906563       -24.6688
   8   2.0000      -0.789921       -21.4949
   9   2.0000      -0.748004       -20.3542
  10   2.0000      -0.659291       -17.9402
  11   2.0000      -0.646522       -17.5928
  12   2.0000      -0.609726       -16.5915
  13   2.0000      -0.557217       -15.1626
  14   2.0000      -0.531111       -14.4523
  15   2.0000      -0.498665       -13.5694
  16   2.0000      -0.476398       -12.9635
  17   2.0000      -0.460913       -12.5421
  18   2.0000      -0.450423       -12.2566
  19   2.0000      -0.396323       -10.7845
  20   0.0000       0.049001         1.3334
  21   0.0000       0.089907         2.4465
  22   0.0000       0.122904         3.3444
  23   0.0000       0.133422         3.6306
  24   0.0000       0.148715         4.0467

MULLIKEN ATOMIC CHARGES
-----------------------
   0 C :    0.426205
   1 C :   -0.422800
   2 C :    0.792424
   3 H :    0.025024
   4 H :    0.115953
   5 O :   -0.543667
   6 F :   -0.399993
   7 H :   -0.010754
   8 H :    0.002498
   9 H :    0.015110
Sum of atomic charges:   -0.0000000

LOEWDIN ATOMIC CHARGES
----------------------
   0 C :    0.141002
   1 C :    0.012297
   2 C :    0.003576
   3 H :    0.036862
   4 H :    0.047092
   5 O :   -0.191484
   6 F :   -0.030554
   7 H :   -0.004191
   8 H :   -0.008828
   9 H :   -0.005772

  Mayer bond orders larger than 0.100000
B(  0-C ,  1-C ) :   1.2754 B(  0-C ,  7-H ) :   0.8871 B(  0-C ,  8-H ) :   0.8485
B(  0-C ,  9-H ) :   0.8754 B(  1-C ,  2-C ) :   1.0800 B(  1-C ,  3-H ) :   0.9991
B(  1-C ,  4-H ) :   0.8893 B(  1-C ,  7-H ) :   0.1366 B(  1-C ,  8-H ) :   0.1460
B(  1-C ,  9-H ) :   0.1293 B(  2-C ,  3-H ) :   0.1130 B(  2-C ,  5-O ) :   1.7854
B(  2-C ,  6-F ) :   0.7312

Dispersion correction           -0.001918098
FINAL SINGLE POINT ENERGY      -292.123791105480

DIPOLE MOMENT
-------------
                                X             Y             Z
Electronic contribution:      0.27038       7.70450       0.04579
Nuclear contribution   :     -1.47571      -8.84360      -0.10748
                        -----------------------------------------
Total Dipole Moment    :     -1.20533      -1.13910      -0.06169
                        -----------------------------------------
Magnitude (a.u.)       :      1.65957
Magnitude (Debye)      :      4.21830

Rotational constants in cm-1:     0.283081     0.133379     0.103386
Rotational constants in MHz :  8486.545774  3998.599544  3099.448040

                             ****ORCA TERMINATED NORMALLY****
TOTAL RUN TIME: 0 days 0 hours 0 minutes 8 seconds 728 msec
