                         Program Version 5.0.0 -  RELEASE  -
|  1> !wB97X-D3 RIJCOSX def2-SVPD def2/J TightSCF CPCM(Water) xyzfile
|  2>
|  3> *xyzfile 0 1 D2.xyz
|  4>
|  5> %MaxCore 64000
|  6>
|  7> %pal nprocs 18
|  8> end
|  9>
| 10> %scf
| 11>   MaxIter 150
| 12> end
| 13>
| 14>
| 15>                          ****END OF INPUT****

CARTESIAN COORDINATES (ANGSTROEM)
---------------------------------
  C     -0.699123    3.489451    3.755163
  H     -0.966716    4.349013    3.140491
  C     -1.080669    3.792957    5.156857
  C      0.776956    3.138391    3.617408
  H     -1.331455    2.656510    3.446323
  H      1.371398    3.888342    4.149744
  H      1.046926    3.232057    2.561331
  C      1.118917    1.731170    4.115155
  H      2.200573    1.654226    4.254882
  C      0.659466    0.635182    3.153306
  H      0.677024    1.576674    5.103150
  H      1.312288    0.638870    2.274207
  H     -0.339563    0.868049    2.772876
  C      0.639957   -0.771175    3.755619
  C     -0.341821   -0.965537    4.915046
  H      1.648266   -1.028665    4.097015
  H      0.398568   -1.482386    2.958453
  H     -0.279892   -2.005646    5.252547
  C     -1.789164   -0.639231    4.557496
  H     -0.032380   -0.352918    5.765118
  H     -2.107151   -1.270102    3.719619
  H     -1.856352    0.391636    4.197604
  C     -2.790700   -0.785275    5.702812
  H     -2.867308   -1.835651    6.001675
  H     -3.774554   -0.486577    5.334807
  C     -2.453797    0.055101    6.941445
  C     -2.078419    1.480421    6.564098
  H     -1.625584   -0.382163    7.498914
  H     -3.325274    0.087746    7.599175
  H     -0.874488    4.762737    5.427344
  H     -0.680793    3.134762    5.839000
  H     -2.057550    3.531691    5.346197
  O     -0.901252    1.858156    6.828104
  F     -2.936582    2.177309    5.964151

 Total Charge           Charge          ....    0
 Multiplicity           Mult            ....    1
 Number of Electrons    NEL             ....  104
 Basis Dimension        Dim             ....  434

ORBITAL ENERGIES
----------------

  NO   OCC          E(Eh)            E(eV)
   0   2.0000     -24.880935      -677.0447
   1   2.0000     -19.260253      -524.0981
   2   2.0000     -10.484619      -285.3010
   3   2.0000     -10.309577      -280.5379
   4   2.0000     -10.294266      -280.1212
   5   2.0000     -10.282196      -279.7928
   6   2.0000     -10.276020      -279.6247
   7   2.0000     -10.275631      -279.6141
   8   2.0000     -10.272006      -279.5155
   9   2.0000     -10.269372      -279.4438
  10   2.0000     -10.269117      -279.4369
  11   2.0000     -10.262184      -279.2482
  12   2.0000     -10.210313      -277.8367
  13   2.0000      -1.433000       -38.9939
  14   2.0000      -1.154025       -31.4026
  15   2.0000      -0.933648       -25.4058
  16   2.0000      -0.916202       -24.9311
  17   2.0000      -0.885014       -24.0825
  18   2.0000      -0.854765       -23.2593
  19   2.0000      -0.810066       -22.0430
  20   2.0000      -0.786621       -21.4050
  21   2.0000      -0.763548       -20.7772
  22   2.0000      -0.727961       -19.8088
  23   2.0000      -0.709144       -19.2968
  24   2.0000      -0.666937       -18.1483
  25   2.0000      -0.666213       -18.1286
  26   2.0000      -0.660801       -17.9813
  27   2.0000      -0.641060       -17.4441
  28   2.0000      -0.614291       -16.7157
  29   2.0000      -0.577769       -15.7219
  30   2.0000      -0.571506       -15.5515
  31   2.0000      -0.557125       -15.1601
  32   2.0000      -0.553940       -15.0735
  33   2.0000      -0.525708       -14.3052
  34   2.0000      -0.522749       -14.2247
  35   2.0000      -0.515321       -14.0226
  36   2.0000      -0.504544       -13.7293
  37   2.0000      -0.496996       -13.5239
  38   2.0000      -0.481364       -13.0986
  39   2.0000      -0.470274       -12.7968
  40   2.0000      -0.465330       -12.6623
  41   2.0000      -0.459553       -12.5051
  42   2.0000      -0.439878       -11.9697
  43   2.0000      -0.432796       -11.7770
  44   2.0000      -0.426781       -11.6133
  45   2.0000      -0.421141       -11.4598
  46   2.0000      -0.410432       -11.1684
  47   2.0000      -0.400197       -10.8899
  48   2.0000      -0.394385       -10.7318
  49   2.0000      -0.388858       -10.5814
  50   2.0000      -0.387962       -10.5570
  51   2.0000      -0.354801        -9.6546
  52   0.0000       0.043790         1.1916
  53   0.0000       0.091885         2.5003
  54   0.0000       0.105266         2.8644
  55   0.0000       0.109429         2.9777
  56   0.0000       0.111187         3.0256

MULLIKEN ATOMIC CHARGES
-----------------------
   0 C :   -0.035954
   1 H :   -0.259316
   2 C :    1.875609
   3 C :    0.497040
   4 H :   -0.199855
   5 H :   -0.069749
   6 H :   -0.104989
   7 C :    0.641367
   8 H :    0.033395
   9 C :   -0.020169
  10 H :   -0.778226
  11 H :   -0.216517
  12 H :   -0.107253
  13 C :    0.668924
  14 C :   -0.035477
  15 H :   -0.108211
  16 H :    0.052729
  17 H :   -0.249636
  18 C :    0.302270
  19 H :   -0.012615
  20 H :   -0.057734
  21 H :   -0.545959
  22 C :    0.372612
  23 H :   -0.123365
  24 H :    0.085727
  25 C :    0.219321
  26 C :    0.670224
  27 H :    0.159431
  28 H :   -0.051284
  29 H :   -0.247110
  30 H :   -0.763655
  31 H :   -0.415255
  32 O :   -0.682843
  33 F :   -0.493477
Sum of atomic charges:   -0.0000000

LOEWDIN ATOMIC CHARGES
----------------------
   0 C :   -0.043295
   1 H :    0.018993
   2 C :    0.126279
   3 C :   -0.029312
   4 H :    0.005156
   5 H :    0.024049
   6 H :    0.016957
   7 C :   -0.013397
   8 H :    0.025772
   9 C :   -0.033376
  10 H :   -0.018141
  11 H :    0.024510
  12 H :    0.000236
  13 C :   -0.029968
  14 C :   -0.024408
  15 H :    0.023952
  16 H :    0.023165
  17 H :    0.029670
  18 C :   -0.024070
  19 H :   -0.003961
  20 H :    0.035813
  21 H :    0.000716
  22 C :   -0.010024
  23 H :    0.033499
  24 H :    0.030446
  25 C :    0.067937
  26 C :    0.065101
  27 H :    0.038003
  28 H :    0.049122
  29 H :   -0.019182
  30 H :   -0.130539
  31 H :   -0.074281
  32 O :   -0.160819
  33 F :   -0.024602

  Mayer bond orders larger than 0.100000
B(  0-C ,  1-H ) :   0.9081 B(  0-C ,  2-C ) :   0.8235 B(  0-C ,  3-C ) :   1.1698
B(  0-C ,  4-H ) :   0.7523 B(  0-C ,  5-H ) :   0.1625 B(  0-C ,  6-H ) :   0.1571
B(  0-C ,  7-C ) :   0.1436 B(  0-C , 10-H ) :  -0.1283 B(  0-C , 29-H ) :   0.1275
B(  0-C , 30-H ) :   0.5697 B(  0-C , 31-H ) :   0.3486 B(  1-H , 30-H ) :   0.1042
B(  2-C ,  4-H ) :   0.1835 B(  2-C , 29-H ) :   0.5452 B(  2-C , 30-H ) :  -0.2386
B(  2-C , 31-H ) :   0.1670 B(  3-C ,  4-H ) :   0.1153 B(  3-C ,  5-H ) :   0.7105
B(  3-C ,  6-H ) :   0.7458 B(  3-C ,  7-C ) :   1.1707 B(  3-C , 10-H ) :   0.1902
B(  3-C , 30-H ) :  -0.1490 B(  4-H , 12-H ) :   0.1018 B(  4-H , 21-H ) :   0.1696
B(  5-H ,  6-H ) :  -0.1263 B(  5-H ,  7-C ) :   0.1503 B(  5-H , 10-H ) :   0.1031
B(  6-H ,  7-C ) :   0.1375 B(  7-C ,  8-H ) :   0.6775 B(  7-C ,  9-C ) :   1.1009
B(  7-C , 10-H ) :   0.4304 B(  7-C , 11-H ) :   0.1830 B(  8-H ,  9-C ) :   0.1925
B(  9-C , 10-H ) :   0.2501 B(  9-C , 11-H ) :   0.9069 B(  9-C , 12-H ) :   0.9091
B(  9-C , 13-C ) :   1.1787 B(  9-C , 15-H ) :   0.1383 B(  9-C , 16-H ) :   0.2190
B( 10-H , 13-C ) :  -0.1008 B( 10-H , 19-H ) :   0.1209 B( 10-H , 30-H ) :   0.1074
B( 13-C , 14-C ) :   1.1254 B( 13-C , 15-H ) :   0.7018 B( 13-C , 16-H ) :   0.6986
B( 14-C , 15-H ) :   0.2691 B( 14-C , 17-H ) :   0.9499 B( 14-C , 18-C ) :   1.1464
B( 14-C , 19-H ) :   0.8795 B( 14-C , 20-H ) :   0.1678 B( 14-C , 21-H ) :   0.2374
B( 15-H , 16-H ) :  -0.1198 B( 17-H , 18-C ) :   0.1517 B( 18-C , 19-H ) :   0.1003
B( 18-C , 20-H ) :   0.7232 B( 18-C , 21-H ) :   0.6898 B( 18-C , 22-C ) :   1.2377
B( 18-C , 23-H ) :   0.1502 B( 18-C , 24-H ) :   0.2333 B( 20-H , 21-H ) :   0.1349
B( 21-H , 22-C ) :   0.1163 B( 22-C , 23-H ) :   0.8405 B( 22-C , 24-H ) :   0.7064
B( 22-C , 25-C ) :   1.1510 B( 22-C , 28-H ) :   0.1613 B( 23-H , 24-H ) :  -0.1256
B( 23-H , 25-C ) :   0.1204 B( 25-C , 26-C ) :   1.1955 B( 25-C , 27-H ) :   0.8339
B( 25-C , 28-H ) :   0.7004 B( 26-C , 27-H ) :   0.1198 B( 26-C , 28-H ) :   0.2674
B( 26-C , 32-O ) :   1.6471 B( 26-C , 33-F ) :   0.5258 B( 29-H , 30-H ) :   0.2028
B( 30-H , 31-H ) :   0.4521 B( 30-H , 32-O ) :   0.2031 B( 31-H , 33-F ) :   0.2269
B( 32-O , 33-F ) :   0.1124

Dispersion correction           -0.017268117
FINAL SINGLE POINT ENERGY      -606.294066633703

DIPOLE MOMENT
-------------
                                X             Y             Z
Electronic contribution:     -9.33701       2.68483       9.44026
Nuclear contribution   :      8.07181      -4.09641      -9.21610
                        -----------------------------------------
Total Dipole Moment    :     -1.26520      -1.41158       0.22416
                        -----------------------------------------
Magnitude (a.u.)       :      1.90881
Magnitude (Debye)      :      4.85181

Rotational constants in cm-1:     0.028400     0.023377     0.015073
Rotational constants in MHz :   851.414727   700.831775   451.871218

                             ****ORCA TERMINATED NORMALLY****
TOTAL RUN TIME: 0 days 0 hours 1 minutes 20 seconds 734 msec
