                         Program Version 5.0.0 -  RELEASE  -
|  1> !CAM-B3LYP RIJCOSX def2-TZVP def2/J TightSCF
|  2>
|  3> *xyz -1 1
|  4> C          2.95263        1.86308       -3.57485
|  5> C          4.12921        0.89839       -3.41895
|  6> H          3.73369       -0.10060       -3.23763
|  7> H          4.71910        0.86256       -4.33901
|  8> C          5.01734        1.31521       -2.22130
|  9> O          4.73706        0.85411       -1.12283
| 10> O          5.92815        2.16811       -2.49136
| 11> H          2.35067        1.56005       -4.40594
| 12> H          3.32277        2.85258       -3.74453
| 13> H          2.36134        1.85149       -2.68315
| 14> *
| 15> %MaxCore 64000
| 16>
| 17> %pal nprocs 4
| 18> end
| 19>
| 20> %scf
| 21>   MaxIter 150
| 22> end
| 23>
| 24>
| 25>                          ****END OF INPUT****

CARTESIAN COORDINATES (ANGSTROEM)
---------------------------------
  C      2.952630    1.863080   -3.574850
  C      4.129210    0.898390   -3.418950
  H      3.733690   -0.100600   -3.237630
  H      4.719100    0.862560   -4.339010
  C      5.017340    1.315210   -2.221300
  O      4.737060    0.854110   -1.122830
  O      5.928150    2.168110   -2.491360
  H      2.350670    1.560050   -4.405940
  H      3.322770    2.852580   -3.744530
  H      2.361340    1.851490   -2.683150

 Total Charge           Charge          ....   -1
 Multiplicity           Mult            ....    1
 Number of Electrons    NEL             ....   40
 Basis Dimension        Dim             ....  185

ORBITAL ENERGIES
----------------

  NO   OCC          E(Eh)            E(eV)
   0   2.0000     -18.928056      -515.0586
   1   2.0000     -18.916253      -514.7374
   2   2.0000     -10.120260      -275.3863
   3   2.0000     -10.077518      -274.2232
   4   2.0000     -10.062188      -273.8061
   5   2.0000      -0.899239       -24.4695
   6   2.0000      -0.800452       -21.7814
   7   2.0000      -0.684757       -18.6332
   8   2.0000      -0.544918       -14.8280
   9   2.0000      -0.389303       -10.5935
  10   2.0000      -0.358489        -9.7550
  11   2.0000      -0.325848        -8.8668
  12   2.0000      -0.294455        -8.0125
  13   2.0000      -0.274669        -7.4741
  14   2.0000      -0.274357        -7.4656
  15   2.0000      -0.239512        -6.5175
  16   2.0000      -0.228420        -6.2156
  17   2.0000      -0.104380        -2.8403
  18   2.0000      -0.097560        -2.6547
  19   2.0000      -0.087108        -2.3703
  20   0.0000       0.220899         6.0110
  21   0.0000       0.261836         7.1249
  22   0.0000       0.283784         7.7222
  23   0.0000       0.287805         7.8316
  24   0.0000       0.316443         8.6108

MULLIKEN ATOMIC CHARGES
-----------------------
   0 C :   -0.350221
   1 C :   -0.129463
   2 H :    0.030955
   3 H :    0.037305
   4 C :    0.197074
   5 O :   -0.477012
   6 O :   -0.560886
   7 H :    0.058221
   8 H :    0.097750
   9 H :    0.096278
Sum of atomic charges:   -1.0000000

LOEWDIN ATOMIC CHARGES
----------------------
   0 C :   -0.324236
   1 C :   -0.289432
   2 H :    0.113706
   3 H :    0.114672
   4 C :   -0.704884
   5 O :   -0.067961
   6 O :   -0.156864
   7 H :    0.093819
   8 H :    0.110868
   9 H :    0.110311

  Mayer bond orders larger than 0.100000
B(  0-C ,  1-C ) :   0.9524 B(  0-C ,  7-H ) :   0.9782 B(  0-C ,  8-H ) :   0.9818
B(  0-C ,  9-H ) :   0.9842 B(  1-C ,  2-H ) :   0.9570 B(  1-C ,  3-H ) :   0.9607
B(  1-C ,  4-C ) :   0.9123 B(  4-C ,  5-O ) :   1.9267 B(  4-C ,  6-O ) :   1.8467

FINAL SINGLE POINT ENERGY      -267.829432042395

DIPOLE MOMENT
-------------
                                X             Y             Z
Electronic contribution:      4.43907      -0.18775       3.91689
Nuclear contribution   :     -5.85873      -0.10793      -5.24103
                        -----------------------------------------
Total Dipole Moment    :     -1.41966      -0.29568      -1.32414
                        -----------------------------------------
Magnitude (a.u.)       :      1.96372
Magnitude (Debye)      :      4.99137

Rotational constants in cm-1:     0.292505     0.135951     0.110253
Rotational constants in MHz :  8769.065873  4075.717001  3305.311891

                             ****ORCA TERMINATED NORMALLY****
TOTAL RUN TIME: 0 days 0 hours 0 minutes 26 seconds 848 msec
