                         Program Version 5.0.0 -  RELEASE  -
|  1> !CAM-B3LYP RIJCOSX def2-TZVP def2/J TightSCF
|  2>
|  3> *xyz 1 1
|  4> C          3.34350        3.35457       -3.59200
|  5> C          2.95263        1.86308       -3.57485
|  6> C          4.25587        3.70385       -4.72605
|  7> N          3.73403        4.29378       -5.80077
|  8> N          5.51504        3.40725       -4.63718
|  9> H          6.14919        3.60120       -5.39905
| 10> H          5.81358        2.89950       -3.80879
| 11> H          2.74138        4.51311       -5.82470
| 12> H          4.28755        4.52126       -6.61434
| 13> H          3.86125        3.59725       -2.66298
| 14> H          2.44649        3.97346       -3.65656
| 15> H          2.44395        1.61721       -4.48352
| 16> H          2.30781        1.67290       -2.74242
| 17> H          3.83491        1.26414       -3.48670
| 18> *
| 19> %MaxCore 64000
| 20>
| 21> %pal nprocs 4
| 22> end
| 23>
| 24> %scf
| 25>   MaxIter 150
| 26> end
| 27>
| 28>
| 29>                          ****END OF INPUT****

CARTESIAN COORDINATES (ANGSTROEM)
---------------------------------
  C      3.343500    3.354570   -3.592000
  C      2.952630    1.863080   -3.574850
  C      4.255870    3.703850   -4.726050
  N      3.734030    4.293780   -5.800770
  N      5.515040    3.407250   -4.637180
  H      6.149190    3.601200   -5.399050
  H      5.813580    2.899500   -3.808790
  H      2.741380    4.513110   -5.824700
  H      4.287550    4.521260   -6.614340
  H      3.861250    3.597250   -2.662980
  H      2.446490    3.973460   -3.656560
  H      2.443950    1.617210   -4.483520
  H      2.307810    1.672900   -2.742420
  H      3.834910    1.264140   -3.486700

 Total Charge           Charge          ....    1
 Multiplicity           Mult            ....    1
 Number of Electrons    NEL             ....   40
 Basis Dimension        Dim             ....  209

ORBITAL ENERGIES
----------------

  NO   OCC          E(Eh)            E(eV)
   0   2.0000     -14.637739      -398.3131
   1   2.0000     -14.632855      -398.1802
   2   2.0000     -10.569678      -287.6156
   3   2.0000     -10.442548      -284.1562
   4   2.0000     -10.398290      -282.9518
   5   2.0000      -1.289739       -35.0956
   6   2.0000      -1.192632       -32.4532
   7   2.0000      -1.051738       -28.6193
   8   2.0000      -0.939375       -25.5617
   9   2.0000      -0.892355       -24.2822
  10   2.0000      -0.851082       -23.1591
  11   2.0000      -0.824836       -22.4449
  12   2.0000      -0.772327       -21.0161
  13   2.0000      -0.720653       -19.6100
  14   2.0000      -0.694692       -18.9035
  15   2.0000      -0.682831       -18.5808
  16   2.0000      -0.611149       -16.6302
  17   2.0000      -0.603002       -16.4085
  18   2.0000      -0.595309       -16.1992
  19   2.0000      -0.557555       -15.1719
  20   0.0000      -0.158103        -4.3022
  21   0.0000      -0.123239        -3.3535
  22   0.0000      -0.077541        -2.1100
  23   0.0000      -0.074653        -2.0314
  24   0.0000      -0.044123        -1.2006

MULLIKEN ATOMIC CHARGES
-----------------------
   0 C :   -0.286819
   1 C :   -0.334160
   2 C :    0.334130
   3 N :   -0.348816
   4 N :   -0.302010
   5 H :    0.281131
   6 H :    0.300051
   7 H :    0.297924
   8 H :    0.278918
   9 H :    0.174814
  10 H :    0.151774
  11 H :    0.144921
  12 H :    0.175113
  13 H :    0.133028
Sum of atomic charges:    1.0000000

LOEWDIN ATOMIC CHARGES
----------------------
   0 C :   -0.220052
   1 C :   -0.259953
   2 C :   -0.285646
   3 N :    0.098645
   4 N :    0.126807
   5 H :    0.202639
   6 H :    0.216554
   7 H :    0.209253
   8 H :    0.195291
   9 H :    0.165133
  10 H :    0.159819
  11 H :    0.128717
  12 H :    0.138844
  13 H :    0.123949

  Mayer bond orders larger than 0.100000
B(  0-C ,  1-C ) :   0.9328 B(  0-C ,  2-C ) :   0.9540 B(  0-C ,  9-H ) :   0.9577
B(  0-C , 10-H ) :   0.9714 B(  1-C , 11-H ) :   0.9627 B(  1-C , 12-H ) :   0.9693
B(  1-C , 13-H ) :   0.9687 B(  2-C ,  3-N ) :   1.4335 B(  2-C ,  4-N ) :   1.4753
B(  3-N ,  7-H ) :   0.8892 B(  3-N ,  8-H ) :   0.8958 B(  4-N ,  5-H ) :   0.8930
B(  4-N ,  6-H ) :   0.8867

FINAL SINGLE POINT ENERGY      -228.997564592303

DIPOLE MOMENT
-------------
                                X             Y             Z
Electronic contribution:      2.37963       2.58156      -2.28449
Nuclear contribution   :     -1.74195      -2.09431       1.58516
                        -----------------------------------------
Total Dipole Moment    :      0.63769       0.48725      -0.69933
                        -----------------------------------------
Magnitude (a.u.)       :      1.06448
Magnitude (Debye)      :      2.70570

Rotational constants in cm-1:     0.258965     0.126500     0.098780
Rotational constants in MHz :  7763.584551  3792.383135  2961.336502

                             ****ORCA TERMINATED NORMALLY****
TOTAL RUN TIME: 0 days 0 hours 0 minutes 36 seconds 149 msec
