                         Program Version 5.0.0 -  RELEASE  -
|  1> !CAM-B3LYP RIJCOSX def2-TZVP def2/J TightSCF
|  2>
|  3> *xyz 0 1
|  4> C          2.95263        1.86308       -3.57485
|  5> C          4.12921        0.89839       -3.41895
|  6> H          3.73369       -0.10060       -3.23763
|  7> H          4.71910        0.86256       -4.33901
|  8> C          5.01734        1.31521       -2.22130
|  9> F          4.73706        0.85411       -1.12283
| 10> O          5.92815        2.16811       -2.49136
| 11> H          2.35067        1.56005       -4.40594
| 12> H          3.32277        2.85258       -3.74453
| 13> H          2.36134        1.85149       -2.68315
| 14> *
| 15> %MaxCore 64000
| 16>
| 17> %pal nprocs 4
| 18> end
| 19>
| 20> %scf
| 21>   MaxIter 150
| 22> end
| 23>
| 24>
| 25>                          ****END OF INPUT****

CARTESIAN COORDINATES (ANGSTROEM)
---------------------------------
  C      2.952630    1.863080   -3.574850
  C      4.129210    0.898390   -3.418950
  H      3.733690   -0.100600   -3.237630
  H      4.719100    0.862560   -4.339010
  C      5.017340    1.315210   -2.221300
  F      4.737060    0.854110   -1.122830
  O      5.928150    2.168110   -2.491360
  H      2.350670    1.560050   -4.405940
  H      3.322770    2.852580   -3.744530
  H      2.361340    1.851490   -2.683150

 Total Charge           Charge          ....    0
 Multiplicity           Mult            ....    1
 Number of Electrons    NEL             ....   40
 Basis Dimension        Dim             ....  185

ORBITAL ENERGIES
----------------

  NO   OCC          E(Eh)            E(eV)
   0   2.0000     -24.840764      -675.9516
   1   2.0000     -19.200968      -522.4849
   2   2.0000     -10.428960      -283.7864
   3   2.0000     -10.274949      -279.5956
   4   2.0000     -10.250549      -278.9316
   5   2.0000      -1.428089       -38.8603
   6   2.0000      -1.102300       -29.9951
   7   2.0000      -0.885058       -24.0837
   8   2.0000      -0.773020       -21.0349
   9   2.0000      -0.726972       -19.7819
  10   2.0000      -0.640198       -17.4207
  11   2.0000      -0.625816       -17.0293
  12   2.0000      -0.580571       -15.7981
  13   2.0000      -0.536849       -14.6084
  14   2.0000      -0.505823       -13.7641
  15   2.0000      -0.468050       -12.7363
  16   2.0000      -0.446537       -12.1509
  17   2.0000      -0.439506       -11.9596
  18   2.0000      -0.409284       -11.1372
  19   2.0000      -0.353399        -9.6165
  20   0.0000       0.021218         0.5774
  21   0.0000       0.070648         1.9224
  22   0.0000       0.109458         2.9785
  23   0.0000       0.127019         3.4564
  24   0.0000       0.140359         3.8194

MULLIKEN ATOMIC CHARGES
-----------------------
   0 C :   -0.368952
   1 C :   -0.205130
   2 H :    0.109138
   3 H :    0.133471
   4 C :    0.367015
   5 F :   -0.071234
   6 O :   -0.350559
   7 H :    0.126170
   8 H :    0.139109
   9 H :    0.120971
Sum of atomic charges:   -0.0000000

LOEWDIN ATOMIC CHARGES
----------------------
   0 C :   -0.291328
   1 C :   -0.256972
   2 H :    0.137315
   3 H :    0.149485
   4 C :   -0.507393
   5 F :    0.375551
   6 O :    0.028535
   7 H :    0.120819
   8 H :    0.124557
   9 H :    0.119431

  Mayer bond orders larger than 0.100000
B(  0-C ,  1-C ) :   0.9450 B(  0-C ,  7-H ) :   0.9755 B(  0-C ,  8-H ) :   0.9733
B(  0-C ,  9-H ) :   0.9745 B(  1-C ,  2-H ) :   0.9579 B(  1-C ,  3-H ) :   0.9632
B(  1-C ,  4-C ) :   0.9691 B(  4-C ,  5-F ) :   1.1935 B(  4-C ,  6-O ) :   2.0478

FINAL SINGLE POINT ENERGY      -292.390686802582

DIPOLE MOMENT
-------------
                                X             Y             Z
Electronic contribution:      5.04755      -1.18810       6.51842
Nuclear contribution   :     -6.06116       0.51860      -6.80802
                        -----------------------------------------
Total Dipole Moment    :     -1.01361      -0.66950      -0.28960
                        -----------------------------------------
Magnitude (a.u.)       :      1.24880
Magnitude (Debye)      :      3.17420

Rotational constants in cm-1:     0.276196     0.132056     0.105465
Rotational constants in MHz :  8280.156449  3958.940601  3161.775929

                             ****ORCA TERMINATED NORMALLY****
TOTAL RUN TIME: 0 days 0 hours 0 minutes 27 seconds 50 msec
