                         Program Version 5.0.0 -  RELEASE  -
|  1> !CAM-B3LYP RIJCOSX def2-TZVP def2/J TightSCF
|  2>
|  3> *xyz 0 1
|  4> C          3.34350        3.35457       -3.59200
|  5> C          2.95263        1.86308       -3.57485
|  6> C          4.25587        3.70385       -4.72605
|  7> C          3.73403        4.29378       -5.80077
|  8> N          5.51504        3.40725       -4.63718
|  9> H          6.14919        3.60120       -5.39905
| 10> H          5.81358        2.89950       -3.80879
| 11> H          2.74138        4.51311       -5.82470
| 12> H          4.28755        4.52126       -6.61434
| 13> H          3.86125        3.59725       -2.66298
| 14> H          2.44649        3.97346       -3.65656
| 15> H          2.44395        1.61721       -4.48352
| 16> H          2.30781        1.67290       -2.74242
| 17> H          3.83491        1.26414       -3.48670
| 18> *
| 19> %MaxCore 64000
| 20>
| 21> %pal nprocs 4
| 22> end
| 23>
| 24> %scf
| 25>   MaxIter 150
| 26> end
| 27>
| 28>
| 29>                          ****END OF INPUT****

CARTESIAN COORDINATES (ANGSTROEM)
---------------------------------
  C      3.343500    3.354570   -3.592000
  C      2.952630    1.863080   -3.574850
  C      4.255870    3.703850   -4.726050
  C      3.734030    4.293780   -5.800770
  N      5.515040    3.407250   -4.637180
  H      6.149190    3.601200   -5.399050
  H      5.813580    2.899500   -3.808790
  H      2.741380    4.513110   -5.824700
  H      4.287550    4.521260   -6.614340
  H      3.861250    3.597250   -2.662980
  H      2.446490    3.973460   -3.656560
  H      2.443950    1.617210   -4.483520
  H      2.307810    1.672900   -2.742420
  H      3.834910    1.264140   -3.486700

 Total Charge           Charge          ....    0
 Multiplicity           Mult            ....    1
 Number of Electrons    NEL             ....   40
 Basis Dimension        Dim             ....  209

ORBITAL ENERGIES
----------------

  NO   OCC          E(Eh)            E(eV)
   0   2.0000     -14.390140      -391.5756
   1   2.0000     -10.263345      -279.2798
   2   2.0000     -10.242172      -278.7037
   3   2.0000     -10.228132      -278.3216
   4   2.0000     -10.171469      -276.7798
   5   2.0000      -1.020206       -27.7612
   6   2.0000      -0.860363       -23.4117
   7   2.0000      -0.793838       -21.6014
   8   2.0000      -0.714086       -19.4313
   9   2.0000      -0.643400       -17.5078
  10   2.0000      -0.603474       -16.4213
  11   2.0000      -0.550294       -14.9743
  12   2.0000      -0.507204       -13.8017
  13   2.0000      -0.490202       -13.3391
  14   2.0000      -0.460732       -12.5371
  15   2.0000      -0.449613       -12.2346
  16   2.0000      -0.419714       -11.4210
  17   2.0000      -0.398733       -10.8501
  18   2.0000      -0.396955       -10.8017
  19   2.0000      -0.244631        -6.6567
  20   0.0000       0.060309         1.6411
  21   0.0000       0.091476         2.4892
  22   0.0000       0.106598         2.9007
  23   0.0000       0.116122         3.1598
  24   0.0000       0.124735         3.3942

MULLIKEN ATOMIC CHARGES
-----------------------
   0 C :   -0.243955
   1 C :   -0.320678
   2 C :    0.232212
   3 C :   -0.436823
   4 N :   -0.418398
   5 H :    0.228084
   6 H :    0.226032
   7 H :    0.093286
   8 H :    0.089577
   9 H :    0.098038
  10 H :    0.114906
  11 H :    0.123865
  12 H :    0.115662
  13 H :    0.098191
Sum of atomic charges:   -0.0000000

LOEWDIN ATOMIC CHARGES
----------------------
   0 C :   -0.237030
   1 C :   -0.292819
   2 C :   -0.372614
   3 C :   -0.285509
   4 N :    0.012503
   5 H :    0.175760
   6 H :    0.175412
   7 H :    0.104214
   8 H :    0.093623
   9 H :    0.134391
  10 H :    0.146741
  11 H :    0.119341
  12 H :    0.114456
  13 H :    0.111531

  Mayer bond orders larger than 0.100000
B(  0-C ,  1-C ) :   0.9353 B(  0-C ,  2-C ) :   0.9375 B(  0-C ,  9-H ) :   0.9831
B(  0-C , 10-H ) :   0.9915 B(  1-C , 11-H ) :   0.9788 B(  1-C , 12-H ) :   0.9808
B(  1-C , 13-H ) :   0.9760 B(  2-C ,  3-C ) :   1.7269 B(  2-C ,  4-N ) :   1.1830
B(  3-C ,  7-H ) :   1.0002 B(  3-C ,  8-H ) :   0.9951 B(  4-N ,  5-H ) :   0.9231
B(  4-N ,  6-H ) :   0.9277

FINAL SINGLE POINT ENERGY      -212.523953313573

DIPOLE MOMENT
-------------
                                X             Y             Z
Electronic contribution:      2.35458       1.46609      -0.84089
Nuclear contribution   :     -1.79713      -1.86925       1.28073
                        -----------------------------------------
Total Dipole Moment    :      0.55745      -0.40316       0.43984
                        -----------------------------------------
Magnitude (a.u.)       :      0.81655
Magnitude (Debye)      :      2.07551

Rotational constants in cm-1:     0.269040     0.129645     0.102087
Rotational constants in MHz :  8065.609820  3886.645139  3060.489045

                             ****ORCA TERMINATED NORMALLY****
TOTAL RUN TIME: 0 days 0 hours 0 minutes 37 seconds 865 msec
