                         Program Version 5.0.0 -  RELEASE  -
|  1> !CAM-B3LYP RIJCOSX def2-TZVP def2/J TightSCF
|  2>
|  3> *xyz 0 1
|  4> C          2.95263        1.86308       -3.57485
|  5> C          4.12921        0.89839       -3.41895
|  6> H          3.73369       -0.10060       -3.23763
|  7> H          4.71910        0.86256       -4.33901
|  8> C          5.01734        1.31521       -2.22130
|  9> O          4.73706        0.85411       -1.12283
| 10> F          5.92815        2.16811       -2.49136
| 11> H          2.35067        1.56005       -4.40594
| 12> H          3.32277        2.85258       -3.74453
| 13> H          2.36134        1.85149       -2.68315
| 14> *
| 15> %MaxCore 64000
| 16>
| 17> %pal nprocs 4
| 18> end
| 19>
| 20> %scf
| 21>   MaxIter 150
| 22> end
| 23>
| 24>
| 25>                          ****END OF INPUT****

CARTESIAN COORDINATES (ANGSTROEM)
---------------------------------
  C      2.952630    1.863080   -3.574850
  C      4.129210    0.898390   -3.418950
  H      3.733690   -0.100600   -3.237630
  H      4.719100    0.862560   -4.339010
  C      5.017340    1.315210   -2.221300
  O      4.737060    0.854110   -1.122830
  F      5.928150    2.168110   -2.491360
  H      2.350670    1.560050   -4.405940
  H      3.322770    2.852580   -3.744530
  H      2.361340    1.851490   -2.683150

 Total Charge           Charge          ....    0
 Multiplicity           Mult            ....    1
 Number of Electrons    NEL             ....   40
 Basis Dimension        Dim             ....  185

ORBITAL ENERGIES
----------------

  NO   OCC          E(Eh)            E(eV)
   0   2.0000     -24.819594      -675.3755
   1   2.0000     -19.210813      -522.7528
   2   2.0000     -10.424449      -283.6637
   3   2.0000     -10.274562      -279.5850
   4   2.0000     -10.250830      -278.9393
   5   2.0000      -1.387521       -37.7564
   6   2.0000      -1.136463       -30.9247
   7   2.0000      -0.884827       -24.0774
   8   2.0000      -0.762117       -20.7383
   9   2.0000      -0.713445       -19.4138
  10   2.0000      -0.619513       -16.8578
  11   2.0000      -0.605469       -16.4757
  12   2.0000      -0.580666       -15.8007
  13   2.0000      -0.536161       -14.5897
  14   2.0000      -0.509639       -13.8680
  15   2.0000      -0.472652       -12.8615
  16   2.0000      -0.454642       -12.3714
  17   2.0000      -0.439445       -11.9579
  18   2.0000      -0.426312       -11.6005
  19   2.0000      -0.364175        -9.9097
  20   0.0000       0.026521         0.7217
  21   0.0000       0.071225         1.9381
  22   0.0000       0.109462         2.9786
  23   0.0000       0.127458         3.4683
  24   0.0000       0.141460         3.8493

MULLIKEN ATOMIC CHARGES
-----------------------
   0 C :   -0.370964
   1 C :   -0.207629
   2 H :    0.128438
   3 H :    0.115572
   4 C :    0.352774
   5 O :   -0.284949
   6 F :   -0.120249
   7 H :    0.126532
   8 H :    0.123707
   9 H :    0.136768
Sum of atomic charges:    0.0000000

LOEWDIN ATOMIC CHARGES
----------------------
   0 C :   -0.291694
   1 C :   -0.255769
   2 H :    0.148846
   3 H :    0.138579
   4 C :   -0.497977
   5 O :    0.104401
   6 F :    0.288735
   7 H :    0.120905
   8 H :    0.119893
   9 H :    0.124080

  Mayer bond orders larger than 0.100000
B(  0-C ,  1-C ) :   0.9453 B(  0-C ,  7-H ) :   0.9757 B(  0-C ,  8-H ) :   0.9751
B(  0-C ,  9-H ) :   0.9734 B(  1-C ,  2-H ) :   0.9652 B(  1-C ,  3-H ) :   0.9575
B(  1-C ,  4-C ) :   0.9706 B(  4-C ,  5-O ) :   2.1160 B(  4-C ,  6-F ) :   1.1374

FINAL SINGLE POINT ENERGY      -292.407345076048

DIPOLE MOMENT
-------------
                                X             Y             Z
Electronic contribution:      7.03534       1.00577       4.22470
Nuclear contribution   :     -7.35982      -0.91407      -5.31589
                        -----------------------------------------
Total Dipole Moment    :     -0.32448       0.09170      -1.09120
                        -----------------------------------------
Magnitude (a.u.)       :      1.14211
Magnitude (Debye)      :      2.90300

Rotational constants in cm-1:     0.275433     0.132201     0.105422
Rotational constants in MHz :  8257.268192  3963.279062  3160.465566

                             ****ORCA TERMINATED NORMALLY****
TOTAL RUN TIME: 0 days 0 hours 0 minutes 27 seconds 44 msec
