                         Program Version 5.0.0 -  RELEASE  -
|  1> !CAM-B3LYP RIJCOSX def2-TZVP def2/J TightSCF
|  2>
|  3> *xyz 0 1
|  4> C          3.34350        3.35457       -3.59200
|  5> C          2.95263        1.86308       -3.57485
|  6> C          4.25587        3.70385       -4.72605
|  7> N          3.73403        4.29378       -5.80077
|  8> C          5.51504        3.40725       -4.63718
|  9> H          6.14919        3.60120       -5.39905
| 10> H          5.81358        2.89950       -3.80879
| 11> H          2.74138        4.51311       -5.82470
| 12> H          4.28755        4.52126       -6.61434
| 13> H          3.86125        3.59725       -2.66298
| 14> H          2.44649        3.97346       -3.65656
| 15> H          2.44395        1.61721       -4.48352
| 16> H          2.30781        1.67290       -2.74242
| 17> H          3.83491        1.26414       -3.48670
| 18> *
| 19> %MaxCore 64000
| 20>
| 21> %pal nprocs 4
| 22> end
| 23>
| 24> %scf
| 25>   MaxIter 150
| 26> end
| 27>
| 28>
| 29>                          ****END OF INPUT****

CARTESIAN COORDINATES (ANGSTROEM)
---------------------------------
  C      3.343500    3.354570   -3.592000
  C      2.952630    1.863080   -3.574850
  C      4.255870    3.703850   -4.726050
  N      3.734030    4.293780   -5.800770
  C      5.515040    3.407250   -4.637180
  H      6.149190    3.601200   -5.399050
  H      5.813580    2.899500   -3.808790
  H      2.741380    4.513110   -5.824700
  H      4.287550    4.521260   -6.614340
  H      3.861250    3.597250   -2.662980
  H      2.446490    3.973460   -3.656560
  H      2.443950    1.617210   -4.483520
  H      2.307810    1.672900   -2.742420
  H      3.834910    1.264140   -3.486700

 Total Charge           Charge          ....    0
 Multiplicity           Mult            ....    1
 Number of Electrons    NEL             ....   40
 Basis Dimension        Dim             ....  209

ORBITAL ENERGIES
----------------

  NO   OCC          E(Eh)            E(eV)
   0   2.0000     -14.385707      -391.4550
   1   2.0000     -10.260513      -279.2028
   2   2.0000     -10.241617      -278.6886
   3   2.0000     -10.225902      -278.2609
   4   2.0000     -10.170002      -276.7398
   5   2.0000      -1.005124       -27.3508
   6   2.0000      -0.862711       -23.4756
   7   2.0000      -0.797718       -21.7070
   8   2.0000      -0.715208       -19.4618
   9   2.0000      -0.636590       -17.3225
  10   2.0000      -0.590851       -16.0779
  11   2.0000      -0.553980       -15.0746
  12   2.0000      -0.509050       -13.8519
  13   2.0000      -0.483056       -13.1446
  14   2.0000      -0.460693       -12.5361
  15   2.0000      -0.450140       -12.2489
  16   2.0000      -0.415043       -11.2939
  17   2.0000      -0.402636       -10.9563
  18   2.0000      -0.393225       -10.7002
  19   2.0000      -0.249577        -6.7913
  20   0.0000       0.063455         1.7267
  21   0.0000       0.090161         2.4534
  22   0.0000       0.109013         2.9664
  23   0.0000       0.112941         3.0733
  24   0.0000       0.128901         3.5076

MULLIKEN ATOMIC CHARGES
-----------------------
   0 C :   -0.236791
   1 C :   -0.323452
   2 C :    0.267488
   3 N :   -0.463174
   4 C :   -0.426500
   5 H :    0.089503
   6 H :    0.097880
   7 H :    0.223216
   8 H :    0.224248
   9 H :    0.122552
  10 H :    0.084295
  11 H :    0.108995
  12 H :    0.111966
  13 H :    0.119773
Sum of atomic charges:   -0.0000000

LOEWDIN ATOMIC CHARGES
----------------------
   0 C :   -0.235711
   1 C :   -0.290153
   2 C :   -0.361796
   3 N :   -0.014214
   4 C :   -0.270390
   5 H :    0.099444
   6 H :    0.111488
   7 H :    0.167494
   8 H :    0.167850
   9 H :    0.147456
  10 H :    0.131745
  11 H :    0.115680
  12 H :    0.113012
  13 H :    0.118096

  Mayer bond orders larger than 0.100000
B(  0-C ,  1-C ) :   0.9427 B(  0-C ,  2-C ) :   0.9140 B(  0-C ,  9-H ) :   0.9930
B(  0-C , 10-H ) :   0.9887 B(  1-C , 11-H ) :   0.9780 B(  1-C , 12-H ) :   0.9808
B(  1-C , 13-H ) :   0.9781 B(  2-C ,  3-N ) :   1.1355 B(  2-C ,  4-C ) :   1.7595
B(  3-N ,  7-H ) :   0.9296 B(  3-N ,  8-H ) :   0.9257 B(  4-C ,  5-H ) :   0.9959
B(  4-C ,  6-H ) :   1.0005

FINAL SINGLE POINT ENERGY      -212.524449962569

DIPOLE MOMENT
-------------
                                X             Y             Z
Electronic contribution:      0.75706       2.27930      -1.87646
Nuclear contribution   :     -1.38463      -2.07457       1.55023
                        -----------------------------------------
Total Dipole Moment    :     -0.62757       0.20473      -0.32623
                        -----------------------------------------
Magnitude (a.u.)       :      0.73633
Magnitude (Debye)      :      1.87160

Rotational constants in cm-1:     0.272312     0.128195     0.101724
Rotational constants in MHz :  8163.717141  3843.180148  3049.598073

                             ****ORCA TERMINATED NORMALLY****
TOTAL RUN TIME: 0 days 0 hours 0 minutes 37 seconds 844 msec
