                         Program Version 5.0.0 -  RELEASE  -
|  1> !CAM-B3LYP RIJCOSX def2-TZVP def2/J TightSCF xyzfile
|  2>
|  3> *xyzfile 0 1 D1.xyz
|  4>
|  5> %MaxCore 64000
|  6>
|  7> %pal nprocs 18
|  8> end
|  9>
| 10> %scf
| 11>   MaxIter 150
| 12> end
| 13>
| 14>
| 15>                          ****END OF INPUT****

CARTESIAN COORDINATES (ANGSTROEM)
---------------------------------
  C      3.343500    3.354571   -3.591998
  C      2.952633    1.863077   -3.574849
  C      4.129209    0.898394   -3.418950
  H      3.733687   -0.100605   -3.237633
  H      4.719095    0.862556   -4.339005
  C      5.017344    1.315212   -2.221305
  C      4.255868    3.703851   -4.726054
  C      3.734032    4.293783   -5.800770
  N      5.515039    3.407255   -4.637185
  H      6.149187    3.601203   -5.399053
  H      5.813584    2.899504   -3.808785
  H      2.741380    4.513109   -5.824701
  H      4.287548    4.521260   -6.614341
  H      2.278938    1.735250   -2.725496
  H      2.377466    1.625787   -4.475869
  F      4.737055    0.854112   -1.122825
  O      5.928146    2.168108   -2.491365
  H      3.861246    3.597252   -2.662979
  H      2.446493    3.973461   -3.656556

 Total Charge           Charge          ....    0
 Multiplicity           Mult            ....    1
 Number of Electrons    NEL             ....   70
 Basis Dimension        Dim             ....  339

ORBITAL ENERGIES
----------------

  NO   OCC          E(Eh)            E(eV)
   0   2.0000     -24.863950      -676.5825
   1   2.0000     -19.230589      -523.2909
   2   2.0000     -14.351942      -390.5362
   3   2.0000     -10.458325      -284.5855
   4   2.0000     -10.284701      -279.8609
   5   2.0000     -10.266638      -279.3694
   6   2.0000     -10.253717      -279.0178
   7   2.0000     -10.245031      -278.7815
   8   2.0000     -10.161390      -276.5055
   9   2.0000      -1.450428       -39.4681
  10   2.0000      -1.142422       -31.0869
  11   2.0000      -0.998782       -27.1782
  12   2.0000      -0.907615       -24.6975
  13   2.0000      -0.833238       -22.6735
  14   2.0000      -0.790899       -21.5215
  15   2.0000      -0.759069       -20.6553
  16   2.0000      -0.709745       -19.3131
  17   2.0000      -0.662826       -18.0364
  18   2.0000      -0.653194       -17.7743
  19   2.0000      -0.622899       -16.9499
  20   2.0000      -0.620173       -16.8758
  21   2.0000      -0.579526       -15.7697
  22   2.0000      -0.556609       -15.1461
  23   2.0000      -0.530444       -14.4341
  24   2.0000      -0.513523       -13.9737
  25   2.0000      -0.500896       -13.6301
  26   2.0000      -0.462340       -12.5809
  27   2.0000      -0.452485       -12.3128
  28   2.0000      -0.442212       -12.0332
  29   2.0000      -0.440223       -11.9791
  30   2.0000      -0.423888       -11.5346
  31   2.0000      -0.394484       -10.7345
  32   2.0000      -0.388415       -10.5693
  33   2.0000      -0.372143       -10.1265
  34   2.0000      -0.230205        -6.2642
  35   0.0000      -0.005690        -0.1548
  36   0.0000       0.064824         1.7639
  37   0.0000       0.089999         2.4490
  38   0.0000       0.101037         2.7494
  39   0.0000       0.107137         2.9153

MULLIKEN ATOMIC CHARGES
-----------------------
   0 C :   -0.296625
   1 C :   -0.199122
   2 C :   -0.273685
   3 H :    0.131586
   4 H :    0.162287
   5 C :    0.387374
   6 C :    0.220133
   7 C :   -0.447271
   8 N :   -0.442543
   9 H :    0.207400
  10 H :    0.272639
  11 H :    0.084362
  12 H :    0.087210
  13 H :    0.115547
  14 H :    0.127729
  15 F :   -0.055701
  16 O :   -0.345670
  17 H :    0.139088
  18 H :    0.125260
Sum of atomic charges:    0.0000000

LOEWDIN ATOMIC CHARGES
----------------------
   0 C :   -0.211122
   1 C :   -0.247527
   2 C :   -0.230386
   3 H :    0.144308
   4 H :    0.156871
   5 C :   -0.474437
   6 C :   -0.373346
   7 C :   -0.299880
   8 N :    0.013931
   9 H :    0.166921
  10 H :    0.132734
  11 H :    0.100442
  12 H :    0.092969
  13 H :    0.138942
  14 H :    0.146492
  15 F :    0.390091
  16 O :    0.059353
  17 H :    0.142456
  18 H :    0.151190

  Mayer bond orders larger than 0.100000
B(  0-C ,  1-C ) :   0.9214 B(  0-C ,  6-C ) :   0.9130 B(  0-C , 17-H ) :   0.9952
B(  0-C , 18-H ) :   0.9853 B(  1-C ,  2-C ) :   0.9469 B(  1-C , 13-H ) :   0.9771
B(  1-C , 14-H ) :   0.9651 B(  2-C ,  3-H ) :   0.9631 B(  2-C ,  4-H ) :   0.9525
B(  2-C ,  5-C ) :   0.9833 B(  5-C , 15-F ) :   1.2240 B(  5-C , 16-O ) :   1.8885
B(  6-C ,  7-C ) :   1.7097 B(  6-C ,  8-N ) :   1.2254 B(  7-C , 11-H ) :   0.9978
B(  7-C , 12-H ) :   0.9964 B(  8-N ,  9-H ) :   0.9303 B(  8-N , 10-H ) :   0.8365
B( 10-H , 16-O ) :   0.1326

FINAL SINGLE POINT ENERGY      -464.407066925758

DIPOLE MOMENT
-------------
                                X             Y             Z
Electronic contribution:      5.53813      -5.97734      10.56561
Nuclear contribution   :     -5.86483       4.68058     -10.07545
                        -----------------------------------------
Total Dipole Moment    :     -0.32671      -1.29676       0.49016
                        -----------------------------------------
Magnitude (a.u.)       :      1.42428
Magnitude (Debye)      :      3.62024

Rotational constants in cm-1:     0.107256     0.035474     0.030113
Rotational constants in MHz :  3215.453922  1063.481574   902.777619

                             ****ORCA TERMINATED NORMALLY****
TOTAL RUN TIME: 0 days 0 hours 0 minutes 36 seconds 313 msec
