                         Program Version 5.0.0 -  RELEASE  -
|  1> !CAM-B3LYP RIJCOSX def2-TZVP def2/J TightSCF xyzfile
|  2>
|  3> *xyzfile 0 1 D3.xyz
|  4>
|  5> %MaxCore 64000
|  6>
|  7> %pal nprocs 18
|  8> end
|  9>
| 10> %scf
| 11>   MaxIter 150
| 12> end
| 13>
| 14>
| 15>                          ****END OF INPUT****

CARTESIAN COORDINATES (ANGSTROEM)
---------------------------------
  C      3.343500    3.354571   -3.591998
  C      2.952633    1.863077   -3.574849
  C      4.129209    0.898394   -3.418950
  H      3.733687   -0.100605   -3.237633
  H      4.719095    0.862556   -4.339005
  C      5.017344    1.315212   -2.221305
  C      4.255868    3.703851   -4.726054
  C      3.734032    4.293783   -5.800770
  N      5.515039    3.407255   -4.637185
  H      6.149187    3.601203   -5.399053
  H      5.813584    2.899504   -3.808785
  H      2.741380    4.513109   -5.824701
  H      4.287548    4.521260   -6.614341
  H      2.278938    1.735250   -2.725496
  H      2.377466    1.625787   -4.475869
  O      4.737055    0.854112   -1.122825
  F      5.928146    2.168108   -2.491365
  H      3.861246    3.597252   -2.662979
  H      2.446493    3.973461   -3.656556

 Total Charge           Charge          ....    0
 Multiplicity           Mult            ....    1
 Number of Electrons    NEL             ....   70
 Basis Dimension        Dim             ....  339

ORBITAL ENERGIES
----------------

  NO   OCC          E(Eh)            E(eV)
   0   2.0000     -24.851790      -676.2516
   1   2.0000     -19.228629      -523.2376
   2   2.0000     -14.379754      -391.2930
   3   2.0000     -10.442322      -284.1500
   4   2.0000     -10.280595      -279.7492
   5   2.0000     -10.267575      -279.3949
   6   2.0000     -10.265395      -279.3356
   7   2.0000     -10.254039      -279.0266
   8   2.0000     -10.175420      -276.8873
   9   2.0000      -1.425569       -38.7917
  10   2.0000      -1.153834       -31.3974
  11   2.0000      -1.021487       -27.7961
  12   2.0000      -0.907674       -24.6991
  13   2.0000      -0.839637       -22.8477
  14   2.0000      -0.798134       -21.7183
  15   2.0000      -0.759038       -20.6545
  16   2.0000      -0.718021       -19.5383
  17   2.0000      -0.663981       -18.0679
  18   2.0000      -0.647754       -17.6263
  19   2.0000      -0.628638       -17.1061
  20   2.0000      -0.600475       -16.3397
  21   2.0000      -0.580628       -15.7997
  22   2.0000      -0.557670       -15.1750
  23   2.0000      -0.540931       -14.7195
  24   2.0000      -0.518137       -14.0992
  25   2.0000      -0.496260       -13.5039
  26   2.0000      -0.471506       -12.8303
  27   2.0000      -0.463507       -12.6127
  28   2.0000      -0.454104       -12.3568
  29   2.0000      -0.447022       -12.1641
  30   2.0000      -0.426259       -11.5991
  31   2.0000      -0.403265       -10.9734
  32   2.0000      -0.399991       -10.8843
  33   2.0000      -0.377596       -10.2749
  34   2.0000      -0.246753        -6.7145
  35   0.0000       0.009855         0.2682
  36   0.0000       0.066200         1.8014
  37   0.0000       0.081384         2.2146
  38   0.0000       0.094703         2.5770
  39   0.0000       0.104219         2.8359

MULLIKEN ATOMIC CHARGES
-----------------------
   0 C :   -0.315712
   1 C :   -0.175150
   2 C :   -0.275454
   3 H :    0.140050
   4 H :    0.150795
   5 C :    0.342153
   6 C :    0.224329
   7 C :   -0.434639
   8 N :   -0.441636
   9 H :    0.219383
  10 H :    0.248502
  11 H :    0.091322
  12 H :    0.091662
  13 H :    0.122476
  14 H :    0.121703
  15 O :   -0.260004
  16 F :   -0.120435
  17 H :    0.140053
  18 H :    0.130603
Sum of atomic charges:    0.0000000

LOEWDIN ATOMIC CHARGES
----------------------
   0 C :   -0.210679
   1 C :   -0.245278
   2 C :   -0.231542
   3 H :    0.153347
   4 H :    0.145944
   5 C :   -0.492727
   6 C :   -0.373472
   7 C :   -0.284431
   8 N :    0.009800
   9 H :    0.172048
  10 H :    0.142268
  11 H :    0.103436
  12 H :    0.094452
  13 H :    0.143854
  14 H :    0.144581
  15 O :    0.121790
  16 F :    0.311862
  17 H :    0.141470
  18 H :    0.153278

  Mayer bond orders larger than 0.100000
B(  0-C ,  1-C ) :   0.9324 B(  0-C ,  6-C ) :   0.9087 B(  0-C , 17-H ) :   0.9969
B(  0-C , 18-H ) :   0.9859 B(  1-C ,  2-C ) :   0.9545 B(  1-C , 13-H ) :   0.9714
B(  1-C , 14-H ) :   0.9637 B(  2-C ,  3-H ) :   0.9655 B(  2-C ,  4-H ) :   0.9463
B(  2-C ,  5-C ) :   0.9683 B(  5-C , 15-O ) :   2.1463 B(  5-C , 16-F ) :   1.0451
B(  6-C ,  7-C ) :   1.7262 B(  6-C ,  8-N ) :   1.1903 B(  7-C , 11-H ) :   0.9979
B(  7-C , 12-H ) :   0.9951 B(  8-N ,  9-H ) :   0.9257 B(  8-N , 10-H ) :   0.8882

FINAL SINGLE POINT ENERGY      -464.413674393515

DIPOLE MOMENT
-------------
                                X             Y             Z
Electronic contribution:      7.45887      -3.59659       8.04746
Nuclear contribution   :     -7.21688       3.18902      -8.52197
                        -----------------------------------------
Total Dipole Moment    :      0.24200      -0.40757      -0.47452
                        -----------------------------------------
Magnitude (a.u.)       :      0.67070
Magnitude (Debye)      :      1.70478

Rotational constants in cm-1:     0.103917     0.036987     0.030872
Rotational constants in MHz :  3115.342573  1108.839114   925.506342

                             ****ORCA TERMINATED NORMALLY****
TOTAL RUN TIME: 0 days 0 hours 0 minutes 29 seconds 668 msec
