                         Program Version 5.0.0 -  RELEASE  -
|  1> !TPSS D3BJ RIJCOSX def2-SVPD def2/J TightSCF
|  2> *xyz -1 1
|  3> C         -2.79070       -0.78527        5.70281
|  4> C         -2.45380        0.05510        6.94145
|  5> C         -2.07842        1.48042        6.56410
|  6> H         -1.62558       -0.38216        7.49891
|  7> H         -3.32527        0.08775        7.59917
|  8> O         -0.90125        1.85816        6.82810
|  9> O         -2.93658        2.17731        5.96415
| 10> H         -1.94052       -0.82114        5.05412
| 11> H         -3.61590       -0.34261        5.18514
| 12> H         -3.05063       -1.77815        6.00536
| 13> *
| 14> %MaxCore 64000
| 15>
| 16> %pal nprocs 4
| 17> end
| 18>
| 19> %scf
| 20>   MaxIter 150
| 21> end
| 22>
| 23>
| 24>                          ****END OF INPUT****

CARTESIAN COORDINATES (ANGSTROEM)
---------------------------------
  C     -2.790700   -0.785270    5.702810
  C     -2.453800    0.055100    6.941450
  C     -2.078420    1.480420    6.564100
  H     -1.625580   -0.382160    7.498910
  H     -3.325270    0.087750    7.599170
  O     -0.901250    1.858160    6.828100
  O     -2.936580    2.177310    5.964150
  H     -1.940520   -0.821140    5.054120
  H     -3.615900   -0.342610    5.185140
  H     -3.050630   -1.778150    6.005360

 Total Charge           Charge          ....   -1
 Multiplicity           Mult            ....    1
 Number of Electrons    NEL             ....   40
 Basis Dimension        Dim             ....  146

ORBITAL ENERGIES
----------------

  NO   OCC          E(Eh)            E(eV)
   0   2.0000     -18.638412      -507.1770
   1   2.0000     -18.636945      -507.1371
   2   2.0000      -9.875383      -268.7228
   3   2.0000      -9.841151      -267.7913
   4   2.0000      -9.826526      -267.3934
   5   2.0000      -0.737476       -20.0678
   6   2.0000      -0.647624       -17.6228
   7   2.0000      -0.543131       -14.7794
   8   2.0000      -0.419158       -11.4059
   9   2.0000      -0.273731        -7.4486
  10   2.0000      -0.251202        -6.8356
  11   2.0000      -0.213215        -5.8019
  12   2.0000      -0.187728        -5.1083
  13   2.0000      -0.173335        -4.7167
  14   2.0000      -0.163889        -4.4596
  15   2.0000      -0.133490        -3.6325
  16   2.0000      -0.121950        -3.3184
  17   2.0000      -0.012152        -0.3307
  18   2.0000      -0.000522        -0.0142
  19   2.0000       0.017123         0.4659
  20   0.0000       0.146044         3.9741
  21   0.0000       0.179296         4.8789
  22   0.0000       0.192807         5.2465
  23   0.0000       0.206292         5.6135
  24   0.0000       0.220936         6.0120

MULLIKEN ATOMIC CHARGES
-----------------------
   0 C :    0.459341
   1 C :   -0.316433
   2 C :    0.463916
   3 H :   -0.027136
   4 H :    0.009547
   5 O :   -0.715780
   6 O :   -0.732746
   7 H :   -0.057662
   8 H :   -0.017052
   9 H :   -0.065994
Sum of atomic charges:   -1.0000000

LOEWDIN ATOMIC CHARGES
----------------------
   0 C :    0.110404
   1 C :   -0.035163
   2 C :   -0.304539
   3 H :   -0.007091
   4 H :    0.001829
   5 O :   -0.334492
   6 O :   -0.323142
   7 H :   -0.026639
   8 H :   -0.032012
   9 H :   -0.049155

  Mayer bond orders larger than 0.100000
B(  0-C ,  1-C ) :   1.2802 B(  0-C ,  7-H ) :   0.8754 B(  0-C ,  8-H ) :   0.8488
B(  0-C ,  9-H ) :   0.8677 B(  1-C ,  2-C ) :   1.0642 B(  1-C ,  3-H ) :   0.9766
B(  1-C ,  4-H ) :   0.9064 B(  1-C ,  7-H ) :   0.1640 B(  1-C ,  8-H ) :   0.1842
B(  1-C ,  9-H ) :   0.1511 B(  2-C ,  3-H ) :   0.1778 B(  2-C ,  5-O ) :   1.4131
B(  2-C ,  6-O ) :   1.4538

Dispersion correction           -0.008068427
FINAL SINGLE POINT ENERGY      -267.703255075897

DIPOLE MOMENT
-------------
                                X             Y             Z
Electronic contribution:      1.64434       5.59335       0.66511
Nuclear contribution   :     -2.24498      -7.51881      -0.57245
                        -----------------------------------------
Total Dipole Moment    :     -0.60064      -1.92546       0.09266
                        -----------------------------------------
Magnitude (a.u.)       :      2.01910
Magnitude (Debye)      :      5.13213

Rotational constants in cm-1:     0.305589     0.135336     0.107479
Rotational constants in MHz :  9161.317320  4057.276612  3222.126231

                             ****ORCA TERMINATED NORMALLY****
TOTAL RUN TIME: 0 days 0 hours 0 minutes 10 seconds 698 msec
