                         Program Version 5.0.0 -  RELEASE  -
|  1> !TPSS D3BJ RIJCOSX def2-SVPD def2/J TightSCF
|  2> *xyz 1 1
|  3> C         -0.69912        3.48945        3.75516
|  4> H         -0.96672        4.34901        3.14049
|  5> N         -1.08067        3.79296        5.15686
|  6> C          0.77696        3.13839        3.61741
|  7> H         -1.33146        2.65651        3.44632
|  8> H         -0.87449        4.76274        5.42734
|  9> H         -0.68079        3.13476        5.83900
| 10> H         -2.05755        3.53169        5.34620
| 11> H          0.99957        2.92898        2.59199
| 12> H          0.99576        2.27685        4.21303
| 13> H          1.37223        3.96279        3.95046
| 14> *
| 15> %MaxCore 64000
| 16>
| 17> %pal nprocs 4
| 18> end
| 19>
| 20> %scf
| 21>   MaxIter 150
| 22> end
| 23>
| 24>
| 25>                          ****END OF INPUT****

CARTESIAN COORDINATES (ANGSTROEM)
---------------------------------
  C     -0.699120    3.489450    3.755160
  H     -0.966720    4.349010    3.140490
  N     -1.080670    3.792960    5.156860
  C      0.776960    3.138390    3.617410
  H     -1.331460    2.656510    3.446320
  H     -0.874490    4.762740    5.427340
  H     -0.680790    3.134760    5.839000
  H     -2.057550    3.531690    5.346200
  H      0.999570    2.928980    2.591990
  H      0.995760    2.276850    4.213030
  H      1.372230    3.962790    3.950460

 Total Charge           Charge          ....    1
 Multiplicity           Mult            ....    1
 Number of Electrons    NEL             ....   26
 Basis Dimension        Dim             ....  124

ORBITAL ENERGIES
----------------

  NO   OCC          E(Eh)            E(eV)
   0   2.0000     -14.453943      -393.3118
   1   2.0000     -10.255969      -279.0791
   2   2.0000     -10.178673      -276.9758
   3   2.0000      -1.149234       -31.2723
   4   2.0000      -0.907506       -24.6945
   5   2.0000      -0.794023       -21.6065
   6   2.0000      -0.771978       -21.0066
   7   2.0000      -0.723869       -19.6975
   8   2.0000      -0.658968       -17.9314
   9   2.0000      -0.604868       -16.4593
  10   2.0000      -0.545051       -14.8316
  11   2.0000      -0.531871       -14.4729
  12   2.0000      -0.516507       -14.0549
  13   0.0000      -0.209718        -5.7067
  14   0.0000      -0.154318        -4.1992
  15   0.0000      -0.149988        -4.0814
  16   0.0000      -0.135782        -3.6948
  17   0.0000      -0.105230        -2.8634

MULLIKEN ATOMIC CHARGES
-----------------------
   0 C :    0.208317
   1 H :   -0.065462
   2 N :   -0.860193
   3 C :    0.538447
   4 H :   -0.026293
   5 H :    0.421935
   6 H :    0.394791
   7 H :    0.369621
   8 H :    0.005620
   9 H :   -0.016440
  10 H :    0.029656
Sum of atomic charges:    1.0000000

LOEWDIN ATOMIC CHARGES
----------------------
   0 C :    0.064771
   1 H :    0.051026
   2 N :    0.326017
   3 C :    0.184214
   4 H :    0.048820
   5 H :    0.112543
   6 H :    0.102275
   7 H :    0.103887
   8 H :    0.011916
   9 H :   -0.003708
  10 H :   -0.001762

  Mayer bond orders larger than 0.100000
B(  0-C ,  1-H ) :   0.9331 B(  0-C ,  2-N ) :   0.7213 B(  0-C ,  3-C ) :   1.3284
B(  0-C ,  4-H ) :   0.9243 B(  0-C ,  8-H ) :   0.1709 B(  0-C ,  9-H ) :   0.1579
B(  0-C , 10-H ) :   0.1420 B(  1-H ,  2-N ) :   0.1085 B(  2-N ,  5-H ) :   0.6688
B(  2-N ,  6-H ) :   0.7201 B(  2-N ,  7-H ) :   0.7510 B(  3-C ,  8-H ) :   0.8397
B(  3-C ,  9-H ) :   0.8566 B(  3-C , 10-H ) :   0.8297

Dispersion correction           -0.007415619
FINAL SINGLE POINT ENERGY      -135.468355175874

DIPOLE MOMENT
-------------
                                X             Y             Z
Electronic contribution:     -1.31750       0.57310       1.08641
Nuclear contribution   :      0.33986      -0.24565       0.10678
                        -----------------------------------------
Total Dipole Moment    :     -0.97765       0.32745       1.19319
                        -----------------------------------------
Magnitude (a.u.)       :      1.57694
Magnitude (Debye)      :      4.00825

Rotational constants in cm-1:     1.016237     0.277523     0.247812
Rotational constants in MHz : 30466.024354  8319.937961  7429.230177

                             ****ORCA TERMINATED NORMALLY****
TOTAL RUN TIME: 0 days 0 hours 0 minutes 8 seconds 930 msec
