                         Program Version 5.0.0 -  RELEASE  -
|  1> !TPSS D3BJ RIJCOSX def2-SVPD def2/J TightSCF xyzfile
|  2>
|  3> *xyzfile 0 1 B.xyz
|  4>
|  5> %MaxCore 64000
|  6>
|  7> %pal nprocs 4
|  8> end
|  9>
| 10> %scf
| 11>   MaxIter 150
| 12> end
| 13>
| 14>
| 15>                          ****END OF INPUT****

CARTESIAN COORDINATES (ANGSTROEM)
---------------------------------
  C     -0.699123    3.489451    3.755163
  H     -0.966716    4.349013    3.140491
  N     -1.080669    3.792957    5.156857
  C      0.776956    3.138391    3.617408
  H     -1.331455    2.656510    3.446323
  H      1.371398    3.888342    4.149744
  H      1.046926    3.232057    2.561331
  C      1.118917    1.731170    4.115155
  H      2.200573    1.654226    4.254882
  C      0.659466    0.635182    3.153306
  H      0.677024    1.576674    5.103150
  H      1.312288    0.638870    2.274207
  H     -0.339563    0.868049    2.772876
  C      0.639957   -0.771175    3.755619
  C     -0.341821   -0.965537    4.915046
  H      1.648266   -1.028665    4.097015
  H      0.398568   -1.482386    2.958453
  H     -0.279892   -2.005646    5.252547
  C     -1.789164   -0.639231    4.557496
  H     -0.032380   -0.352918    5.765118
  H     -2.107151   -1.270102    3.719619
  H     -1.856352    0.391636    4.197604
  C     -2.790700   -0.785275    5.702812
  H     -2.867308   -1.835651    6.001675
  H     -3.774554   -0.486577    5.334807
  C     -2.453797    0.055101    6.941445
  C     -2.078419    1.480421    6.564098
  H     -1.625584   -0.382163    7.498914
  H     -3.325274    0.087746    7.599175
  H     -0.874488    4.762737    5.427344
  H     -0.680793    3.134762    5.839000
  H     -2.057550    3.531691    5.346197
  O     -0.901252    1.858156    6.828104
  O     -2.936582    2.177309    5.964151

 Total Charge           Charge          ....    0
 Multiplicity           Mult            ....    1
 Number of Electrons    NEL             ....  104
 Basis Dimension        Dim             ....  434

ORBITAL ENERGIES
----------------

  NO   OCC          E(Eh)            E(eV)
   0   2.0000     -18.838680      -512.6265
   1   2.0000     -18.837340      -512.5901
   2   2.0000     -14.197059      -386.3216
   3   2.0000     -10.070263      -274.0258
   4   2.0000     -10.067464      -273.9496
   5   2.0000     -10.024251      -272.7737
   6   2.0000     -10.000398      -272.1247
   7   2.0000      -9.997203      -272.0377
   8   2.0000      -9.990391      -271.8524
   9   2.0000      -9.981317      -271.6054
  10   2.0000      -9.981222      -271.6029
  11   2.0000      -9.980204      -271.5752
  12   2.0000      -9.973114      -271.3822
  13   2.0000      -0.949404       -25.8346
  14   2.0000      -0.910556       -24.7775
  15   2.0000      -0.852277       -23.1916
  16   2.0000      -0.757716       -20.6185
  17   2.0000      -0.730085       -19.8666
  18   2.0000      -0.703363       -19.1395
  19   2.0000      -0.660046       -17.9608
  20   2.0000      -0.629600       -17.1323
  21   2.0000      -0.593468       -16.1491
  22   2.0000      -0.558516       -15.1980
  23   2.0000      -0.547076       -14.8867
  24   2.0000      -0.526523       -14.3274
  25   2.0000      -0.504066       -13.7163
  26   2.0000      -0.495771       -13.4906
  27   2.0000      -0.459875       -12.5138
  28   2.0000      -0.434878       -11.8336
  29   2.0000      -0.431527       -11.7425
  30   2.0000      -0.428821       -11.6688
  31   2.0000      -0.403888       -10.9904
  32   2.0000      -0.398459       -10.8426
  33   2.0000      -0.391776       -10.6608
  34   2.0000      -0.379013       -10.3135
  35   2.0000      -0.371345       -10.1048
  36   2.0000      -0.359213        -9.7747
  37   2.0000      -0.354597        -9.6491
  38   2.0000      -0.348645        -9.4871
  39   2.0000      -0.339173        -9.2294
  40   2.0000      -0.325681        -8.8622
  41   2.0000      -0.320798        -8.7294
  42   2.0000      -0.313097        -8.5198
  43   2.0000      -0.300146        -8.1674
  44   2.0000      -0.292380        -7.9561
  45   2.0000      -0.286358        -7.7922
  46   2.0000      -0.273614        -7.4454
  47   2.0000      -0.268616        -7.3094
  48   2.0000      -0.263092        -7.1591
  49   2.0000      -0.212978        -5.7954
  50   2.0000      -0.196499        -5.3470
  51   2.0000      -0.190418        -5.1815
  52   0.0000      -0.017990        -0.4895
  53   0.0000       0.011593         0.3155
  54   0.0000       0.015221         0.4142
  55   0.0000       0.019818         0.5393
  56   0.0000       0.026940         0.7331

MULLIKEN ATOMIC CHARGES
-----------------------
   0 C :    1.003347
   1 H :   -0.181482
   2 N :   -0.732497
   3 C :    0.249051
   4 H :   -0.245472
   5 H :   -0.046404
   6 H :   -0.040740
   7 C :    0.645722
   8 H :    0.027726
   9 C :   -0.035884
  10 H :   -0.664013
  11 H :   -0.233269
  12 H :   -0.096558
  13 C :    0.641673
  14 C :   -0.044179
  15 H :   -0.106899
  16 H :    0.057013
  17 H :   -0.255599
  18 C :    0.236407
  19 H :    0.027537
  20 H :   -0.064393
  21 H :   -0.501786
  22 C :    0.383922
  23 H :   -0.170370
  24 H :    0.102408
  25 C :    0.279327
  26 C :    0.374996
  27 H :    0.143972
  28 H :   -0.146902
  29 H :    0.343318
  30 H :    0.294878
  31 H :    0.280566
  32 O :   -0.772343
  33 O :   -0.753073
Sum of atomic charges:   -0.0000000

LOEWDIN ATOMIC CHARGES
----------------------
   0 C :    0.106871
   1 H :    0.028023
   2 N :    0.325827
   3 C :   -0.002687
   4 H :    0.021382
   5 H :    0.019708
   6 H :    0.023812
   7 C :    0.000815
   8 H :    0.026041
   9 C :   -0.023582
  10 H :   -0.016525
  11 H :    0.018736
  12 H :   -0.004478
  13 C :   -0.018873
  14 C :   -0.013571
  15 H :    0.018452
  16 H :    0.017297
  17 H :    0.021994
  18 C :   -0.019540
  19 H :   -0.003600
  20 H :    0.022562
  21 H :   -0.008917
  22 C :   -0.009711
  23 H :    0.015122
  24 H :    0.019823
  25 C :    0.043961
  26 C :   -0.192958
  27 H :    0.014001
  28 H :    0.024364
  29 H :    0.089581
  30 H :   -0.055617
  31 H :   -0.020645
  32 O :   -0.237890
  33 O :   -0.229779

  Mayer bond orders larger than 0.100000
B(  0-C ,  1-H ) :   0.7453 B(  0-C ,  2-N ) :   0.6436 B(  0-C ,  3-C ) :   1.1457
B(  0-C ,  4-H ) :   0.6951 B(  0-C ,  6-H ) :   0.1089 B(  0-C ,  7-C ) :   0.2039
B(  0-C , 10-H ) :  -0.1663 B(  0-C , 18-C ) :   0.1050 B(  1-H ,  3-C ) :   0.1402
B(  2-N ,  4-H ) :   0.2743 B(  2-N , 26-C ) :   0.1240 B(  2-N , 29-H ) :   0.8383
B(  2-N , 30-H ) :   0.7240 B(  2-N , 31-H ) :   0.7258 B(  3-C ,  4-H ) :   0.1445
B(  3-C ,  5-H ) :   0.7583 B(  3-C ,  6-H ) :   0.8141 B(  3-C ,  7-C ) :   1.1326
B(  3-C , 10-H ) :   0.2166 B(  4-H , 12-H ) :   0.1099 B(  4-H , 21-H ) :   0.1688
B(  5-H ,  7-C ) :   0.1180 B(  7-C ,  8-H ) :   0.7074 B(  7-C ,  9-C ) :   1.1179
B(  7-C , 10-H ) :   0.4525 B(  7-C , 11-H ) :   0.1902 B(  7-C , 12-H ) :   0.1115
B(  8-H ,  9-C ) :   0.1768 B(  9-C , 10-H ) :   0.2778 B(  9-C , 11-H ) :   0.9123
B(  9-C , 12-H ) :   0.8788 B(  9-C , 13-C ) :   1.1850 B(  9-C , 14-C ) :   0.1202
B(  9-C , 15-H ) :   0.1384 B(  9-C , 16-H ) :   0.2168 B( 10-H , 19-H ) :   0.1220
B( 13-C , 14-C ) :   1.1349 B( 13-C , 15-H ) :   0.6980 B( 13-C , 16-H ) :   0.6901
B( 14-C , 15-H ) :   0.2634 B( 14-C , 17-H ) :   0.9317 B( 14-C , 18-C ) :   1.1639
B( 14-C , 19-H ) :   0.8722 B( 14-C , 20-H ) :   0.1621 B( 14-C , 21-H ) :   0.2343
B( 15-H , 16-H ) :  -0.1119 B( 17-H , 18-C ) :   0.1541 B( 18-C , 19-H ) :   0.1052
B( 18-C , 20-H ) :   0.7146 B( 18-C , 21-H ) :   0.7758 B( 18-C , 22-C ) :   1.2284
B( 18-C , 23-H ) :   0.1722 B( 18-C , 24-H ) :   0.2199 B( 18-C , 25-C ) :   0.1188
B( 20-H , 21-H ) :   0.1219 B( 21-H , 22-C ) :   0.1677 B( 22-C , 23-H ) :   0.8279
B( 22-C , 24-H ) :   0.6712 B( 22-C , 25-C ) :   1.1489 B( 22-C , 28-H ) :   0.1591
B( 23-H , 24-H ) :  -0.1232 B( 23-H , 25-C ) :   0.1343 B( 24-H , 25-C ) :   0.1047
B( 25-C , 26-C ) :   1.1489 B( 25-C , 27-H ) :   0.7894 B( 25-C , 28-H ) :   0.6935
B( 25-C , 33-O ) :   0.1005 B( 26-C , 27-H ) :   0.1839 B( 26-C , 28-H ) :   0.2579
B( 26-C , 32-O ) :   1.2891 B( 26-C , 33-O ) :   1.2384 B( 30-H , 32-O ) :   0.2066
B( 31-H , 33-O ) :   0.1927 B( 32-O , 33-O ) :   0.1085

Dispersion correction           -0.047789239
FINAL SINGLE POINT ENERGY      -598.682646016793

DIPOLE MOMENT
-------------
                                X             Y             Z
Electronic contribution:     -4.66702       4.82321       6.71433
Nuclear contribution   :      5.60885      -3.40606      -8.06960
                        -----------------------------------------
Total Dipole Moment    :      0.94182       1.41715      -1.35527
                        -----------------------------------------
Magnitude (a.u.)       :      2.17534
Magnitude (Debye)      :      5.52927

Rotational constants in cm-1:     0.028465     0.023505     0.015110
Rotational constants in MHz :   853.363165   704.655786   452.976312

                             ****ORCA TERMINATED NORMALLY****
TOTAL RUN TIME: 0 days 0 hours 1 minutes 15 seconds 242 msec
