                         Program Version 5.0.0 -  RELEASE  -
|  1> !TPSS D3BJ RIJCOSX def2-SVPD def2/J TightSCF
|  2> *xyz 0 1
|  3> C         -2.79070       -0.78527        5.70281
|  4> C         -2.45380        0.05510        6.94145
|  5> C         -2.07842        1.48042        6.56410
|  6> H         -1.62558       -0.38216        7.49891
|  7> H         -3.32527        0.08775        7.59917
|  8> F         -0.90125        1.85816        6.82810
|  9> O         -2.93658        2.17731        5.96415
| 10> H         -1.94052       -0.82114        5.05412
| 11> H         -3.61590       -0.34261        5.18514
| 12> H         -3.05063       -1.77815        6.00536
| 13> *
| 14> %MaxCore 64000
| 15>
| 16> %pal nprocs 4
| 17> end
| 18>
| 19> %scf
| 20>   MaxIter 150
| 21> end
| 22>
| 23>
| 24>                          ****END OF INPUT****

CARTESIAN COORDINATES (ANGSTROEM)
---------------------------------
  C     -2.790700   -0.785270    5.702810
  C     -2.453800    0.055100    6.941450
  C     -2.078420    1.480420    6.564100
  H     -1.625580   -0.382160    7.498910
  H     -3.325270    0.087750    7.599170
  F     -0.901250    1.858160    6.828100
  O     -2.936580    2.177310    5.964150
  H     -1.940520   -0.821140    5.054120
  H     -3.615900   -0.342610    5.185140
  H     -3.050630   -1.778150    6.005360

 Total Charge           Charge          ....    0
 Multiplicity           Mult            ....    1
 Number of Electrons    NEL             ....   40
 Basis Dimension        Dim             ....  146

ORBITAL ENERGIES
----------------

  NO   OCC          E(Eh)            E(eV)
   0   2.0000     -24.494334      -666.5247
   1   2.0000     -18.907488      -514.4989
   2   2.0000     -10.170862      -276.7632
   3   2.0000     -10.034902      -273.0636
   4   2.0000     -10.011206      -272.4188
   5   2.0000      -1.219878       -33.1946
   6   2.0000      -0.954314       -25.9682
   7   2.0000      -0.739943       -20.1349
   8   2.0000      -0.630995       -17.1702
   9   2.0000      -0.581597       -15.8261
  10   2.0000      -0.494491       -13.4558
  11   2.0000      -0.479683       -13.0528
  12   2.0000      -0.457329       -12.4446
  13   2.0000      -0.424176       -11.5424
  14   2.0000      -0.391691       -10.6585
  15   2.0000      -0.361814        -9.8455
  16   2.0000      -0.342781        -9.3275
  17   2.0000      -0.338012        -9.1978
  18   2.0000      -0.312210        -8.4957
  19   2.0000      -0.251423        -6.8416
  20   0.0000      -0.067489        -1.8365
  21   0.0000       0.003815         0.1038
  22   0.0000       0.034863         0.9487
  23   0.0000       0.046363         1.2616
  24   0.0000       0.061143         1.6638

MULLIKEN ATOMIC CHARGES
-----------------------
   0 C :    0.490674
   1 C :   -0.365920
   2 C :    0.782537
   3 H :    0.004353
   4 H :    0.068908
   5 F :   -0.379347
   6 O :   -0.532698
   7 H :   -0.038106
   8 H :   -0.003503
   9 H :   -0.026897
Sum of atomic charges:    0.0000000

LOEWDIN ATOMIC CHARGES
----------------------
   0 C :    0.153736
   1 C :    0.011190
   2 C :   -0.011600
   3 H :    0.017218
   4 H :    0.036190
   5 F :   -0.036289
   6 O :   -0.130556
   7 H :   -0.012282
   8 H :   -0.011574
   9 H :   -0.016034

  Mayer bond orders larger than 0.100000
B(  0-C ,  1-C ) :   1.3146 B(  0-C ,  7-H ) :   0.8687 B(  0-C ,  8-H ) :   0.8468
B(  0-C ,  9-H ) :   0.8631 B(  1-C ,  2-C ) :   1.0931 B(  1-C ,  3-H ) :   0.9648
B(  1-C ,  4-H ) :   0.8884 B(  1-C ,  7-H ) :   0.1491 B(  1-C ,  8-H ) :   0.1632
B(  1-C ,  9-H ) :   0.1382 B(  2-C ,  5-F ) :   0.7160 B(  2-C ,  6-O ) :   1.7484

Dispersion correction           -0.007649999
FINAL SINGLE POINT ENERGY      -292.240598367565

DIPOLE MOMENT
-------------
                                X             Y             Z
Electronic contribution:      3.96084       7.44280       1.47528
Nuclear contribution   :     -3.69486      -8.49563      -1.04945
                        -----------------------------------------
Total Dipole Moment    :      0.26598      -1.05283       0.42583
                        -----------------------------------------
Magnitude (a.u.)       :      1.16641
Magnitude (Debye)      :      2.96479

Rotational constants in cm-1:     0.293725     0.129218     0.102393
Rotational constants in MHz :  8805.653529  3873.869810  3069.666716

                             ****ORCA TERMINATED NORMALLY****
TOTAL RUN TIME: 0 days 0 hours 0 minutes 11 seconds 109 msec
