                         Program Version 5.0.0 -  RELEASE  -
|  1> !TPSS D3BJ RIJCOSX def2-SVPD def2/J TightSCF
|  2> *xyz 0 1
|  3> C         -0.69912        3.48945        3.75516
|  4> H         -0.96672        4.34901        3.14049
|  5> C         -1.08067        3.79296        5.15686
|  6> C          0.77696        3.13839        3.61741
|  7> H         -1.33146        2.65651        3.44632
|  8> H         -0.87449        4.76274        5.42734
|  9> H         -0.68079        3.13476        5.83900
| 10> H         -2.05755        3.53169        5.34620
| 11> H          0.99957        2.92898        2.59199
| 12> H          0.99576        2.27685        4.21303
| 13> H          1.37223        3.96279        3.95046
| 14> *
| 15> %MaxCore 64000
| 16>
| 17> %pal nprocs 4
| 18> end
| 19>
| 20> %scf
| 21>   MaxIter 150
| 22> end
| 23>
| 24>
| 25>                          ****END OF INPUT****

CARTESIAN COORDINATES (ANGSTROEM)
---------------------------------
  C     -0.699120    3.489450    3.755160
  H     -0.966720    4.349010    3.140490
  C     -1.080670    3.792960    5.156860
  C      0.776960    3.138390    3.617410
  H     -1.331460    2.656510    3.446320
  H     -0.874490    4.762740    5.427340
  H     -0.680790    3.134760    5.839000
  H     -2.057550    3.531690    5.346200
  H      0.999570    2.928980    2.591990
  H      0.995760    2.276850    4.213030
  H      1.372230    3.962790    3.950460

 Total Charge           Charge          ....    0
 Multiplicity           Mult            ....    1
 Number of Electrons    NEL             ....   26
 Basis Dimension        Dim             ....  124

ORBITAL ENERGIES
----------------

  NO   OCC          E(Eh)            E(eV)
   0   2.0000      -9.988321      -271.7960
   1   2.0000      -9.981328      -271.6057
   2   2.0000      -9.964097      -271.1369
   3   2.0000      -0.727013       -19.7830
   4   2.0000      -0.633482       -17.2379
   5   2.0000      -0.536101       -14.5880
   6   2.0000      -0.429707       -11.6929
   7   2.0000      -0.397639       -10.8203
   8   2.0000      -0.361233        -9.8296
   9   2.0000      -0.357180        -9.7194
  10   2.0000      -0.303774        -8.2661
  11   2.0000      -0.294527        -8.0145
  12   2.0000      -0.288833        -7.8595
  13   0.0000       0.016947         0.4612
  14   0.0000       0.046588         1.2677
  15   0.0000       0.052814         1.4371
  16   0.0000       0.070986         1.9316
  17   0.0000       0.093809         2.5527

MULLIKEN ATOMIC CHARGES
-----------------------
   0 C :   -0.581531
   1 H :   -0.105181
   2 C :    0.867687
   3 C :    0.562032
   4 H :   -0.024542
   5 H :   -0.180873
   6 H :   -0.229624
   7 H :   -0.187656
   8 H :   -0.066063
   9 H :   -0.014414
  10 H :   -0.039835
Sum of atomic charges:   -0.0000000

LOEWDIN ATOMIC CHARGES
----------------------
   0 C :   -0.105273
   1 H :    0.017163
   2 C :    0.119571
   3 C :    0.126663
   4 H :    0.016333
   5 H :   -0.028986
   6 H :   -0.038731
   7 H :   -0.040083
   8 H :   -0.026471
   9 H :   -0.020642
  10 H :   -0.019544

  Mayer bond orders larger than 0.100000
B(  0-C ,  1-H ) :   0.9758 B(  0-C ,  2-C ) :   1.2968 B(  0-C ,  3-C ) :   1.2606
B(  0-C ,  4-H ) :   0.9247 B(  0-C ,  5-H ) :   0.2167 B(  0-C ,  6-H ) :   0.1970
B(  0-C ,  7-H ) :   0.2067 B(  0-C ,  8-H ) :   0.1817 B(  0-C ,  9-H ) :   0.1489
B(  0-C , 10-H ) :   0.1733 B(  1-H ,  2-C ) :   0.1049 B(  2-C ,  4-H ) :   0.1103
B(  2-C ,  5-H ) :   0.7570 B(  2-C ,  6-H ) :   0.6914 B(  2-C ,  7-H ) :   0.6560
B(  3-C ,  8-H ) :   0.8405 B(  3-C ,  9-H ) :   0.8525 B(  3-C , 10-H ) :   0.8488
B(  6-H ,  7-H ) :   0.2901

Dispersion correction           -0.007440263
FINAL SINGLE POINT ENERGY      -119.068817014416

DIPOLE MOMENT
-------------
                                X             Y             Z
Electronic contribution:     -0.14003       0.12439      -0.39796
Nuclear contribution   :      0.10024      -0.14218       0.41628
                        -----------------------------------------
Total Dipole Moment    :     -0.03978      -0.01780       0.01833
                        -----------------------------------------
Magnitude (a.u.)       :      0.04728
Magnitude (Debye)      :      0.12018

Rotational constants in cm-1:     1.024179     0.291605     0.259489
Rotational constants in MHz : 30704.103454  8742.106283  7779.285909

                             ****ORCA TERMINATED NORMALLY****
TOTAL RUN TIME: 0 days 0 hours 0 minutes 8 seconds 735 msec
