                         Program Version 5.0.0 -  RELEASE  -
|  1> !TPSS D3BJ RIJCOSX def2-SVPD def2/J TightSCF
|  2> *xyz 0 1
|  3> C         -2.79070       -0.78527        5.70281
|  4> C         -2.45380        0.05510        6.94145
|  5> C         -2.07842        1.48042        6.56410
|  6> H         -1.62558       -0.38216        7.49891
|  7> H         -3.32527        0.08775        7.59917
|  8> O         -0.90125        1.85816        6.82810
|  9> F         -2.93658        2.17731        5.96415
| 10> H         -1.94052       -0.82114        5.05412
| 11> H         -3.61590       -0.34261        5.18514
| 12> H         -3.05063       -1.77815        6.00536
| 13> *
| 14> %MaxCore 64000
| 15>
| 16> %pal nprocs 4
| 17> end
| 18>
| 19> %scf
| 20>   MaxIter 150
| 21> end
| 22>
| 23>
| 24>                          ****END OF INPUT****

CARTESIAN COORDINATES (ANGSTROEM)
---------------------------------
  C     -2.790700   -0.785270    5.702810
  C     -2.453800    0.055100    6.941450
  C     -2.078420    1.480420    6.564100
  H     -1.625580   -0.382160    7.498910
  H     -3.325270    0.087750    7.599170
  O     -0.901250    1.858160    6.828100
  F     -2.936580    2.177310    5.964150
  H     -1.940520   -0.821140    5.054120
  H     -3.615900   -0.342610    5.185140
  H     -3.050630   -1.778150    6.005360

 Total Charge           Charge          ....    0
 Multiplicity           Mult            ....    1
 Number of Electrons    NEL             ....   40
 Basis Dimension        Dim             ....  146

ORBITAL ENERGIES
----------------

  NO   OCC          E(Eh)            E(eV)
   0   2.0000     -24.497477      -666.6103
   1   2.0000     -18.905579      -514.4470
   2   2.0000     -10.170721      -276.7594
   3   2.0000     -10.034605      -273.0555
   4   2.0000     -10.015043      -272.5232
   5   2.0000      -1.225107       -33.3369
   6   2.0000      -0.949558       -25.8388
   7   2.0000      -0.742948       -20.2166
   8   2.0000      -0.628985       -17.1155
   9   2.0000      -0.587974       -15.9996
  10   2.0000      -0.498326       -13.5601
  11   2.0000      -0.485215       -13.2034
  12   2.0000      -0.452937       -12.3250
  13   2.0000      -0.424044       -11.5388
  14   2.0000      -0.393829       -10.7166
  15   2.0000      -0.363767        -9.8986
  16   2.0000      -0.345461        -9.4005
  17   2.0000      -0.340833        -9.2745
  18   2.0000      -0.313802        -8.5390
  19   2.0000      -0.245325        -6.6756
  20   0.0000      -0.065416        -1.7800
  21   0.0000       0.001751         0.0477
  22   0.0000       0.035741         0.9726
  23   0.0000       0.045354         1.2341
  24   0.0000       0.062071         1.6891

MULLIKEN ATOMIC CHARGES
-----------------------
   0 C :    0.480903
   1 C :   -0.342979
   2 C :    0.801123
   3 H :   -0.006485
   4 H :    0.057392
   5 O :   -0.521035
   6 F :   -0.394326
   7 H :   -0.033165
   8 H :   -0.016378
   9 H :   -0.025051
Sum of atomic charges:   -0.0000000

LOEWDIN ATOMIC CHARGES
----------------------
   0 C :    0.148790
   1 C :    0.014752
   2 C :   -0.014960
   3 H :    0.029460
   4 H :    0.030317
   5 O :   -0.136637
   6 F :   -0.028539
   7 H :   -0.010318
   8 H :   -0.017069
   9 H :   -0.015796

  Mayer bond orders larger than 0.100000
B(  0-C ,  1-C ) :   1.2922 B(  0-C ,  7-H ) :   0.8808 B(  0-C ,  8-H ) :   0.8412
B(  0-C ,  9-H ) :   0.8691 B(  1-C ,  2-C ) :   1.0699 B(  1-C ,  3-H ) :   0.9886
B(  1-C ,  4-H ) :   0.8856 B(  1-C ,  7-H ) :   0.1444 B(  1-C ,  8-H ) :   0.1564
B(  1-C ,  9-H ) :   0.1385 B(  2-C ,  3-H ) :   0.1237 B(  2-C ,  5-O ) :   1.7319
B(  2-C ,  6-F ) :   0.7008 B(  5-O ,  6-F ) :   0.1050

Dispersion correction           -0.007609410
FINAL SINGLE POINT ENERGY      -292.238258941545

DIPOLE MOMENT
-------------
                                X             Y             Z
Electronic contribution:      0.59309       7.94841       0.04997
Nuclear contribution   :     -1.47571      -8.84360      -0.10748
                        -----------------------------------------
Total Dipole Moment    :     -0.88262      -0.89520      -0.05751
                        -----------------------------------------
Magnitude (a.u.)       :      1.25845
Magnitude (Debye)      :      3.19874

Rotational constants in cm-1:     0.283081     0.133379     0.103386
Rotational constants in MHz :  8486.545774  3998.599544  3099.448040

                             ****ORCA TERMINATED NORMALLY****
TOTAL RUN TIME: 0 days 0 hours 0 minutes 10 seconds 865 msec
