                         Program Version 5.0.0 -  RELEASE  -
|  1> !PBE D3BJ RIJCOSX def2-SVPD def2/J TightSCF
|  2> *xyz -1 1
|  3> C         -5.57236       -5.80780       -0.81644
|  4> S         -6.90318       -4.61903       -0.52846
|  5> O         -8.11485       -5.25093       -0.95701
|  6> O         -6.53271       -3.42684       -1.31485
|  7> O         -6.86563       -4.29496        0.91412
|  8> C         -4.45780       -5.94187        0.22919
|  9> H         -5.17735       -5.54257       -1.79771
| 10> H         -6.07420       -6.76889       -0.92127
| 11> H         -3.75515       -6.68239       -0.09144
| 12> H         -4.88182       -6.23486        1.16689
| 13> H         -3.95908       -5.00189        0.34143
| 14> *
| 15> %MaxCore 64000
| 16>
| 17> %pal nprocs 4
| 18> end
| 19>
| 20> %scf
| 21>   MaxIter 150
| 22> end
| 23>
| 24>                          ****END OF INPUT****

CARTESIAN COORDINATES (ANGSTROEM)
---------------------------------
  C     -5.572360   -5.807800   -0.816440
  S     -6.903180   -4.619030   -0.528460
  O     -8.114850   -5.250930   -0.957010
  O     -6.532710   -3.426840   -1.314850
  O     -6.865630   -4.294960    0.914120
  C     -4.457800   -5.941870    0.229190
  H     -5.177350   -5.542570   -1.797710
  H     -6.074200   -6.768890   -0.921270
  H     -3.755150   -6.682390   -0.091440
  H     -4.881820   -6.234860    1.166890
  H     -3.959080   -5.001890    0.341430

 Total Charge           Charge          ....   -1
 Multiplicity           Mult            ....    1
 Number of Electrons    NEL             ....   58
 Basis Dimension        Dim             ....  176

ORBITAL ENERGIES
----------------

  NO   OCC          E(Eh)            E(eV)
   0   2.0000     -88.054061     -2396.0728
   1   2.0000     -18.549895      -504.7683
   2   2.0000     -18.536822      -504.4126
   3   2.0000     -18.535915      -504.3879
   4   2.0000      -9.758798      -265.5504
   5   2.0000      -9.756626      -265.4913
   6   2.0000      -7.658270      -208.3921
   7   2.0000      -5.685285      -154.7045
   8   2.0000      -5.685128      -154.7002
   9   2.0000      -5.684588      -154.6855
  10   2.0000      -0.838570       -22.8187
  11   2.0000      -0.703487       -19.1429
  12   2.0000      -0.680268       -18.5110
  13   2.0000      -0.556532       -15.1440
  14   2.0000      -0.443492       -12.0680
  15   2.0000      -0.323656        -8.8071
  16   2.0000      -0.270767        -7.3679
  17   2.0000      -0.262088        -7.1318
  18   2.0000      -0.230924        -6.2838
  19   2.0000      -0.212006        -5.7690
  20   2.0000      -0.209415        -5.6985
  21   2.0000      -0.184187        -5.0120
  22   2.0000      -0.176311        -4.7977
  23   2.0000      -0.103411        -2.8140
  24   2.0000      -0.100829        -2.7437
  25   2.0000      -0.073196        -1.9918
  26   2.0000      -0.062438        -1.6990
  27   2.0000      -0.054928        -1.4947
  28   2.0000      -0.018309        -0.4982
  29   0.0000       0.123930         3.3723
  30   0.0000       0.154569         4.2060
  31   0.0000       0.163956         4.4615
  32   0.0000       0.169018         4.5992
  33   0.0000       0.190467         5.1829

MULLIKEN ATOMIC CHARGES
-----------------------
   0 C :   -0.384079
   1 S :    1.155231
   2 O :   -0.716289
   3 O :   -0.775921
   4 O :   -0.787062
   5 C :    0.766874
   6 H :   -0.019344
   7 H :   -0.001630
   8 H :   -0.123080
   9 H :   -0.044531
  10 H :   -0.070168
Sum of atomic charges:   -1.0000000

LOEWDIN ATOMIC CHARGES
----------------------
   0 C :   -0.130679
   1 S :    0.815488
   2 O :   -0.550893
   3 O :   -0.577105
   4 O :   -0.568495
   5 C :    0.100454
   6 H :   -0.003688
   7 H :   -0.009410
   8 H :   -0.035854
   9 H :   -0.022824
  10 H :   -0.016993

  Mayer bond orders larger than 0.100000
B(  0-C ,  1-S ) :   0.8652 B(  0-C ,  2-O ) :   0.1040 B(  0-C ,  5-C ) :   1.3463
B(  0-C ,  6-H ) :   0.9600 B(  0-C ,  7-H ) :   0.9634 B(  0-C ,  8-H ) :   0.2286
B(  0-C ,  9-H ) :   0.2171 B(  0-C , 10-H ) :   0.2051 B(  1-S ,  2-O ) :   1.3776
B(  1-S ,  3-O ) :   1.3198 B(  1-S ,  4-O ) :   1.3094 B(  5-C ,  8-H ) :   0.7503
B(  5-C ,  9-H ) :   0.7979 B(  5-C , 10-H ) :   0.8114

Dispersion correction           -0.009519763
FINAL SINGLE POINT ENERGY      -702.284350251385

DIPOLE MOMENT
-------------
                                X             Y             Z
Electronic contribution:     -6.70719       4.34061      -0.91391
Nuclear contribution   :      8.13140      -5.68016       0.80206
                        -----------------------------------------
Total Dipole Moment    :      1.42421      -1.33955      -0.11185
                        -----------------------------------------
Magnitude (a.u.)       :      1.95838
Magnitude (Debye)      :      4.97782

Rotational constants in cm-1:     0.162101     0.080498     0.079099
Rotational constants in MHz :  4859.669771  2413.267251  2371.338602

                             ****ORCA TERMINATED NORMALLY****
TOTAL RUN TIME: 0 days 0 hours 0 minutes 11 seconds 8 msec
