                         Program Version 5.0.0 -  RELEASE  -
|  1> !PBE D3BJ RIJCOSX def2-SVPD def2/J TightSCF
|  2> *xyz 1 1
|  3> C         -4.38262       -1.67089        1.21620
|  4> N         -5.76354       -1.91517        0.70501
|  5> C         -3.28173       -2.19127        0.29436
|  6> H         -5.84081       -2.11520       -0.30065
|  7> H         -6.40882       -1.14866        0.93612
|  8> H         -6.17478       -2.79061        1.05143
|  9> H         -4.32862       -2.13922        2.19810
| 10> H         -4.26158       -0.59740        1.35725
| 11> H         -3.36057       -1.71407       -0.66008
| 12> H         -3.38775       -3.24919        0.17403
| 13> H         -2.32559       -1.97514        0.72329
| 14> *
| 15> %MaxCore 64000
| 16>
| 17> %pal nprocs 4
| 18> end
| 19>
| 20> %scf
| 21>   MaxIter 150
| 22> end
| 23>
| 24>                          ****END OF INPUT****

CARTESIAN COORDINATES (ANGSTROEM)
---------------------------------
  C     -4.382620   -1.670890    1.216200
  N     -5.763540   -1.915170    0.705010
  C     -3.281730   -2.191270    0.294360
  H     -5.840810   -2.115200   -0.300650
  H     -6.408820   -1.148660    0.936120
  H     -6.174780   -2.790610    1.051430
  H     -4.328620   -2.139220    2.198100
  H     -4.261580   -0.597400    1.357250
  H     -3.360570   -1.714070   -0.660080
  H     -3.387750   -3.249190    0.174030
  H     -2.325590   -1.975140    0.723290

 Total Charge           Charge          ....    1
 Multiplicity           Mult            ....    1
 Number of Electrons    NEL             ....   26
 Basis Dimension        Dim             ....  124

ORBITAL ENERGIES
----------------

  NO   OCC          E(Eh)            E(eV)
   0   2.0000     -14.335044      -390.0764
   1   2.0000     -10.150520      -276.2097
   2   2.0000     -10.072301      -274.0812
   3   2.0000      -1.129605       -30.7381
   4   2.0000      -0.894188       -24.3321
   5   2.0000      -0.787993       -21.4424
   6   2.0000      -0.746148       -20.3037
   7   2.0000      -0.726092       -19.7580
   8   2.0000      -0.656283       -17.8584
   9   2.0000      -0.593923       -16.1615
  10   2.0000      -0.541648       -14.7390
  11   2.0000      -0.524966       -14.2850
  12   2.0000      -0.505978       -13.7683
  13   0.0000      -0.217527        -5.9192
  14   0.0000      -0.166647        -4.5347
  15   0.0000      -0.162223        -4.4143
  16   0.0000      -0.145569        -3.9611
  17   0.0000      -0.114424        -3.1136

MULLIKEN ATOMIC CHARGES
-----------------------
   0 C :    0.249616
   1 N :   -0.777415
   2 C :    0.604453
   3 H :    0.380938
   4 H :    0.382063
   5 H :    0.359278
   6 H :   -0.073301
   7 H :   -0.040449
   8 H :   -0.042394
   9 H :   -0.007552
  10 H :   -0.035237
Sum of atomic charges:    1.0000000

LOEWDIN ATOMIC CHARGES
----------------------
   0 C :    0.058655
   1 N :    0.333464
   2 C :    0.172975
   3 H :    0.101163
   4 H :    0.107966
   5 H :    0.104127
   6 H :    0.052148
   7 H :    0.051386
   8 H :    0.001191
   9 H :    0.000995
  10 H :    0.015930

  Mayer bond orders larger than 0.100000
B(  0-C ,  1-N ) :   0.7183 B(  0-C ,  2-C ) :   1.3922 B(  0-C ,  6-H ) :   0.8966
B(  0-C ,  7-H ) :   0.8967 B(  0-C ,  8-H ) :   0.1854 B(  0-C ,  9-H ) :   0.1643
B(  0-C , 10-H ) :   0.1889 B(  1-N ,  3-H ) :   0.7179 B(  1-N ,  4-H ) :   0.7281
B(  1-N ,  5-H ) :   0.7814 B(  1-N ,  6-H ) :   0.1043 B(  2-C ,  8-H ) :   0.8275
B(  2-C ,  9-H ) :   0.8131 B(  2-C , 10-H ) :   0.8317

Dispersion correction           -0.006098973
FINAL SINGLE POINT ENERGY      -135.254968835959

DIPOLE MOMENT
-------------
                                X             Y             Z
Electronic contribution:     -1.78605       0.23938       0.30572
Nuclear contribution   :      0.19437      -0.25358      -0.32106
                        -----------------------------------------
Total Dipole Moment    :     -1.59168      -0.01420      -0.01534
                        -----------------------------------------
Magnitude (a.u.)       :      1.59181
Magnitude (Debye)      :      4.04607

Rotational constants in cm-1:     1.030014     0.272489     0.242697
Rotational constants in MHz : 30879.030706  8169.007780  7275.865152

                             ****ORCA TERMINATED NORMALLY****
TOTAL RUN TIME: 0 days 0 hours 0 minutes 6 seconds 802 msec
