                         Program Version 5.0.0 -  RELEASE  -
|  1> !PBE D3BJ RIJCOSX def2-SVPD def2/J TightSCF
|  2> *xyz 0 1
|  3> C         -5.57236       -5.80780       -0.81644
|  4> S         -6.90318       -4.61903       -0.52846
|  5> F         -8.11485       -5.25093       -0.95701
|  6> O         -6.53271       -3.42684       -1.31485
|  7> O         -6.86563       -4.29496        0.91412
|  8> C         -4.45780       -5.94187        0.22919
|  9> H         -5.17735       -5.54257       -1.79771
| 10> H         -6.07420       -6.76889       -0.92127
| 11> H         -3.75515       -6.68239       -0.09144
| 12> H         -4.88182       -6.23486        1.16689
| 13> H         -3.95908       -5.00189        0.34143
| 14> *
| 15> %MaxCore 64000
| 16>
| 17> %pal nprocs 4
| 18> end
| 19>
| 20> %scf
| 21>   MaxIter 150
| 22> end
| 23>
| 24>                          ****END OF INPUT****

CARTESIAN COORDINATES (ANGSTROEM)
---------------------------------
  C     -5.572360   -5.807800   -0.816440
  S     -6.903180   -4.619030   -0.528460
  F     -8.114850   -5.250930   -0.957010
  O     -6.532710   -3.426840   -1.314850
  O     -6.865630   -4.294960    0.914120
  C     -4.457800   -5.941870    0.229190
  H     -5.177350   -5.542570   -1.797710
  H     -6.074200   -6.768890   -0.921270
  H     -3.755150   -6.682390   -0.091440
  H     -4.881820   -6.234860    1.166890
  H     -3.959080   -5.001890    0.341430

 Total Charge           Charge          ....    0
 Multiplicity           Mult            ....    1
 Number of Electrons    NEL             ....   58
 Basis Dimension        Dim             ....  176

ORBITAL ENERGIES
----------------

  NO   OCC          E(Eh)            E(eV)
   0   2.0000     -88.310745     -2403.0575
   1   2.0000     -24.393892      -663.7915
   2   2.0000     -18.768988      -510.7301
   3   2.0000     -18.768746      -510.7236
   4   2.0000      -9.960353      -271.0350
   5   2.0000      -9.918640      -269.8999
   6   2.0000      -7.915913      -215.4029
   7   2.0000      -5.947257      -161.8331
   8   2.0000      -5.940528      -161.6500
   9   2.0000      -5.939142      -161.6123
  10   2.0000      -1.280866       -34.8541
  11   2.0000      -1.008291       -27.4370
  12   2.0000      -0.909948       -24.7610
  13   2.0000      -0.747439       -20.3389
  14   2.0000      -0.673878       -18.3372
  15   2.0000      -0.617133       -16.7931
  16   2.0000      -0.532037       -14.4775
  17   2.0000      -0.529049       -14.3962
  18   2.0000      -0.500062       -13.6074
  19   2.0000      -0.445753       -12.1295
  20   2.0000      -0.430773       -11.7219
  21   2.0000      -0.399016       -10.8578
  22   2.0000      -0.385975       -10.5029
  23   2.0000      -0.364235        -9.9113
  24   2.0000      -0.348836        -9.4923
  25   2.0000      -0.334383        -9.0990
  26   2.0000      -0.283394        -7.7116
  27   2.0000      -0.279219        -7.5979
  28   2.0000      -0.255872        -6.9626
  29   0.0000      -0.029143        -0.7930
  30   0.0000      -0.014061        -0.3826
  31   0.0000       0.011473         0.3122
  32   0.0000       0.019977         0.5436
  33   0.0000       0.025180         0.6852

MULLIKEN ATOMIC CHARGES
-----------------------
   0 C :   -0.394841
   1 S :    1.338077
   2 F :   -0.342578
   3 O :   -0.634904
   4 O :   -0.647279
   5 C :    0.779743
   6 H :    0.017681
   7 H :    0.039006
   8 H :   -0.089770
   9 H :   -0.020074
  10 H :   -0.045062
Sum of atomic charges:   -0.0000000

LOEWDIN ATOMIC CHARGES
----------------------
   0 C :   -0.096559
   1 S :    1.083669
   2 F :   -0.240115
   3 O :   -0.457999
   4 O :   -0.454902
   5 C :    0.145315
   6 H :    0.019613
   7 H :    0.009304
   8 H :   -0.003891
   9 H :   -0.005517
  10 H :    0.001082

  Mayer bond orders larger than 0.100000
B(  0-C ,  1-S ) :   0.9271 B(  0-C ,  5-C ) :   1.4095 B(  0-C ,  6-H ) :   0.9554
B(  0-C ,  7-H ) :   0.9243 B(  0-C ,  8-H ) :   0.2199 B(  0-C ,  9-H ) :   0.2138
B(  0-C , 10-H ) :   0.1955 B(  1-S ,  2-F ) :   0.7408 B(  1-S ,  3-O ) :   1.5223
B(  1-S ,  4-O ) :   1.5090 B(  5-C ,  7-H ) :   0.1023 B(  5-C ,  8-H ) :   0.7417
B(  5-C ,  9-H ) :   0.7938 B(  5-C , 10-H ) :   0.8119

Dispersion correction           -0.009110558
FINAL SINGLE POINT ENERGY      -726.752381062496

DIPOLE MOMENT
-------------
                                X             Y             Z
Electronic contribution:     -9.37600       3.62330      -1.83494
Nuclear contribution   :      9.80704      -5.24335       1.35017
                        -----------------------------------------
Total Dipole Moment    :      0.43103      -1.62005      -0.48476
                        -----------------------------------------
Magnitude (a.u.)       :      1.74510
Magnitude (Debye)      :      4.43568

Rotational constants in cm-1:     0.156316     0.078308     0.076228
Rotational constants in MHz :  4686.224999  2347.601204  2285.245115

                             ****ORCA TERMINATED NORMALLY****
TOTAL RUN TIME: 0 days 0 hours 0 minutes 9 seconds 791 msec
