                         Program Version 5.0.0 -  RELEASE  -
|  1> !PBE D3BJ RIJCOSX def2-SVPD def2/J TightSCF
|  2> *xyz 0 1
|  3> C         -4.38262       -1.67089        1.21620
|  4> C         -5.76354       -1.91517        0.70501
|  5> C         -3.28173       -2.19127        0.29436
|  6> H         -5.84081       -2.11520       -0.30065
|  7> H         -6.40882       -1.14866        0.93612
|  8> H         -6.17478       -2.79061        1.05143
|  9> H         -4.32862       -2.13922        2.19810
| 10> H         -4.26158       -0.59740        1.35725
| 11> H         -3.36057       -1.71407       -0.66008
| 12> H         -3.38775       -3.24919        0.17403
| 13> H         -2.32559       -1.97514        0.72329
| 14> *
| 15> %MaxCore 64000
| 16>
| 17> %pal nprocs 4
| 18> end
| 19>
| 20> %scf
| 21>   MaxIter 150
| 22> end
| 23>
| 24>                          ****END OF INPUT****

CARTESIAN COORDINATES (ANGSTROEM)
---------------------------------
  C     -4.382620   -1.670890    1.216200
  C     -5.763540   -1.915170    0.705010
  C     -3.281730   -2.191270    0.294360
  H     -5.840810   -2.115200   -0.300650
  H     -6.408820   -1.148660    0.936120
  H     -6.174780   -2.790610    1.051430
  H     -4.328620   -2.139220    2.198100
  H     -4.261580   -0.597400    1.357250
  H     -3.360570   -1.714070   -0.660080
  H     -3.387750   -3.249190    0.174030
  H     -2.325590   -1.975140    0.723290

 Total Charge           Charge          ....    0
 Multiplicity           Mult            ....    1
 Number of Electrons    NEL             ....   26
 Basis Dimension        Dim             ....  124

ORBITAL ENERGIES
----------------

  NO   OCC          E(Eh)            E(eV)
   0   2.0000      -9.885327      -268.9934
   1   2.0000      -9.875838      -268.7352
   2   2.0000      -9.858573      -268.2654
   3   2.0000      -0.710180       -19.3250
   4   2.0000      -0.619767       -16.8647
   5   2.0000      -0.525616       -14.3027
   6   2.0000      -0.413676       -11.2567
   7   2.0000      -0.394216       -10.7272
   8   2.0000      -0.365009        -9.9324
   9   2.0000      -0.340478        -9.2649
  10   2.0000      -0.299866        -8.1598
  11   2.0000      -0.293570        -7.9884
  12   2.0000      -0.279497        -7.6055
  13   0.0000       0.009116         0.2481
  14   0.0000       0.039773         1.0823
  15   0.0000       0.045250         1.2313
  16   0.0000       0.064107         1.7444
  17   0.0000       0.087797         2.3891

MULLIKEN ATOMIC CHARGES
-----------------------
   0 C :   -0.553637
   1 C :    0.955195
   2 C :    0.655700
   3 H :   -0.316483
   4 H :   -0.172895
   5 H :   -0.195301
   6 H :   -0.130554
   7 H :   -0.061351
   8 H :   -0.024405
   9 H :   -0.066828
  10 H :   -0.089440
Sum of atomic charges:   -0.0000000

LOEWDIN ATOMIC CHARGES
----------------------
   0 C :   -0.108879
   1 C :    0.117663
   2 C :    0.116150
   3 H :   -0.038457
   4 H :   -0.032442
   5 H :   -0.035854
   6 H :    0.019294
   7 H :    0.018585
   8 H :   -0.016772
   9 H :   -0.016722
  10 H :   -0.022565

  Mayer bond orders larger than 0.100000
B(  0-C ,  1-C ) :   1.3339 B(  0-C ,  2-C ) :   1.3229 B(  0-C ,  3-H ) :   0.1932
B(  0-C ,  4-H ) :   0.2051 B(  0-C ,  5-H ) :   0.2411 B(  0-C ,  6-H ) :   0.9170
B(  0-C ,  7-H ) :   0.9077 B(  0-C ,  8-H ) :   0.1706 B(  0-C ,  9-H ) :   0.1871
B(  0-C , 10-H ) :   0.2215 B(  1-C ,  3-H ) :   0.6426 B(  1-C ,  4-H ) :   0.7151
B(  1-C ,  5-H ) :   0.5994 B(  1-C ,  6-H ) :   0.1283 B(  2-C ,  8-H ) :   0.8198
B(  2-C ,  9-H ) :   0.8235 B(  2-C , 10-H ) :   0.7875 B(  3-H ,  5-H ) :   0.3275

Dispersion correction           -0.006097765
FINAL SINGLE POINT ENERGY      -118.861235910948

DIPOLE MOMENT
-------------
                                X             Y             Z
Electronic contribution:      0.18526       0.23873       0.34108
Nuclear contribution   :     -0.21528      -0.24783      -0.32864
                        -----------------------------------------
Total Dipole Moment    :     -0.03001      -0.00910       0.01243
                        -----------------------------------------
Magnitude (a.u.)       :      0.03374
Magnitude (Debye)      :      0.08575

Rotational constants in cm-1:     1.037566     0.286459     0.254172
Rotational constants in MHz : 31105.431429  8587.814531  7619.871198

                             ****ORCA TERMINATED NORMALLY****
TOTAL RUN TIME: 0 days 0 hours 0 minutes 6 seconds 758 msec
