                         Program Version 5.0.0 -  RELEASE  -
|  1> !PBE D3BJ RIJCOSX def2-SVPD def2/J TightSCF
|  2> *xyz 0 1
|  3> C         -5.57236       -5.80780       -0.81644
|  4> S         -6.90318       -4.61903       -0.52846
|  5> O         -8.11485       -5.25093       -0.95701
|  6> F         -6.53271       -3.42684       -1.31485
|  7> O         -6.86563       -4.29496        0.91412
|  8> C         -4.45780       -5.94187        0.22919
|  9> H         -5.17735       -5.54257       -1.79771
| 10> H         -6.07420       -6.76889       -0.92127
| 11> H         -3.75515       -6.68239       -0.09144
| 12> H         -4.88182       -6.23486        1.16689
| 13> H         -3.95908       -5.00189        0.34143
| 14> *
| 15> %MaxCore 64000
| 16>
| 17> %pal nprocs 4
| 18> end
| 19>
| 20> %scf
| 21>   MaxIter 150
| 22> end
| 23>
| 24>                          ****END OF INPUT****

CARTESIAN COORDINATES (ANGSTROEM)
---------------------------------
  C     -5.572360   -5.807800   -0.816440
  S     -6.903180   -4.619030   -0.528460
  O     -8.114850   -5.250930   -0.957010
  F     -6.532710   -3.426840   -1.314850
  O     -6.865630   -4.294960    0.914120
  C     -4.457800   -5.941870    0.229190
  H     -5.177350   -5.542570   -1.797710
  H     -6.074200   -6.768890   -0.921270
  H     -3.755150   -6.682390   -0.091440
  H     -4.881820   -6.234860    1.166890
  H     -3.959080   -5.001890    0.341430

 Total Charge           Charge          ....    0
 Multiplicity           Mult            ....    1
 Number of Electrons    NEL             ....   58
 Basis Dimension        Dim             ....  176

ORBITAL ENERGIES
----------------

  NO   OCC          E(Eh)            E(eV)
   0   2.0000     -88.308277     -2402.9904
   1   2.0000     -24.372565      -663.2112
   2   2.0000     -18.782546      -511.0991
   3   2.0000     -18.768679      -510.7217
   4   2.0000      -9.959570      -271.0137
   5   2.0000      -9.918049      -269.8838
   6   2.0000      -7.913528      -215.3381
   7   2.0000      -5.944619      -161.7613
   8   2.0000      -5.938383      -161.5916
   9   2.0000      -5.936957      -161.5528
  10   2.0000      -1.244650       -33.8686
  11   2.0000      -1.024257       -27.8714
  12   2.0000      -0.925321       -25.1793
  13   2.0000      -0.746890       -20.3239
  14   2.0000      -0.660445       -17.9716
  15   2.0000      -0.609963       -16.5979
  16   2.0000      -0.520055       -14.1514
  17   2.0000      -0.503861       -13.7108
  18   2.0000      -0.494271       -13.4498
  19   2.0000      -0.444424       -12.0934
  20   2.0000      -0.430382       -11.7113
  21   2.0000      -0.407199       -11.0805
  22   2.0000      -0.388272       -10.5654
  23   2.0000      -0.362023        -9.8511
  24   2.0000      -0.355673        -9.6784
  25   2.0000      -0.339187        -9.2297
  26   2.0000      -0.295943        -8.0530
  27   2.0000      -0.283651        -7.7185
  28   2.0000      -0.268194        -7.2979
  29   0.0000      -0.028794        -0.7835
  30   0.0000      -0.010720        -0.2917
  31   0.0000       0.010836         0.2949
  32   0.0000       0.022388         0.6092
  33   0.0000       0.025910         0.7050

MULLIKEN ATOMIC CHARGES
-----------------------
   0 C :   -0.394140
   1 S :    1.337742
   2 O :   -0.590883
   3 F :   -0.380326
   4 O :   -0.656300
   5 C :    0.803826
   6 H :    0.016239
   7 H :    0.037832
   8 H :   -0.091042
   9 H :   -0.020997
  10 H :   -0.061950
Sum of atomic charges:   -0.0000000

LOEWDIN ATOMIC CHARGES
----------------------
   0 C :   -0.090997
   1 S :    1.080656
   2 O :   -0.435325
   3 F :   -0.260438
   4 O :   -0.453900
   5 C :    0.138226
   6 H :    0.014521
   7 H :    0.021895
   8 H :   -0.005552
   9 H :   -0.004195
  10 H :   -0.004893

  Mayer bond orders larger than 0.100000
B(  0-C ,  1-S ) :   0.9365 B(  0-C ,  5-C ) :   1.3959 B(  0-C ,  6-H ) :   0.9322
B(  0-C ,  7-H ) :   0.9576 B(  0-C ,  8-H ) :   0.2223 B(  0-C ,  9-H ) :   0.2125
B(  0-C , 10-H ) :   0.2017 B(  1-S ,  2-O ) :   1.5791 B(  1-S ,  3-F ) :   0.6774
B(  1-S ,  4-O ) :   1.5157 B(  2-O ,  4-O ) :   0.1035 B(  5-C ,  8-H ) :   0.7395
B(  5-C ,  9-H ) :   0.7969 B(  5-C , 10-H ) :   0.8078

Dispersion correction           -0.009096535
FINAL SINGLE POINT ENERGY      -726.770987669910

DIPOLE MOMENT
-------------
                                X             Y             Z
Electronic contribution:     -6.75109       6.66769      -2.44851
Nuclear contribution   :      8.15840      -7.14411       1.72305
                        -----------------------------------------
Total Dipole Moment    :      1.40731      -0.47642      -0.72546
                        -----------------------------------------
Magnitude (a.u.)       :      1.65341
Magnitude (Debye)      :      4.20264

Rotational constants in cm-1:     0.153926     0.078297     0.077402
Rotational constants in MHz :  4614.585804  2347.272644  2320.438903

                             ****ORCA TERMINATED NORMALLY****
TOTAL RUN TIME: 0 days 0 hours 0 minutes 9 seconds 933 msec
