                         Program Version 5.0.0 -  RELEASE  -
|  1> !PBE D3BJ RIJCOSX def2-SVPD def2/J TightSCF
|  2> *xyz 0 1
|  3> C         -5.57236       -5.80780       -0.81644
|  4> S         -6.90318       -4.61903       -0.52846
|  5> O         -8.11485       -5.25093       -0.95701
|  6> O         -6.53271       -3.42684       -1.31485
|  7> F         -6.86563       -4.29496        0.91412
|  8> C         -4.45780       -5.94187        0.22919
|  9> H         -5.17735       -5.54257       -1.79771
| 10> H         -6.07420       -6.76889       -0.92127
| 11> H         -3.75515       -6.68239       -0.09144
| 12> H         -4.88182       -6.23486        1.16689
| 13> H         -3.95908       -5.00189        0.34143
| 14> *
| 15> %MaxCore 64000
| 16>
| 17> %pal nprocs 4
| 18> end
| 19>
| 20> %scf
| 21>   MaxIter 150
| 22> end
| 23>
| 24>                          ****END OF INPUT****

CARTESIAN COORDINATES (ANGSTROEM)
---------------------------------
  C     -5.572360   -5.807800   -0.816440
  S     -6.903180   -4.619030   -0.528460
  O     -8.114850   -5.250930   -0.957010
  O     -6.532710   -3.426840   -1.314850
  F     -6.865630   -4.294960    0.914120
  C     -4.457800   -5.941870    0.229190
  H     -5.177350   -5.542570   -1.797710
  H     -6.074200   -6.768890   -0.921270
  H     -3.755150   -6.682390   -0.091440
  H     -4.881820   -6.234860    1.166890
  H     -3.959080   -5.001890    0.341430

 Total Charge           Charge          ....    0
 Multiplicity           Mult            ....    1
 Number of Electrons    NEL             ....   58
 Basis Dimension        Dim             ....  176

ORBITAL ENERGIES
----------------

  NO   OCC          E(Eh)            E(eV)
   0   2.0000     -88.307884     -2402.9797
   1   2.0000     -24.371628      -663.1857
   2   2.0000     -18.782297      -511.0923
   3   2.0000     -18.767915      -510.7009
   4   2.0000      -9.958875      -270.9948
   5   2.0000      -9.924825      -270.0682
   6   2.0000      -7.913138      -215.3274
   7   2.0000      -5.944276      -161.7520
   8   2.0000      -5.938046      -161.5824
   9   2.0000      -5.936498      -161.5403
  10   2.0000      -1.241978       -33.7959
  11   2.0000      -1.024883       -27.8885
  12   2.0000      -0.926025       -25.1984
  13   2.0000      -0.749439       -20.3933
  14   2.0000      -0.657714       -17.8973
  15   2.0000      -0.614248       -16.7145
  16   2.0000      -0.525294       -14.2940
  17   2.0000      -0.503268       -13.6946
  18   2.0000      -0.487114       -13.2551
  19   2.0000      -0.448292       -12.1987
  20   2.0000      -0.424242       -11.5442
  21   2.0000      -0.406659       -11.0657
  22   2.0000      -0.398142       -10.8340
  23   2.0000      -0.370042       -10.0694
  24   2.0000      -0.355252        -9.6669
  25   2.0000      -0.342032        -9.3072
  26   2.0000      -0.296714        -8.0740
  27   2.0000      -0.281716        -7.6659
  28   2.0000      -0.267837        -7.2882
  29   0.0000      -0.036090        -0.9820
  30   0.0000       0.004540         0.1235
  31   0.0000       0.015038         0.4092
  32   0.0000       0.020977         0.5708
  33   0.0000       0.024878         0.6770

MULLIKEN ATOMIC CHARGES
-----------------------
   0 C :   -0.368841
   1 S :    1.322280
   2 O :   -0.587327
   3 O :   -0.643005
   4 F :   -0.392614
   5 C :    0.782160
   6 H :    0.020039
   7 H :    0.043438
   8 H :   -0.082088
   9 H :   -0.038770
  10 H :   -0.055271
Sum of atomic charges:   -0.0000000

LOEWDIN ATOMIC CHARGES
----------------------
   0 C :   -0.085005
   1 S :    1.079759
   2 O :   -0.435044
   3 O :   -0.459193
   4 F :   -0.258251
   5 C :    0.132609
   6 H :    0.027875
   7 H :    0.016643
   8 H :   -0.004984
   9 H :   -0.010019
  10 H :   -0.004392

  Mayer bond orders larger than 0.100000
B(  0-C ,  1-S ) :   0.9417 B(  0-C ,  5-C ) :   1.3728 B(  0-C ,  6-H ) :   0.9477
B(  0-C ,  7-H ) :   0.9528 B(  0-C ,  8-H ) :   0.2250 B(  0-C ,  9-H ) :   0.2019
B(  0-C , 10-H ) :   0.1887 B(  1-S ,  2-O ) :   1.5767 B(  1-S ,  3-O ) :   1.5202
B(  1-S ,  4-F ) :   0.6795 B(  5-C ,  8-H ) :   0.7421 B(  5-C ,  9-H ) :   0.8003
B(  5-C , 10-H ) :   0.8150

Dispersion correction           -0.009057189
FINAL SINGLE POINT ENERGY      -726.771117459180

DIPOLE MOMENT
-------------
                                X             Y             Z
Electronic contribution:     -7.28819       5.19239       1.26368
Nuclear contribution   :      8.50531      -6.23950      -0.59960
                        -----------------------------------------
Total Dipole Moment    :      1.21712      -1.04711       0.66408
                        -----------------------------------------
Magnitude (a.u.)       :      1.73747
Magnitude (Debye)      :      4.41630

Rotational constants in cm-1:     0.152799     0.080212     0.076962
Rotational constants in MHz :  4580.804531  2404.707790  2307.252710

                             ****ORCA TERMINATED NORMALLY****
TOTAL RUN TIME: 0 days 0 hours 0 minutes 10 seconds 822 msec
