                         Program Version 5.0.0 -  RELEASE  -
|  1> !CAM-B3LYP RIJCOSX def2-SVPD def2/J TightSCF
|  2> *xyz -1 1
|  3> C          1.72854        1.42432       -5.63944
|  4> S          2.25263       -0.18811       -6.27184
|  5> O          3.56261       -0.44446       -5.63155
|  6> O          2.34494       -0.03374       -7.69650
|  7> O          1.26606       -1.15918       -5.80536
|  8> H          0.77944        1.68154       -6.06127
|  9> H          2.45151        2.16548       -5.90944
| 10> H          1.64478        1.37937       -4.57367
| 11> *
| 12>
| 13> %MaxCore 64000
| 14>
| 15> %pal nprocs 8
| 16> end
| 17>
| 18> %scf
| 19>   MaxIter 150
| 20> end
| 21>
| 22>
| 23>                          ****END OF INPUT****

CARTESIAN COORDINATES (ANGSTROEM)
---------------------------------
  C      1.728540    1.424320   -5.639440
  S      2.252630   -0.188110   -6.271840
  O      3.562610   -0.444460   -5.631550
  O      2.344940   -0.033740   -7.696500
  O      1.266060   -1.159180   -5.805360
  H      0.779440    1.681540   -6.061270
  H      2.451510    2.165480   -5.909440
  H      1.644780    1.379370   -4.573670

 Total Charge           Charge          ....   -1
 Multiplicity           Mult            ....    1
 Number of Electrons    NEL             ....   50
 Basis Dimension        Dim             ....  140

ORBITAL ENERGIES
----------------

  NO   OCC          E(Eh)            E(eV)
   0   2.0000     -88.964344     -2420.8429
   1   2.0000     -18.997265      -516.9419
   2   2.0000     -18.990918      -516.7692
   3   2.0000     -18.982798      -516.5482
   4   2.0000     -10.115985      -275.2699
   5   2.0000      -8.017175      -218.1584
   6   2.0000      -5.987067      -162.9164
   7   2.0000      -5.986943      -162.9130
   8   2.0000      -5.986754      -162.9079
   9   2.0000      -1.015705       -27.6387
  10   2.0000      -0.871924       -23.7263
  11   2.0000      -0.848614       -23.0920
  12   2.0000      -0.663109       -18.0441
  13   2.0000      -0.463754       -12.6194
  14   2.0000      -0.376557       -10.2466
  15   2.0000      -0.362940        -9.8761
  16   2.0000      -0.361784        -9.8446
  17   2.0000      -0.320339        -8.7169
  18   2.0000      -0.318315        -8.6618
  19   2.0000      -0.221568        -6.0292
  20   2.0000      -0.220523        -6.0007
  21   2.0000      -0.182894        -4.9768
  22   2.0000      -0.177311        -4.8249
  23   2.0000      -0.168542        -4.5863
  24   2.0000      -0.130718        -3.5570
  25   0.0000       0.176165         4.7937
  26   0.0000       0.206537         5.6202
  27   0.0000       0.206754         5.6261
  28   0.0000       0.211523         5.7558
  29   0.0000       0.237957         6.4752

MULLIKEN ATOMIC CHARGES
-----------------------
   0 C :    0.685102
   1 S :    1.082138
   2 O :   -0.796463
   3 O :   -0.748868
   4 O :   -0.773663
   5 H :   -0.151968
   6 H :   -0.145143
   7 H :   -0.151134
Sum of atomic charges:   -1.0000000

LOEWDIN ATOMIC CHARGES
----------------------
   0 C :    0.061760
   1 S :    0.835381
   2 O :   -0.605896
   3 O :   -0.582296
   4 O :   -0.593208
   5 H :   -0.039758
   6 H :   -0.038025
   7 H :   -0.037957

  Mayer bond orders larger than 0.100000
B(  0-C ,  1-S ) :   0.9286 B(  0-C ,  5-H ) :   0.8845 B(  0-C ,  6-H ) :   0.8862
B(  0-C ,  7-H ) :   0.8887 B(  1-S ,  2-O ) :   1.3076 B(  1-S ,  3-O ) :   1.3481
B(  1-S ,  4-O ) :   1.3250 B(  1-S ,  5-H ) :   0.1211 B(  1-S ,  6-H ) :   0.1256
B(  1-S ,  7-H ) :   0.1310

FINAL SINGLE POINT ENERGY      -663.408090650655

DIPOLE MOMENT
-------------
                                X             Y             Z
Electronic contribution:      1.16245      -3.75601      -1.58621
Nuclear contribution   :     -1.71379       5.17769       1.98321
                        -----------------------------------------
Total Dipole Moment    :     -0.55134       1.42168       0.39699
                        -----------------------------------------
Magnitude (a.u.)       :      1.57567
Magnitude (Debye)      :      4.00504

Rotational constants in cm-1:     0.172739     0.155771     0.153412
Rotational constants in MHz :  5178.588083  4669.889924  4599.189984

                             ****ORCA TERMINATED NORMALLY****
TOTAL RUN TIME: 0 days 0 hours 0 minutes 9 seconds 949 msec
