                         Program Version 5.0.0 -  RELEASE  -
|  1> !CAM-B3LYP RIJCOSX def2-SVPD def2/J TightSCF
|  2> *xyz 1 1
|  3> C          2.91632       -1.24259       -1.54313
|  4> C          3.46659       -1.59097       -2.88908
|  5> N          4.65227       -1.14316       -3.25969
|  6> N          2.75226       -2.29204       -3.72803
|  7> H          1.77836       -2.48960       -3.51274
|  8> H          2.94861       -2.20854       -4.71681
|  9> H          5.14672       -0.51251       -2.63385
| 10> H          4.78303       -1.00720       -4.25350
| 11> H          1.95294       -1.69278       -1.42424
| 12> H          2.82618       -0.17973       -1.45886
| 13> H          3.57606       -1.60596       -0.78312
| 14> *
| 15>
| 16> %MaxCore 64000
| 17>
| 18> %pal nprocs 8
| 19> end
| 20>
| 21> %scf
| 22>   MaxIter 150
| 23> end
| 24>
| 25>
| 26>                          ****END OF INPUT****

CARTESIAN COORDINATES (ANGSTROEM)
---------------------------------
  C      2.916320   -1.242590   -1.543130
  C      3.466590   -1.590970   -2.889080
  N      4.652270   -1.143160   -3.259690
  N      2.752260   -2.292040   -3.728030
  H      1.778360   -2.489600   -3.512740
  H      2.948610   -2.208540   -4.716810
  H      5.146720   -0.512510   -2.633850
  H      4.783030   -1.007200   -4.253500
  H      1.952940   -1.692780   -1.424240
  H      2.826180   -0.179730   -1.458860
  H      3.576060   -1.605960   -0.783120

 Total Charge           Charge          ....    1
 Multiplicity           Mult            ....    1
 Number of Electrons    NEL             ....   32
 Basis Dimension        Dim             ....  136

ORBITAL ENERGIES
----------------

  NO   OCC          E(Eh)            E(eV)
   0   2.0000     -14.662395      -398.9841
   1   2.0000     -14.657032      -398.8381
   2   2.0000     -10.598906      -288.4109
   3   2.0000     -10.462198      -284.6909
   4   2.0000      -1.295885       -35.2628
   5   2.0000      -1.193163       -32.4676
   6   2.0000      -1.036355       -28.2006
   7   2.0000      -0.920565       -25.0499
   8   2.0000      -0.852122       -23.1874
   9   2.0000      -0.846091       -23.0233
  10   2.0000      -0.776365       -21.1260
  11   2.0000      -0.741645       -20.1812
  12   2.0000      -0.691689       -18.8218
  13   2.0000      -0.674993       -18.3675
  14   2.0000      -0.646892       -17.6028
  15   2.0000      -0.571531       -15.5521
  16   0.0000      -0.182329        -4.9614
  17   0.0000      -0.130759        -3.5581
  18   0.0000      -0.086168        -2.3447
  19   0.0000      -0.082579        -2.2471
  20   0.0000      -0.061150        -1.6640

MULLIKEN ATOMIC CHARGES
-----------------------
   0 C :    0.767319
   1 C :    0.076642
   2 N :    0.173346
   3 N :    0.166280
   4 H :    0.026933
   5 H :   -0.082522
   6 H :    0.027529
   7 H :   -0.073241
   8 H :   -0.030607
   9 H :   -0.038937
  10 H :   -0.012743
Sum of atomic charges:    1.0000000

LOEWDIN ATOMIC CHARGES
----------------------
   0 C :    0.236266
   1 C :   -0.072970
   2 N :    0.281112
   3 N :    0.285362
   4 H :    0.057767
   5 H :    0.050491
   6 H :    0.058888
   7 H :    0.045679
   8 H :    0.007653
   9 H :    0.025354
  10 H :    0.024398

  Mayer bond orders larger than 0.100000
B(  0-C ,  1-C ) :   1.3354 B(  0-C ,  8-H ) :   0.7477 B(  0-C ,  9-H ) :   0.7903
B(  0-C , 10-H ) :   0.6538 B(  1-C ,  2-N ) :   1.1830 B(  1-C ,  3-N ) :   1.1670
B(  1-C ,  5-H ) :  -0.1281 B(  1-C ,  8-H ) :   0.2781 B(  1-C ,  9-H ) :   0.1531
B(  1-C , 10-H ) :   0.2599 B(  2-N ,  3-N ) :   0.1591 B(  2-N ,  6-H ) :   1.0305
B(  2-N ,  7-H ) :   1.1649 B(  3-N ,  4-H ) :   1.0438 B(  3-N ,  5-H ) :   1.2020
B(  4-H ,  5-H ) :  -0.1318 B(  6-H ,  7-H ) :  -0.1195 B(  8-H , 10-H ) :   0.1092
B(  9-H , 10-H ) :   0.1018

FINAL SINGLE POINT ENERGY      -189.484399794199

DIPOLE MOMENT
-------------
                                X             Y             Z
Electronic contribution:      0.89514      -0.72988      -1.80370
Nuclear contribution   :     -1.03256       1.11747       1.26949
                        -----------------------------------------
Total Dipole Moment    :     -0.13742       0.38760      -0.53422
                        -----------------------------------------
Magnitude (a.u.)       :      0.67417
Magnitude (Debye)      :      1.71360

Rotational constants in cm-1:     0.336859     0.298586     0.163958
Rotational constants in MHz : 10098.776812  8951.369850  4915.333652

                             ****ORCA TERMINATED NORMALLY****
TOTAL RUN TIME: 0 days 0 hours 0 minutes 9 seconds 373 msec
