                         Program Version 5.0.0 -  RELEASE  -
|  1> !CAM-B3LYP RIJCOSX def2-SVPD def2/J TightSCF
|  2> *xyz 0 1
|  3> C          1.72854        1.42432       -5.63944
|  4> S          2.25263       -0.18811       -6.27184
|  5> F          3.56261       -0.44446       -5.63155
|  6> O          2.34494       -0.03374       -7.69650
|  7> O          1.26606       -1.15918       -5.80536
|  8> H          0.77944        1.68154       -6.06127
|  9> H          2.45151        2.16548       -5.90944
| 10> H          1.64478        1.37937       -4.57367
| 11> *
| 12>
| 13> %MaxCore 64000
| 14>
| 15> %pal nprocs 8
| 16> end
| 17>
| 18> %scf
| 19>   MaxIter 150
| 20> end
| 21>
| 22>
| 23>                          ****END OF INPUT****

CARTESIAN COORDINATES (ANGSTROEM)
---------------------------------
  C      1.728540    1.424320   -5.639440
  S      2.252630   -0.188110   -6.271840
  F      3.562610   -0.444460   -5.631550
  O      2.344940   -0.033740   -7.696500
  O      1.266060   -1.159180   -5.805360
  H      0.779440    1.681540   -6.061270
  H      2.451510    2.165480   -5.909440
  H      1.644780    1.379370   -4.573670

 Total Charge           Charge          ....    0
 Multiplicity           Mult            ....    1
 Number of Electrons    NEL             ....   50
 Basis Dimension        Dim             ....  140

ORBITAL ENERGIES
----------------

  NO   OCC          E(Eh)            E(eV)
   0   2.0000     -89.228629     -2428.0344
   1   2.0000     -24.881479      -677.0595
   2   2.0000     -19.236265      -523.4454
   3   2.0000     -19.229731      -523.2676
   4   2.0000     -10.325425      -280.9691
   5   2.0000      -8.281998      -225.3646
   6   2.0000      -6.255956      -170.2332
   7   2.0000      -6.249647      -170.0616
   8   2.0000      -6.248731      -170.0366
   9   2.0000      -1.436396       -39.0863
  10   2.0000      -1.205687       -32.8084
  11   2.0000      -1.105707       -30.0878
  12   2.0000      -0.884433       -24.0666
  13   2.0000      -0.786992       -21.4151
  14   2.0000      -0.673949       -18.3391
  15   2.0000      -0.650675       -17.7058
  16   2.0000      -0.632464       -17.2102
  17   2.0000      -0.556156       -15.1338
  18   2.0000      -0.554535       -15.0897
  19   2.0000      -0.541397       -14.7322
  20   2.0000      -0.518386       -14.1060
  21   2.0000      -0.466916       -12.7054
  22   2.0000      -0.415844       -11.3157
  23   2.0000      -0.409109       -11.1324
  24   2.0000      -0.391368       -10.6497
  25   0.0000       0.021309         0.5798
  26   0.0000       0.060041         1.6338
  27   0.0000       0.067403         1.8341
  28   0.0000       0.067663         1.8412
  29   0.0000       0.071380         1.9423

MULLIKEN ATOMIC CHARGES
-----------------------
   0 C :    0.648884
   1 S :    1.242765
   2 F :   -0.386268
   3 O :   -0.614233
   4 O :   -0.637778
   5 H :   -0.090240
   6 H :   -0.078059
   7 H :   -0.085070
Sum of atomic charges:    0.0000000

LOEWDIN ATOMIC CHARGES
----------------------
   0 C :    0.131305
   1 S :    1.104469
   2 F :   -0.272550
   3 O :   -0.464968
   4 O :   -0.474693
   5 H :    0.000312
   6 H :   -0.011930
   7 H :   -0.011945

  Mayer bond orders larger than 0.100000
B(  0-C ,  1-S ) :   0.9821 B(  0-C ,  5-H ) :   0.8844 B(  0-C ,  6-H ) :   0.8883
B(  0-C ,  7-H ) :   0.8920 B(  1-S ,  2-F ) :   0.6764 B(  1-S ,  3-O ) :   1.5563
B(  1-S ,  4-O ) :   1.5321 B(  1-S ,  5-H ) :   0.1230 B(  1-S ,  7-H ) :   0.1042

FINAL SINGLE POINT ENERGY      -687.907941870545

DIPOLE MOMENT
-------------
                                X             Y             Z
Electronic contribution:      3.34620      -4.13912      -0.50912
Nuclear contribution   :     -3.03874       5.51823       1.39394
                        -----------------------------------------
Total Dipole Moment    :      0.30747       1.37911       0.88481
                        -----------------------------------------
Magnitude (a.u.)       :      1.66715
Magnitude (Debye)      :      4.23755

Rotational constants in cm-1:     0.164301     0.151617     0.146802
Rotational constants in MHz :  4925.615104  4545.361281  4401.017554

                             ****ORCA TERMINATED NORMALLY****
TOTAL RUN TIME: 0 days 0 hours 0 minutes 9 seconds 914 msec
