                         Program Version 5.0.0 -  RELEASE  -
|  1> !CAM-B3LYP RIJCOSX def2-SVPD def2/J TightSCF
|  2> *xyz 0 1
|  3> C          2.91632       -1.24259       -1.54313
|  4> C          3.46659       -1.59097       -2.88908
|  5> C          4.65227       -1.14316       -3.25969
|  6> N          2.75226       -2.29204       -3.72803
|  7> H          1.77836       -2.48960       -3.51274
|  8> H          2.94861       -2.20854       -4.71681
|  9> H          5.14672       -0.51251       -2.63385
| 10> H          4.78303       -1.00720       -4.25350
| 11> H          1.95294       -1.69278       -1.42424
| 12> H          2.82618       -0.17973       -1.45886
| 13> H          3.57606       -1.60596       -0.78312
| 14> *
| 15>
| 16> %MaxCore 64000
| 17>
| 18> %pal nprocs 8
| 19> end
| 20>
| 21> %scf
| 22>   MaxIter 150
| 23> end
| 24>
| 25>
| 26>                          ****END OF INPUT****

CARTESIAN COORDINATES (ANGSTROEM)
---------------------------------
  C      2.916320   -1.242590   -1.543130
  C      3.466590   -1.590970   -2.889080
  C      4.652270   -1.143160   -3.259690
  N      2.752260   -2.292040   -3.728030
  H      1.778360   -2.489600   -3.512740
  H      2.948610   -2.208540   -4.716810
  H      5.146720   -0.512510   -2.633850
  H      4.783030   -1.007200   -4.253500
  H      1.952940   -1.692780   -1.424240
  H      2.826180   -0.179730   -1.458860
  H      3.576060   -1.605960   -0.783120

 Total Charge           Charge          ....    0
 Multiplicity           Mult            ....    1
 Number of Electrons    NEL             ....   32
 Basis Dimension        Dim             ....  136

ORBITAL ENERGIES
----------------

  NO   OCC          E(Eh)            E(eV)
   0   2.0000     -14.409773      -392.1099
   1   2.0000     -10.284140      -279.8457
   2   2.0000     -10.252697      -278.9901
   3   2.0000     -10.187280      -277.2100
   4   2.0000      -1.013938       -27.5907
   5   2.0000      -0.835377       -22.7318
   6   2.0000      -0.767594       -20.8873
   7   2.0000      -0.648179       -17.6379
   8   2.0000      -0.596595       -16.2342
   9   2.0000      -0.541966       -14.7477
  10   2.0000      -0.505550       -13.7567
  11   2.0000      -0.467831       -12.7303
  12   2.0000      -0.457651       -12.4533
  13   2.0000      -0.430581       -11.7167
  14   2.0000      -0.400466       -10.8972
  15   2.0000      -0.249948        -6.8014
  16   0.0000       0.047853         1.3021
  17   0.0000       0.078019         2.1230
  18   0.0000       0.084985         2.3125
  19   0.0000       0.092248         2.5102
  20   0.0000       0.121478         3.3056

MULLIKEN ATOMIC CHARGES
-----------------------
   0 C :    0.937757
   1 C :   -0.521944
   2 C :    0.509686
   3 N :    0.242658
   4 H :   -0.112571
   5 H :   -0.110261
   6 H :   -0.193382
   7 H :   -0.445702
   8 H :   -0.161324
   9 H :   -0.096184
  10 H :   -0.048734
Sum of atomic charges:   -0.0000000

LOEWDIN ATOMIC CHARGES
----------------------
   0 C :    0.169713
   1 C :   -0.291827
   2 C :    0.156768
   3 N :    0.166824
   4 H :   -0.000129
   5 H :    0.007258
   6 H :   -0.080084
   7 H :   -0.091439
   8 H :   -0.026850
   9 H :   -0.005088
  10 H :   -0.005146

  Mayer bond orders larger than 0.100000
B(  0-C ,  1-C ) :   1.2250 B(  0-C ,  8-H ) :   0.6544 B(  0-C ,  9-H ) :   0.7810
B(  0-C , 10-H ) :   0.6666 B(  1-C ,  2-C ) :   1.9509 B(  1-C ,  3-N ) :   1.1148
B(  1-C ,  6-H ) :   0.1863 B(  1-C ,  7-H ) :   0.2260 B(  1-C ,  8-H ) :   0.3363
B(  1-C ,  9-H ) :   0.1496 B(  1-C , 10-H ) :   0.2661 B(  2-C ,  3-N ) :   0.2440
B(  2-C ,  6-H ) :   0.7350 B(  2-C ,  7-H ) :   0.7638 B(  3-N ,  4-H ) :   1.0632
B(  3-N ,  5-H ) :   1.1113 B(  4-H ,  5-H ) :  -0.1207 B(  6-H ,  7-H ) :   0.1512

FINAL SINGLE POINT ENERGY      -173.025625834688

DIPOLE MOMENT
-------------
                                X             Y             Z
Electronic contribution:     -0.15924      -1.16688      -1.30883
Nuclear contribution   :     -0.76183       1.20997       1.18381
                        -----------------------------------------
Total Dipole Moment    :     -0.92107       0.04310      -0.12502
                        -----------------------------------------
Magnitude (a.u.)       :      0.93051
Magnitude (Debye)      :      2.36517

Rotational constants in cm-1:     0.357745     0.302571     0.170012
Rotational constants in MHz : 10724.926457  9070.849165  5096.845195

                             ****ORCA TERMINATED NORMALLY****
TOTAL RUN TIME: 0 days 0 hours 0 minutes 9 seconds 707 msec
