                         Program Version 5.0.0 -  RELEASE  -
|  1> !CAM-B3LYP RIJCOSX def2-SVPD def2/J TightSCF
|  2> *xyz 0 1
|  3> C          1.72854        1.42432       -5.63944
|  4> S          2.25263       -0.18811       -6.27184
|  5> O          3.56261       -0.44446       -5.63155
|  6> F          2.34494       -0.03374       -7.69650
|  7> O          1.26606       -1.15918       -5.80536
|  8> H          0.77944        1.68154       -6.06127
|  9> H          2.45151        2.16548       -5.90944
| 10> H          1.64478        1.37937       -4.57367
| 11> *
| 12>
| 13> %MaxCore 64000
| 14>
| 15> %pal nprocs 8
| 16> end
| 17>
| 18> %scf
| 19>   MaxIter 150
| 20> end
| 21>
| 22>
| 23>                          ****END OF INPUT****

CARTESIAN COORDINATES (ANGSTROEM)
---------------------------------
  C      1.728540    1.424320   -5.639440
  S      2.252630   -0.188110   -6.271840
  O      3.562610   -0.444460   -5.631550
  F      2.344940   -0.033740   -7.696500
  O      1.266060   -1.159180   -5.805360
  H      0.779440    1.681540   -6.061270
  H      2.451510    2.165480   -5.909440
  H      1.644780    1.379370   -4.573670

 Total Charge           Charge          ....    0
 Multiplicity           Mult            ....    1
 Number of Electrons    NEL             ....   50
 Basis Dimension        Dim             ....  140

ORBITAL ENERGIES
----------------

  NO   OCC          E(Eh)            E(eV)
   0   2.0000     -89.230704     -2428.0909
   1   2.0000     -24.903640      -677.6625
   2   2.0000     -19.230213      -523.2807
   3   2.0000     -19.221777      -523.0511
   4   2.0000     -10.326466      -280.9974
   5   2.0000      -8.284206      -225.4247
   6   2.0000      -6.258409      -170.3000
   7   2.0000      -6.251603      -170.1148
   8   2.0000      -6.250695      -170.0901
   9   2.0000      -1.474329       -40.1185
  10   2.0000      -1.192182       -32.4409
  11   2.0000      -1.085616       -29.5411
  12   2.0000      -0.887571       -24.1520
  13   2.0000      -0.805833       -21.9278
  14   2.0000      -0.692187       -18.8354
  15   2.0000      -0.677329       -18.4311
  16   2.0000      -0.636254       -17.3134
  17   2.0000      -0.554624       -15.0921
  18   2.0000      -0.552487       -15.0339
  19   2.0000      -0.542625       -14.7656
  20   2.0000      -0.510998       -13.9050
  21   2.0000      -0.459510       -12.5039
  22   2.0000      -0.407882       -11.0990
  23   2.0000      -0.399430       -10.8690
  24   2.0000      -0.376280       -10.2391
  25   0.0000       0.018995         0.5169
  26   0.0000       0.058017         1.5787
  27   0.0000       0.066238         1.8024
  28   0.0000       0.067302         1.8314
  29   0.0000       0.073594         2.0026

MULLIKEN ATOMIC CHARGES
-----------------------
   0 C :    0.649804
   1 S :    1.234285
   2 O :   -0.645998
   3 F :   -0.363407
   4 O :   -0.623928
   5 H :   -0.083154
   6 H :   -0.076842
   7 H :   -0.090760
Sum of atomic charges:   -0.0000000

LOEWDIN ATOMIC CHARGES
----------------------
   0 C :    0.130913
   1 S :    1.106840
   2 O :   -0.486285
   3 F :   -0.254056
   4 O :   -0.474039
   5 H :   -0.013325
   6 H :   -0.011668
   7 H :    0.001620

  Mayer bond orders larger than 0.100000
B(  0-C ,  1-S ) :   0.9817 B(  0-C ,  5-H ) :   0.8860 B(  0-C ,  6-H ) :   0.8879
B(  0-C ,  7-H ) :   0.8902 B(  1-S ,  2-O ) :   1.5191 B(  1-S ,  3-F ) :   0.7282
B(  1-S ,  4-O ) :   1.5364 B(  1-S ,  7-H ) :   0.1306

FINAL SINGLE POINT ENERGY      -687.888846884414

DIPOLE MOMENT
-------------
                                X             Y             Z
Electronic contribution:      1.28353      -3.45425      -3.97492
Nuclear contribution   :     -1.82220       5.10789       3.45696
                        -----------------------------------------
Total Dipole Moment    :     -0.53867       1.65365      -0.51797
                        -----------------------------------------
Magnitude (a.u.)       :      1.81466
Magnitude (Debye)      :      4.61251

Rotational constants in cm-1:     0.163267     0.154654     0.145086
Rotational constants in MHz :  4894.631475  4636.404456  4349.567403

                             ****ORCA TERMINATED NORMALLY****
TOTAL RUN TIME: 0 days 0 hours 0 minutes 9 seconds 728 msec
