                         Program Version 5.0.0 -  RELEASE  -
|  1> !CAM-B3LYP RIJCOSX def2-SVPD def2/J TightSCF
|  2> *xyz 0 1
|  3> C          2.91632       -1.24259       -1.54313
|  4> C          3.46659       -1.59097       -2.88908
|  5> N          4.65227       -1.14316       -3.25969
|  6> C          2.75226       -2.29204       -3.72803
|  7> H          1.77836       -2.48960       -3.51274
|  8> H          2.94861       -2.20854       -4.71681
|  9> H          5.14672       -0.51251       -2.63385
| 10> H          4.78303       -1.00720       -4.25350
| 11> H          1.95294       -1.69278       -1.42424
| 12> H          2.82618       -0.17973       -1.45886
| 13> H          3.57606       -1.60596       -0.78312
| 14> *
| 15>
| 16> %MaxCore 64000
| 17>
| 18> %pal nprocs 8
| 19> end
| 20>
| 21> %scf
| 22>   MaxIter 150
| 23> end
| 24>
| 25>
| 26>                          ****END OF INPUT****

CARTESIAN COORDINATES (ANGSTROEM)
---------------------------------
  C      2.916320   -1.242590   -1.543130
  C      3.466590   -1.590970   -2.889080
  N      4.652270   -1.143160   -3.259690
  C      2.752260   -2.292040   -3.728030
  H      1.778360   -2.489600   -3.512740
  H      2.948610   -2.208540   -4.716810
  H      5.146720   -0.512510   -2.633850
  H      4.783030   -1.007200   -4.253500
  H      1.952940   -1.692780   -1.424240
  H      2.826180   -0.179730   -1.458860
  H      3.576060   -1.605960   -0.783120

 Total Charge           Charge          ....    0
 Multiplicity           Mult            ....    1
 Number of Electrons    NEL             ....   32
 Basis Dimension        Dim             ....  136

ORBITAL ENERGIES
----------------

  NO   OCC          E(Eh)            E(eV)
   0   2.0000     -14.406132      -392.0108
   1   2.0000     -10.282879      -279.8114
   2   2.0000     -10.251455      -278.9563
   3   2.0000     -10.192023      -277.3390
   4   2.0000      -1.008446       -27.4412
   5   2.0000      -0.836075       -22.7508
   6   2.0000      -0.768905       -20.9230
   7   2.0000      -0.641478       -17.4555
   8   2.0000      -0.597268       -16.2525
   9   2.0000      -0.544968       -14.8293
  10   2.0000      -0.506372       -13.7791
  11   2.0000      -0.467389       -12.7183
  12   2.0000      -0.461541       -12.5592
  13   2.0000      -0.425801       -11.5866
  14   2.0000      -0.396010       -10.7760
  15   2.0000      -0.257670        -7.0115
  16   0.0000       0.048233         1.3125
  17   0.0000       0.081102         2.2069
  18   0.0000       0.087748         2.3877
  19   0.0000       0.092170         2.5081
  20   0.0000       0.124568         3.3897

MULLIKEN ATOMIC CHARGES
-----------------------
   0 C :    0.967777
   1 C :   -0.616074
   2 N :    0.262673
   3 C :    0.455259
   4 H :   -0.147741
   5 H :   -0.471952
   6 H :   -0.132687
   7 H :   -0.098211
   8 H :   -0.030720
   9 H :   -0.103507
  10 H :   -0.084818
Sum of atomic charges:   -0.0000000

LOEWDIN ATOMIC CHARGES
----------------------
   0 C :    0.166273
   1 C :   -0.298682
   2 N :    0.166271
   3 C :    0.163995
   4 H :   -0.080838
   5 H :   -0.084969
   6 H :    0.001368
   7 H :    0.002853
   8 H :   -0.013658
   9 H :   -0.009260
  10 H :   -0.013354

  Mayer bond orders larger than 0.100000
B(  0-C ,  1-C ) :   1.3640 B(  0-C ,  8-H ) :   0.7590 B(  0-C ,  9-H ) :   0.6269
B(  0-C , 10-H ) :   0.6058 B(  1-C ,  2-N ) :   1.1277 B(  1-C ,  3-C ) :   1.9295
B(  1-C ,  5-H ) :   0.2211 B(  1-C ,  8-H ) :   0.2712 B(  1-C ,  9-H ) :   0.3245
B(  1-C , 10-H ) :   0.3001 B(  2-N ,  3-C ) :   0.2612 B(  2-N ,  6-H ) :   1.0528
B(  2-N ,  7-H ) :   1.0775 B(  3-C ,  4-H ) :   0.8344 B(  3-C ,  5-H ) :   0.6833
B(  4-H ,  5-H ) :   0.1900 B(  6-H ,  7-H ) :  -0.1071 B(  8-H ,  9-H ) :   0.1185

FINAL SINGLE POINT ENERGY      -173.029546397526

DIPOLE MOMENT
-------------
                                X             Y             Z
Electronic contribution:      1.50590      -0.17385      -0.92335
Nuclear contribution   :     -1.18794       0.95232       1.07877
                        -----------------------------------------
Total Dipole Moment    :      0.31796       0.77846       0.15542
                        -----------------------------------------
Magnitude (a.u.)       :      0.85514
Magnitude (Debye)      :      2.17358

Rotational constants in cm-1:     0.358436     0.301769     0.169913
Rotational constants in MHz : 10745.629007  9046.806054  5093.859032

                             ****ORCA TERMINATED NORMALLY****
TOTAL RUN TIME: 0 days 0 hours 0 minutes 9 seconds 188 msec
