                         Program Version 5.0.0 -  RELEASE  -
|  1> !CAM-B3LYP RIJCOSX def2-SVPD def2/J TightSCF
|  2> *xyz 0 1
|  3> C          1.72854        1.42432       -5.63944
|  4> S          2.25263       -0.18811       -6.27184
|  5> O          3.56261       -0.44446       -5.63155
|  6> O          2.34494       -0.03374       -7.69650
|  7> F          1.26606       -1.15918       -5.80536
|  8> H          0.77944        1.68154       -6.06127
|  9> H          2.45151        2.16548       -5.90944
| 10> H          1.64478        1.37937       -4.57367
| 11> *
| 12>
| 13> %MaxCore 64000
| 14>
| 15> %pal nprocs 8
| 16> end
| 17>
| 18> %scf
| 19>   MaxIter 150
| 20> end
| 21>
| 22>
| 23>                          ****END OF INPUT****

CARTESIAN COORDINATES (ANGSTROEM)
---------------------------------
  C      1.728540    1.424320   -5.639440
  S      2.252630   -0.188110   -6.271840
  O      3.562610   -0.444460   -5.631550
  O      2.344940   -0.033740   -7.696500
  F      1.266060   -1.159180   -5.805360
  H      0.779440    1.681540   -6.061270
  H      2.451510    2.165480   -5.909440
  H      1.644780    1.379370   -4.573670

 Total Charge           Charge          ....    0
 Multiplicity           Mult            ....    1
 Number of Electrons    NEL             ....   50
 Basis Dimension        Dim             ....  140

ORBITAL ENERGIES
----------------

  NO   OCC          E(Eh)            E(eV)
   0   2.0000     -89.229422     -2428.0560
   1   2.0000     -24.892525      -677.3601
   2   2.0000     -19.236637      -523.4555
   3   2.0000     -19.221665      -523.0481
   4   2.0000     -10.325954      -280.9835
   5   2.0000      -8.282900      -225.3892
   6   2.0000      -6.256942      -170.2601
   7   2.0000      -6.250434      -170.0830
   8   2.0000      -6.249528      -170.0583
   9   2.0000      -1.453552       -39.5532
  10   2.0000      -1.201958       -32.7070
  11   2.0000      -1.094214       -29.7751
  12   2.0000      -0.885053       -24.0835
  13   2.0000      -0.796202       -21.6658
  14   2.0000      -0.681857       -18.5543
  15   2.0000      -0.662684       -18.0325
  16   2.0000      -0.634468       -17.2647
  17   2.0000      -0.555539       -15.1170
  18   2.0000      -0.553967       -15.0742
  19   2.0000      -0.543016       -14.7762
  20   2.0000      -0.514974       -14.0132
  21   2.0000      -0.464267       -12.6334
  22   2.0000      -0.414318       -11.2742
  23   2.0000      -0.400310       -10.8930
  24   2.0000      -0.383096       -10.4246
  25   0.0000       0.019414         0.5283
  26   0.0000       0.058920         1.6033
  27   0.0000       0.066237         1.8024
  28   0.0000       0.066944         1.8216
  29   0.0000       0.071112         1.9351

MULLIKEN ATOMIC CHARGES
-----------------------
   0 C :    0.650312
   1 S :    1.238829
   2 O :   -0.652732
   3 O :   -0.607404
   4 F :   -0.377201
   5 H :   -0.082741
   6 H :   -0.084099
   7 H :   -0.084963
Sum of atomic charges:    0.0000000

LOEWDIN ATOMIC CHARGES
----------------------
   0 C :    0.131266
   1 S :    1.106110
   2 O :   -0.486445
   3 O :   -0.464436
   4 F :   -0.262948
   5 H :   -0.013121
   6 H :    0.001582
   7 H :   -0.012009

  Mayer bond orders larger than 0.100000
B(  0-C ,  1-S ) :   0.9825 B(  0-C ,  5-H ) :   0.8870 B(  0-C ,  6-H ) :   0.8863
B(  0-C ,  7-H ) :   0.8908 B(  1-S ,  2-O ) :   1.5165 B(  1-S ,  3-O ) :   1.5578
B(  1-S ,  4-F ) :   0.6980 B(  1-S ,  6-H ) :   0.1258 B(  1-S ,  7-H ) :   0.1032

FINAL SINGLE POINT ENERGY      -687.898045683149

DIPOLE MOMENT
-------------
                                X             Y             Z
Electronic contribution:     -0.53132      -5.33835      -0.81003
Nuclear contribution   :     -0.74433       6.23228       1.56758
                        -----------------------------------------
Total Dipole Moment    :     -1.27565       0.89393       0.75756
                        -----------------------------------------
Magnitude (a.u.)       :      1.73214
Magnitude (Debye)      :      4.40274

Rotational constants in cm-1:     0.164764     0.152261     0.145794
Rotational constants in MHz :  4939.488001  4564.674339  4370.797804

                             ****ORCA TERMINATED NORMALLY****
TOTAL RUN TIME: 0 days 0 hours 0 minutes 9 seconds 812 msec
