                         Program Version 5.0.0 -  RELEASE  -
|  1> !CAM-B3LYP RIJCOSX def2-SVPD def2/J TightSCF xyzfile
|  2>
|  3> *xyzfile 0 1 D4.xyz
|  4>
|  5> %MaxCore 64000
|  6>
|  7> %pal nprocs 4
|  8> end
|  9>
| 10> %scf
| 11>   MaxIter 150
| 12> end
| 13>
| 14>
| 15>                          ****END OF INPUT****

CARTESIAN COORDINATES (ANGSTROEM)
---------------------------------
  C      2.916324   -1.242589   -1.543125
  C      0.704661    1.443129   -4.503630
  C      1.728539    1.424320   -5.639443
  H      2.646718    1.953794   -5.381054
  H      1.299916    1.930613   -6.503614
  S      2.252625   -0.188115   -6.271840
  C      3.466585   -1.590971   -2.889082
  N      4.652275   -1.143164   -3.259692
  C      2.752264   -2.292043   -3.728029
  H      1.778364   -2.489604   -3.512738
  H      2.948612   -2.208544   -4.716813
  H      5.146723   -0.512508   -2.633852
  H      4.783030   -1.007203   -4.253498
  O      3.562607   -0.444464   -5.631552
  F      2.344944   -0.033742   -7.696501
  C      2.804084    0.290698   -1.359243
  C      1.052550    0.695659   -3.214915
  H     -0.232483    1.032925   -4.884449
  H      0.511700    2.495794   -4.267966
  C      2.388380    1.093669   -2.597108
  H      3.763425    0.674718   -0.999889
  H      2.094788    0.461222   -0.545756
  O      1.266058   -1.159177   -5.805365
  H      3.167316    1.013242   -3.359430
  H      2.357690    2.149375   -2.310997
  H      1.039284   -0.368429   -3.449329
  H      0.250787    0.865605   -2.488283
  H      1.940472   -1.716529   -1.441161
  H      3.558569   -1.663433   -0.766371

 Total Charge           Charge          ....    0
 Multiplicity           Mult            ....    1
 Number of Electrons    NEL             ....  112
 Basis Dimension        Dim             ....  404

ORBITAL ENERGIES
----------------

  NO   OCC          E(Eh)            E(eV)
   0   2.0000     -89.232172     -2428.1308
   1   2.0000     -24.905555      -677.7146
   2   2.0000     -19.231059      -523.3037
   3   2.0000     -19.227622      -523.2102
   4   2.0000     -14.375712      -391.1830
   5   2.0000     -10.327875      -281.0358
   6   2.0000     -10.288325      -279.9596
   7   2.0000     -10.254915      -279.0504
   8   2.0000     -10.254897      -279.0499
   9   2.0000     -10.253808      -279.0203
  10   2.0000     -10.253541      -279.0130
  11   2.0000     -10.244716      -278.7729
  12   2.0000     -10.163778      -276.5705
  13   2.0000      -8.284753      -225.4396
  14   2.0000      -6.258926      -170.3140
  15   2.0000      -6.252533      -170.1401
  16   2.0000      -6.250968      -170.0975
  17   2.0000      -1.475389       -40.1474
  18   2.0000      -1.197317       -32.5806
  19   2.0000      -1.092186       -29.7199
  20   2.0000      -0.983377       -26.7591
  21   2.0000      -0.919559       -25.0225
  22   2.0000      -0.874531       -23.7972
  23   2.0000      -0.839118       -22.8336
  24   2.0000      -0.806999       -21.9596
  25   2.0000      -0.783619       -21.3234
  26   2.0000      -0.749243       -20.3879
  27   2.0000      -0.705658       -19.2019
  28   2.0000      -0.681095       -18.5335
  29   2.0000      -0.672441       -18.2981
  30   2.0000      -0.645816       -17.5735
  31   2.0000      -0.638151       -17.3650
  32   2.0000      -0.607005       -16.5174
  33   2.0000      -0.581071       -15.8118
  34   2.0000      -0.571920       -15.5627
  35   2.0000      -0.568582       -15.4719
  36   2.0000      -0.545959       -14.8563
  37   2.0000      -0.528052       -14.3690
  38   2.0000      -0.523070       -14.2335
  39   2.0000      -0.512425       -13.9438
  40   2.0000      -0.498676       -13.5697
  41   2.0000      -0.479337       -13.0434
  42   2.0000      -0.470609       -12.8059
  43   2.0000      -0.453092       -12.3293
  44   2.0000      -0.447775       -12.1846
  45   2.0000      -0.438483       -11.9317
  46   2.0000      -0.425517       -11.5789
  47   2.0000      -0.418105       -11.3772
  48   2.0000      -0.408943       -11.1279
  49   2.0000      -0.395161       -10.7529
  50   2.0000      -0.390582       -10.6283
  51   2.0000      -0.385138       -10.4801
  52   2.0000      -0.381615       -10.3843
  53   2.0000      -0.370708       -10.0875
  54   2.0000      -0.361864        -9.8468
  55   2.0000      -0.230643        -6.2761
  56   0.0000       0.021283         0.5791
  57   0.0000       0.042949         1.1687
  58   0.0000       0.049167         1.3379
  59   0.0000       0.057208         1.5567
  60   0.0000       0.068130         1.8539

MULLIKEN ATOMIC CHARGES
-----------------------
   0 C :    0.628673
   1 C :    0.598965
   2 C :    0.256436
   3 H :    0.079019
   4 H :   -0.262357
   5 S :    1.555367
   6 C :   -0.737477
   7 N :    0.503271
   8 C :    0.916343
   9 H :   -0.146967
  10 H :   -0.599148
  11 H :   -0.046983
  12 H :   -0.294049
  13 O :   -0.737732
  14 F :   -0.470693
  15 C :    0.639285
  16 C :    0.471086
  17 H :   -0.051781
  18 H :   -0.124902
  19 C :    0.064974
  20 H :   -0.087788
  21 H :   -0.206778
  22 O :   -0.743228
  23 H :   -0.074184
  24 H :   -0.310904
  25 H :   -0.557998
  26 H :   -0.128558
  27 H :    0.210133
  28 H :   -0.342025
Sum of atomic charges:   -0.0000000

LOEWDIN ATOMIC CHARGES
----------------------
   0 C :    0.024171
   1 C :   -0.019037
   2 C :   -0.032801
   3 H :    0.020664
   4 H :    0.012766
   5 S :    1.180763
   6 C :   -0.258351
   7 N :    0.195219
   8 C :    0.167898
   9 H :   -0.068547
  10 H :   -0.121833
  11 H :    0.001352
  12 H :   -0.055559
  13 O :   -0.483973
  14 F :   -0.245945
  15 C :   -0.013243
  16 C :   -0.009577
  17 H :    0.031443
  18 H :    0.035727
  19 C :   -0.023748
  20 H :    0.012517
  21 H :    0.016915
  22 O :   -0.450679
  23 H :   -0.004862
  24 H :    0.023936
  25 H :   -0.009906
  26 H :    0.033610
  27 H :    0.020741
  28 H :    0.020339

  Mayer bond orders larger than 0.100000
B(  0-C ,  6-C ) :   1.3453 B(  0-C ,  8-C ) :   0.1137 B(  0-C , 15-C ) :   1.0891
B(  0-C , 20-H ) :   0.1370 B(  0-C , 21-H ) :   0.2300 B(  0-C , 27-H ) :   0.7735
B(  0-C , 28-H ) :   0.4809 B(  1-C ,  2-C ) :   1.2241 B(  1-C ,  3-H ) :   0.1007
B(  1-C ,  4-H ) :   0.2492 B(  1-C , 16-C ) :   1.2243 B(  1-C , 17-H ) :   0.6250
B(  1-C , 18-H ) :   0.6863 B(  2-C ,  3-H ) :   0.8637 B(  2-C ,  4-H ) :   0.7701
B(  2-C ,  5-S ) :   0.9656 B(  2-C , 17-H ) :   0.1212 B(  2-C , 18-H ) :   0.1845
B(  5-S , 13-O ) :   1.3697 B(  5-S , 14-F ) :   0.5969 B(  5-S , 22-O ) :   1.4721
B(  6-C ,  7-N ) :   0.9688 B(  6-C ,  8-C ) :   2.0614 B(  6-C ,  9-H ) :   0.1340
B(  6-C , 10-H ) :   0.5818 B(  6-C , 15-C ) :   0.2173 B(  6-C , 21-H ) :  -0.1065
B(  6-C , 28-H ) :   0.4377 B(  7-N ,  8-C ) :   0.4368 B(  7-N ,  9-H ) :   0.1713
B(  7-N , 10-H ) :  -0.1235 B(  7-N , 11-H ) :   0.9530 B(  7-N , 12-H ) :   0.8876
B(  8-C ,  9-H ) :   0.5111 B(  8-C , 27-H ) :  -0.1188 B(  9-H , 10-H ) :   0.1220
B(  9-H , 25-H ) :   0.1165 B( 10-H , 12-H ) :   0.1739 B( 11-H , 12-H ) :  -0.1570
B( 13-O , 22-O ) :   0.1436 B( 15-C , 19-C ) :   1.1785 B( 15-C , 20-H ) :   0.6111
B( 15-C , 21-H ) :   0.7352 B( 15-C , 23-H ) :   0.1219 B( 15-C , 27-H ) :   0.1324
B( 16-C , 17-H ) :   0.3086 B( 16-C , 19-C ) :   1.2199 B( 16-C , 23-H ) :   0.1480
B( 16-C , 24-H ) :   0.1708 B( 16-C , 25-H ) :   0.8032 B( 16-C , 26-H ) :   0.6049
B( 17-H , 18-H ) :  -0.1202 B( 19-C , 20-H ) :   0.3189 B( 19-C , 21-H ) :   0.1848
B( 19-C , 23-H ) :   0.8472 B( 19-C , 24-H ) :   0.7895 B( 19-C , 25-H ) :   0.1862
B( 19-C , 26-H ) :   0.2129 B( 20-H , 21-H ) :  -0.1657

FINAL SINGLE POINT ENERGY     -1016.762969095723

DIPOLE MOMENT
-------------
                                X             Y             Z
Electronic contribution:      1.29237      -3.37355     -22.18313
Nuclear contribution   :     -1.74760       5.67788      21.66873
                        -----------------------------------------
Total Dipole Moment    :     -0.45523       2.30433      -0.51440
                        -----------------------------------------
Magnitude (a.u.)       :      2.40453
Magnitude (Debye)      :      6.11183

Rotational constants in cm-1:     0.036818     0.018222     0.014682
Rotational constants in MHz :  1103.783048   546.296792   440.157914

                             ****ORCA TERMINATED NORMALLY****
TOTAL RUN TIME: 0 days 0 hours 4 minutes 3 seconds 317 msec
