                         Program Version 5.0.0 -  RELEASE  -
|  1> !CAM-B3LYP RIJCOSX def2-SVPD def2/J TightSCF xyzfile
|  2>
|  3> *xyzfile 0 1 D5.xyz
|  4>
|  5> %MaxCore 64000
|  6>
|  7> %pal nprocs 4
|  8> end
|  9>
| 10> %scf
| 11>   MaxIter 150
| 12> end
| 13>
| 14>
| 15>                          ****END OF INPUT****

CARTESIAN COORDINATES (ANGSTROEM)
---------------------------------
  C      2.916324   -1.242589   -1.543125
  C      0.704661    1.443129   -4.503630
  C      1.728539    1.424320   -5.639443
  H      2.646718    1.953794   -5.381054
  H      1.299916    1.930613   -6.503614
  S      2.252625   -0.188115   -6.271840
  C      3.466585   -1.590971   -2.889082
  C      4.652275   -1.143164   -3.259692
  N      2.752264   -2.292043   -3.728029
  H      1.778364   -2.489604   -3.512738
  H      2.948612   -2.208544   -4.716813
  H      5.146723   -0.512508   -2.633852
  H      4.783030   -1.007203   -4.253498
  O      3.562607   -0.444464   -5.631552
  O      2.344944   -0.033742   -7.696501
  C      2.804084    0.290698   -1.359243
  C      1.052550    0.695659   -3.214915
  H     -0.232483    1.032925   -4.884449
  H      0.511700    2.495794   -4.267966
  C      2.388380    1.093669   -2.597108
  H      3.763425    0.674718   -0.999889
  H      2.094788    0.461222   -0.545756
  F      1.266058   -1.159177   -5.805365
  H      3.167316    1.013242   -3.359430
  H      2.357690    2.149375   -2.310997
  H      1.039284   -0.368429   -3.449329
  H      0.250787    0.865605   -2.488283
  H      1.940472   -1.716529   -1.441161
  H      3.558569   -1.663433   -0.766371

 Total Charge           Charge          ....    0
 Multiplicity           Mult            ....    1
 Number of Electrons    NEL             ....  112
 Basis Dimension        Dim             ....  404

ORBITAL ENERGIES
----------------

  NO   OCC          E(Eh)            E(eV)
   0   2.0000     -89.232011     -2428.1265
   1   2.0000     -24.899559      -677.5514
   2   2.0000     -19.241698      -523.5932
   3   2.0000     -19.227117      -523.1965
   4   2.0000     -14.395068      -391.7097
   5   2.0000     -10.328350      -281.0487
   6   2.0000     -10.297415      -280.2069
   7   2.0000     -10.273628      -279.5596
   8   2.0000     -10.266636      -279.3694
   9   2.0000     -10.259459      -279.1741
  10   2.0000     -10.258585      -279.1503
  11   2.0000     -10.256100      -279.0827
  12   2.0000     -10.169251      -276.7194
  13   2.0000      -8.284944      -225.4448
  14   2.0000      -6.259209      -170.3217
  15   2.0000      -6.252700      -170.1446
  16   2.0000      -6.251048      -170.0997
  17   2.0000      -1.461194       -39.7611
  18   2.0000      -1.207805       -32.8660
  19   2.0000      -1.103090       -30.0166
  20   2.0000      -1.002781       -27.2870
  21   2.0000      -0.928009       -25.2524
  22   2.0000      -0.881487       -23.9865
  23   2.0000      -0.843800       -22.9610
  24   2.0000      -0.807888       -21.9837
  25   2.0000      -0.784156       -21.3380
  26   2.0000      -0.757450       -20.6113
  27   2.0000      -0.718932       -19.5631
  28   2.0000      -0.683077       -18.5875
  29   2.0000      -0.675080       -18.3699
  30   2.0000      -0.655206       -17.8291
  31   2.0000      -0.633813       -17.2469
  32   2.0000      -0.618868       -16.8403
  33   2.0000      -0.584591       -15.9075
  34   2.0000      -0.575029       -15.6473
  35   2.0000      -0.570150       -15.5146
  36   2.0000      -0.554768       -15.0960
  37   2.0000      -0.544639       -14.8204
  38   2.0000      -0.530757       -14.4426
  39   2.0000      -0.521632       -14.1943
  40   2.0000      -0.505180       -13.7466
  41   2.0000      -0.489959       -13.3325
  42   2.0000      -0.475855       -12.9487
  43   2.0000      -0.459302       -12.4982
  44   2.0000      -0.458536       -12.4774
  45   2.0000      -0.446291       -12.1442
  46   2.0000      -0.439324       -11.9546
  47   2.0000      -0.422566       -11.4986
  48   2.0000      -0.418644       -11.3919
  49   2.0000      -0.409486       -11.1427
  50   2.0000      -0.400719       -10.9041
  51   2.0000      -0.395392       -10.7592
  52   2.0000      -0.388902       -10.5826
  53   2.0000      -0.377627       -10.2758
  54   2.0000      -0.373751       -10.1703
  55   2.0000      -0.235269        -6.4020
  56   0.0000       0.017868         0.4862
  57   0.0000       0.042843         1.1658
  58   0.0000       0.046680         1.2702
  59   0.0000       0.054037         1.4704
  60   0.0000       0.064856         1.7648

MULLIKEN ATOMIC CHARGES
-----------------------
   0 C :    0.758343
   1 C :    0.651458
   2 C :    0.298586
   3 H :    0.052906
   4 H :   -0.272921
   5 S :    1.405676
   6 C :   -0.610623
   7 C :    0.834149
   8 N :    0.469197
   9 H :   -0.031735
  10 H :   -0.259044
  11 H :   -0.100865
  12 H :   -0.678810
  13 O :   -0.727309
  14 O :   -0.614460
  15 C :    0.507442
  16 C :    0.474906
  17 H :   -0.072762
  18 H :   -0.110119
  19 C :    0.133469
  20 H :   -0.075372
  21 H :   -0.213826
  22 F :   -0.499228
  23 H :   -0.128657
  24 H :   -0.241982
  25 H :   -0.504309
  26 H :   -0.159965
  27 H :    0.012240
  28 H :   -0.296385
Sum of atomic charges:   -0.0000000

LOEWDIN ATOMIC CHARGES
----------------------
   0 C :    0.025638
   1 C :   -0.031749
   2 C :   -0.019728
   3 H :    0.030760
   4 H :    0.020045
   5 S :    1.158102
   6 C :   -0.252603
   7 C :    0.180838
   8 N :    0.183825
   9 H :   -0.001143
  10 H :   -0.045690
  11 H :   -0.072446
  12 H :   -0.130324
  13 O :   -0.470995
  14 O :   -0.445261
  15 C :   -0.008439
  16 C :   -0.019153
  17 H :    0.027284
  18 H :    0.036486
  19 C :   -0.019621
  20 H :    0.020769
  21 H :    0.016090
  22 F :   -0.263237
  23 H :   -0.001352
  24 H :    0.027377
  25 H :   -0.015976
  26 H :    0.034133
  27 H :    0.008925
  28 H :    0.027441

  Mayer bond orders larger than 0.100000
B(  0-C ,  6-C ) :   1.2746 B(  0-C , 15-C ) :   1.0961 B(  0-C , 19-C ) :   0.1083
B(  0-C , 20-H ) :   0.1116 B(  0-C , 21-H ) :   0.2153 B(  0-C , 27-H ) :   0.5369
B(  0-C , 28-H ) :   0.6366 B(  1-C ,  2-C ) :   1.1836 B(  1-C ,  4-H ) :   0.2291
B(  1-C , 16-C ) :   1.2126 B(  1-C , 17-H ) :   0.6149 B(  1-C , 18-H ) :   0.6729
B(  2-C ,  3-H ) :   0.8722 B(  2-C ,  4-H ) :   0.8413 B(  2-C ,  5-S ) :   0.9754
B(  2-C , 17-H ) :   0.1183 B(  2-C , 18-H ) :   0.1834 B(  5-S , 13-O ) :   1.4293
B(  5-S , 14-O ) :   1.5949 B(  5-S , 22-F ) :   0.6234 B(  6-C ,  7-C ) :   2.1942
B(  6-C ,  8-N ) :   0.9937 B(  6-C , 11-H ) :   0.1299 B(  6-C , 12-H ) :   0.3978
B(  6-C , 15-C ) :   0.1057 B(  6-C , 27-H ) :   0.3282 B(  6-C , 28-H ) :   0.2673
B(  7-C ,  8-N ) :   0.3496 B(  7-C , 11-H ) :   0.5086 B(  7-C , 12-H ) :   0.3004
B(  8-N ,  9-H ) :   0.8962 B(  8-N , 10-H ) :   0.9281 B(  8-N , 11-H ) :   0.1817
B(  9-H , 10-H ) :  -0.1494 B( 10-H , 12-H ) :   0.1044 B( 10-H , 13-O ) :   0.1120
B( 12-H , 13-O ) :   0.2685 B( 15-C , 19-C ) :   1.1888 B( 15-C , 20-H ) :   0.6366
B( 15-C , 21-H ) :   0.7664 B( 15-C , 23-H ) :   0.1991 B( 15-C , 24-H ) :   0.1010
B( 15-C , 27-H ) :   0.1539 B( 16-C , 17-H ) :   0.3048 B( 16-C , 18-H ) :   0.1070
B( 16-C , 19-C ) :   1.2015 B( 16-C , 23-H ) :   0.1673 B( 16-C , 24-H ) :   0.1853
B( 16-C , 25-H ) :   0.7412 B( 16-C , 26-H ) :   0.6435 B( 17-H , 18-H ) :  -0.1354
B( 19-C , 20-H ) :   0.3089 B( 19-C , 21-H ) :   0.2010 B( 19-C , 23-H ) :   0.8102
B( 19-C , 24-H ) :   0.7654 B( 19-C , 25-H ) :   0.1867 B( 19-C , 26-H ) :   0.2361
B( 20-H , 21-H ) :  -0.1603

FINAL SINGLE POINT ENERGY     -1016.765518805837

DIPOLE MOMENT
-------------
                                X             Y             Z
Electronic contribution:     -1.76914      -5.99308     -18.96680
Nuclear contribution   :     -0.26930       7.11259      19.56706
                        -----------------------------------------
Total Dipole Moment    :     -2.03844       1.11951       0.60027
                        -----------------------------------------
Magnitude (a.u.)       :      2.40185
Magnitude (Debye)      :      6.10501

Rotational constants in cm-1:     0.036519     0.018683     0.015073
Rotational constants in MHz :  1094.801738   560.111127   451.890222

                             ****ORCA TERMINATED NORMALLY****
TOTAL RUN TIME: 0 days 0 hours 3 minutes 52 seconds 873 msec
