                         Program Version 5.0.0 -  RELEASE  -
|  1> !DLPNO-CCSD(T) aug-cc-pVTZ aug-cc-pVTZ/C TightSCF TightPNO RIJCOSX def2/J
|  2> *xyz -1 1
|  3> C         -0.05517        1.61942       -3.78858
|  4> C          1.22302        2.46987       -3.75691
|  5> H          1.11470        3.25807       -4.53300
|  6> H          1.23773        3.01124       -2.79216
|  7> O          2.35381        1.71203       -3.93448
|  8> H         -0.10198        1.08015       -4.71156
|  9> H         -0.91014        2.25726       -3.70441
| 10> H         -0.04403        0.92826       -2.97183
| 11> *
| 12>
| 13> %MaxCore 64000
| 14>
| 15> %pal nprocs 18
| 16> end
| 17>
| 18> %scf
| 19>   MaxIter 150
| 20> end
| 21>
| 22>
| 23>                          ****END OF INPUT****

CARTESIAN COORDINATES (ANGSTROEM)
---------------------------------
  C     -0.055170    1.619420   -3.788580
  C      1.223020    2.469870   -3.756910
  H      1.114700    3.258070   -4.533000
  H      1.237730    3.011240   -2.792160
  O      2.353810    1.712030   -3.934480
  H     -0.101980    1.080150   -4.711560
  H     -0.910140    2.257260   -3.704410
  H     -0.044030    0.928260   -2.971830

 Total Charge           Charge          ....   -1
 Multiplicity           Mult            ....    1
 Number of Electrons    NEL             ....   26
 Basis Dimension        Dim             ....  253

ORBITAL ENERGIES
----------------

  NO   OCC          E(Eh)            E(eV)
   0   2.0000     -20.203160      -549.7559
   1   2.0000     -11.036013      -300.3052
   2   2.0000     -11.011600      -299.6409
   3   2.0000      -0.991518       -26.9806
   4   2.0000      -0.783901       -21.3310
   5   2.0000      -0.588221       -16.0063
   6   2.0000      -0.413756       -11.2589
   7   2.0000      -0.386629       -10.5207
   8   2.0000      -0.320043        -8.7088
   9   2.0000      -0.305273        -8.3069
  10   2.0000      -0.256809        -6.9881
  11   2.0000      -0.110528        -3.0076
  12   2.0000      -0.109784        -2.9874
  13   0.0000       0.133081         3.6213
  14   0.0000       0.141947         3.8626
  15   0.0000       0.143518         3.9053
  16   0.0000       0.154406         4.2016
  17   0.0000       0.167084         4.5466

MULLIKEN ATOMIC CHARGES
-----------------------
   0 C :   -0.929891
   1 C :   -0.152831
   2 H :    0.186420
   3 H :    0.189311
   4 O :   -1.114805
   5 H :    0.261845
   6 H :    0.296948
   7 H :    0.263003
Sum of atomic charges:   -1.0000000

LOEWDIN ATOMIC CHARGES
----------------------
   0 C :    0.489604
   1 C :   -0.417672
   2 H :   -0.234848
   3 H :   -0.240128
   4 O :    0.090680
   5 H :   -0.224547
   6 H :   -0.238794
   7 H :   -0.224294

  Mayer bond orders larger than 0.100000
B(  0-C ,  1-C ) :   0.8560 B(  0-C ,  5-H ) :   0.9312 B(  0-C ,  6-H ) :   0.8943
B(  0-C ,  7-H ) :   0.9380 B(  1-C ,  2-H ) :   0.9892 B(  1-C ,  3-H ) :   0.9909
B(  1-C ,  4-O ) :   1.1261

E(0)                                       ...   -153.509490261
E(0)                                       ...   -153.509490261
E(CORR)(strong-pairs)                      ...     -0.651420381
E(CORR)(weak-pairs)                        ...     -0.000421769
E(CORR)(corrected)                         ...     -0.651842150
E(TOT)                                     ...   -154.161332410
E(CCSD(T))                                 ...   -154.187729123
FINAL SINGLE POINT ENERGY      -154.187729122624

DIPOLE MOMENT
-------------
                                X             Y             Z
Electronic contribution:      2.61127      -0.48414      -0.23541
Nuclear contribution   :     -4.28298       0.81046       0.39340
                        -----------------------------------------
Total Dipole Moment    :     -1.67171       0.32633       0.15799
                        -----------------------------------------
Magnitude (a.u.)       :      1.71057
Magnitude (Debye)      :      4.34793

Rotational constants in cm-1:     1.266793     0.328147     0.288309
Rotational constants in MHz : 37977.512300  9837.594308  8643.275638

                             ****ORCA TERMINATED NORMALLY****
TOTAL RUN TIME: 0 days 0 hours 2 minutes 8 seconds 503 msec
