                         Program Version 5.0.0 -  RELEASE  -
|  1> !DLPNO-CCSD(T) aug-cc-pVTZ aug-cc-pVTZ/C TightSCF TightPNO RIJCOSX def2/J
|  2> *xyz 1 1
|  3> C          1.63556       -1.67040       -5.29211
|  4> C          0.33848       -1.50091       -4.50540
|  5> N          2.48451       -0.50741       -5.14039
|  6> H          1.39834       -1.82924       -6.35259
|  7> H          2.15586       -2.56540       -4.93209
|  8> C          3.45115       -0.14953       -5.95259
|  9> N          3.92267        1.08956       -5.85071
| 10> N          3.96616       -1.00618       -6.86788
| 11> H          3.52139       -1.90647       -6.99527
| 12> H          4.44482       -0.62347       -7.67035
| 13> H          2.25200        0.24080       -4.49879
| 14> H          3.46428        1.64078       -5.13639
| 15> H          4.83447        1.31375       -6.22465
| 16> H         -0.17658       -0.62881       -4.85045
| 17> H          0.56384       -1.39374       -3.46490
| 18> H         -0.28102       -2.36136       -4.64938
| 19> *
| 20>
| 21> %MaxCore 64000
| 22>
| 23> %pal nprocs 18
| 24> end
| 25>
| 26> %scf
| 27>   MaxIter 150
| 28> end
| 29>
| 30>
| 31>                          ****END OF INPUT****

CARTESIAN COORDINATES (ANGSTROEM)
---------------------------------
  C      1.635560   -1.670400   -5.292110
  C      0.338480   -1.500910   -4.505400
  N      2.484510   -0.507410   -5.140390
  H      1.398340   -1.829240   -6.352590
  H      2.155860   -2.565400   -4.932090
  C      3.451150   -0.149530   -5.952590
  N      3.922670    1.089560   -5.850710
  N      3.966160   -1.006180   -6.867880
  H      3.521390   -1.906470   -6.995270
  H      4.444820   -0.623470   -7.670350
  H      2.252000    0.240800   -4.498790
  H      3.464280    1.640780   -5.136390
  H      4.834470    1.313750   -6.224650
  H     -0.176580   -0.628810   -4.850450
  H      0.563840   -1.393740   -3.464900
  H     -0.281020   -2.361360   -4.649380

 Total Charge           Charge          ....    1
 Multiplicity           Mult            ....    1
 Number of Electrons    NEL             ....   48
 Basis Dimension        Dim             ....  506

ORBITAL ENERGIES
----------------

  NO   OCC          E(Eh)            E(eV)
   0   2.0000     -15.787646      -429.6037
   1   2.0000     -15.786355      -429.5686
   2   2.0000     -15.784188      -429.5096
   3   2.0000     -11.585911      -315.2687
   4   2.0000     -11.436023      -311.1900
   5   2.0000     -11.360808      -309.1433
   6   2.0000      -1.545528       -42.0560
   7   2.0000      -1.407226       -38.2926
   8   2.0000      -1.389642       -37.8141
   9   2.0000      -1.196162       -32.5492
  10   2.0000      -1.054252       -28.6876
  11   2.0000      -1.027012       -27.9464
  12   2.0000      -0.964798       -26.2535
  13   2.0000      -0.935113       -25.4457
  14   2.0000      -0.859613       -23.3913
  15   2.0000      -0.855157       -23.2700
  16   2.0000      -0.835012       -22.7218
  17   2.0000      -0.804472       -21.8908
  18   2.0000      -0.763571       -20.7778
  19   2.0000      -0.699223       -19.0268
  20   2.0000      -0.677026       -18.4228
  21   2.0000      -0.669856       -18.2277
  22   2.0000      -0.624172       -16.9846
  23   2.0000      -0.589296       -16.0356
  24   0.0000      -0.092713        -2.5228
  25   0.0000      -0.075588        -2.0569
  26   0.0000      -0.066641        -1.8134
  27   0.0000      -0.061563        -1.6752
  28   0.0000      -0.047393        -1.2896

MULLIKEN ATOMIC CHARGES
-----------------------
   0 C :   -0.266211
   1 C :   -0.871775
   2 N :    0.048003
   3 H :    0.326406
   4 H :    0.306608
   5 C :    0.402926
   6 N :   -0.380639
   7 N :   -0.317419
   8 H :    0.183801
   9 H :    0.143257
  10 H :    0.135350
  11 H :    0.164137
  12 H :    0.205780
  13 H :    0.294782
  14 H :    0.309232
  15 H :    0.315762
Sum of atomic charges:    1.0000000

LOEWDIN ATOMIC CHARGES
----------------------
   0 C :    0.219828
   1 C :    0.647671
   2 N :    0.621099
   3 H :   -0.132539
   4 H :   -0.123518
   5 C :   -0.360427
   6 N :    0.942498
   7 N :    0.948663
   8 H :   -0.271276
   9 H :   -0.246947
  10 H :   -0.254411
  11 H :   -0.256499
  12 H :   -0.233023
  13 H :   -0.170900
  14 H :   -0.169842
  15 H :   -0.160376

  Mayer bond orders larger than 0.100000
B(  0-C ,  1-C ) :   0.8015 B(  0-C ,  2-N ) :   0.7256 B(  0-C ,  3-H ) :   0.9020
B(  0-C ,  4-H ) :   0.9143 B(  0-C ,  5-C ) :  -0.1808 B(  1-C , 13-H ) :   0.9347
B(  1-C , 14-H ) :   0.9261 B(  1-C , 15-H ) :   0.9659 B(  2-N ,  5-C ) :   1.0744
B(  2-N ,  6-N ) :  -0.1246 B(  2-N , 10-H ) :   1.0259 B(  5-C ,  6-N ) :   1.1171
B(  5-C ,  7-N ) :   0.9892 B(  6-N ,  7-N ) :  -0.1034 B(  6-N , 11-H ) :   1.0456
B(  6-N , 12-H ) :   1.0324 B(  7-N ,  8-H ) :   1.0018 B(  7-N ,  9-H ) :   1.0615

E(0)                                       ...   -282.705352477
E(0)                                       ...   -282.705352477
E(CORR)(strong-pairs)                      ...     -1.182428684
E(CORR)(weak-pairs)                        ...     -0.001274756
E(CORR)(corrected)                         ...     -1.183703439
E(TOT)                                     ...   -283.889055916
E(CCSD(T))                                 ...   -283.936375908
FINAL SINGLE POINT ENERGY      -283.936375907971

DIPOLE MOMENT
-------------
                                X             Y             Z
Electronic contribution:      4.72374       2.49973      -1.72264
Nuclear contribution   :     -3.96322      -1.85512       1.24891
                        -----------------------------------------
Total Dipole Moment    :      0.76052       0.64461      -0.47373
                        -----------------------------------------
Magnitude (a.u.)       :      1.10378
Magnitude (Debye)      :      2.80559

Rotational constants in cm-1:     0.261404     0.067000     0.054949
Rotational constants in MHz :  7836.702504  2008.609425  1647.329138

                             ****ORCA TERMINATED NORMALLY****
TOTAL RUN TIME: 0 days 0 hours 10 minutes 44 seconds 78 msec
