                         Program Version 5.0.0 -  RELEASE  -
|  1> !DLPNO-CCSD(T) aug-cc-pVTZ aug-cc-pVTZ/C TightSCF TightPNO RIJCOSX def2/J
|  2> *xyz 0 1
|  3> C         -0.05517        1.61942       -3.78858
|  4> C          1.22302        2.46987       -3.75691
|  5> H          1.11470        3.25807       -4.53300
|  6> H          1.23773        3.01124       -2.79216
|  7> F          2.35381        1.71203       -3.93448
|  8> H         -0.10198        1.08015       -4.71156
|  9> H         -0.91014        2.25726       -3.70441
| 10> H         -0.04403        0.92826       -2.97183
| 11> *
| 12>
| 13> %MaxCore 64000
| 14>
| 15> %pal nprocs 18
| 16> end
| 17>
| 18> %scf
| 19>   MaxIter 150
| 20> end
| 21>
| 22>
| 23>                          ****END OF INPUT****

CARTESIAN COORDINATES (ANGSTROEM)
---------------------------------
  C     -0.055170    1.619420   -3.788580
  C      1.223020    2.469870   -3.756910
  H      1.114700    3.258070   -4.533000
  H      1.237730    3.011240   -2.792160
  F      2.353810    1.712030   -3.934480
  H     -0.101980    1.080150   -4.711560
  H     -0.910140    2.257260   -3.704410
  H     -0.044030    0.928260   -2.971830

 Total Charge           Charge          ....    0
 Multiplicity           Mult            ....    1
 Number of Electrons    NEL             ....   26
 Basis Dimension        Dim             ....  253

ORBITAL ENERGIES
----------------

  NO   OCC          E(Eh)            E(eV)
   0   2.0000     -26.282728      -715.1894
   1   2.0000     -11.311195      -307.7933
   2   2.0000     -11.219275      -305.2920
   3   2.0000      -1.593833       -43.3704
   4   2.0000      -1.033015       -28.1098
   5   2.0000      -0.863737       -23.5035
   6   2.0000      -0.702334       -19.1115
   7   2.0000      -0.701642       -19.0927
   8   2.0000      -0.661996       -18.0138
   9   2.0000      -0.585317       -15.9273
  10   2.0000      -0.560025       -15.2391
  11   2.0000      -0.496093       -13.4994
  12   2.0000      -0.491526       -13.3751
  13   0.0000       0.030231         0.8226
  14   0.0000       0.041363         1.1255
  15   0.0000       0.041890         1.1399
  16   0.0000       0.049179         1.3382
  17   0.0000       0.067003         1.8232

MULLIKEN ATOMIC CHARGES
-----------------------
   0 C :   -0.975997
   1 C :   -0.057460
   2 H :    0.279918
   3 H :    0.282173
   4 F :   -0.481447
   5 H :    0.298221
   6 H :    0.357569
   7 H :    0.297024
Sum of atomic charges:   -0.0000000

LOEWDIN ATOMIC CHARGES
----------------------
   0 C :    0.586000
   1 C :   -0.113339
   2 H :   -0.166732
   3 H :   -0.172034
   4 F :    0.449636
   5 H :   -0.195234
   6 H :   -0.192746
   7 H :   -0.195551

  Mayer bond orders larger than 0.100000
B(  0-C ,  1-C ) :   0.9088 B(  0-C ,  5-H ) :   0.9144 B(  0-C ,  6-H ) :   0.8688
B(  0-C ,  7-H ) :   0.9206 B(  1-C ,  2-H ) :   0.9345 B(  1-C ,  3-H ) :   0.9344
B(  1-C ,  4-F ) :   0.6234

E(0)                                       ...   -178.148408528
E(0)                                       ...   -178.148408528
E(CORR)(strong-pairs)                      ...     -0.645082538
E(CORR)(weak-pairs)                        ...     -0.000406923
E(CORR)(corrected)                         ...     -0.645489461
E(TOT)                                     ...   -178.793897989
E(CCSD(T))                                 ...   -178.815116780
FINAL SINGLE POINT ENERGY      -178.815116779550

DIPOLE MOMENT
-------------
                                X             Y             Z
Electronic contribution:      4.96514      -0.69713      -0.42274
Nuclear contribution   :     -5.66833       1.07099       0.52006
                        -----------------------------------------
Total Dipole Moment    :     -0.70319       0.37386       0.09732
                        -----------------------------------------
Magnitude (a.u.)       :      0.80232
Magnitude (Debye)      :      2.03934

Rotational constants in cm-1:     1.245689     0.305293     0.269541
Rotational constants in MHz : 37344.801915  9152.442838  8080.640229

                             ****ORCA TERMINATED NORMALLY****
TOTAL RUN TIME: 0 days 0 hours 1 minutes 23 seconds 256 msec
