                         Program Version 5.0.0 -  RELEASE  -
|  1> !DLPNO-CCSD(T) aug-cc-pVTZ aug-cc-pVTZ/C TightSCF TightPNO RIJCOSX def2/J
|  2> *xyz 0 1
|  3> C          1.63556       -1.67040       -5.29211
|  4> C          0.33848       -1.50091       -4.50540
|  5> C          2.48451       -0.50741       -5.14039
|  6> H          1.39834       -1.82924       -6.35259
|  7> H          2.15586       -2.56540       -4.93209
|  8> C          3.45115       -0.14953       -5.95259
|  9> N          3.92267        1.08956       -5.85071
| 10> N          3.96616       -1.00618       -6.86788
| 11> H          3.52139       -1.90647       -6.99527
| 12> H          4.44482       -0.62347       -7.67035
| 13> H          2.25200        0.24080       -4.49879
| 14> H          3.46428        1.64078       -5.13639
| 15> H          4.83447        1.31375       -6.22465
| 16> H         -0.17658       -0.62881       -4.85045
| 17> H          0.56384       -1.39374       -3.46490
| 18> H         -0.28102       -2.36136       -4.64938
| 19> *
| 20>
| 21> %MaxCore 64000
| 22>
| 23> %pal nprocs 18
| 24> end
| 25>
| 26> %scf
| 27>   MaxIter 150
| 28> end
| 29>
| 30>
| 31>                          ****END OF INPUT****

CARTESIAN COORDINATES (ANGSTROEM)
---------------------------------
  C      1.635560   -1.670400   -5.292110
  C      0.338480   -1.500910   -4.505400
  C      2.484510   -0.507410   -5.140390
  H      1.398340   -1.829240   -6.352590
  H      2.155860   -2.565400   -4.932090
  C      3.451150   -0.149530   -5.952590
  N      3.922670    1.089560   -5.850710
  N      3.966160   -1.006180   -6.867880
  H      3.521390   -1.906470   -6.995270
  H      4.444820   -0.623470   -7.670350
  H      2.252000    0.240800   -4.498790
  H      3.464280    1.640780   -5.136390
  H      4.834470    1.313750   -6.224650
  H     -0.176580   -0.628810   -4.850450
  H      0.563840   -1.393740   -3.464900
  H     -0.281020   -2.361360   -4.649380

 Total Charge           Charge          ....    0
 Multiplicity           Mult            ....    1
 Number of Electrons    NEL             ....   48
 Basis Dimension        Dim             ....  506

ORBITAL ENERGIES
----------------

  NO   OCC          E(Eh)            E(eV)
   0   2.0000     -15.562205      -423.4691
   1   2.0000     -15.556981      -423.3270
   2   2.0000     -11.277479      -306.8758
   3   2.0000     -11.199314      -304.7488
   4   2.0000     -11.189975      -304.4947
   5   2.0000     -11.138976      -303.1069
   6   2.0000      -1.274055       -34.6688
   7   2.0000      -1.163622       -31.6638
   8   2.0000      -1.052359       -28.6361
   9   2.0000      -0.953006       -25.9326
  10   2.0000      -0.834631       -22.7115
  11   2.0000      -0.778531       -21.1849
  12   2.0000      -0.713872       -19.4255
  13   2.0000      -0.696272       -18.9465
  14   2.0000      -0.631957       -17.1964
  15   2.0000      -0.607093       -16.5198
  16   2.0000      -0.593019       -16.1369
  17   2.0000      -0.556005       -15.1297
  18   2.0000      -0.535649       -14.5758
  19   2.0000      -0.487836       -13.2747
  20   2.0000      -0.476788       -12.9741
  21   2.0000      -0.471261       -12.8237
  22   2.0000      -0.413271       -11.2457
  23   2.0000      -0.263272        -7.1640
  24   0.0000       0.025228         0.6865
  25   0.0000       0.035200         0.9578
  26   0.0000       0.038462         1.0466
  27   0.0000       0.047219         1.2849
  28   0.0000       0.051029         1.3886

MULLIKEN ATOMIC CHARGES
-----------------------
   0 C :   -0.278914
   1 C :   -0.968382
   2 C :   -0.217296
   3 H :    0.202129
   4 H :    0.218819
   5 C :    0.463529
   6 N :   -0.526062
   7 N :   -0.488475
   8 H :    0.129604
   9 H :    0.127473
  10 H :    0.301237
  11 H :    0.090473
  12 H :    0.112814
  13 H :    0.258056
  14 H :    0.266288
  15 H :    0.308707
Sum of atomic charges:    0.0000000

LOEWDIN ATOMIC CHARGES
----------------------
   0 C :    0.197825
   1 C :    0.594326
   2 C :    0.190075
   3 H :   -0.153359
   4 H :   -0.147587
   5 C :   -0.423152
   6 N :    0.854026
   7 N :    0.873026
   8 H :   -0.295840
   9 H :   -0.286841
  10 H :   -0.285478
  11 H :   -0.290992
  12 H :   -0.277607
  13 H :   -0.181324
  14 H :   -0.181012
  15 H :   -0.186086

  Mayer bond orders larger than 0.100000
B(  0-C ,  1-C ) :   0.8654 B(  0-C ,  2-C ) :   0.6916 B(  0-C ,  3-H ) :   0.9410
B(  0-C ,  4-H ) :   1.0134 B(  1-C , 13-H ) :   0.9763 B(  1-C , 14-H ) :   0.9762
B(  1-C , 15-H ) :   0.9614 B(  2-C ,  5-C ) :   1.1575 B(  2-C ,  6-N ) :  -0.2930
B(  2-C ,  7-N ) :  -0.2034 B(  2-C , 10-H ) :   0.9306 B(  5-C ,  6-N ) :   0.9211
B(  5-C ,  7-N ) :   0.8694 B(  5-C , 10-H ) :   0.1298 B(  5-C , 12-H ) :  -0.1167
B(  6-N ,  7-N ) :  -0.1546 B(  6-N , 11-H ) :   1.1067 B(  6-N , 12-H ) :   1.1227
B(  7-N ,  8-H ) :   1.0717 B(  7-N ,  9-H ) :   1.0620

E(0)                                       ...   -266.253565917
E(0)                                       ...   -266.253565917
E(CORR)(strong-pairs)                      ...     -1.165685365
E(CORR)(weak-pairs)                        ...     -0.001254970
E(CORR)(corrected)                         ...     -1.166940335
E(TOT)                                     ...   -267.420506252
E(CCSD(T))                                 ...   -267.468075193
FINAL SINGLE POINT ENERGY      -267.468075193453

DIPOLE MOMENT
-------------
                                X             Y             Z
Electronic contribution:      4.52203       2.16952      -1.92520
Nuclear contribution   :     -3.99655      -1.83277       1.34879
                        -----------------------------------------
Total Dipole Moment    :      0.52548       0.33675      -0.57642
                        -----------------------------------------
Magnitude (a.u.)       :      0.84958
Magnitude (Debye)      :      2.15946

Rotational constants in cm-1:     0.262971     0.067064     0.055026
Rotational constants in MHz :  7883.664566  2010.513309  1649.636654

                             ****ORCA TERMINATED NORMALLY****
TOTAL RUN TIME: 0 days 0 hours 12 minutes 33 seconds 272 msec
