                         Program Version 5.0.0 -  RELEASE  -
|  1> !DLPNO-CCSD(T) aug-cc-pVTZ aug-cc-pVTZ/C TightSCF TightPNO RIJCOSX def2/J
|  2> *xyz 0 1
|  3> C          1.63556       -1.67040       -5.29211
|  4> C          0.33848       -1.50091       -4.50540
|  5> N          2.48451       -0.50741       -5.14039
|  6> H          1.39834       -1.82924       -6.35259
|  7> H          2.15586       -2.56540       -4.93209
|  8> C          3.45115       -0.14953       -5.95259
|  9> C          3.92267        1.08956       -5.85071
| 10> N          3.96616       -1.00618       -6.86788
| 11> H          3.52139       -1.90647       -6.99527
| 12> H          4.44482       -0.62347       -7.67035
| 13> H          2.25200        0.24080       -4.49879
| 14> H          3.46428        1.64078       -5.13639
| 15> H          4.83447        1.31375       -6.22465
| 16> H         -0.17658       -0.62881       -4.85045
| 17> H          0.56384       -1.39374       -3.46490
| 18> H         -0.28102       -2.36136       -4.64938
| 19> *
| 20>
| 21> %MaxCore 64000
| 22>
| 23> %pal nprocs 18
| 24> end
| 25>
| 26> %scf
| 27>   MaxIter 150
| 28> end
| 29>
| 30>
| 31>                          ****END OF INPUT****

CARTESIAN COORDINATES (ANGSTROEM)
---------------------------------
  C      1.635560   -1.670400   -5.292110
  C      0.338480   -1.500910   -4.505400
  N      2.484510   -0.507410   -5.140390
  H      1.398340   -1.829240   -6.352590
  H      2.155860   -2.565400   -4.932090
  C      3.451150   -0.149530   -5.952590
  C      3.922670    1.089560   -5.850710
  N      3.966160   -1.006180   -6.867880
  H      3.521390   -1.906470   -6.995270
  H      4.444820   -0.623470   -7.670350
  H      2.252000    0.240800   -4.498790
  H      3.464280    1.640780   -5.136390
  H      4.834470    1.313750   -6.224650
  H     -0.176580   -0.628810   -4.850450
  H      0.563840   -1.393740   -3.464900
  H     -0.281020   -2.361360   -4.649380

 Total Charge           Charge          ....    0
 Multiplicity           Mult            ....    1
 Number of Electrons    NEL             ....   48
 Basis Dimension        Dim             ....  506

ORBITAL ENERGIES
----------------

  NO   OCC          E(Eh)            E(eV)
   0   2.0000     -15.561505      -423.4501
   1   2.0000     -15.559378      -423.3922
   2   2.0000     -11.285099      -307.0832
   3   2.0000     -11.270908      -306.6970
   4   2.0000     -11.223370      -305.4034
   5   2.0000     -11.125821      -302.7490
   6   2.0000      -1.289582       -35.0913
   7   2.0000      -1.180820       -32.1317
   8   2.0000      -1.045968       -28.4622
   9   2.0000      -0.960246       -26.1296
  10   2.0000      -0.855386       -23.2762
  11   2.0000      -0.799988       -21.7688
  12   2.0000      -0.716074       -19.4854
  13   2.0000      -0.672978       -18.3127
  14   2.0000      -0.654465       -17.8089
  15   2.0000      -0.628989       -17.1157
  16   2.0000      -0.582853       -15.8602
  17   2.0000      -0.555730       -15.1222
  18   2.0000      -0.539768       -14.6878
  19   2.0000      -0.528747       -14.3879
  20   2.0000      -0.520004       -14.1500
  21   2.0000      -0.499240       -13.5850
  22   2.0000      -0.403372       -10.9763
  23   2.0000      -0.262643        -7.1469
  24   0.0000       0.025568         0.6957
  25   0.0000       0.033312         0.9065
  26   0.0000       0.038651         1.0518
  27   0.0000       0.040597         1.1047
  28   0.0000       0.052356         1.4247

MULLIKEN ATOMIC CHARGES
-----------------------
   0 C :   -0.295120
   1 C :   -0.889099
   2 N :    0.067809
   3 H :    0.294223
   4 H :    0.289866
   5 C :    0.183135
   6 C :   -1.149080
   7 N :   -0.446058
   8 H :    0.151774
   9 H :    0.076579
  10 H :    0.063342
  11 H :    0.327575
  12 H :    0.445264
  13 H :    0.285153
  14 H :    0.294480
  15 H :    0.300159
Sum of atomic charges:   -0.0000000

LOEWDIN ATOMIC CHARGES
----------------------
   0 C :    0.183203
   1 C :    0.616683
   2 N :    0.565430
   3 H :   -0.145576
   4 H :   -0.139924
   5 C :   -0.454410
   6 C :    0.542717
   7 N :    0.869341
   8 H :   -0.309595
   9 H :   -0.275709
  10 H :   -0.281844
  11 H :   -0.324235
  12 H :   -0.307071
  13 H :   -0.179162
  14 H :   -0.179943
  15 H :   -0.179905

  Mayer bond orders larger than 0.100000
B(  0-C ,  1-C ) :   0.7902 B(  0-C ,  2-N ) :   0.7524 B(  0-C ,  3-H ) :   0.9194
B(  0-C ,  4-H ) :   0.9451 B(  0-C ,  5-C ) :  -0.1859 B(  1-C , 13-H ) :   0.9442
B(  1-C , 14-H ) :   0.9406 B(  1-C , 15-H ) :   0.9771 B(  2-N ,  5-C ) :   0.7472
B(  2-N ,  6-C ) :  -0.2670 B(  2-N ,  7-N ) :  -0.1353 B(  2-N , 10-H ) :   1.0916
B(  5-C ,  6-C ) :   1.2413 B(  5-C ,  7-N ) :   0.8296 B(  6-C ,  7-N ) :  -0.2086
B(  6-C , 11-H ) :   0.9975 B(  6-C , 12-H ) :   0.8421 B(  7-N ,  8-H ) :   1.0327
B(  7-N ,  9-H ) :   1.1290

E(0)                                       ...   -266.245064992
E(0)                                       ...   -266.245064992
E(CORR)(strong-pairs)                      ...     -1.162370124
E(CORR)(weak-pairs)                        ...     -0.001258194
E(CORR)(corrected)                         ...     -1.163628318
E(TOT)                                     ...   -267.408693310
E(CCSD(T))                                 ...   -267.456172992
FINAL SINGLE POINT ENERGY      -267.456172991603

DIPOLE MOMENT
-------------
                                X             Y             Z
Electronic contribution:      2.92201       0.48426      -1.28287
Nuclear contribution   :     -3.69145      -1.49398       1.19810
                        -----------------------------------------
Total Dipole Moment    :     -0.76944      -1.00973      -0.08477
                        -----------------------------------------
Magnitude (a.u.)       :      1.27231
Magnitude (Debye)      :      3.23395

Rotational constants in cm-1:     0.270790     0.068966     0.056679
Rotational constants in MHz :  8118.084803  2067.559423  1699.196934

                             ****ORCA TERMINATED NORMALLY****
TOTAL RUN TIME: 0 days 0 hours 13 minutes 48 seconds 247 msec
