                         Program Version 5.0.0 -  RELEASE  -
|  1> !DLPNO-CCSD(T) aug-cc-pVTZ aug-cc-pVTZ/C TightSCF TightPNO RIJCOSX def2/J
|  2> *xyz 0 1
|  3> C          1.63556       -1.67040       -5.29211
|  4> C          0.33848       -1.50091       -4.50540
|  5> N          2.48451       -0.50741       -5.14039
|  6> H          1.39834       -1.82924       -6.35259
|  7> H          2.15586       -2.56540       -4.93209
|  8> C          3.45115       -0.14953       -5.95259
|  9> N          3.92267        1.08956       -5.85071
| 10> C          3.96616       -1.00618       -6.86788
| 11> H          3.52139       -1.90647       -6.99527
| 12> H          4.44482       -0.62347       -7.67035
| 13> H          2.25200        0.24080       -4.49879
| 14> H          3.46428        1.64078       -5.13639
| 15> H          4.83447        1.31375       -6.22465
| 16> H         -0.17658       -0.62881       -4.85045
| 17> H          0.56384       -1.39374       -3.46490
| 18> H         -0.28102       -2.36136       -4.64938
| 19> *
| 20>
| 21> %MaxCore 64000
| 22>
| 23> %pal nprocs 18
| 24> end
| 25>
| 26> %scf
| 27>   MaxIter 150
| 28> end
| 29>
| 30>
| 31>                          ****END OF INPUT****

CARTESIAN COORDINATES (ANGSTROEM)
---------------------------------
  C      1.635560   -1.670400   -5.292110
  C      0.338480   -1.500910   -4.505400
  N      2.484510   -0.507410   -5.140390
  H      1.398340   -1.829240   -6.352590
  H      2.155860   -2.565400   -4.932090
  C      3.451150   -0.149530   -5.952590
  N      3.922670    1.089560   -5.850710
  C      3.966160   -1.006180   -6.867880
  H      3.521390   -1.906470   -6.995270
  H      4.444820   -0.623470   -7.670350
  H      2.252000    0.240800   -4.498790
  H      3.464280    1.640780   -5.136390
  H      4.834470    1.313750   -6.224650
  H     -0.176580   -0.628810   -4.850450
  H      0.563840   -1.393740   -3.464900
  H     -0.281020   -2.361360   -4.649380

 Total Charge           Charge          ....    0
 Multiplicity           Mult            ....    1
 Number of Electrons    NEL             ....   48
 Basis Dimension        Dim             ....  506

ORBITAL ENERGIES
----------------

  NO   OCC          E(Eh)            E(eV)
   0   2.0000     -15.566599      -423.5887
   1   2.0000     -15.564276      -423.5255
   2   2.0000     -11.287278      -307.1424
   3   2.0000     -11.263790      -306.5033
   4   2.0000     -11.219402      -305.2954
   5   2.0000     -11.127777      -302.8022
   6   2.0000      -1.299401       -35.3585
   7   2.0000      -1.186901       -32.2972
   8   2.0000      -1.029421       -28.0120
   9   2.0000      -0.961677       -26.1685
  10   2.0000      -0.871543       -23.7159
  11   2.0000      -0.770192       -20.9580
  12   2.0000      -0.719144       -19.5689
  13   2.0000      -0.707069       -19.2403
  14   2.0000      -0.648570       -17.6485
  15   2.0000      -0.631098       -17.1731
  16   2.0000      -0.562521       -15.3070
  17   2.0000      -0.554226       -15.0813
  18   2.0000      -0.549366       -14.9490
  19   2.0000      -0.526455       -14.3256
  20   2.0000      -0.509507       -13.8644
  21   2.0000      -0.500412       -13.6169
  22   2.0000      -0.395153       -10.7527
  23   2.0000      -0.265140        -7.2148
  24   0.0000       0.024010         0.6533
  25   0.0000       0.033384         0.9084
  26   0.0000       0.039440         1.0732
  27   0.0000       0.042512         1.1568
  28   0.0000       0.052289         1.4229

MULLIKEN ATOMIC CHARGES
-----------------------
   0 C :   -0.288314
   1 C :   -0.884832
   2 N :   -0.007529
   3 H :    0.295497
   4 H :    0.283102
   5 C :    0.367777
   6 N :   -0.510695
   7 C :   -1.212036
   8 H :    0.408328
   9 H :    0.344910
  10 H :    0.087462
  11 H :    0.100645
  12 H :    0.139804
  13 H :    0.286247
  14 H :    0.291622
  15 H :    0.298012
Sum of atomic charges:   -0.0000000

LOEWDIN ATOMIC CHARGES
----------------------
   0 C :    0.187478
   1 C :    0.613998
   2 N :    0.564963
   3 H :   -0.144104
   4 H :   -0.133000
   5 C :   -0.461574
   6 N :    0.863160
   7 C :    0.550102
   8 H :   -0.335859
   9 H :   -0.319118
  10 H :   -0.284033
  11 H :   -0.296105
  12 H :   -0.262389
  13 H :   -0.181794
  14 H :   -0.182919
  15 H :   -0.178805

  Mayer bond orders larger than 0.100000
B(  0-C ,  1-C ) :   0.7904 B(  0-C ,  2-N ) :   0.7960 B(  0-C ,  3-H ) :   0.9381
B(  0-C ,  4-H ) :   0.9356 B(  0-C ,  5-C ) :  -0.1602 B(  1-C , 13-H ) :   0.9382
B(  1-C , 14-H ) :   0.9412 B(  1-C , 15-H ) :   0.9829 B(  2-N ,  5-C ) :   0.7607
B(  2-N ,  6-N ) :  -0.2218 B(  2-N ,  7-C ) :  -0.1637 B(  2-N , 10-H ) :   1.0991
B(  5-C ,  6-N ) :   0.9690 B(  5-C ,  7-C ) :   1.1718 B(  6-N ,  7-C ) :  -0.1846
B(  6-N , 11-H ) :   1.1258 B(  6-N , 12-H ) :   1.0859 B(  7-C ,  8-H ) :   0.8593
B(  7-C ,  9-H ) :   0.9864

E(0)                                       ...   -266.245452461
E(0)                                       ...   -266.245452461
E(CORR)(strong-pairs)                      ...     -1.163022754
E(CORR)(weak-pairs)                        ...     -0.001278457
E(CORR)(corrected)                         ...     -1.164301212
E(TOT)                                     ...   -267.409753672
E(CCSD(T))                                 ...   -267.457446150
FINAL SINGLE POINT ENERGY      -267.457446149510

DIPOLE MOMENT
-------------
                                X             Y             Z
Electronic contribution:      2.96159       2.66137      -0.17435
Nuclear contribution   :     -3.68222      -1.93858       0.98231
                        -----------------------------------------
Total Dipole Moment    :     -0.72063       0.72279       0.80796
                        -----------------------------------------
Magnitude (a.u.)       :      1.30175
Magnitude (Debye)      :      3.30877

Rotational constants in cm-1:     0.275407     0.068040     0.056255
Rotational constants in MHz :  8256.498401  2039.796466  1686.484500

                             ****ORCA TERMINATED NORMALLY****
TOTAL RUN TIME: 0 days 0 hours 14 minutes 24 seconds 792 msec
