                         Program Version 5.0.0 -  RELEASE  -
|  1> !DLPNO-CCSD(T) aug-cc-pVTZ aug-cc-pVTZ/C TightSCF TightPNO RIJCOSX def2/J
|  2>
|  3> *xyzfile 0 1 D1.xyz
|  4>
|  5> %MaxCore 64000
|  6>
|  7> %pal nprocs 18
|  8> end
|  9>
| 10> %scf
| 11>   MaxIter 150
| 12> end
| 13>
| 14>
| 15>                          ****END OF INPUT****

CARTESIAN COORDINATES (ANGSTROEM)
---------------------------------
  C      1.635557   -1.670396   -5.292109
  C      0.338484   -1.500907   -4.505398
  C      2.484511   -0.507410   -5.140392
  C     -0.684873   -0.528026   -5.099889
  C     -0.290406    0.951335   -5.153423
  H      0.607991    1.070692   -5.764412
  C     -0.055168    1.619420   -3.788577
  H     -1.080912    1.483775   -5.689436
  H      0.045006    0.862302   -3.003015
  H     -0.922936    2.230329   -3.517028
  C      1.223022    2.469865   -3.756911
  H      1.114701    3.258074   -4.532999
  H      1.237732    3.011242   -2.792157
  F      2.353815    1.712032   -3.934477
  H      1.398337   -1.829239   -6.352591
  H      2.155864   -2.565398   -4.932091
  C      3.451149   -0.149530   -5.952589
  N      3.922667    1.089559   -5.850711
  N      3.966162   -1.006183   -6.867880
  H      3.521391   -1.906467   -6.995270
  H      4.444824   -0.623472   -7.670348
  H      2.251995    0.240804   -4.498792
  H      3.464277    1.640782   -5.136392
  H      4.834470    1.313745   -6.224653
  H     -0.937999   -0.869056   -6.110838
  H     -1.604638   -0.622496   -4.513132
  H      0.594887   -1.211578   -3.482312
  H     -0.126530   -2.487656   -4.434176

 Total Charge           Charge          ....    0
 Multiplicity           Mult            ....    1
 Number of Electrons    NEL             ....   88
 Basis Dimension        Dim             ....  897

ORBITAL ENERGIES
----------------

  NO   OCC          E(Eh)            E(eV)
   0   2.0000     -26.306898      -715.8471
   1   2.0000     -15.546487      -423.0414
   2   2.0000     -15.529124      -422.5689
   3   2.0000     -11.320347      -308.0423
   4   2.0000     -11.256342      -306.3006
   5   2.0000     -11.230418      -305.5952
   6   2.0000     -11.211867      -305.0904
   7   2.0000     -11.209119      -305.0156
   8   2.0000     -11.198686      -304.7317
   9   2.0000     -11.187585      -304.4297
  10   2.0000     -11.108024      -302.2647
  11   2.0000      -1.633492       -44.4496
  12   2.0000      -1.254670       -34.1413
  13   2.0000      -1.145590       -31.1731
  14   2.0000      -1.088585       -29.6219
  15   2.0000      -1.048907       -28.5422
  16   2.0000      -0.989293       -26.9200
  17   2.0000      -0.942062       -25.6348
  18   2.0000      -0.874414       -23.7940
  19   2.0000      -0.829896       -22.5826
  20   2.0000      -0.780828       -21.2474
  21   2.0000      -0.762345       -20.7445
  22   2.0000      -0.744189       -20.2504
  23   2.0000      -0.715384       -19.4666
  24   2.0000      -0.706533       -19.2257
  25   2.0000      -0.683894       -18.6097
  26   2.0000      -0.672321       -18.2948
  27   2.0000      -0.624628       -16.9970
  28   2.0000      -0.608131       -16.5481
  29   2.0000      -0.603443       -16.4205
  30   2.0000      -0.580242       -15.7892
  31   2.0000      -0.566029       -15.4024
  32   2.0000      -0.555353       -15.1119
  33   2.0000      -0.532999       -14.5037
  34   2.0000      -0.514873       -14.0104
  35   2.0000      -0.511454       -13.9174
  36   2.0000      -0.497053       -13.5255
  37   2.0000      -0.480672       -13.0798
  38   2.0000      -0.462391       -12.5823
  39   2.0000      -0.445159       -12.1134
  40   2.0000      -0.437921       -11.9164
  41   2.0000      -0.429880       -11.6976
  42   2.0000      -0.394120       -10.7246
  43   2.0000      -0.242291        -6.5931
  44   0.0000       0.025663         0.6983
  45   0.0000       0.031192         0.8488
  46   0.0000       0.034052         0.9266
  47   0.0000       0.037143         1.0107
  48   0.0000       0.045503         1.2382

MULLIKEN ATOMIC CHARGES
-----------------------
   0 C :   -0.544661
   1 C :   -0.506121
   2 C :   -0.213955
   3 C :   -0.530509
   4 C :   -0.436403
   5 H :    0.231073
   6 C :   -0.538094
   7 H :    0.384458
   8 H :    0.276760
   9 H :    0.276214
  10 C :   -0.404124
  11 H :    0.293139
  12 H :    0.334825
  13 F :   -0.504641
  14 H :    0.064384
  15 H :    0.251767
  16 C :    0.672324
  17 N :   -0.658489
  18 N :   -0.602824
  19 H :    0.123693
  20 H :    0.094209
  21 H :    0.776601
  22 H :    0.312151
  23 H :    0.096373
  24 H :    0.225694
  25 H :    0.154645
  26 H :   -0.002498
  27 H :    0.374010
Sum of atomic charges:   -0.0000000

LOEWDIN ATOMIC CHARGES
----------------------
   0 C :    0.233679
   1 C :    0.288795
   2 C :    0.182073
   3 C :    0.304850
   4 C :    0.295719
   5 H :   -0.177414
   6 C :    0.299188
   7 H :   -0.143666
   8 H :   -0.164169
   9 H :   -0.138058
  10 C :    0.015642
  11 H :   -0.139185
  12 H :   -0.151793
  13 F :    0.747709
  14 H :   -0.149055
  15 H :   -0.141243
  16 C :   -0.397797
  17 N :    0.864841
  18 N :    0.872394
  19 H :   -0.297827
  20 H :   -0.290237
  21 H :   -0.548355
  22 H :   -0.510727
  23 H :   -0.273836
  24 H :   -0.139286
  25 H :   -0.144275
  26 H :   -0.152760
  27 H :   -0.145207

  Mayer bond orders larger than 0.100000
B(  0-C ,  1-C ) :   0.8990 B(  0-C ,  2-C ) :   0.5894 B(  0-C , 14-H ) :   1.0783
B(  0-C , 15-H ) :   1.0488 B(  1-C ,  3-C ) :   0.8400 B(  1-C , 26-H ) :   1.2387
B(  1-C , 27-H ) :   0.8718 B(  2-C , 15-H ) :  -0.1309 B(  2-C , 16-C ) :   1.3794
B(  2-C , 17-N ) :  -0.1900 B(  2-C , 18-N ) :  -0.1659 B(  2-C , 21-H ) :   0.7367
B(  3-C ,  4-C ) :   0.8349 B(  3-C ,  5-H ) :   0.1159 B(  3-C , 24-H ) :   0.9892
B(  3-C , 25-H ) :   1.0804 B(  4-C ,  5-H ) :   1.0198 B(  4-C ,  6-C ) :   0.8242
B(  4-C ,  7-H ) :   0.8485 B(  6-C ,  8-H ) :   0.9303 B(  6-C ,  9-H ) :   0.9530
B(  6-C , 10-C ) :   1.0120 B( 10-C , 11-H ) :   0.9319 B( 10-C , 12-H ) :   0.9296
B( 10-C , 13-F ) :   0.8279 B( 13-F , 21-H ) :  -0.2891 B( 14-H , 16-C ) :   0.1319
B( 16-C , 17-N ) :   0.7452 B( 16-C , 18-N ) :   0.6099 B( 17-N , 18-N ) :  -0.1290
B( 17-N , 22-H ) :   0.9415 B( 17-N , 23-H ) :   1.1343 B( 18-N , 19-H ) :   1.0865
B( 18-N , 20-H ) :   1.1219

E(0)                                       ...   -521.285854985
E(0)                                       ...   -521.285854985
E(CORR)(strong-pairs)                      ...     -2.167269733
E(CORR)(weak-pairs)                        ...     -0.003367220
E(CORR)(corrected)                         ...     -2.170636953
E(TOT)                                     ...   -523.456491938
E(CCSD(T))                                 ...   -523.544187210
FINAL SINGLE POINT ENERGY      -523.544187210319

DIPOLE MOMENT
-------------
                                X             Y             Z
Electronic contribution:      7.78710       3.89104       1.13957
Nuclear contribution   :     -8.11591      -2.99033      -1.35383
                        -----------------------------------------
Total Dipole Moment    :     -0.32881       0.90072      -0.21426
                        -----------------------------------------
Magnitude (a.u.)       :      0.98250
Magnitude (Debye)      :      2.49732

Rotational constants in cm-1:     0.043530     0.028984     0.019589
Rotational constants in MHz :  1305.007140   868.923804   587.262638

                             ****ORCA TERMINATED NORMALLY****
TOTAL RUN TIME: 0 days 2 hours 49 minutes 12 seconds 743 msec
