                         Program Version 5.0.0 -  RELEASE  -
|  1> !CAM-B3LYP RIJCOSX def2-SVPD def2/J TightSCF
|  2> *xyz -1 1
|  3> C          1.69499        1.54179       -5.57045
|  4> S          1.78029       -0.03313       -6.42874
|  5> O          2.56929        0.21366       -7.60736
|  6> O          0.41688       -0.46297       -6.61859
|  7> O          2.50513       -0.93326       -5.48257
|  8> H          1.18489        2.25500       -6.18367
|  9> H          2.68564        1.89081       -5.36624
| 10> H          1.16361        1.41804       -4.65000
| 11> *
| 12> %MaxCore 64000
| 13>
| 14> %pal nprocs 8
| 15> end
| 16>
| 17> %scf
| 18>   MaxIter 150
| 19> end
| 20>
| 21>
| 22>                          ****END OF INPUT****

CARTESIAN COORDINATES (ANGSTROEM)
---------------------------------
  C      1.694990    1.541790   -5.570450
  S      1.780290   -0.033130   -6.428740
  O      2.569290    0.213660   -7.607360
  O      0.416880   -0.462970   -6.618590
  O      2.505130   -0.933260   -5.482570
  H      1.184890    2.255000   -6.183670
  H      2.685640    1.890810   -5.366240
  H      1.163610    1.418040   -4.650000

 Total Charge           Charge          ....   -1
 Multiplicity           Mult            ....    1
 Number of Electrons    NEL             ....   50
 Basis Dimension        Dim             ....  140

ORBITAL ENERGIES
----------------

  NO   OCC          E(Eh)            E(eV)
   0   2.0000     -88.963818     -2420.8286
   1   2.0000     -18.996886      -516.9315
   2   2.0000     -18.995700      -516.8993
   3   2.0000     -18.978332      -516.4267
   4   2.0000     -10.114069      -275.2178
   5   2.0000      -8.016864      -218.1499
   6   2.0000      -5.986768      -162.9082
   7   2.0000      -5.986639      -162.9047
   8   2.0000      -5.986377      -162.8976
   9   2.0000      -1.017208       -27.6796
  10   2.0000      -0.877658       -23.8823
  11   2.0000      -0.843573       -22.9548
  12   2.0000      -0.663819       -18.0634
  13   2.0000      -0.463408       -12.6100
  14   2.0000      -0.377475       -10.2716
  15   2.0000      -0.363340        -9.8870
  16   2.0000      -0.362279        -9.8581
  17   2.0000      -0.320713        -8.7270
  18   2.0000      -0.317522        -8.6402
  19   2.0000      -0.222829        -6.0635
  20   2.0000      -0.220637        -6.0038
  21   2.0000      -0.185508        -5.0479
  22   2.0000      -0.178528        -4.8580
  23   2.0000      -0.164328        -4.4716
  24   2.0000      -0.129916        -3.5352
  25   0.0000       0.176446         4.8013
  26   0.0000       0.206389         5.6161
  27   0.0000       0.206682         5.6241
  28   0.0000       0.211523         5.7558
  29   0.0000       0.239097         6.5062

MULLIKEN ATOMIC CHARGES
-----------------------
   0 C :    0.688119
   1 S :    1.085023
   2 O :   -0.754864
   3 O :   -0.756541
   4 O :   -0.814327
   5 H :   -0.153761
   6 H :   -0.144252
   7 H :   -0.149397
Sum of atomic charges:   -1.0000000

LOEWDIN ATOMIC CHARGES
----------------------
   0 C :    0.056298
   1 S :    0.833631
   2 O :   -0.583511
   3 O :   -0.582685
   4 O :   -0.612237
   5 H :   -0.038920
   6 H :   -0.036016
   7 H :   -0.036560

  Mayer bond orders larger than 0.100000
B(  0-C ,  1-S ) :   0.9356 B(  0-C ,  5-H ) :   0.8813 B(  0-C ,  6-H ) :   0.8843
B(  0-C ,  7-H ) :   0.8857 B(  1-S ,  2-O ) :   1.3463 B(  1-S ,  3-O ) :   1.3434
B(  1-S ,  4-O ) :   1.2947 B(  1-S ,  5-H ) :   0.1195 B(  1-S ,  6-H ) :   0.1315
B(  1-S ,  7-H ) :   0.1311

FINAL SINGLE POINT ENERGY      -663.406867655474

DIPOLE MOMENT
-------------
                                X             Y             Z
Electronic contribution:      0.11223      -3.62664      -2.15161
Nuclear contribution   :     -0.31747       5.08000       2.69095
                        -----------------------------------------
Total Dipole Moment    :     -0.20525       1.45335       0.53934
                        -----------------------------------------
Magnitude (a.u.)       :      1.56373
Magnitude (Debye)      :      3.97468

Rotational constants in cm-1:     0.172246     0.157831     0.154490
Rotational constants in MHz :  5163.797750  4731.657963  4631.481993

                             ****ORCA TERMINATED NORMALLY****
TOTAL RUN TIME: 0 days 0 hours 0 minutes 10 seconds 113 msec
