                         Program Version 5.0.0 -  RELEASE  -
|  1> !CAM-B3LYP RIJCOSX def2-SVPD def2/J TightSCF
|  2> *xyz 1 1
|  3> C          1.96337       -1.74915       -1.89689
|  4> N          2.73849       -2.01517       -3.09711
|  5> C          4.04974       -2.15472       -3.15204
|  6> N          4.65821       -1.98629       -4.31866
|  7> N          4.76423       -2.45444       -2.05049
|  8> H          4.28736       -2.77626       -1.21750
|  9> H          5.75082       -2.65835       -2.12599
| 10> H          2.34518       -1.69027       -3.97145
| 11> H          4.10900       -1.59268       -5.07176
| 12> H          5.64910       -2.15646       -4.42724
| 13> H          0.92556       -1.68522       -2.14942
| 14> H          2.28268       -0.82430       -1.46378
| 15> H          2.11118       -2.54207       -1.19381
| 16> *
| 17> %MaxCore 64000
| 18>
| 19> %pal nprocs 8
| 20> end
| 21>
| 22> %scf
| 23>   MaxIter 150
| 24> end
| 25>
| 26>
| 27>                          ****END OF INPUT****

CARTESIAN COORDINATES (ANGSTROEM)
---------------------------------
  C      1.963370   -1.749150   -1.896890
  N      2.738490   -2.015170   -3.097110
  C      4.049740   -2.154720   -3.152040
  N      4.658210   -1.986290   -4.318660
  N      4.764230   -2.454440   -2.050490
  H      4.287360   -2.776260   -1.217500
  H      5.750820   -2.658350   -2.125990
  H      2.345180   -1.690270   -3.971450
  H      4.109000   -1.592680   -5.071760
  H      5.649100   -2.156460   -4.427240
  H      0.925560   -1.685220   -2.149420
  H      2.282680   -0.824300   -1.463780
  H      2.111180   -2.542070   -1.193810

 Total Charge           Charge          ....    1
 Multiplicity           Mult            ....    1
 Number of Electrons    NEL             ....   40
 Basis Dimension        Dim             ....  164

ORBITAL ENERGIES
----------------

  NO   OCC          E(Eh)            E(eV)
   0   2.0000     -14.635839      -398.2614
   1   2.0000     -14.635055      -398.2401
   2   2.0000     -14.633986      -398.2110
   3   2.0000     -10.604245      -288.5562
   4   2.0000     -10.465525      -284.7814
   5   2.0000      -1.300292       -35.3827
   6   2.0000      -1.185323       -32.2543
   7   2.0000      -1.172208       -31.8974
   8   2.0000      -0.986084       -26.8327
   9   2.0000      -0.904857       -24.6224
  10   2.0000      -0.863239       -23.4899
  11   2.0000      -0.833700       -22.6861
  12   2.0000      -0.770446       -20.9649
  13   2.0000      -0.762512       -20.7490
  14   2.0000      -0.731832       -19.9142
  15   2.0000      -0.718565       -19.5531
  16   2.0000      -0.663964       -18.0674
  17   2.0000      -0.648492       -17.6464
  18   2.0000      -0.549345       -14.9484
  19   2.0000      -0.524818       -14.2810
  20   0.0000      -0.128803        -3.5049
  21   0.0000      -0.125946        -3.4272
  22   0.0000      -0.087194        -2.3727
  23   0.0000      -0.083147        -2.2626
  24   0.0000      -0.052872        -1.4387

MULLIKEN ATOMIC CHARGES
-----------------------
   0 C :    1.261715
   1 N :   -0.438449
   2 C :    1.154264
   3 N :    0.050491
   4 N :    0.097893
   5 H :   -0.084803
   6 H :   -0.135434
   7 H :   -0.189248
   8 H :   -0.028531
   9 H :   -0.119697
  10 H :   -0.325452
  11 H :   -0.098820
  12 H :   -0.143929
Sum of atomic charges:    1.0000000

LOEWDIN ATOMIC CHARGES
----------------------
   0 C :    0.254136
   1 N :    0.019047
   2 C :   -0.041422
   3 N :    0.266912
   4 N :    0.283697
   5 H :    0.023496
   6 H :    0.037013
   7 H :    0.052850
   8 H :    0.038525
   9 H :    0.043906
  10 H :    0.014475
  11 H :    0.009919
  12 H :   -0.002554

  Mayer bond orders larger than 0.100000
B(  0-C ,  1-N ) :   0.9672 B(  0-C , 10-H ) :   0.7601 B(  0-C , 11-H ) :   0.8093
B(  0-C , 12-H ) :   0.8063 B(  1-N ,  2-C ) :   1.0907 B(  1-N ,  3-N ) :   0.2452
B(  1-N ,  4-N ) :   0.2016 B(  1-N ,  7-H ) :   1.2202 B(  1-N , 10-H ) :   0.1935
B(  1-N , 11-H ) :   0.1169 B(  1-N , 12-H ) :   0.1567 B(  2-C ,  3-N ) :   0.9029
B(  2-C ,  4-N ) :   1.0152 B(  2-C ,  5-H ) :  -0.1506 B(  2-C ,  6-H ) :  -0.1371
B(  2-C ,  7-H ) :  -0.1925 B(  2-C ,  8-H ) :  -0.1315 B(  2-C ,  9-H ) :  -0.1650
B(  3-N ,  4-N ) :   0.1440 B(  3-N ,  8-H ) :   1.1510 B(  3-N ,  9-H ) :   1.2757
B(  4-N ,  5-H ) :   1.1335 B(  4-N ,  6-H ) :   1.2311 B(  5-H ,  6-H ) :  -0.1954
B(  8-H ,  9-H ) :  -0.1799

FINAL SINGLE POINT ENERGY      -244.798729344181

DIPOLE MOMENT
-------------
                                X             Y             Z
Electronic contribution:      2.05064      -0.55609      -1.80556
Nuclear contribution   :     -1.59972       0.59064       1.48941
                        -----------------------------------------
Total Dipole Moment    :      0.45092       0.03455      -0.31615
                        -----------------------------------------
Magnitude (a.u.)       :      0.55179
Magnitude (Debye)      :      1.40253

Rotational constants in cm-1:     0.309236     0.134358     0.096189
Rotational constants in MHz :  9270.657746  4027.948155  2883.671905

                             ****ORCA TERMINATED NORMALLY****
TOTAL RUN TIME: 0 days 0 hours 0 minutes 13 seconds 817 msec
