                         Program Version 5.0.0 -  RELEASE  -
|  1> !CAM-B3LYP RIJCOSX def2-SVPD def2/J TightSCF xyzfile
|  2>
|  3> *xyzfile 0 1 B.xyz
|  4>
|  5> %MaxCore 64000
|  6>
|  7> %pal nprocs 4
|  8> end
|  9>
| 10> %scf
| 11>   MaxIter 150
| 12> end
| 13>
| 14>
| 15>                          ****END OF INPUT****

CARTESIAN COORDINATES (ANGSTROEM)
---------------------------------
  C      1.963365   -1.749150   -1.896887
  N      2.738490   -2.015170   -3.097113
  C      0.611877    1.657634   -4.500288
  C      1.694991    1.541794   -5.570447
  H      2.697326    1.734659   -5.183996
  H      1.506656    2.272239   -6.358076
  S      1.780287   -0.033128   -6.428739
  C      4.049736   -2.154717   -3.152044
  N      4.658206   -1.986293   -4.318655
  N      4.764231   -2.454435   -2.050491
  H      4.287363   -2.776259   -1.217496
  H      5.750825   -2.658351   -2.125988
  H      2.345176   -1.690274   -3.971447
  H      4.109004   -1.592677   -5.071760
  H      5.649095   -2.156462   -4.427237
  O      2.569287    0.213657   -7.607360
  O      0.416880   -0.462969   -6.618595
  C      2.088520   -0.300912   -1.415204
  H      2.231272   -2.451616   -1.102643
  H      0.930249   -1.977801   -2.155438
  C      0.680356    0.655418   -3.348038
  H     -0.356865    1.549231   -4.991128
  H      0.650228    2.675438   -4.096000
  C      1.968993    0.733582   -2.535654
  H      3.051356   -0.168602   -0.911868
  H      1.316501   -0.136231   -0.657252
  O      2.505129   -0.933263   -5.482570
  H      2.824195    0.624726   -3.208464
  H      2.058919    1.730331   -2.093112
  H      0.542252   -0.344731   -3.766662
  H     -0.174219    0.829692   -2.685182

 Total Charge           Charge          ....    0
 Multiplicity           Mult            ....    1
 Number of Electrons    NEL             ....  120
 Basis Dimension        Dim             ....  432

ORBITAL ENERGIES
----------------

  NO   OCC          E(Eh)            E(eV)
   0   2.0000     -89.110913     -2424.8312
   1   2.0000     -19.155193      -521.2393
   2   2.0000     -19.135087      -520.6922
   3   2.0000     -19.133835      -520.6581
   4   2.0000     -14.494922      -394.4269
   5   2.0000     -14.465189      -393.6178
   6   2.0000     -14.460035      -393.4776
   7   2.0000     -10.447463      -284.2899
   8   2.0000     -10.332512      -281.1619
   9   2.0000     -10.282367      -279.7974
  10   2.0000     -10.263289      -279.2783
  11   2.0000     -10.251523      -278.9581
  12   2.0000     -10.250781      -278.9379
  13   2.0000     -10.248486      -278.8755
  14   2.0000      -8.162906      -222.1240
  15   2.0000      -6.133934      -166.9128
  16   2.0000      -6.132404      -166.8712
  17   2.0000      -6.131673      -166.8513
  18   2.0000      -1.166077       -31.7306
  19   2.0000      -1.143558       -31.1178
  20   2.0000      -1.033982       -28.1361
  21   2.0000      -1.019843       -27.7513
  22   2.0000      -1.015745       -27.6398
  23   2.0000      -1.010880       -27.5074
  24   2.0000      -0.901469       -24.5302
  25   2.0000      -0.862422       -23.4677
  26   2.0000      -0.813409       -22.1340
  27   2.0000      -0.773649       -21.0521
  28   2.0000      -0.746758       -20.3203
  29   2.0000      -0.712413       -19.3857
  30   2.0000      -0.704651       -19.1745
  31   2.0000      -0.670646       -18.2492
  32   2.0000      -0.648252       -17.6398
  33   2.0000      -0.631127       -17.1738
  34   2.0000      -0.614599       -16.7241
  35   2.0000      -0.595589       -16.2068
  36   2.0000      -0.578047       -15.7295
  37   2.0000      -0.554921       -15.1002
  38   2.0000      -0.551544       -15.0083
  39   2.0000      -0.543436       -14.7876
  40   2.0000      -0.529740       -14.4150
  41   2.0000      -0.513245       -13.9661
  42   2.0000      -0.501872       -13.6566
  43   2.0000      -0.490300       -13.3417
  44   2.0000      -0.474823       -12.9206
  45   2.0000      -0.466077       -12.6826
  46   2.0000      -0.447730       -12.1834
  47   2.0000      -0.440147       -11.9770
  48   2.0000      -0.433372       -11.7926
  49   2.0000      -0.405078       -11.0227
  50   2.0000      -0.402163       -10.9434
  51   2.0000      -0.397163       -10.8074
  52   2.0000      -0.381120       -10.3708
  53   2.0000      -0.375665       -10.2224
  54   2.0000      -0.367973       -10.0130
  55   2.0000      -0.361422        -9.8348
  56   2.0000      -0.331971        -9.0334
  57   2.0000      -0.322149        -8.7661
  58   2.0000      -0.311948        -8.4885
  59   2.0000      -0.287631        -7.8268
  60   0.0000       0.000672         0.0183
  61   0.0000       0.019250         0.5238
  62   0.0000       0.031515         0.8576
  63   0.0000       0.053672         1.4605
  64   0.0000       0.060166         1.6372

MULLIKEN ATOMIC CHARGES
-----------------------
   0 C :    1.116592
   1 N :    0.121583
   2 C :    0.600679
   3 C :    0.292295
   4 H :   -0.020550
   5 H :   -0.194724
   6 S :    1.362030
   7 C :    1.149650
   8 N :    0.384755
   9 N :    0.180864
  10 H :   -0.086763
  11 H :   -0.219660
  12 H :   -0.703149
  13 H :   -0.235843
  14 H :   -0.249229
  15 O :   -0.769613
  16 O :   -0.802620
  17 C :    0.593941
  18 H :   -0.531734
  19 H :   -0.173138
  20 C :    0.154361
  21 H :   -0.068473
  22 H :   -0.123254
  23 C :    0.161695
  24 H :   -0.143960
  25 H :   -0.106841
  26 O :   -0.861994
  27 H :   -0.021659
  28 H :   -0.405034
  29 H :   -0.132020
  30 H :   -0.268188
Sum of atomic charges:   -0.0000000

LOEWDIN ATOMIC CHARGES
----------------------
   0 C :    0.074878
   1 N :    0.078425
   2 C :   -0.031763
   3 C :   -0.066738
   4 H :    0.008470
   5 H :    0.018285
   6 S :    0.951595
   7 C :   -0.035382
   8 N :    0.285380
   9 N :    0.256368
  10 H :    0.003889
  11 H :    0.017603
  12 H :   -0.070008
  13 H :   -0.060853
  14 H :    0.027602
  15 O :   -0.523401
  16 O :   -0.520741
  17 C :   -0.012068
  18 H :    0.010921
  19 H :    0.033009
  20 C :   -0.024936
  21 H :    0.027339
  22 H :    0.025559
  23 C :   -0.027636
  24 H :    0.014485
  25 H :    0.027272
  26 O :   -0.557469
  27 H :    0.006321
  28 H :    0.028406
  29 H :    0.005275
  30 H :    0.029914

  Mayer bond orders larger than 0.100000
B(  0-C ,  1-N ) :   0.9187 B(  0-C , 12-H ) :  -0.3506 B(  0-C , 17-C ) :   1.0513
B(  0-C , 18-H ) :   0.8116 B(  0-C , 19-H ) :   0.6094 B(  0-C , 23-C ) :   0.1192
B(  0-C , 25-H ) :   0.1216 B(  1-N ,  7-C ) :   1.1396 B(  1-N ,  8-N ) :   0.1089
B(  1-N ,  9-N ) :   0.2093 B(  1-N , 12-H ) :   1.1898 B(  1-N , 18-H ) :   0.1055
B(  1-N , 19-H ) :   0.1809 B(  2-C ,  3-C ) :   1.2121 B(  2-C ,  4-H ) :   0.1121
B(  2-C ,  5-H ) :   0.1862 B(  2-C , 20-C ) :   1.2417 B(  2-C , 21-H ) :   0.6055
B(  2-C , 22-H ) :   0.7351 B(  3-C ,  4-H ) :   0.8744 B(  3-C ,  5-H ) :   0.8089
B(  3-C ,  6-S ) :   0.9738 B(  3-C , 21-H ) :   0.1378 B(  3-C , 22-H ) :   0.1572
B(  6-S , 15-O ) :   1.3934 B(  6-S , 16-O ) :   1.2815 B(  6-S , 26-O ) :   1.1144
B(  7-C ,  8-N ) :   0.8949 B(  7-C ,  9-N ) :   0.9334 B(  7-C , 10-H ) :  -0.1235
B(  7-C , 11-H ) :  -0.1308 B(  7-C , 12-H ) :  -0.4634 B(  7-C , 13-H ) :  -0.2092
B(  7-C , 14-H ) :  -0.2249 B(  8-N ,  9-N ) :   0.1348 B(  8-N , 13-H ) :   1.1632
B(  8-N , 14-H ) :   1.3481 B(  9-N , 10-H ) :   1.1001 B(  9-N , 11-H ) :   1.2844
B( 10-H , 11-H ) :  -0.2279 B( 12-H , 19-H ) :   0.1709 B( 12-H , 24-H ) :   0.1037
B( 12-H , 26-O ) :   0.1532 B( 12-H , 27-H ) :   0.1061 B( 12-H , 28-H ) :  -0.1166
B( 13-H , 14-H ) :  -0.2225 B( 13-H , 26-O ) :   0.2348 B( 16-O , 26-O ) :   0.1148
B( 17-C , 18-H ) :   0.1482 B( 17-C , 19-H ) :   0.1019 B( 17-C , 23-C ) :   1.2303
B( 17-C , 24-H ) :   0.7114 B( 17-C , 25-H ) :   0.7993 B( 18-H , 19-H ) :  -0.1678
B( 20-C , 21-H ) :   0.3121 B( 20-C , 23-C ) :   1.1704 B( 20-C , 27-H ) :   0.1257
B( 20-C , 28-H ) :   0.1387 B( 20-C , 29-H ) :   0.9266 B( 20-C , 30-H ) :   0.7890
B( 21-H , 22-H ) :  -0.1030 B( 23-C , 24-H ) :   0.2407 B( 23-C , 25-H ) :   0.1320
B( 23-C , 27-H ) :   0.8565 B( 23-C , 28-H ) :   0.8609 B( 23-C , 30-H ) :   0.1500

FINAL SINGLE POINT ENERGY     -1064.228647712526

DIPOLE MOMENT
-------------
                                X             Y             Z
Electronic contribution:      2.25481      -4.92323     -14.11513
Nuclear contribution   :      0.44641       3.59123      19.13564
                        -----------------------------------------
Total Dipole Moment    :      2.70123      -1.33200       5.02051
                        -----------------------------------------
Magnitude (a.u.)       :      5.85460
Magnitude (Debye)      :     14.88121

Rotational constants in cm-1:     0.029186     0.014646     0.011115
Rotational constants in MHz :   874.975540   439.070287   333.231642

                             ****ORCA TERMINATED NORMALLY****
TOTAL RUN TIME: 0 days 0 hours 4 minutes 7 seconds 888 msec
