                         Program Version 5.0.0 -  RELEASE  -
|  1> !CAM-B3LYP RIJCOSX def2-SVPD def2/J TightSCF
|  2> *xyz 0 1
|  3> C          1.69499        1.54179       -5.57045
|  4> S          1.78029       -0.03313       -6.42874
|  5> F          2.56929        0.21366       -7.60736
|  6> O          0.41688       -0.46297       -6.61859
|  7> O          2.50513       -0.93326       -5.48257
|  8> H          1.18489        2.25500       -6.18367
|  9> H          2.68564        1.89081       -5.36624
| 10> H          1.16361        1.41804       -4.65000
| 11> *
| 12> %MaxCore 64000
| 13>
| 14> %pal nprocs 8
| 15> end
| 16>
| 17> %scf
| 18>   MaxIter 150
| 19> end
| 20>
| 21>
| 22>                          ****END OF INPUT****

CARTESIAN COORDINATES (ANGSTROEM)
---------------------------------
  C      1.694990    1.541790   -5.570450
  S      1.780290   -0.033130   -6.428740
  F      2.569290    0.213660   -7.607360
  O      0.416880   -0.462970   -6.618590
  O      2.505130   -0.933260   -5.482570
  H      1.184890    2.255000   -6.183670
  H      2.685640    1.890810   -5.366240
  H      1.163610    1.418040   -4.650000

 Total Charge           Charge          ....    0
 Multiplicity           Mult            ....    1
 Number of Electrons    NEL             ....   50
 Basis Dimension        Dim             ....  140

ORBITAL ENERGIES
----------------

  NO   OCC          E(Eh)            E(eV)
   0   2.0000     -89.230337     -2428.0809
   1   2.0000     -24.901704      -677.6098
   2   2.0000     -19.236581      -523.4540
   3   2.0000     -19.217368      -522.9312
   4   2.0000     -10.324457      -280.9428
   5   2.0000      -8.284025      -225.4198
   6   2.0000      -6.258199      -170.2943
   7   2.0000      -6.251470      -170.1111
   8   2.0000      -6.250478      -170.0842
   9   2.0000      -1.471173       -40.0326
  10   2.0000      -1.197664       -32.5901
  11   2.0000      -1.085814       -29.5465
  12   2.0000      -0.888533       -24.1782
  13   2.0000      -0.804177       -21.8828
  14   2.0000      -0.690066       -18.7777
  15   2.0000      -0.675067       -18.3695
  16   2.0000      -0.636675       -17.3248
  17   2.0000      -0.555463       -15.1149
  18   2.0000      -0.554165       -15.0796
  19   2.0000      -0.542628       -14.7657
  20   2.0000      -0.512162       -13.9366
  21   2.0000      -0.461878       -12.5683
  22   2.0000      -0.412980       -11.2377
  23   2.0000      -0.395101       -10.7512
  24   2.0000      -0.377153       -10.2629
  25   0.0000       0.018942         0.5154
  26   0.0000       0.057940         1.5766
  27   0.0000       0.066461         1.8085
  28   0.0000       0.067221         1.8292
  29   0.0000       0.075899         2.0653

MULLIKEN ATOMIC CHARGES
-----------------------
   0 C :    0.650937
   1 S :    1.240472
   2 F :   -0.367546
   3 O :   -0.608302
   4 O :   -0.663860
   5 H :   -0.084401
   6 H :   -0.078397
   7 H :   -0.088904
Sum of atomic charges:   -0.0000000

LOEWDIN ATOMIC CHARGES
----------------------
   0 C :    0.124730
   1 S :    1.105348
   2 F :   -0.254776
   3 O :   -0.463814
   4 O :   -0.491792
   5 H :   -0.012415
   6 H :   -0.010201
   7 H :    0.002921

  Mayer bond orders larger than 0.100000
B(  0-C ,  1-S ) :   0.9911 B(  0-C ,  5-H ) :   0.8838 B(  0-C ,  6-H ) :   0.8866
B(  0-C ,  7-H ) :   0.8864 B(  1-S ,  2-F ) :   0.7239 B(  1-S ,  3-O ) :   1.5549
B(  1-S ,  4-O ) :   1.5056 B(  1-S ,  6-H ) :   0.1039 B(  1-S ,  7-H ) :   0.1309

FINAL SINGLE POINT ENERGY      -687.889484456489

DIPOLE MOMENT
-------------
                                X             Y             Z
Electronic contribution:      1.40422      -3.16773      -4.14213
Nuclear contribution   :     -1.09446       4.91008       3.93848
                        -----------------------------------------
Total Dipole Moment    :      0.30976       1.74235      -0.20365
                        -----------------------------------------
Magnitude (a.u.)       :      1.78135
Magnitude (Debye)      :      4.52782

Rotational constants in cm-1:     0.163326     0.155515     0.146672
Rotational constants in MHz :  4896.387829  4662.220576  4397.127261

                             ****ORCA TERMINATED NORMALLY****
TOTAL RUN TIME: 0 days 0 hours 0 minutes 10 seconds 147 msec
