                         Program Version 5.0.0 -  RELEASE  -
|  1> !CAM-B3LYP RIJCOSX def2-SVPD def2/J TightSCF
|  2> *xyz 0 1
|  3> C          1.96337       -1.74915       -1.89689
|  4> C          2.73849       -2.01517       -3.09711
|  5> C          4.04974       -2.15472       -3.15204
|  6> N          4.65821       -1.98629       -4.31866
|  7> N          4.76423       -2.45444       -2.05049
|  8> H          4.28736       -2.77626       -1.21750
|  9> H          5.75082       -2.65835       -2.12599
| 10> H          2.34518       -1.69027       -3.97145
| 11> H          4.10900       -1.59268       -5.07176
| 12> H          5.64910       -2.15646       -4.42724
| 13> H          0.92556       -1.68522       -2.14942
| 14> H          2.28268       -0.82430       -1.46378
| 15> H          2.11118       -2.54207       -1.19381
| 16> *
| 17> %MaxCore 64000
| 18>
| 19> %pal nprocs 8
| 20> end
| 21>
| 22> %scf
| 23>   MaxIter 150
| 24> end
| 25>
| 26>
| 27>                          ****END OF INPUT****

CARTESIAN COORDINATES (ANGSTROEM)
---------------------------------
  C      1.963370   -1.749150   -1.896890
  C      2.738490   -2.015170   -3.097110
  C      4.049740   -2.154720   -3.152040
  N      4.658210   -1.986290   -4.318660
  N      4.764230   -2.454440   -2.050490
  H      4.287360   -2.776260   -1.217500
  H      5.750820   -2.658350   -2.125990
  H      2.345180   -1.690270   -3.971450
  H      4.109000   -1.592680   -5.071760
  H      5.649100   -2.156460   -4.427240
  H      0.925560   -1.685220   -2.149420
  H      2.282680   -0.824300   -1.463780
  H      2.111180   -2.542070   -1.193810

 Total Charge           Charge          ....    0
 Multiplicity           Mult            ....    1
 Number of Electrons    NEL             ....   40
 Basis Dimension        Dim             ....  164

ORBITAL ENERGIES
----------------

  NO   OCC          E(Eh)            E(eV)
   0   2.0000     -14.407256      -392.0414
   1   2.0000     -14.402910      -391.9231
   2   2.0000     -10.301651      -280.3222
   3   2.0000     -10.221871      -278.1513
   4   2.0000     -10.177949      -276.9561
   5   2.0000      -1.034905       -28.1612
   6   2.0000      -0.943198       -25.6657
   7   2.0000      -0.829008       -22.5584
   8   2.0000      -0.730649       -19.8820
   9   2.0000      -0.658094       -17.9077
  10   2.0000      -0.614091       -16.7103
  11   2.0000      -0.580169       -15.7872
  12   2.0000      -0.542124       -14.7520
  13   2.0000      -0.493703       -13.4343
  14   2.0000      -0.482180       -13.1208
  15   2.0000      -0.447222       -12.1695
  16   2.0000      -0.425671       -11.5831
  17   2.0000      -0.402638       -10.9563
  18   2.0000      -0.331728        -9.0268
  19   2.0000      -0.216072        -5.8796
  20   0.0000       0.046405         1.2628
  21   0.0000       0.073982         2.0131
  22   0.0000       0.085425         2.3245
  23   0.0000       0.111744         3.0407
  24   0.0000       0.113122         3.0782

MULLIKEN ATOMIC CHARGES
-----------------------
   0 C :    1.063632
   1 C :   -0.527988
   2 C :    0.739268
   3 N :    0.132589
   4 N :    0.082500
   5 H :   -0.092619
   6 H :   -0.290729
   7 H :   -0.397960
   8 H :   -0.038863
   9 H :   -0.232691
  10 H :   -0.138917
  11 H :   -0.174613
  12 H :   -0.123609
Sum of atomic charges:   -0.0000000

LOEWDIN ATOMIC CHARGES
----------------------
   0 C :    0.086559
   1 C :   -0.075449
   2 C :   -0.232019
   3 N :    0.178050
   4 N :    0.202875
   5 H :   -0.008734
   6 H :   -0.013769
   7 H :   -0.059177
   8 H :    0.004035
   9 H :   -0.008673
  10 H :   -0.019659
  11 H :   -0.020174
  12 H :   -0.033866

  Mayer bond orders larger than 0.100000
B(  0-C ,  1-C ) :   1.1515 B(  0-C ,  7-H ) :   0.2114 B(  0-C , 10-H ) :   0.6833
B(  0-C , 11-H ) :   0.7186 B(  0-C , 12-H ) :   0.6576 B(  1-C ,  2-C ) :   1.6465
B(  1-C ,  3-N ) :   0.2978 B(  1-C ,  4-N ) :   0.2720 B(  1-C ,  7-H ) :   0.9273
B(  1-C , 10-H ) :   0.3096 B(  1-C , 11-H ) :   0.1620 B(  1-C , 12-H ) :   0.3224
B(  2-C ,  3-N ) :   0.9554 B(  2-C ,  4-N ) :   0.9433 B(  2-C ,  6-H ) :  -0.1782
B(  2-C ,  7-H ) :   0.2298 B(  2-C ,  9-H ) :  -0.1028 B(  3-N ,  8-H ) :   1.1453
B(  3-N ,  9-H ) :   1.2621 B(  4-N ,  5-H ) :   1.1043 B(  4-N ,  6-H ) :   1.3227
B(  5-H ,  6-H ) :  -0.1925 B(  8-H ,  9-H ) :  -0.1752 B( 10-H , 12-H ) :   0.1112

FINAL SINGLE POINT ENERGY      -228.329231649952

DIPOLE MOMENT
-------------
                                X             Y             Z
Electronic contribution:      2.72955      -0.66476      -1.58566
Nuclear contribution   :     -1.78367       0.60166       1.44982
                        -----------------------------------------
Total Dipole Moment    :      0.94589      -0.06310      -0.13584
                        -----------------------------------------
Magnitude (a.u.)       :      0.95767
Magnitude (Debye)      :      2.43422

Rotational constants in cm-1:     0.313991     0.135452     0.097139
Rotational constants in MHz :  9413.212964  4060.745953  2912.144668

                             ****ORCA TERMINATED NORMALLY****
TOTAL RUN TIME: 0 days 0 hours 0 minutes 13 seconds 907 msec
