                         Program Version 5.0.0 -  RELEASE  -
|  1> !CAM-B3LYP RIJCOSX def2-SVPD def2/J TightSCF
|  2> *xyz 0 1
|  3> C          1.69499        1.54179       -5.57045
|  4> S          1.78029       -0.03313       -6.42874
|  5> O          2.56929        0.21366       -7.60736
|  6> F          0.41688       -0.46297       -6.61859
|  7> O          2.50513       -0.93326       -5.48257
|  8> H          1.18489        2.25500       -6.18367
|  9> H          2.68564        1.89081       -5.36624
| 10> H          1.16361        1.41804       -4.65000
| 11> *
| 12> %MaxCore 64000
| 13>
| 14> %pal nprocs 8
| 15> end
| 16>
| 17> %scf
| 18>   MaxIter 150
| 19> end
| 20>
| 21>
| 22>                          ****END OF INPUT****

CARTESIAN COORDINATES (ANGSTROEM)
---------------------------------
  C      1.694990    1.541790   -5.570450
  S      1.780290   -0.033130   -6.428740
  O      2.569290    0.213660   -7.607360
  F      0.416880   -0.462970   -6.618590
  O      2.505130   -0.933260   -5.482570
  H      1.184890    2.255000   -6.183670
  H      2.685640    1.890810   -5.366240
  H      1.163610    1.418040   -4.650000

 Total Charge           Charge          ....    0
 Multiplicity           Mult            ....    1
 Number of Electrons    NEL             ....   50
 Basis Dimension        Dim             ....  140

ORBITAL ENERGIES
----------------

  NO   OCC          E(Eh)            E(eV)
   0   2.0000     -89.230060     -2428.0734
   1   2.0000     -24.902021      -677.6184
   2   2.0000     -19.235447      -523.4231
   3   2.0000     -19.217405      -522.9322
   4   2.0000     -10.324489      -280.9436
   5   2.0000      -8.283792      -225.4134
   6   2.0000      -6.257933      -170.2870
   7   2.0000      -6.251245      -170.1050
   8   2.0000      -6.250253      -170.0780
   9   2.0000      -1.470002       -40.0008
  10   2.0000      -1.198658       -32.6172
  11   2.0000      -1.085489       -29.5376
  12   2.0000      -0.888102       -24.1665
  13   2.0000      -0.804236       -21.8844
  14   2.0000      -0.689666       -18.7668
  15   2.0000      -0.674509       -18.3543
  16   2.0000      -0.636290       -17.3143
  17   2.0000      -0.555571       -15.1178
  18   2.0000      -0.553962       -15.0741
  19   2.0000      -0.543174       -14.7805
  20   2.0000      -0.512017       -13.9327
  21   2.0000      -0.462077       -12.5738
  22   2.0000      -0.412269       -11.2184
  23   2.0000      -0.395061       -10.7502
  24   2.0000      -0.376638       -10.2488
  25   0.0000       0.018510         0.5037
  26   0.0000       0.057863         1.5745
  27   0.0000       0.066365         1.8059
  28   0.0000       0.066833         1.8186
  29   0.0000       0.074960         2.0398

MULLIKEN ATOMIC CHARGES
-----------------------
   0 C :    0.651922
   1 S :    1.239908
   2 O :   -0.606951
   3 F :   -0.370344
   4 O :   -0.662875
   5 H :   -0.084468
   6 H :   -0.084337
   7 H :   -0.082855
Sum of atomic charges:    0.0000000

LOEWDIN ATOMIC CHARGES
----------------------
   0 C :    0.124874
   1 S :    1.105604
   2 O :   -0.464828
   3 F :   -0.254384
   4 O :   -0.491510
   5 H :   -0.012426
   6 H :    0.003282
   7 H :   -0.010612

  Mayer bond orders larger than 0.100000
B(  0-C ,  1-S ) :   0.9910 B(  0-C ,  5-H ) :   0.8835 B(  0-C ,  6-H ) :   0.8850
B(  0-C ,  7-H ) :   0.8882 B(  1-S ,  2-O ) :   1.5571 B(  1-S ,  3-F ) :   0.7204
B(  1-S ,  4-O ) :   1.5049 B(  1-S ,  6-H ) :   0.1310 B(  1-S ,  7-H ) :   0.1034

FINAL SINGLE POINT ENERGY      -687.888760839147

DIPOLE MOMENT
-------------
                                X             Y             Z
Electronic contribution:     -2.19321      -4.29841      -2.48598
Nuclear contribution   :      1.05593       5.58608       2.95063
                        -----------------------------------------
Total Dipole Moment    :     -1.13728       1.28767       0.46465
                        -----------------------------------------
Magnitude (a.u.)       :      1.77971
Magnitude (Debye)      :      4.52367

Rotational constants in cm-1:     0.163930     0.155251     0.146268
Rotational constants in MHz :  4914.487830  4654.318941  4385.000376

                             ****ORCA TERMINATED NORMALLY****
TOTAL RUN TIME: 0 days 0 hours 0 minutes 10 seconds 135 msec
