                         Program Version 5.0.0 -  RELEASE  -
|  1> !CAM-B3LYP RIJCOSX def2-SVPD def2/J TightSCF
|  2> *xyz 0 1
|  3> C          1.96337       -1.74915       -1.89689
|  4> N          2.73849       -2.01517       -3.09711
|  5> C          4.04974       -2.15472       -3.15204
|  6> C          4.65821       -1.98629       -4.31866
|  7> N          4.76423       -2.45444       -2.05049
|  8> H          4.28736       -2.77626       -1.21750
|  9> H          5.75082       -2.65835       -2.12599
| 10> H          2.34518       -1.69027       -3.97145
| 11> H          4.10900       -1.59268       -5.07176
| 12> H          5.64910       -2.15646       -4.42724
| 13> H          0.92556       -1.68522       -2.14942
| 14> H          2.28268       -0.82430       -1.46378
| 15> H          2.11118       -2.54207       -1.19381
| 16> *
| 17> %MaxCore 64000
| 18>
| 19> %pal nprocs 8
| 20> end
| 21>
| 22> %scf
| 23>   MaxIter 150
| 24> end
| 25>
| 26>
| 27>                          ****END OF INPUT****

CARTESIAN COORDINATES (ANGSTROEM)
---------------------------------
  C      1.963370   -1.749150   -1.896890
  N      2.738490   -2.015170   -3.097110
  C      4.049740   -2.154720   -3.152040
  C      4.658210   -1.986290   -4.318660
  N      4.764230   -2.454440   -2.050490
  H      4.287360   -2.776260   -1.217500
  H      5.750820   -2.658350   -2.125990
  H      2.345180   -1.690270   -3.971450
  H      4.109000   -1.592680   -5.071760
  H      5.649100   -2.156460   -4.427240
  H      0.925560   -1.685220   -2.149420
  H      2.282680   -0.824300   -1.463780
  H      2.111180   -2.542070   -1.193810

 Total Charge           Charge          ....    0
 Multiplicity           Mult            ....    1
 Number of Electrons    NEL             ....   40
 Basis Dimension        Dim             ....  164

ORBITAL ENERGIES
----------------

  NO   OCC          E(Eh)            E(eV)
   0   2.0000     -14.405885      -392.0041
   1   2.0000     -14.404297      -391.9608
   2   2.0000     -10.305653      -280.4311
   3   2.0000     -10.291066      -280.0341
   4   2.0000     -10.170090      -276.7422
   5   2.0000      -1.044332       -28.4177
   6   2.0000      -0.955823       -26.0093
   7   2.0000      -0.821432       -22.3523
   8   2.0000      -0.740584       -20.1523
   9   2.0000      -0.673364       -18.3232
  10   2.0000      -0.607036       -16.5183
  11   2.0000      -0.564055       -15.3487
  12   2.0000      -0.545827       -14.8527
  13   2.0000      -0.527902       -14.3649
  14   2.0000      -0.472345       -12.8531
  15   2.0000      -0.459235       -12.4964
  16   2.0000      -0.455270       -12.3885
  17   2.0000      -0.430239       -11.7074
  18   2.0000      -0.321657        -8.7527
  19   2.0000      -0.221327        -6.0226
  20   0.0000       0.043064         1.1718
  21   0.0000       0.076831         2.0907
  22   0.0000       0.081427         2.2157
  23   0.0000       0.111010         3.0207
  24   0.0000       0.114842         3.1250

MULLIKEN ATOMIC CHARGES
-----------------------
   0 C :    1.269584
   1 N :   -0.405683
   2 C :    0.596039
   3 C :    0.455073
   4 N :    0.192683
   5 H :   -0.188368
   6 H :   -0.155876
   7 H :   -0.213673
   8 H :   -0.336455
   9 H :   -0.504768
  10 H :   -0.378651
  11 H :   -0.128485
  12 H :   -0.201420
Sum of atomic charges:    0.0000000

LOEWDIN ATOMIC CHARGES
----------------------
   0 C :    0.200231
   1 N :   -0.044582
   2 C :   -0.244320
   3 C :    0.141064
   4 N :    0.200118
   5 H :   -0.022987
   6 H :    0.003829
   7 H :    0.025836
   8 H :   -0.103337
   9 H :   -0.101899
  10 H :   -0.012014
  11 H :   -0.016359
  12 H :   -0.025580

  Mayer bond orders larger than 0.100000
B(  0-C ,  1-N ) :   0.9534 B(  0-C , 10-H ) :   0.7401 B(  0-C , 11-H ) :   0.8052
B(  0-C , 12-H ) :   0.7968 B(  1-N ,  2-C ) :   1.1090 B(  1-N ,  3-C ) :   0.2266
B(  1-N ,  4-N ) :   0.1338 B(  1-N ,  7-H ) :   1.1810 B(  1-N , 10-H ) :   0.1866
B(  1-N , 11-H ) :   0.1231 B(  1-N , 12-H ) :   0.1777 B(  2-C ,  3-C ) :   1.3903
B(  2-C ,  4-N ) :   1.0063 B(  2-C ,  7-H ) :  -0.1327 B(  2-C ,  8-H ) :   0.1094
B(  2-C ,  9-H ) :   0.1213 B(  3-C ,  4-N ) :   0.1997 B(  3-C ,  8-H ) :   0.8274
B(  3-C ,  9-H ) :   0.7900 B(  4-N ,  5-H ) :   1.1159 B(  4-N ,  6-H ) :   1.2026
B(  5-H ,  6-H ) :  -0.1954

FINAL SINGLE POINT ENERGY      -228.321910901181

DIPOLE MOMENT
-------------
                                X             Y             Z
Electronic contribution:      0.86431      -0.64344      -0.32687
Nuclear contribution   :     -1.39484       0.60751       1.20240
                        -----------------------------------------
Total Dipole Moment    :     -0.53052      -0.03593       0.87553
                        -----------------------------------------
Magnitude (a.u.)       :      1.02435
Magnitude (Debye)      :      2.60369

Rotational constants in cm-1:     0.316419     0.139940     0.099730
Rotational constants in MHz :  9485.991536  4195.289338  2989.818216

                             ****ORCA TERMINATED NORMALLY****
TOTAL RUN TIME: 0 days 0 hours 0 minutes 14 seconds 399 msec
