                         Program Version 5.0.0 -  RELEASE  -
|  1> !CAM-B3LYP RIJCOSX def2-SVPD def2/J TightSCF
|  2> *xyz 0 1
|  3> C          1.69499        1.54179       -5.57045
|  4> S          1.78029       -0.03313       -6.42874
|  5> O          2.56929        0.21366       -7.60736
|  6> O          0.41688       -0.46297       -6.61859
|  7> F          2.50513       -0.93326       -5.48257
|  8> H          1.18489        2.25500       -6.18367
|  9> H          2.68564        1.89081       -5.36624
| 10> H          1.16361        1.41804       -4.65000
| 11> *
| 12> %MaxCore 64000
| 13>
| 14> %pal nprocs 8
| 15> end
| 16>
| 17> %scf
| 18>   MaxIter 150
| 19> end
| 20>
| 21>
| 22>                          ****END OF INPUT****

CARTESIAN COORDINATES (ANGSTROEM)
---------------------------------
  C      1.694990    1.541790   -5.570450
  S      1.780290   -0.033130   -6.428740
  O      2.569290    0.213660   -7.607360
  O      0.416880   -0.462970   -6.618590
  F      2.505130   -0.933260   -5.482570
  H      1.184890    2.255000   -6.183670
  H      2.685640    1.890810   -5.366240
  H      1.163610    1.418040   -4.650000

 Total Charge           Charge          ....    0
 Multiplicity           Mult            ....    1
 Number of Electrons    NEL             ....   50
 Basis Dimension        Dim             ....  140

ORBITAL ENERGIES
----------------

  NO   OCC          E(Eh)            E(eV)
   0   2.0000     -89.227847     -2428.0131
   1   2.0000     -24.875225      -676.8893
   2   2.0000     -19.235929      -523.4362
   3   2.0000     -19.234768      -523.4046
   4   2.0000     -10.323151      -280.9072
   5   2.0000      -8.281351      -225.3470
   6   2.0000      -6.255235      -170.2136
   7   2.0000      -6.249078      -170.0461
   8   2.0000      -6.248113      -170.0198
   9   2.0000      -1.426062       -38.8051
  10   2.0000      -1.209614       -32.9153
  11   2.0000      -1.113599       -30.3026
  12   2.0000      -0.885210       -24.0878
  13   2.0000      -0.781529       -21.2665
  14   2.0000      -0.669367       -18.2144
  15   2.0000      -0.643753       -17.5174
  16   2.0000      -0.631502       -17.1840
  17   2.0000      -0.557165       -15.1612
  18   2.0000      -0.555058       -15.1039
  19   2.0000      -0.540482       -14.7073
  20   2.0000      -0.520458       -14.1624
  21   2.0000      -0.469049       -12.7635
  22   2.0000      -0.417998       -11.3743
  23   2.0000      -0.412878       -11.2350
  24   2.0000      -0.396745       -10.7960
  25   0.0000       0.022138         0.6024
  26   0.0000       0.060359         1.6425
  27   0.0000       0.067467         1.8359
  28   0.0000       0.068102         1.8532
  29   0.0000       0.073602         2.0028

MULLIKEN ATOMIC CHARGES
-----------------------
   0 C :    0.650010
   1 S :    1.249418
   2 O :   -0.623867
   3 O :   -0.624434
   4 F :   -0.395786
   5 H :   -0.091825
   6 H :   -0.079272
   7 H :   -0.084245
Sum of atomic charges:   -0.0000000

LOEWDIN ATOMIC CHARGES
----------------------
   0 C :    0.125168
   1 S :    1.102116
   2 O :   -0.465763
   3 O :   -0.464560
   4 F :   -0.277047
   5 H :    0.001188
   6 H :   -0.010273
   7 H :   -0.010830

  Mayer bond orders larger than 0.100000
B(  0-C ,  1-S ) :   0.9907 B(  0-C ,  5-H ) :   0.8804 B(  0-C ,  6-H ) :   0.8878
B(  0-C ,  7-H ) :   0.8893 B(  1-S ,  2-O ) :   1.5525 B(  1-S ,  3-O ) :   1.5500
B(  1-S ,  4-F ) :   0.6610 B(  1-S ,  5-H ) :   0.1224 B(  1-S ,  6-H ) :   0.1055
B(  1-S ,  7-H ) :   0.1049

FINAL SINGLE POINT ENERGY      -687.912307882658

DIPOLE MOMENT
-------------
                                X             Y             Z
Electronic contribution:      1.31498      -5.10532      -0.55798
Nuclear contribution   :     -1.03036       6.05593       1.81567
                        -----------------------------------------
Total Dipole Moment    :      0.28461       0.95061       1.25769
                        -----------------------------------------
Magnitude (a.u.)       :      1.60201
Magnitude (Debye)      :      4.07200

Rotational constants in cm-1:     0.164224     0.152173     0.148737
Rotational constants in MHz :  4923.310232  4562.031098  4459.033187

                             ****ORCA TERMINATED NORMALLY****
TOTAL RUN TIME: 0 days 0 hours 0 minutes 10 seconds 156 msec
