                         Program Version 5.0.0 -  RELEASE  -
|  1> !CAM-B3LYP RIJCOSX def2-SVPD def2/J TightSCF
|  2> *xyz 0 1
|  3> C          1.96337       -1.74915       -1.89689
|  4> N          2.73849       -2.01517       -3.09711
|  5> C          4.04974       -2.15472       -3.15204
|  6> N          4.65821       -1.98629       -4.31866
|  7> C          4.76423       -2.45444       -2.05049
|  8> H          4.28736       -2.77626       -1.21750
|  9> H          5.75082       -2.65835       -2.12599
| 10> H          2.34518       -1.69027       -3.97145
| 11> H          4.10900       -1.59268       -5.07176
| 12> H          5.64910       -2.15646       -4.42724
| 13> H          0.92556       -1.68522       -2.14942
| 14> H          2.28268       -0.82430       -1.46378
| 15> H          2.11118       -2.54207       -1.19381
| 16> *
| 17> %MaxCore 64000
| 18>
| 19> %pal nprocs 8
| 20> end
| 21>
| 22> %scf
| 23>   MaxIter 150
| 24> end
| 25>
| 26>
| 27>                          ****END OF INPUT****

CARTESIAN COORDINATES (ANGSTROEM)
---------------------------------
  C      1.963370   -1.749150   -1.896890
  N      2.738490   -2.015170   -3.097110
  C      4.049740   -2.154720   -3.152040
  N      4.658210   -1.986290   -4.318660
  C      4.764230   -2.454440   -2.050490
  H      4.287360   -2.776260   -1.217500
  H      5.750820   -2.658350   -2.125990
  H      2.345180   -1.690270   -3.971450
  H      4.109000   -1.592680   -5.071760
  H      5.649100   -2.156460   -4.427240
  H      0.925560   -1.685220   -2.149420
  H      2.282680   -0.824300   -1.463780
  H      2.111180   -2.542070   -1.193810

 Total Charge           Charge          ....    0
 Multiplicity           Mult            ....    1
 Number of Electrons    NEL             ....   40
 Basis Dimension        Dim             ....  164

ORBITAL ENERGIES
----------------

  NO   OCC          E(Eh)            E(eV)
   0   2.0000     -14.409379      -392.0991
   1   2.0000     -14.407184      -392.0394
   2   2.0000     -10.307290      -280.4756
   3   2.0000     -10.284379      -279.8522
   4   2.0000     -10.171833      -276.7896
   5   2.0000      -1.050325       -28.5808
   6   2.0000      -0.959508       -26.1096
   7   2.0000      -0.795281       -21.6407
   8   2.0000      -0.771611       -20.9966
   9   2.0000      -0.641231       -17.4488
  10   2.0000      -0.619800       -16.8656
  11   2.0000      -0.596574       -16.2336
  12   2.0000      -0.523906       -14.2562
  13   2.0000      -0.519447       -14.1349
  14   2.0000      -0.485793       -13.2191
  15   2.0000      -0.451378       -12.2826
  16   2.0000      -0.441637       -12.0176
  17   2.0000      -0.434768       -11.8306
  18   2.0000      -0.317171        -8.6307
  19   2.0000      -0.224738        -6.1154
  20   0.0000       0.044679         1.2158
  21   0.0000       0.067936         1.8486
  22   0.0000       0.083352         2.2681
  23   0.0000       0.113753         3.0954
  24   0.0000       0.116716         3.1760

MULLIKEN ATOMIC CHARGES
-----------------------
   0 C :    1.280999
   1 N :   -0.377769
   2 C :    0.538245
   3 N :    0.192764
   4 C :    0.499310
   5 H :   -0.198663
   6 H :   -0.671908
   7 H :   -0.339120
   8 H :   -0.161703
   9 H :   -0.147308
  10 H :   -0.403181
  11 H :   -0.150753
  12 H :   -0.060913
Sum of atomic charges:   -0.0000000

LOEWDIN ATOMIC CHARGES
----------------------
   0 C :    0.207843
   1 N :   -0.047530
   2 C :   -0.250102
   3 N :    0.185164
   4 C :    0.159716
   5 H :   -0.115832
   6 H :   -0.108948
   7 H :    0.011988
   8 H :   -0.010799
   9 H :    0.010593
  10 H :   -0.013459
  11 H :   -0.011455
  12 H :   -0.017179

  Mayer bond orders larger than 0.100000
B(  0-C ,  1-N ) :   0.9550 B(  0-C ,  7-H ) :  -0.1143 B(  0-C , 10-H ) :   0.7627
B(  0-C , 11-H ) :   0.7966 B(  0-C , 12-H ) :   0.8099 B(  1-N ,  2-C ) :   1.0346
B(  1-N ,  3-N ) :   0.1425 B(  1-N ,  4-C ) :   0.3315 B(  1-N ,  7-H ) :   1.2504
B(  1-N , 10-H ) :   0.1748 B(  1-N , 11-H ) :   0.1593 B(  1-N , 12-H ) :   0.1020
B(  2-C ,  3-N ) :   0.9566 B(  2-C ,  4-C ) :   1.6460 B(  2-C ,  5-H ) :   0.2344
B(  2-C ,  6-H ) :   0.1205 B(  2-C ,  7-H ) :  -0.1580 B(  2-C ,  9-H ) :  -0.1055
B(  3-N ,  4-C ) :   0.2158 B(  3-N ,  8-H ) :   1.1510 B(  3-N ,  9-H ) :   1.2502
B(  4-C ,  5-H ) :   0.6888 B(  4-C ,  6-H ) :   0.8530 B(  8-H ,  9-H ) :  -0.1701

FINAL SINGLE POINT ENERGY      -228.322698706049

DIPOLE MOMENT
-------------
                                X             Y             Z
Electronic contribution:      0.78814      -0.12677      -2.54276
Nuclear contribution   :     -1.37336       0.51269       1.66180
                        -----------------------------------------
Total Dipole Moment    :     -0.58522       0.38591      -0.88096
                        -----------------------------------------
Magnitude (a.u.)       :      1.12583
Magnitude (Debye)      :      2.86164

Rotational constants in cm-1:     0.331915     0.135033     0.098638
Rotational constants in MHz :  9950.555862  4048.179255  2957.099162

                             ****ORCA TERMINATED NORMALLY****
TOTAL RUN TIME: 0 days 0 hours 0 minutes 13 seconds 929 msec
