                         Program Version 5.0.0 -  RELEASE  -
|  1> !CAM-B3LYP RIJCOSX def2-SVPD def2/J TightSCF xyzfile
|  2>
|  3> *xyzfile 0 1 D2.xyz
|  4>
|  5> %MaxCore 64000
|  6>
|  7> %pal nprocs 4
|  8> end
|  9>
| 10> %scf
| 11>   MaxIter 150
| 12> end
| 13>
| 14>
| 15>                          ****END OF INPUT****

CARTESIAN COORDINATES (ANGSTROEM)
---------------------------------
  C      1.963365   -1.749150   -1.896887
  N      2.738490   -2.015170   -3.097113
  C      0.611877    1.657634   -4.500288
  C      1.694991    1.541794   -5.570447
  H      2.697326    1.734659   -5.183996
  H      1.506656    2.272239   -6.358076
  S      1.780287   -0.033128   -6.428739
  C      4.049736   -2.154717   -3.152044
  C      4.658206   -1.986293   -4.318655
  N      4.764231   -2.454435   -2.050491
  H      4.287363   -2.776259   -1.217496
  H      5.750825   -2.658351   -2.125988
  H      2.345176   -1.690274   -3.971447
  H      4.109004   -1.592677   -5.071760
  H      5.649095   -2.156462   -4.427237
  F      2.569287    0.213657   -7.607360
  O      0.416880   -0.462969   -6.618595
  C      2.088520   -0.300912   -1.415204
  H      2.231272   -2.451616   -1.102643
  H      0.930249   -1.977801   -2.155438
  C      0.680356    0.655418   -3.348038
  H     -0.356865    1.549231   -4.991128
  H      0.650228    2.675438   -4.096000
  C      1.968993    0.733582   -2.535654
  H      3.051356   -0.168602   -0.911868
  H      1.316501   -0.136231   -0.657252
  O      2.505129   -0.933263   -5.482570
  H      2.824195    0.624726   -3.208464
  H      2.058919    1.730331   -2.093112
  H      0.542252   -0.344731   -3.766662
  H     -0.174219    0.829692   -2.685182

 Total Charge           Charge          ....    0
 Multiplicity           Mult            ....    1
 Number of Electrons    NEL             ....  120
 Basis Dimension        Dim             ....  432

ORBITAL ENERGIES
----------------

  NO   OCC          E(Eh)            E(eV)
   0   2.0000     -89.235858     -2428.2311
   1   2.0000     -24.907525      -677.7682
   2   2.0000     -19.242936      -523.6269
   3   2.0000     -19.226253      -523.1729
   4   2.0000     -14.386430      -391.4747
   5   2.0000     -14.369331      -391.0094
   6   2.0000     -10.330186      -281.0986
   7   2.0000     -10.292898      -280.0840
   8   2.0000     -10.281192      -279.7655
   9   2.0000     -10.280921      -279.7581
  10   2.0000     -10.266391      -279.3627
  11   2.0000     -10.256208      -279.0856
  12   2.0000     -10.250773      -278.9377
  13   2.0000     -10.139061      -275.8979
  14   2.0000      -8.288684      -225.5466
  15   2.0000      -6.262682      -170.4162
  16   2.0000      -6.256572      -170.2500
  17   2.0000      -6.254904      -170.2046
  18   2.0000      -1.475730       -40.1567
  19   2.0000      -1.206243       -32.8235
  20   2.0000      -1.099374       -29.9155
  21   2.0000      -1.021569       -27.7983
  22   2.0000      -0.938283       -25.5320
  23   2.0000      -0.924877       -25.1672
  24   2.0000      -0.873229       -23.7618
  25   2.0000      -0.840120       -22.8608
  26   2.0000      -0.802381       -21.8339
  27   2.0000      -0.774817       -21.0838
  28   2.0000      -0.736268       -20.0349
  29   2.0000      -0.704801       -19.1786
  30   2.0000      -0.685683       -18.6584
  31   2.0000      -0.671201       -18.2643
  32   2.0000      -0.665935       -18.1210
  33   2.0000      -0.639273       -17.3955
  34   2.0000      -0.632408       -17.2087
  35   2.0000      -0.589428       -16.0392
  36   2.0000      -0.578141       -15.7320
  37   2.0000      -0.574645       -15.6369
  38   2.0000      -0.549901       -14.9636
  39   2.0000      -0.548468       -14.9246
  40   2.0000      -0.538362       -14.6496
  41   2.0000      -0.528956       -14.3936
  42   2.0000      -0.512409       -13.9433
  43   2.0000      -0.502884       -13.6842
  44   2.0000      -0.487255       -13.2589
  45   2.0000      -0.471701       -12.8356
  46   2.0000      -0.457063       -12.4373
  47   2.0000      -0.453254       -12.3337
  48   2.0000      -0.440715       -11.9925
  49   2.0000      -0.432284       -11.7630
  50   2.0000      -0.423612       -11.5271
  51   2.0000      -0.422297       -11.4913
  52   2.0000      -0.415799       -11.3145
  53   2.0000      -0.400590       -10.9006
  54   2.0000      -0.395858       -10.7718
  55   2.0000      -0.389543       -10.6000
  56   2.0000      -0.385410       -10.4875
  57   2.0000      -0.369801       -10.0628
  58   2.0000      -0.296914        -8.0794
  59   2.0000      -0.197642        -5.3781
  60   0.0000       0.021960         0.5976
  61   0.0000       0.042376         1.1531
  62   0.0000       0.052062         1.4167
  63   0.0000       0.054089         1.4718
  64   0.0000       0.070346         1.9142

MULLIKEN ATOMIC CHARGES
-----------------------
   0 C :    1.109780
   1 N :    0.130085
   2 C :    0.570603
   3 C :    0.228840
   4 H :    0.055582
   5 H :   -0.147823
   6 S :    1.632142
   7 C :    0.601736
   8 C :    0.809059
   9 N :    0.292790
  10 H :   -0.105944
  11 H :   -0.240170
  12 H :   -0.695353
  13 H :   -0.388553
  14 H :   -0.757976
  15 F :   -0.463938
  16 O :   -0.690479
  17 C :    0.570923
  18 H :   -0.515826
  19 H :   -0.223900
  20 C :    0.171206
  21 H :   -0.070786
  22 H :   -0.105523
  23 C :    0.178883
  24 H :   -0.102946
  25 H :   -0.174025
  26 O :   -0.837704
  27 H :   -0.000062
  28 H :   -0.418370
  29 H :   -0.152984
  30 H :   -0.259267
Sum of atomic charges:   -0.0000000

LOEWDIN ATOMIC CHARGES
----------------------
   0 C :    0.057447
   1 N :    0.013447
   2 C :   -0.017551
   3 C :   -0.042347
   4 H :    0.025207
   5 H :    0.020429
   6 S :    1.193279
   7 C :   -0.222095
   8 C :    0.164208
   9 N :    0.197209
  10 H :   -0.028315
  11 H :   -0.000575
  12 H :   -0.074540
  13 H :   -0.168882
  14 H :   -0.102907
  15 F :   -0.235872
  16 O :   -0.445368
  17 C :   -0.015004
  18 H :    0.006346
  19 H :    0.016668
  20 C :   -0.020694
  21 H :    0.029999
  22 H :    0.039093
  23 C :   -0.025806
  24 H :    0.017584
  25 H :    0.017640
  26 O :   -0.475974
  27 H :    0.009895
  28 H :    0.024350
  29 H :    0.008257
  30 H :    0.034869

  Mayer bond orders larger than 0.100000
B(  0-C ,  1-N ) :   0.9388 B(  0-C , 12-H ) :  -0.3533 B(  0-C , 17-C ) :   1.0448
B(  0-C , 18-H ) :   0.8120 B(  0-C , 19-H ) :   0.5873 B(  0-C , 23-C ) :   0.1289
B(  0-C , 25-H ) :   0.1253 B(  1-N ,  7-C ) :   1.0607 B(  1-N ,  8-C ) :   0.2184
B(  1-N ,  9-N ) :   0.2070 B(  1-N , 12-H ) :   1.0690 B(  1-N , 19-H ) :   0.1431
B(  2-C ,  3-C ) :   1.2629 B(  2-C ,  4-H ) :   0.1107 B(  2-C ,  5-H ) :   0.2098
B(  2-C , 20-C ) :   1.2317 B(  2-C , 21-H ) :   0.6175 B(  2-C , 22-H ) :   0.7411
B(  3-C ,  4-H ) :   0.8709 B(  3-C ,  5-H ) :   0.7586 B(  3-C ,  6-S ) :   1.0110
B(  3-C , 21-H ) :   0.1232 B(  3-C , 22-H ) :   0.1629 B(  6-S , 15-F ) :   0.6238
B(  6-S , 16-O ) :   1.4715 B(  6-S , 26-O ) :   1.3442 B(  7-C ,  8-C ) :   1.3870
B(  7-C ,  9-N ) :   0.9808 B(  7-C , 11-H ) :  -0.1353 B(  7-C , 12-H ) :  -0.3541
B(  7-C , 13-H ) :   0.1416 B(  7-C , 14-H ) :   0.2468 B(  8-C ,  9-N ) :   0.2714
B(  8-C , 13-H ) :   0.5343 B(  8-C , 14-H ) :   0.5682 B(  9-N , 10-H ) :   0.9663
B(  9-N , 11-H ) :   1.2637 B(  9-N , 18-H ) :   0.1052 B( 10-H , 11-H ) :  -0.2193
B( 12-H , 19-H ) :   0.2078 B( 12-H , 24-H ) :   0.1394 B( 12-H , 26-O ) :   0.1273
B( 12-H , 27-H ) :   0.1101 B( 12-H , 28-H ) :  -0.1109 B( 13-H , 14-H ) :  -0.2117
B( 13-H , 26-O ) :   0.2567 B( 16-O , 26-O ) :   0.1364 B( 17-C , 18-H ) :   0.1380
B( 17-C , 19-H ) :   0.1108 B( 17-C , 23-C ) :   1.2346 B( 17-C , 24-H ) :   0.7079
B( 17-C , 25-H ) :   0.8356 B( 18-H , 19-H ) :  -0.1734 B( 20-C , 21-H ) :   0.3116
B( 20-C , 23-C ) :   1.1484 B( 20-C , 27-H ) :   0.1195 B( 20-C , 28-H ) :   0.1376
B( 20-C , 29-H ) :   0.9347 B( 20-C , 30-H ) :   0.7952 B( 21-H , 22-H ) :  -0.1040
B( 23-C , 24-H ) :   0.2448 B( 23-C , 25-H ) :   0.1296 B( 23-C , 27-H ) :   0.8568
B( 23-C , 28-H ) :   0.8591 B( 23-C , 29-H ) :   0.1019 B( 23-C , 30-H ) :   0.1412
B( 24-H , 25-H ) :  -0.1056

FINAL SINGLE POINT ENERGY     -1072.062351107787

DIPOLE MOMENT
-------------
                                X             Y             Z
Electronic contribution:     -0.89374      -0.74347     -22.46980
Nuclear contribution   :      0.43347       2.59110      22.83150
                        -----------------------------------------
Total Dipole Moment    :     -0.46028       1.84763       0.36170
                        -----------------------------------------
Magnitude (a.u.)       :      1.93815
Magnitude (Debye)      :      4.92639

Rotational constants in cm-1:     0.029257     0.014415     0.010996
Rotational constants in MHz :   877.098782   432.159206   329.643335

                             ****ORCA TERMINATED NORMALLY****
TOTAL RUN TIME: 0 days 0 hours 4 minutes 42 seconds 332 msec
