                         Program Version 5.0.0 -  RELEASE  -
|  1> !CAM-B3LYP RIJCOSX def2-SVPD def2/J TightSCF xyzfile
|  2>
|  3> *xyzfile 0 1 D4.xyz
|  4>
|  5> %MaxCore 64000
|  6>
|  7> %pal nprocs 4
|  8> end
|  9>
| 10> %scf
| 11>   MaxIter 150
| 12> end
| 13>
| 14>
| 15>                          ****END OF INPUT****

CARTESIAN COORDINATES (ANGSTROEM)
---------------------------------
  C      1.963365   -1.749150   -1.896887
  C      2.738490   -2.015170   -3.097113
  C      0.611877    1.657634   -4.500288
  C      1.694991    1.541794   -5.570447
  H      2.697326    1.734659   -5.183996
  H      1.506656    2.272239   -6.358076
  S      1.780287   -0.033128   -6.428739
  C      4.049736   -2.154717   -3.152044
  N      4.658206   -1.986293   -4.318655
  N      4.764231   -2.454435   -2.050491
  H      4.287363   -2.776259   -1.217496
  H      5.750825   -2.658351   -2.125988
  H      2.345176   -1.690274   -3.971447
  H      4.109004   -1.592677   -5.071760
  H      5.649095   -2.156462   -4.427237
  O      2.569287    0.213657   -7.607360
  F      0.416880   -0.462969   -6.618595
  C      2.088520   -0.300912   -1.415204
  H      2.231272   -2.451616   -1.102643
  H      0.930249   -1.977801   -2.155438
  C      0.680356    0.655418   -3.348038
  H     -0.356865    1.549231   -4.991128
  H      0.650228    2.675438   -4.096000
  C      1.968993    0.733582   -2.535654
  H      3.051356   -0.168602   -0.911868
  H      1.316501   -0.136231   -0.657252
  O      2.505129   -0.933263   -5.482570
  H      2.824195    0.624726   -3.208464
  H      2.058919    1.730331   -2.093112
  H      0.542252   -0.344731   -3.766662
  H     -0.174219    0.829692   -2.685182

 Total Charge           Charge          ....    0
 Multiplicity           Mult            ....    1
 Number of Electrons    NEL             ....  120
 Basis Dimension        Dim             ....  432

ORBITAL ENERGIES
----------------

  NO   OCC          E(Eh)            E(eV)
   0   2.0000     -89.233741     -2428.1735
   1   2.0000     -24.906035      -677.7277
   2   2.0000     -19.240587      -523.5630
   3   2.0000     -19.224816      -523.1338
   4   2.0000     -14.389648      -391.5622
   5   2.0000     -14.372530      -391.0964
   6   2.0000     -10.326831      -281.0074
   7   2.0000     -10.290315      -280.0137
   8   2.0000     -10.281056      -279.7618
   9   2.0000     -10.261347      -279.2254
  10   2.0000     -10.245462      -278.7932
  11   2.0000     -10.233235      -278.4605
  12   2.0000     -10.220911      -278.1251
  13   2.0000     -10.145441      -276.0715
  14   2.0000      -8.286666      -225.4916
  15   2.0000      -6.260873      -170.3670
  16   2.0000      -6.254542      -170.1947
  17   2.0000      -6.252666      -170.1437
  18   2.0000      -1.473039       -40.0834
  19   2.0000      -1.205554       -32.8048
  20   2.0000      -1.097847       -29.8739
  21   2.0000      -1.013268       -27.5724
  22   2.0000      -0.925276       -25.1781
  23   2.0000      -0.920742       -25.0547
  24   2.0000      -0.873174       -23.7603
  25   2.0000      -0.833633       -22.6843
  26   2.0000      -0.806453       -21.9447
  27   2.0000      -0.773146       -21.0384
  28   2.0000      -0.730430       -19.8760
  29   2.0000      -0.701303       -19.0834
  30   2.0000      -0.683093       -18.5879
  31   2.0000      -0.676850       -18.4180
  32   2.0000      -0.659829       -17.9549
  33   2.0000      -0.627675       -17.0799
  34   2.0000      -0.619525       -16.8581
  35   2.0000      -0.595672       -16.2091
  36   2.0000      -0.571942       -15.5633
  37   2.0000      -0.570060       -15.5121
  38   2.0000      -0.550836       -14.9890
  39   2.0000      -0.548066       -14.9136
  40   2.0000      -0.540854       -14.7174
  41   2.0000      -0.516126       -14.0445
  42   2.0000      -0.509521       -13.8648
  43   2.0000      -0.503055       -13.6888
  44   2.0000      -0.490364       -13.3435
  45   2.0000      -0.466312       -12.6890
  46   2.0000      -0.456747       -12.4287
  47   2.0000      -0.449522       -12.2321
  48   2.0000      -0.442032       -12.0283
  49   2.0000      -0.434703       -11.8289
  50   2.0000      -0.421390       -11.4666
  51   2.0000      -0.408637       -11.1196
  52   2.0000      -0.404861       -11.0168
  53   2.0000      -0.396770       -10.7967
  54   2.0000      -0.385474       -10.4893
  55   2.0000      -0.380268       -10.3476
  56   2.0000      -0.366827        -9.9819
  57   2.0000      -0.345022        -9.3885
  58   2.0000      -0.309630        -8.4255
  59   2.0000      -0.195857        -5.3295
  60   0.0000       0.020565         0.5596
  61   0.0000       0.048437         1.3180
  62   0.0000       0.050550         1.3755
  63   0.0000       0.057331         1.5601
  64   0.0000       0.068784         1.8717

MULLIKEN ATOMIC CHARGES
-----------------------
   0 C :    0.454051
   1 C :    0.202176
   2 C :    0.610033
   3 C :    0.251471
   4 H :    0.020824
   5 H :   -0.162545
   6 S :    1.522885
   7 C :    0.583195
   8 N :    0.299916
   9 N :    0.102260
  10 H :   -0.066098
  11 H :   -0.306076
  12 H :   -0.589023
  13 H :   -0.225123
  14 H :   -0.308372
  15 O :   -0.645516
  16 F :   -0.459381
  17 C :    0.735559
  18 H :   -0.438057
  19 H :    0.050573
  20 C :    0.201066
  21 H :   -0.105196
  22 H :   -0.115716
  23 C :    0.019554
  24 H :   -0.103617
  25 H :   -0.033638
  26 O :   -0.727112
  27 H :   -0.053925
  28 H :   -0.285082
  29 H :   -0.162749
  30 H :   -0.266336
Sum of atomic charges:   -0.0000000

LOEWDIN ATOMIC CHARGES
----------------------
   0 C :   -0.050075
   1 C :   -0.031189
   2 C :   -0.034382
   3 C :   -0.031490
   4 H :    0.035346
   5 H :    0.023565
   6 S :    1.186899
   7 C :   -0.199711
   8 N :    0.207551
   9 N :    0.199093
  10 H :   -0.013223
  11 H :   -0.017102
  12 H :   -0.137249
  13 H :   -0.075148
  14 H :   -0.009052
  15 O :   -0.446975
  16 F :   -0.236879
  17 C :   -0.020750
  18 H :   -0.000468
  19 H :    0.007913
  20 C :   -0.021969
  21 H :    0.023524
  22 H :    0.036327
  23 C :   -0.025847
  24 H :    0.017872
  25 H :    0.014397
  26 O :   -0.474959
  27 H :    0.009956
  28 H :    0.022846
  29 H :    0.007094
  30 H :    0.034084

  Mayer bond orders larger than 0.100000
B(  0-C ,  1-C ) :   1.0078 B(  0-C ,  7-C ) :   0.1838 B(  0-C , 12-H ) :   0.4664
B(  0-C , 17-C ) :   1.0861 B(  0-C , 18-H ) :   0.7400 B(  0-C , 19-H ) :   0.6330
B(  0-C , 23-C ) :   0.1639 B(  0-C , 24-H ) :   0.1379 B(  0-C , 25-H ) :   0.2120
B(  1-C ,  7-C ) :   1.7035 B(  1-C ,  8-N ) :   0.2509 B(  1-C ,  9-N ) :   0.2622
B(  1-C , 10-H ) :  -0.1056 B(  1-C , 18-H ) :   0.2637 B(  1-C , 19-H ) :   0.3240
B(  1-C , 26-O ) :  -0.1321 B(  1-C , 28-H ) :   0.1181 B(  2-C ,  3-C ) :   1.2191
B(  2-C ,  4-H ) :   0.1126 B(  2-C ,  5-H ) :   0.1935 B(  2-C , 20-C ) :   1.2247
B(  2-C , 21-H ) :   0.6056 B(  2-C , 22-H ) :   0.7399 B(  3-C ,  4-H ) :   0.8826
B(  3-C ,  5-H ) :   0.8177 B(  3-C ,  6-S ) :   1.0420 B(  3-C , 21-H ) :   0.1201
B(  3-C , 22-H ) :   0.1474 B(  6-S , 15-O ) :   1.5895 B(  6-S , 16-F ) :   0.5676
B(  6-S , 26-O ) :   1.3637 B(  7-C ,  8-N ) :   0.8243 B(  7-C ,  9-N ) :   0.9319
B(  7-C , 11-H ) :  -0.1802 B(  7-C , 12-H ) :   0.6725 B(  7-C , 13-H ) :  -0.1281
B(  7-C , 14-H ) :  -0.2442 B(  8-N , 12-H ) :   0.1046 B(  8-N , 13-H ) :   1.1999
B(  8-N , 14-H ) :   1.3539 B(  9-N , 10-H ) :   1.0839 B(  9-N , 11-H ) :   1.3545
B( 10-H , 11-H ) :  -0.2238 B( 12-H , 23-C ) :   0.1161 B( 12-H , 26-O ) :   0.1845
B( 12-H , 27-H ) :   0.1078 B( 12-H , 28-H ) :  -0.1476 B( 13-H , 14-H ) :  -0.2087
B( 13-H , 26-O ) :   0.1150 B( 16-F , 26-O ) :   0.1417 B( 17-C , 19-H ) :   0.1001
B( 17-C , 23-C ) :   1.2023 B( 17-C , 24-H ) :   0.6901 B( 17-C , 25-H ) :   0.6258
B( 17-C , 27-H ) :   0.1084 B( 20-C , 21-H ) :   0.3074 B( 20-C , 23-C ) :   1.1777
B( 20-C , 27-H ) :   0.1235 B( 20-C , 28-H ) :   0.1657 B( 20-C , 29-H ) :   0.9059
B( 20-C , 30-H ) :   0.7871 B( 21-H , 22-H ) :  -0.1207 B( 23-C , 24-H ) :   0.2867
B( 23-C , 25-H ) :   0.1648 B( 23-C , 27-H ) :   0.8786 B( 23-C , 28-H ) :   0.8314
B( 23-C , 29-H ) :   0.1313 B( 23-C , 30-H ) :   0.1631 B( 24-H , 25-H ) :  -0.1166

FINAL SINGLE POINT ENERGY     -1072.066045252153

DIPOLE MOMENT
-------------
                                X             Y             Z
Electronic contribution:     -3.04640      -2.09526     -21.70060
Nuclear contribution   :      2.64598       3.36033      21.85869
                        -----------------------------------------
Total Dipole Moment    :     -0.40042       1.26507       0.15809
                        -----------------------------------------
Magnitude (a.u.)       :      1.33631
Magnitude (Debye)      :      3.39664

Rotational constants in cm-1:     0.028973     0.014435     0.011026
Rotational constants in MHz :   868.588266   432.748309   330.548534

                             ****ORCA TERMINATED NORMALLY****
TOTAL RUN TIME: 0 days 0 hours 4 minutes 43 seconds 515 msec
