                         Program Version 5.0.0 -  RELEASE  -
|  1> !CAM-B3LYP RIJCOSX def2-SVPD def2/J TightSCF xyzfile
|  2>
|  3> *xyzfile 0 1 D5.xyz
|  4>
|  5> %MaxCore 64000
|  6>
|  7> %pal nprocs 4
|  8> end
|  9>
| 10> %scf
| 11>   MaxIter 150
| 12> end
| 13>
| 14>
| 15>                          ****END OF INPUT****

CARTESIAN COORDINATES (ANGSTROEM)
---------------------------------
  C      1.963365   -1.749150   -1.896887
  N      2.738490   -2.015170   -3.097113
  C      0.611877    1.657634   -4.500288
  C      1.694991    1.541794   -5.570447
  H      2.697326    1.734659   -5.183996
  H      1.506656    2.272239   -6.358076
  S      1.780287   -0.033128   -6.428739
  C      4.049736   -2.154717   -3.152044
  C      4.658206   -1.986293   -4.318655
  N      4.764231   -2.454435   -2.050491
  H      4.287363   -2.776259   -1.217496
  H      5.750825   -2.658351   -2.125988
  H      2.345176   -1.690274   -3.971447
  H      4.109004   -1.592677   -5.071760
  H      5.649095   -2.156462   -4.427237
  O      2.569287    0.213657   -7.607360
  F      0.416880   -0.462969   -6.618595
  C      2.088520   -0.300912   -1.415204
  H      2.231272   -2.451616   -1.102643
  H      0.930249   -1.977801   -2.155438
  C      0.680356    0.655418   -3.348038
  H     -0.356865    1.549231   -4.991128
  H      0.650228    2.675438   -4.096000
  C      1.968993    0.733582   -2.535654
  H      3.051356   -0.168602   -0.911868
  H      1.316501   -0.136231   -0.657252
  O      2.505129   -0.933263   -5.482570
  H      2.824195    0.624726   -3.208464
  H      2.058919    1.730331   -2.093112
  H      0.542252   -0.344731   -3.766662
  H     -0.174219    0.829692   -2.685182

 Total Charge           Charge          ....    0
 Multiplicity           Mult            ....    1
 Number of Electrons    NEL             ....  120
 Basis Dimension        Dim             ....  432

ORBITAL ENERGIES
----------------

  NO   OCC          E(Eh)            E(eV)
   0   2.0000     -89.234677     -2428.1990
   1   2.0000     -24.907086      -677.7563
   2   2.0000     -19.241543      -523.5890
   3   2.0000     -19.227031      -523.1941
   4   2.0000     -14.386392      -391.4736
   5   2.0000     -14.369511      -391.0143
   6   2.0000     -10.329497      -281.0799
   7   2.0000     -10.297784      -280.2169
   8   2.0000     -10.284023      -279.8425
   9   2.0000     -10.280404      -279.7440
  10   2.0000     -10.274899      -279.5942
  11   2.0000     -10.260636      -279.2061
  12   2.0000     -10.253903      -279.0229
  13   2.0000     -10.138905      -275.8936
  14   2.0000      -8.287544      -225.5155
  15   2.0000      -6.261865      -170.3940
  16   2.0000      -6.255221      -170.2132
  17   2.0000      -6.253673      -170.1711
  18   2.0000      -1.474374       -40.1197
  19   2.0000      -1.206213       -32.8227
  20   2.0000      -1.099158       -29.9096
  21   2.0000      -1.022027       -27.8108
  22   2.0000      -0.939268       -25.5588
  23   2.0000      -0.929688       -25.2981
  24   2.0000      -0.875001       -23.8100
  25   2.0000      -0.838642       -22.8206
  26   2.0000      -0.804990       -21.9049
  27   2.0000      -0.778006       -21.1706
  28   2.0000      -0.737386       -20.0653
  29   2.0000      -0.707835       -19.2612
  30   2.0000      -0.684925       -18.6377
  31   2.0000      -0.682790       -18.5797
  32   2.0000      -0.666690       -18.1416
  33   2.0000      -0.644498       -17.5377
  34   2.0000      -0.623634       -16.9700
  35   2.0000      -0.590615       -16.0715
  36   2.0000      -0.578078       -15.7303
  37   2.0000      -0.570278       -15.5181
  38   2.0000      -0.554967       -15.1014
  39   2.0000      -0.546752       -14.8779
  40   2.0000      -0.542249       -14.7553
  41   2.0000      -0.530623       -14.4390
  42   2.0000      -0.516572       -14.0566
  43   2.0000      -0.502943       -13.6858
  44   2.0000      -0.495771       -13.4906
  45   2.0000      -0.470391       -12.8000
  46   2.0000      -0.466149       -12.6846
  47   2.0000      -0.456908       -12.4331
  48   2.0000      -0.446645       -12.1538
  49   2.0000      -0.433554       -11.7976
  50   2.0000      -0.429572       -11.6892
  51   2.0000      -0.419783       -11.4229
  52   2.0000      -0.407851       -11.0982
  53   2.0000      -0.400858       -10.9079
  54   2.0000      -0.397585       -10.8188
  55   2.0000      -0.392741       -10.6870
  56   2.0000      -0.386272       -10.5110
  57   2.0000      -0.376947       -10.2573
  58   2.0000      -0.297620        -8.0987
  59   2.0000      -0.197329        -5.3696
  60   0.0000       0.018412         0.5010
  61   0.0000       0.044709         1.2166
  62   0.0000       0.048143         1.3100
  63   0.0000       0.053521         1.4564
  64   0.0000       0.066760         1.8166

MULLIKEN ATOMIC CHARGES
-----------------------
   0 C :    1.116874
   1 N :    0.132744
   2 C :    0.614831
   3 C :    0.250812
   4 H :    0.025478
   5 H :   -0.157805
   6 S :    1.525727
   7 C :    0.604197
   8 C :    0.810944
   9 N :    0.290773
  10 H :   -0.105177
  11 H :   -0.239736
  12 H :   -0.692517
  13 H :   -0.385845
  14 H :   -0.754024
  15 O :   -0.637986
  16 F :   -0.460718
  17 C :    0.566218
  18 H :   -0.511599
  19 H :   -0.241791
  20 C :    0.196321
  21 H :   -0.095002
  22 H :   -0.110683
  23 C :    0.161049
  24 H :   -0.104845
  25 H :   -0.169677
  26 O :   -0.819416
  27 H :    0.010373
  28 H :   -0.413522
  29 H :   -0.144811
  30 H :   -0.261186
Sum of atomic charges:   -0.0000000

LOEWDIN ATOMIC CHARGES
----------------------
   0 C :    0.055807
   1 N :    0.010173
   2 C :   -0.032746
   3 C :   -0.030781
   4 H :    0.037054
   5 H :    0.024305
   6 S :    1.187404
   7 C :   -0.223084
   8 C :    0.170193
   9 N :    0.196761
  10 H :   -0.028924
  11 H :   -0.000260
  12 H :   -0.080669
  13 H :   -0.160970
  14 H :   -0.100051
  15 O :   -0.436725
  16 F :   -0.241538
  17 C :   -0.014592
  18 H :    0.006374
  19 H :    0.014392
  20 C :   -0.026982
  21 H :    0.024506
  22 H :    0.037447
  23 C :   -0.023147
  24 H :    0.018581
  25 H :    0.017481
  26 O :   -0.474584
  27 H :    0.011876
  28 H :    0.025850
  29 H :    0.002560
  30 H :    0.034290

  Mayer bond orders larger than 0.100000
B(  0-C ,  1-N ) :   0.9308 B(  0-C , 12-H ) :  -0.3553 B(  0-C , 17-C ) :   1.0433
B(  0-C , 18-H ) :   0.8097 B(  0-C , 19-H ) :   0.5880 B(  0-C , 23-C ) :   0.1298
B(  0-C , 25-H ) :   0.1259 B(  1-N ,  7-C ) :   1.0571 B(  1-N ,  8-C ) :   0.2200
B(  1-N ,  9-N ) :   0.2080 B(  1-N , 12-H ) :   1.0682 B(  1-N , 19-H ) :   0.1469
B(  2-C ,  3-C ) :   1.2200 B(  2-C ,  4-H ) :   0.1053 B(  2-C ,  5-H ) :   0.1867
B(  2-C , 20-C ) :   1.2307 B(  2-C , 21-H ) :   0.6011 B(  2-C , 22-H ) :   0.7411
B(  3-C ,  4-H ) :   0.8846 B(  3-C ,  5-H ) :   0.8228 B(  3-C ,  6-S ) :   1.0338
B(  3-C , 21-H ) :   0.1213 B(  3-C , 22-H ) :   0.1553 B(  6-S , 15-O ) :   1.5992
B(  6-S , 16-F ) :   0.5607 B(  6-S , 26-O ) :   1.3796 B(  7-C ,  8-C ) :   1.3856
B(  7-C ,  9-N ) :   0.9798 B(  7-C , 11-H ) :  -0.1361 B(  7-C , 12-H ) :  -0.3513
B(  7-C , 13-H ) :   0.1362 B(  7-C , 14-H ) :   0.2452 B(  8-C ,  9-N ) :   0.2722
B(  8-C , 13-H ) :   0.5414 B(  8-C , 14-H ) :   0.5706 B(  9-N , 10-H ) :   0.9654
B(  9-N , 11-H ) :   1.2629 B(  9-N , 18-H ) :   0.1063 B( 10-H , 11-H ) :  -0.2193
B( 12-H , 19-H ) :   0.1992 B( 12-H , 24-H ) :   0.1402 B( 12-H , 26-O ) :   0.1306
B( 12-H , 27-H ) :   0.1087 B( 12-H , 28-H ) :  -0.1089 B( 13-H , 14-H ) :  -0.2098
B( 13-H , 26-O ) :   0.2578 B( 16-F , 26-O ) :   0.1470 B( 17-C , 18-H ) :   0.1384
B( 17-C , 19-H ) :   0.1113 B( 17-C , 23-C ) :   1.2344 B( 17-C , 24-H ) :   0.7091
B( 17-C , 25-H ) :   0.8362 B( 18-H , 19-H ) :  -0.1724 B( 20-C , 21-H ) :   0.3101
B( 20-C , 23-C ) :   1.1607 B( 20-C , 27-H ) :   0.1216 B( 20-C , 28-H ) :   0.1332
B( 20-C , 29-H ) :   0.9150 B( 20-C , 30-H ) :   0.7948 B( 21-H , 22-H ) :  -0.1197
B( 23-C , 24-H ) :   0.2423 B( 23-C , 25-H ) :   0.1297 B( 23-C , 27-H ) :   0.8539
B( 23-C , 28-H ) :   0.8608 B( 23-C , 29-H ) :   0.1164 B( 23-C , 30-H ) :   0.1395
B( 24-H , 25-H ) :  -0.1046

FINAL SINGLE POINT ENERGY     -1072.061777378083

DIPOLE MOMENT
-------------
                                X             Y             Z
Electronic contribution:     -4.65142      -1.92352     -20.67623
Nuclear contribution   :      2.89225       3.36404      21.70199
                        -----------------------------------------
Total Dipole Moment    :     -1.75917       1.44052       1.02576
                        -----------------------------------------
Magnitude (a.u.)       :      2.49438
Magnitude (Debye)      :      6.34021

Rotational constants in cm-1:     0.029431     0.014408     0.011084
Rotational constants in MHz :   882.306106   431.946714   332.288152

                             ****ORCA TERMINATED NORMALLY****
TOTAL RUN TIME: 0 days 0 hours 4 minutes 42 seconds 271 msec
