                         Program Version 5.0.0 -  RELEASE  -
|  1> !CAM-B3LYP RIJCOSX def2-SVPD def2/J TightSCF xyzfile
|  2>
|  3> *xyzfile 0 1 D6.xyz
|  4>
|  5> %MaxCore 64000
|  6>
|  7> %pal nprocs 4
|  8> end
|  9>
| 10> %scf
| 11>   MaxIter 150
| 12> end
| 13>
| 14>
| 15>                          ****END OF INPUT****

CARTESIAN COORDINATES (ANGSTROEM)
---------------------------------
  C      1.963365   -1.749150   -1.896887
  N      2.738490   -2.015170   -3.097113
  C      0.611877    1.657634   -4.500288
  C      1.694991    1.541794   -5.570447
  H      2.697326    1.734659   -5.183996
  H      1.506656    2.272239   -6.358076
  S      1.780287   -0.033128   -6.428739
  C      4.049736   -2.154717   -3.152044
  N      4.658206   -1.986293   -4.318655
  C      4.764231   -2.454435   -2.050491
  H      4.287363   -2.776259   -1.217496
  H      5.750825   -2.658351   -2.125988
  H      2.345176   -1.690274   -3.971447
  H      4.109004   -1.592677   -5.071760
  H      5.649095   -2.156462   -4.427237
  O      2.569287    0.213657   -7.607360
  F      0.416880   -0.462969   -6.618595
  C      2.088520   -0.300912   -1.415204
  H      2.231272   -2.451616   -1.102643
  H      0.930249   -1.977801   -2.155438
  C      0.680356    0.655418   -3.348038
  H     -0.356865    1.549231   -4.991128
  H      0.650228    2.675438   -4.096000
  C      1.968993    0.733582   -2.535654
  H      3.051356   -0.168602   -0.911868
  H      1.316501   -0.136231   -0.657252
  O      2.505129   -0.933263   -5.482570
  H      2.824195    0.624726   -3.208464
  H      2.058919    1.730331   -2.093112
  H      0.542252   -0.344731   -3.766662
  H     -0.174219    0.829692   -2.685182

 Total Charge           Charge          ....    0
 Multiplicity           Mult            ....    1
 Number of Electrons    NEL             ....  120
 Basis Dimension        Dim             ....  432

ORBITAL ENERGIES
----------------

  NO   OCC          E(Eh)            E(eV)
   0   2.0000     -89.252015     -2428.6708
   1   2.0000     -24.921629      -678.1520
   2   2.0000     -19.256829      -524.0050
   3   2.0000     -19.247722      -523.7572
   4   2.0000     -14.371773      -391.0758
   5   2.0000     -14.371622      -391.0717
   6   2.0000     -10.340816      -281.3879
   7   2.0000     -10.304099      -280.3888
   8   2.0000     -10.283082      -279.8169
   9   2.0000     -10.278175      -279.6834
  10   2.0000     -10.277340      -279.6607
  11   2.0000     -10.261618      -279.2328
  12   2.0000     -10.248454      -278.8746
  13   2.0000     -10.147970      -276.1403
  14   2.0000      -8.304806      -225.9853
  15   2.0000      -6.279034      -170.8612
  16   2.0000      -6.272776      -170.6909
  17   2.0000      -6.270760      -170.6360
  18   2.0000      -1.488833       -40.5132
  19   2.0000      -1.223284       -33.2872
  20   2.0000      -1.118015       -30.4227
  21   2.0000      -1.023172       -27.8419
  22   2.0000      -0.941819       -25.6282
  23   2.0000      -0.933479       -25.4013
  24   2.0000      -0.878484       -23.9048
  25   2.0000      -0.839476       -22.8433
  26   2.0000      -0.809065       -22.0158
  27   2.0000      -0.767202       -20.8766
  28   2.0000      -0.756993       -20.5988
  29   2.0000      -0.720804       -19.6141
  30   2.0000      -0.696666       -18.9572
  31   2.0000      -0.694545       -18.8995
  32   2.0000      -0.663413       -18.0524
  33   2.0000      -0.649269       -17.6675
  34   2.0000      -0.609614       -16.5884
  35   2.0000      -0.598495       -16.2859
  36   2.0000      -0.585801       -15.9405
  37   2.0000      -0.582596       -15.8532
  38   2.0000      -0.571965       -15.5640
  39   2.0000      -0.561136       -15.2693
  40   2.0000      -0.539006       -14.6671
  41   2.0000      -0.530555       -14.4371
  42   2.0000      -0.514341       -13.9959
  43   2.0000      -0.504494       -13.7280
  44   2.0000      -0.497396       -13.5348
  45   2.0000      -0.481962       -13.1149
  46   2.0000      -0.465066       -12.6551
  47   2.0000      -0.461850       -12.5676
  48   2.0000      -0.445341       -12.1183
  49   2.0000      -0.438118       -11.9218
  50   2.0000      -0.430488       -11.7142
  51   2.0000      -0.428985       -11.6733
  52   2.0000      -0.416443       -11.3320
  53   2.0000      -0.409312       -11.1380
  54   2.0000      -0.402785       -10.9603
  55   2.0000      -0.398259       -10.8372
  56   2.0000      -0.395736       -10.7685
  57   2.0000      -0.383449       -10.4342
  58   2.0000      -0.289124        -7.8675
  59   2.0000      -0.200296        -5.4503
  60   0.0000       0.009292         0.2529
  61   0.0000       0.038649         1.0517
  62   0.0000       0.041907         1.1404
  63   0.0000       0.053427         1.4538
  64   0.0000       0.060081         1.6349

MULLIKEN ATOMIC CHARGES
-----------------------
   0 C :    1.069109
   1 N :    0.276373
   2 C :    0.611999
   3 C :    0.252593
   4 H :    0.028276
   5 H :   -0.160416
   6 S :    1.530912
   7 C :    0.621823
   8 N :    0.554352
   9 C :    0.540704
  10 H :   -0.081383
  11 H :   -0.769837
  12 H :   -0.902606
  13 H :   -0.366772
  14 H :   -0.279718
  15 O :   -0.632666
  16 F :   -0.456344
  17 C :    0.618972
  18 H :   -0.401344
  19 H :   -0.267642
  20 C :    0.184249
  21 H :   -0.093825
  22 H :   -0.110184
  23 C :    0.153490
  24 H :   -0.183623
  25 H :   -0.107908
  26 O :   -0.803327
  27 H :   -0.024045
  28 H :   -0.392305
  29 H :   -0.144243
  30 H :   -0.264665
Sum of atomic charges:    0.0000000

LOEWDIN ATOMIC CHARGES
----------------------
   0 C :    0.064266
   1 N :    0.009738
   2 C :   -0.032135
   3 C :   -0.028830
   4 H :    0.037087
   5 H :    0.026118
   6 S :    1.191140
   7 C :   -0.224520
   8 N :    0.212871
   9 C :    0.148924
  10 H :   -0.121347
  11 H :   -0.113783
  12 H :   -0.090918
  13 H :   -0.087690
  14 H :    0.009418
  15 O :   -0.435731
  16 F :   -0.234481
  17 C :   -0.008430
  18 H :    0.014363
  19 H :    0.013972
  20 C :   -0.027030
  21 H :    0.024977
  22 H :    0.038911
  23 C :   -0.025136
  24 H :    0.019036
  25 H :    0.019765
  26 O :   -0.474236
  27 H :    0.009907
  28 H :    0.026045
  29 H :    0.001985
  30 H :    0.035746

  Mayer bond orders larger than 0.100000
B(  0-C ,  1-N ) :   0.9760 B(  0-C ,  7-C ) :  -0.1031 B(  0-C , 12-H ) :  -0.3848
B(  0-C , 17-C ) :   1.0125 B(  0-C , 18-H ) :   0.8400 B(  0-C , 19-H ) :   0.6630
B(  0-C , 23-C ) :   0.1228 B(  0-C , 25-H ) :   0.1123 B(  1-N ,  7-C ) :   0.9429
B(  1-N ,  9-C ) :   0.4734 B(  1-N , 12-H ) :   0.8764 B(  1-N , 13-H ) :   0.1112
B(  1-N , 19-H ) :   0.1578 B(  2-C ,  3-C ) :   1.2195 B(  2-C ,  4-H ) :   0.1085
B(  2-C ,  5-H ) :   0.1897 B(  2-C , 20-C ) :   1.2263 B(  2-C , 21-H ) :   0.5985
B(  2-C , 22-H ) :   0.7469 B(  3-C ,  4-H ) :   0.8873 B(  3-C ,  5-H ) :   0.8206
B(  3-C ,  6-S ) :   1.0350 B(  3-C , 21-H ) :   0.1200 B(  3-C , 22-H ) :   0.1485
B(  6-S , 15-O ) :   1.6023 B(  6-S , 16-F ) :   0.5707 B(  6-S , 26-O ) :   1.3524
B(  7-C ,  8-N ) :   0.8692 B(  7-C ,  9-C ) :   1.4542 B(  7-C , 10-H ) :   0.3359
B(  7-C , 11-H ) :   0.2632 B(  7-C , 12-H ) :  -0.3578 B(  7-C , 14-H ) :  -0.1846
B(  8-N ,  9-C ) :   0.2239 B(  8-N , 13-H ) :   1.0322 B(  8-N , 14-H ) :   1.3013
B(  9-C , 10-H ) :   0.5505 B(  9-C , 11-H ) :   0.6529 B(  9-C , 12-H ) :  -0.1274
B( 10-H , 18-H ) :   0.1560 B( 10-H , 19-H ) :  -0.1118 B( 12-H , 19-H ) :   0.1165
B( 12-H , 26-O ) :   0.1685 B( 12-H , 27-H ) :   0.1190 B( 12-H , 28-H ) :  -0.1097
B( 13-H , 14-H ) :  -0.2057 B( 13-H , 26-O ) :   0.2046 B( 16-F , 26-O ) :   0.1485
B( 17-C , 18-H ) :   0.1068 B( 17-C , 19-H ) :   0.1046 B( 17-C , 23-C ) :   1.2256
B( 17-C , 24-H ) :   0.7404 B( 17-C , 25-H ) :   0.7880 B( 17-C , 27-H ) :   0.1049
B( 18-H , 19-H ) :  -0.2216 B( 20-C , 21-H ) :   0.3084 B( 20-C , 23-C ) :   1.1698
B( 20-C , 27-H ) :   0.1286 B( 20-C , 28-H ) :   0.1558 B( 20-C , 29-H ) :   0.9182
B( 20-C , 30-H ) :   0.7920 B( 21-H , 22-H ) :  -0.1169 B( 23-C , 24-H ) :   0.2528
B( 23-C , 25-H ) :   0.1350 B( 23-C , 27-H ) :   0.8375 B( 23-C , 28-H ) :   0.8384
B( 23-C , 29-H ) :   0.1131 B( 23-C , 30-H ) :   0.1421 B( 24-H , 25-H ) :  -0.1125

FINAL SINGLE POINT ENERGY     -1072.074559443346

DIPOLE MOMENT
-------------
                                X             Y             Z
Electronic contribution:     -4.89239      -1.32650     -22.70509
Nuclear contribution   :      2.90585       3.30398      21.99296
                        -----------------------------------------
Total Dipole Moment    :     -1.98654       1.97748      -0.71214
                        -----------------------------------------
Magnitude (a.u.)       :      2.89204
Magnitude (Debye)      :      7.35098

Rotational constants in cm-1:     0.029065     0.014689     0.011200
Rotational constants in MHz :   871.338526   440.374927   335.770911

                             ****ORCA TERMINATED NORMALLY****
TOTAL RUN TIME: 0 days 0 hours 4 minutes 35 seconds 622 msec
