                         Program Version 5.0.0 -  RELEASE  -
|  1> !CAM-B3LYP RIJCOSX def2-SVPD def2/J TightSCF xyzfile
|  2>
|  3> *xyzfile 0 1 D9.xyz
|  4>
|  5> %MaxCore 64000
|  6>
|  7> %pal nprocs 4
|  8> end
|  9>
| 10> %scf
| 11>   MaxIter 150
| 12> end
| 13>
| 14>
| 15>                          ****END OF INPUT****

CARTESIAN COORDINATES (ANGSTROEM)
---------------------------------
  C      1.963365   -1.749150   -1.896887
  N      2.738490   -2.015170   -3.097113
  C      0.611877    1.657634   -4.500288
  C      1.694991    1.541794   -5.570447
  H      2.697326    1.734659   -5.183996
  H      1.506656    2.272239   -6.358076
  S      1.780287   -0.033128   -6.428739
  C      4.049736   -2.154717   -3.152044
  N      4.658206   -1.986293   -4.318655
  C      4.764231   -2.454435   -2.050491
  H      4.287363   -2.776259   -1.217496
  H      5.750825   -2.658351   -2.125988
  H      2.345176   -1.690274   -3.971447
  H      4.109004   -1.592677   -5.071760
  H      5.649095   -2.156462   -4.427237
  O      2.569287    0.213657   -7.607360
  O      0.416880   -0.462969   -6.618595
  C      2.088520   -0.300912   -1.415204
  H      2.231272   -2.451616   -1.102643
  H      0.930249   -1.977801   -2.155438
  C      0.680356    0.655418   -3.348038
  H     -0.356865    1.549231   -4.991128
  H      0.650228    2.675438   -4.096000
  C      1.968993    0.733582   -2.535654
  H      3.051356   -0.168602   -0.911868
  H      1.316501   -0.136231   -0.657252
  F      2.505129   -0.933263   -5.482570
  H      2.824195    0.624726   -3.208464
  H      2.058919    1.730331   -2.093112
  H      0.542252   -0.344731   -3.766662
  H     -0.174219    0.829692   -2.685182

 Total Charge           Charge          ....    0
 Multiplicity           Mult            ....    1
 Number of Electrons    NEL             ....  120
 Basis Dimension        Dim             ....  432

ORBITAL ENERGIES
----------------

  NO   OCC          E(Eh)            E(eV)
   0   2.0000     -89.238837     -2428.3122
   1   2.0000     -24.904014      -677.6727
   2   2.0000     -19.249106      -523.7948
   3   2.0000     -19.248811      -523.7868
   4   2.0000     -14.403153      -391.9297
   5   2.0000     -14.401558      -391.8863
   6   2.0000     -10.334250      -281.2092
   7   2.0000     -10.306357      -280.4502
   8   2.0000     -10.296393      -280.1791
   9   2.0000     -10.292895      -280.0839
  10   2.0000     -10.279609      -279.7224
  11   2.0000     -10.270329      -279.4699
  12   2.0000     -10.259452      -279.1739
  13   2.0000     -10.169723      -276.7322
  14   2.0000      -8.291937      -225.6351
  15   2.0000      -6.266318      -170.5152
  16   2.0000      -6.259595      -170.3323
  17   2.0000      -6.258080      -170.2910
  18   2.0000      -1.457315       -39.6556
  19   2.0000      -1.224880       -33.3307
  20   2.0000      -1.126556       -30.6551
  21   2.0000      -1.051220       -28.6051
  22   2.0000      -0.962961       -26.2035
  23   2.0000      -0.932911       -25.3858
  24   2.0000      -0.882035       -24.0014
  25   2.0000      -0.845127       -22.9971
  26   2.0000      -0.815027       -22.1780
  27   2.0000      -0.775863       -21.1123
  28   2.0000      -0.771961       -21.0061
  29   2.0000      -0.719374       -19.5752
  30   2.0000      -0.687767       -18.7151
  31   2.0000      -0.680979       -18.5304
  32   2.0000      -0.663640       -18.0586
  33   2.0000      -0.643478       -17.5099
  34   2.0000      -0.622126       -16.9289
  35   2.0000      -0.615837       -16.7578
  36   2.0000      -0.593214       -16.1422
  37   2.0000      -0.584425       -15.9030
  38   2.0000      -0.576488       -15.6870
  39   2.0000      -0.560489       -15.2517
  40   2.0000      -0.548488       -14.9251
  41   2.0000      -0.537249       -14.6193
  42   2.0000      -0.520000       -14.1499
  43   2.0000      -0.511649       -13.9227
  44   2.0000      -0.500689       -13.6244
  45   2.0000      -0.485017       -13.1980
  46   2.0000      -0.472628       -12.8609
  47   2.0000      -0.471505       -12.8303
  48   2.0000      -0.452281       -12.3072
  49   2.0000      -0.443127       -12.0581
  50   2.0000      -0.441011       -12.0005
  51   2.0000      -0.434779       -11.8309
  52   2.0000      -0.428950       -11.6723
  53   2.0000      -0.417048       -11.3485
  54   2.0000      -0.411101       -11.1866
  55   2.0000      -0.408905       -11.1269
  56   2.0000      -0.405013       -11.0210
  57   2.0000      -0.394682       -10.7399
  58   2.0000      -0.315565        -8.5870
  59   2.0000      -0.222856        -6.0642
  60   0.0000       0.022648         0.6163
  61   0.0000       0.042683         1.1615
  62   0.0000       0.044393         1.2080
  63   0.0000       0.050631         1.3777
  64   0.0000       0.066911         1.8207

MULLIKEN ATOMIC CHARGES
-----------------------
   0 C :    1.074129
   1 N :    0.250650
   2 C :    0.634328
   3 C :    0.243131
   4 H :    0.065266
   5 H :   -0.224310
   6 S :    1.526233
   7 C :    0.624242
   8 N :    0.578053
   9 C :    0.544005
  10 H :   -0.062733
  11 H :   -0.758608
  12 H :   -0.897554
  13 H :   -0.409093
  14 H :   -0.248550
  15 O :   -0.656612
  16 O :   -0.701113
  17 C :    0.610781
  18 H :   -0.395226
  19 H :   -0.249281
  20 C :    0.159771
  21 H :   -0.079803
  22 H :   -0.101185
  23 C :    0.147045
  24 H :   -0.181995
  25 H :   -0.115503
  26 F :   -0.545944
  27 H :   -0.034488
  28 H :   -0.375854
  29 H :   -0.197282
  30 H :   -0.222501
Sum of atomic charges:   -0.0000000

LOEWDIN ATOMIC CHARGES
----------------------
   0 C :    0.067809
   1 N :    0.006644
   2 C :   -0.027272
   3 C :   -0.035153
   4 H :    0.022767
   5 H :    0.035253
   6 S :    1.140840
   7 C :   -0.225378
   8 N :    0.210252
   9 C :    0.159911
  10 H :   -0.113986
  11 H :   -0.106960
  12 H :   -0.058193
  13 H :   -0.064510
  14 H :    0.015950
  15 O :   -0.444505
  16 O :   -0.442228
  17 C :   -0.007328
  18 H :    0.017660
  19 H :    0.018344
  20 C :   -0.025102
  21 H :    0.030593
  22 H :    0.038064
  23 C :   -0.030167
  24 H :    0.019537
  25 H :    0.022813
  26 F :   -0.299034
  27 H :    0.004564
  28 H :    0.028020
  29 H :    0.003051
  30 H :    0.037743

  Mayer bond orders larger than 0.100000
B(  0-C ,  1-N ) :   0.9669 B(  0-C ,  7-C ) :  -0.1007 B(  0-C , 12-H ) :  -0.3740
B(  0-C , 17-C ) :   1.0110 B(  0-C , 18-H ) :   0.8397 B(  0-C , 19-H ) :   0.6651
B(  0-C , 23-C ) :   0.1181 B(  1-N ,  7-C ) :   0.9465 B(  1-N ,  9-C ) :   0.4702
B(  1-N , 12-H ) :   0.9127 B(  1-N , 19-H ) :   0.1705 B(  2-C ,  3-C ) :   1.2182
B(  2-C ,  4-H ) :   0.1271 B(  2-C ,  5-H ) :   0.1876 B(  2-C , 20-C ) :   1.2329
B(  2-C , 21-H ) :   0.6133 B(  2-C , 22-H ) :   0.7268 B(  3-C ,  4-H ) :   0.8785
B(  3-C ,  5-H ) :   0.7616 B(  3-C ,  6-S ) :   1.0363 B(  3-C , 21-H ) :   0.1355
B(  3-C , 22-H ) :   0.1441 B(  5-H ,  6-S ) :   0.1116 B(  6-S , 15-O ) :   1.5419
B(  6-S , 16-O ) :   1.4628 B(  6-S , 26-F ) :   0.6001 B(  7-C ,  8-N ) :   0.8523
B(  7-C ,  9-C ) :   1.4779 B(  7-C , 10-H ) :   0.3371 B(  7-C , 11-H ) :   0.2328
B(  7-C , 12-H ) :  -0.3876 B(  7-C , 14-H ) :  -0.1800 B(  8-N ,  9-C ) :   0.2351
B(  8-N , 13-H ) :   1.0253 B(  8-N , 14-H ) :   1.2804 B(  9-C , 10-H ) :   0.5455
B(  9-C , 11-H ) :   0.6883 B(  9-C , 12-H ) :  -0.1310 B( 10-H , 18-H ) :   0.1574
B( 10-H , 19-H ) :  -0.1112 B( 12-H , 19-H ) :   0.1127 B( 12-H , 27-H ) :   0.1029
B( 13-H , 14-H ) :  -0.1787 B( 13-H , 26-F ) :   0.2394 B( 17-C , 18-H ) :   0.1071
B( 17-C , 19-H ) :   0.1028 B( 17-C , 23-C ) :   1.2154 B( 17-C , 24-H ) :   0.7449
B( 17-C , 25-H ) :   0.8014 B( 17-C , 27-H ) :   0.1126 B( 18-H , 19-H ) :  -0.2277
B( 20-C , 21-H ) :   0.3115 B( 20-C , 23-C ) :   1.1690 B( 20-C , 27-H ) :   0.1080
B( 20-C , 28-H ) :   0.1606 B( 20-C , 29-H ) :   0.9324 B( 20-C , 30-H ) :   0.7824
B( 21-H , 22-H ) :  -0.1021 B( 23-C , 24-H ) :   0.2553 B( 23-C , 25-H ) :   0.1379
B( 23-C , 27-H ) :   0.8410 B( 23-C , 28-H ) :   0.8575 B( 23-C , 30-H ) :   0.1611
B( 24-H , 25-H ) :  -0.1100

FINAL SINGLE POINT ENERGY     -1072.084732687525

DIPOLE MOMENT
-------------
                                X             Y             Z
Electronic contribution:     -1.05525      -2.32407     -20.27540
Nuclear contribution   :      0.52036       3.84122      20.69523
                        -----------------------------------------
Total Dipole Moment    :     -0.53489       1.51715       0.41983
                        -----------------------------------------
Magnitude (a.u.)       :      1.66256
Magnitude (Debye)      :      4.22590

Rotational constants in cm-1:     0.029184     0.014996     0.011314
Rotational constants in MHz :   874.907122   449.569665   339.178205

                             ****ORCA TERMINATED NORMALLY****
TOTAL RUN TIME: 0 days 0 hours 4 minutes 27 seconds 314 msec
