                         Program Version 5.0.0 -  RELEASE  -
|  1> !LC-PBE RIJCOSX def2-TZVP def2/J TightSCF
|  2> *xyz -1 1
|  3> C         -0.90349       -0.87394       -1.98739
|  4> C         -0.96015       -0.52236       -0.48987
|  5> H         -1.69039       -1.20813       -0.02168
|  6> H         -1.41449        0.48633       -0.40668
|  7> O          0.26170       -0.58031        0.13861
|  8> H         -1.88568       -0.80774       -2.40670
|  9> H         -0.53143       -1.87013       -2.10605
| 10> H         -0.25399       -0.18836       -2.49039
| 11> *
| 12>
| 13> %MaxCore 64000
| 14>
| 15> %pal nprocs 4
| 16> end
| 17>
| 18> %scf
| 19>   MaxIter 150
| 20> end
| 21>
| 22>
| 23>                          ****END OF INPUT****

CARTESIAN COORDINATES (ANGSTROEM)
---------------------------------
  C     -0.903490   -0.873940   -1.987390
  C     -0.960150   -0.522360   -0.489870
  H     -1.690390   -1.208130   -0.021680
  H     -1.414490    0.486330   -0.406680
  O      0.261700   -0.580310    0.138610
  H     -1.885680   -0.807740   -2.406700
  H     -0.531430   -1.870130   -2.106050
  H     -0.253990   -0.188360   -2.490390

 Total Charge           Charge          ....   -1
 Multiplicity           Mult            ....    1
 Number of Electrons    NEL             ....   26
 Basis Dimension        Dim             ....  123

ORBITAL ENERGIES
----------------

  NO   OCC          E(Eh)            E(eV)
   0   2.0000     -18.610096      -506.4065
   1   2.0000      -9.917325      -269.8641
   2   2.0000      -9.897985      -269.3379
   3   2.0000      -0.826390       -22.4872
   4   2.0000      -0.688956       -18.7474
   5   2.0000      -0.521078       -14.1792
   6   2.0000      -0.389046       -10.5865
   7   2.0000      -0.362112        -9.8536
   8   2.0000      -0.301187        -8.1957
   9   2.0000      -0.281846        -7.6694
  10   2.0000      -0.227857        -6.2003
  11   2.0000      -0.079243        -2.1563
  12   2.0000      -0.075991        -2.0678
  13   0.0000       0.297450         8.0940
  14   0.0000       0.336818         9.1653
  15   0.0000       0.362610         9.8671
  16   0.0000       0.362957         9.8766
  17   0.0000       0.397826        10.8254

MULLIKEN ATOMIC CHARGES
-----------------------
   0 C :   -0.304661
   1 C :   -0.021350
   2 H :   -0.030918
   3 H :   -0.032730
   4 O :   -0.788261
   5 H :    0.029765
   6 H :    0.074023
   7 H :    0.074132
Sum of atomic charges:   -1.0000000

LOEWDIN ATOMIC CHARGES
----------------------
   0 C :   -0.383566
   1 C :   -0.572674
   2 H :    0.065816
   3 H :    0.065577
   4 O :   -0.458495
   5 H :    0.086699
   6 H :    0.098316
   7 H :    0.098328

  Mayer bond orders larger than 0.100000
B(  0-C ,  1-C ) :   0.9008 B(  0-C ,  4-O ) :  -0.1458 B(  0-C ,  5-H ) :   0.9556
B(  0-C ,  6-H ) :   0.9765 B(  0-C ,  7-H ) :   0.9765 B(  1-C ,  2-H ) :   0.9502
B(  1-C ,  3-H ) :   0.9495 B(  1-C ,  4-O ) :   1.5758

FINAL SINGLE POINT ENERGY      -154.002209431506

DIPOLE MOMENT
-------------
                                X             Y             Z
Electronic contribution:      1.88619       0.16192       2.08757
Nuclear contribution   :     -2.90669      -0.27617      -3.31210
                        -----------------------------------------
Total Dipole Moment    :     -1.02051      -0.11425      -1.22453
                        -----------------------------------------
Magnitude (a.u.)       :      1.59812
Magnitude (Debye)      :      4.06209

Rotational constants in cm-1:     1.291883     0.321656     0.284469
Rotational constants in MHz : 38729.676116  9643.011620  8528.167295

                             ****ORCA TERMINATED NORMALLY****
TOTAL RUN TIME: 0 days 0 hours 0 minutes 12 seconds 995 msec
