                         Program Version 5.0.0 -  RELEASE  -
|  1> !LC-PBE RIJCOSX def2-TZVP def2/J TightSCF
|  2> *xyz 1 1
|  3> C          4.36645       -0.13321       -1.41606
|  4> C          4.50829       -0.93187       -2.72425
|  5> C          3.05650       -0.32080       -0.70738
|  6> N          2.38983        0.71129       -0.24391
|  7> N          2.51600       -1.50772       -0.55023
|  8> H          2.96768       -2.32291       -0.95631
|  9> H          1.54987       -1.49063       -0.24988
| 10> H          2.74307        1.64947       -0.41280
| 11> H          1.44036        0.50278        0.03703
| 12> H          4.48784        0.93300       -1.61157
| 13> H          5.16967       -0.41443       -0.72982
| 14> H          5.46700       -0.73824       -3.15818
| 15> H          3.74074       -0.63528       -3.40821
| 16> H          4.41574       -1.97727       -2.51573
| 17> *
| 18>
| 19> %MaxCore 64000
| 20>
| 21> %pal nprocs 4
| 22> end
| 23>
| 24> %scf
| 25>   MaxIter 150
| 26> end
| 27>
| 28>
| 29>                          ****END OF INPUT****

CARTESIAN COORDINATES (ANGSTROEM)
---------------------------------
  C      4.366450   -0.133210   -1.416060
  C      4.508290   -0.931870   -2.724250
  C      3.056500   -0.320800   -0.707380
  N      2.389830    0.711290   -0.243910
  N      2.516000   -1.507720   -0.550230
  H      2.967680   -2.322910   -0.956310
  H      1.549870   -1.490630   -0.249880
  H      2.743070    1.649470   -0.412800
  H      1.440360    0.502780    0.037030
  H      4.487840    0.933000   -1.611570
  H      5.169670   -0.414430   -0.729820
  H      5.467000   -0.738240   -3.158180
  H      3.740740   -0.635280   -3.408210
  H      4.415740   -1.977270   -2.515730

 Total Charge           Charge          ....    1
 Multiplicity           Mult            ....    1
 Number of Electrons    NEL             ....   40
 Basis Dimension        Dim             ....  209

ORBITAL ENERGIES
----------------

  NO   OCC          E(Eh)            E(eV)
   0   2.0000     -14.461132      -393.5074
   1   2.0000     -14.459729      -393.4692
   2   2.0000     -10.446713      -284.2695
   3   2.0000     -10.318631      -280.7842
   4   2.0000     -10.272371      -279.5254
   5   2.0000      -1.392197       -37.8836
   6   2.0000      -1.276337       -34.7309
   7   2.0000      -1.149754       -31.2864
   8   2.0000      -1.025202       -27.8972
   9   2.0000      -0.975732       -26.5510
  10   2.0000      -0.920560       -25.0497
  11   2.0000      -0.905588       -24.6423
  12   2.0000      -0.843042       -22.9403
  13   2.0000      -0.813174       -22.1276
  14   2.0000      -0.770015       -20.9532
  15   2.0000      -0.745848       -20.2956
  16   2.0000      -0.689539       -18.7633
  17   2.0000      -0.673875       -18.3371
  18   2.0000      -0.657627       -17.8950
  19   2.0000      -0.624980       -17.0066
  20   0.0000      -0.117512        -3.1977
  21   0.0000      -0.073787        -2.0078
  22   0.0000      -0.029624        -0.8061
  23   0.0000      -0.027755        -0.7552
  24   0.0000       0.009823         0.2673

MULLIKEN ATOMIC CHARGES
-----------------------
   0 C :   -0.317529
   1 C :   -0.454079
   2 C :    0.287884
   3 N :   -0.337651
   4 N :   -0.329928
   5 H :    0.319685
   6 H :    0.289136
   7 H :    0.322185
   8 H :    0.286649
   9 H :    0.175186
  10 H :    0.222361
  11 H :    0.205755
  12 H :    0.186317
  13 H :    0.144031
Sum of atomic charges:    1.0000000

LOEWDIN ATOMIC CHARGES
----------------------
   0 C :   -0.233851
   1 C :   -0.284725
   2 C :   -0.295364
   3 N :    0.104250
   4 N :    0.105041
   5 H :    0.213983
   6 H :    0.206111
   7 H :    0.216191
   8 H :    0.205509
   9 H :    0.167512
  10 H :    0.182977
  11 H :    0.147196
  12 H :    0.138316
  13 H :    0.126854

  Mayer bond orders larger than 0.100000
B(  0-C ,  1-C ) :   0.9627 B(  0-C ,  2-C ) :   0.9575 B(  0-C ,  9-H ) :   0.9657
B(  0-C , 10-H ) :   0.9229 B(  1-C , 11-H ) :   0.9599 B(  1-C , 12-H ) :   0.9568
B(  1-C , 13-H ) :   0.9634 B(  2-C ,  3-N ) :   1.4685 B(  2-C ,  4-N ) :   1.4406
B(  3-N ,  7-H ) :   0.8766 B(  3-N ,  8-H ) :   0.8912 B(  4-N ,  5-H ) :   0.8822
B(  4-N ,  6-H ) :   0.8896

FINAL SINGLE POINT ENERGY      -228.361741377257

DIPOLE MOMENT
-------------
                                X             Y             Z
Electronic contribution:     -2.67203       0.63883       3.11256
Nuclear contribution   :      1.78847      -0.48174      -2.67127
                        -----------------------------------------
Total Dipole Moment    :     -0.88356       0.15710       0.44129
                        -----------------------------------------
Magnitude (a.u.)       :      1.00004
Magnitude (Debye)      :      2.54191

Rotational constants in cm-1:     0.286883     0.123210     0.094446
Rotational constants in MHz :  8600.540572  3693.747366  2831.415242

                             ****ORCA TERMINATED NORMALLY****
TOTAL RUN TIME: 0 days 0 hours 0 minutes 26 seconds 887 msec
