                         Program Version 5.0.0 -  RELEASE  -
|  1> !LC-PBE RIJCOSX def2-TZVP def2/J TightSCF
|  2> *xyz 0 1
|  3> C         -0.90349       -0.87394       -1.98739
|  4> C         -0.96015       -0.52236       -0.48987
|  5> H         -1.69039       -1.20813       -0.02168
|  6> H         -1.41449        0.48633       -0.40668
|  7> F          0.26170       -0.58031        0.13861
|  8> H         -1.88568       -0.80774       -2.40670
|  9> H         -0.53143       -1.87013       -2.10605
| 10> H         -0.25399       -0.18836       -2.49039
| 11> *
| 12>
| 13> %MaxCore 64000
| 14>
| 15> %pal nprocs 4
| 16> end
| 17>
| 18> %scf
| 19>   MaxIter 150
| 20> end
| 21>
| 22>
| 23>                          ****END OF INPUT****

CARTESIAN COORDINATES (ANGSTROEM)
---------------------------------
  C     -0.903490   -0.873940   -1.987390
  C     -0.960150   -0.522360   -0.489870
  H     -1.690390   -1.208130   -0.021680
  H     -1.414490    0.486330   -0.406680
  F      0.261700   -0.580310    0.138610
  H     -1.885680   -0.807740   -2.406700
  H     -0.531430   -1.870130   -2.106050
  H     -0.253990   -0.188360   -2.490390

 Total Charge           Charge          ....    0
 Multiplicity           Mult            ....    1
 Number of Electrons    NEL             ....   26
 Basis Dimension        Dim             ....  123

ORBITAL ENERGIES
----------------

  NO   OCC          E(Eh)            E(eV)
   0   2.0000     -24.471726      -665.9095
   1   2.0000     -10.194404      -277.4038
   2   2.0000     -10.109102      -275.0826
   3   2.0000      -1.349916       -36.7331
   4   2.0000      -0.941004       -25.6060
   5   2.0000      -0.794148       -21.6099
   6   2.0000      -0.653939       -17.7946
   7   2.0000      -0.647078       -17.6079
   8   2.0000      -0.603960       -16.4346
   9   2.0000      -0.545665       -14.8483
  10   2.0000      -0.537270       -14.6198
  11   2.0000      -0.469552       -12.7772
  12   2.0000      -0.461658       -12.5624
  13   0.0000       0.125799         3.4232
  14   0.0000       0.165613         4.5066
  15   0.0000       0.185697         5.0531
  16   0.0000       0.191497         5.2109
  17   0.0000       0.200337         5.4515

MULLIKEN ATOMIC CHARGES
-----------------------
   0 C :   -0.426037
   1 C :   -0.037703
   2 H :    0.118369
   3 H :    0.118066
   4 F :   -0.214999
   5 H :    0.143475
   6 H :    0.149365
   7 H :    0.149464
Sum of atomic charges:   -0.0000000

LOEWDIN ATOMIC CHARGES
----------------------
   0 C :   -0.331059
   1 C :   -0.388092
   2 H :    0.124251
   3 H :    0.124925
   4 F :    0.092828
   5 H :    0.128667
   6 H :    0.124238
   7 H :    0.124242

  Mayer bond orders larger than 0.100000
B(  0-C ,  1-C ) :   0.9830 B(  0-C ,  5-H ) :   0.9573 B(  0-C ,  6-H ) :   0.9674
B(  0-C ,  7-H ) :   0.9675 B(  1-C ,  2-H ) :   0.9738 B(  1-C ,  3-H ) :   0.9736
B(  1-C ,  4-F ) :   1.0163

FINAL SINGLE POINT ENERGY      -178.631722072064

DIPOLE MOMENT
-------------
                                X             Y             Z
Electronic contribution:      3.19486       0.37813       3.96990
Nuclear contribution   :     -3.84149      -0.36812      -4.38946
                        -----------------------------------------
Total Dipole Moment    :     -0.64663       0.01001      -0.41956
                        -----------------------------------------
Magnitude (a.u.)       :      0.77088
Magnitude (Debye)      :      1.95942

Rotational constants in cm-1:     1.270659     0.299196     0.265842
Rotational constants in MHz : 38093.410361  8969.665806  7969.741481

                             ****ORCA TERMINATED NORMALLY****
TOTAL RUN TIME: 0 days 0 hours 0 minutes 13 seconds 808 msec
