                         Program Version 5.0.0 -  RELEASE  -
|  1> !LC-PBE RIJCOSX def2-TZVP def2/J TightSCF
|  2> *xyz 0 1
|  3> C          4.36645       -0.13321       -1.41606
|  4> C          4.50829       -0.93187       -2.72425
|  5> C          3.05650       -0.32080       -0.70738
|  6> C          2.38983        0.71129       -0.24391
|  7> N          2.51600       -1.50772       -0.55023
|  8> H          2.96768       -2.32291       -0.95631
|  9> H          1.54987       -1.49063       -0.24988
| 10> H          2.74307        1.64947       -0.41280
| 11> H          1.44036        0.50278        0.03703
| 12> H          4.48784        0.93300       -1.61157
| 13> H          5.16967       -0.41443       -0.72982
| 14> H          5.46700       -0.73824       -3.15818
| 15> H          3.74074       -0.63528       -3.40821
| 16> H          4.41574       -1.97727       -2.51573
| 17> *
| 18>
| 19> %MaxCore 64000
| 20>
| 21> %pal nprocs 4
| 22> end
| 23>
| 24> %scf
| 25>   MaxIter 150
| 26> end
| 27>
| 28>
| 29>                          ****END OF INPUT****

CARTESIAN COORDINATES (ANGSTROEM)
---------------------------------
  C      4.366450   -0.133210   -1.416060
  C      4.508290   -0.931870   -2.724250
  C      3.056500   -0.320800   -0.707380
  C      2.389830    0.711290   -0.243910
  N      2.516000   -1.507720   -0.550230
  H      2.967680   -2.322910   -0.956310
  H      1.549870   -1.490630   -0.249880
  H      2.743070    1.649470   -0.412800
  H      1.440360    0.502780    0.037030
  H      4.487840    0.933000   -1.611570
  H      5.169670   -0.414430   -0.729820
  H      5.467000   -0.738240   -3.158180
  H      3.740740   -0.635280   -3.408210
  H      4.415740   -1.977270   -2.515730

 Total Charge           Charge          ....    0
 Multiplicity           Mult            ....    1
 Number of Electrons    NEL             ....   40
 Basis Dimension        Dim             ....  209

ORBITAL ENERGIES
----------------

  NO   OCC          E(Eh)            E(eV)
   0   2.0000     -14.209437      -386.6585
   1   2.0000     -10.136755      -275.8351
   2   2.0000     -10.117105      -275.3004
   3   2.0000     -10.105253      -274.9779
   4   2.0000     -10.041765      -273.2503
   5   2.0000      -1.108206       -30.1558
   6   2.0000      -0.955415       -25.9982
   7   2.0000      -0.893393       -24.3105
   8   2.0000      -0.800428       -21.7808
   9   2.0000      -0.714051       -19.4303
  10   2.0000      -0.681664       -18.5490
  11   2.0000      -0.617223       -16.7955
  12   2.0000      -0.582607       -15.8535
  13   2.0000      -0.572221       -15.5709
  14   2.0000      -0.527738       -14.3605
  15   2.0000      -0.519497       -14.1362
  16   2.0000      -0.488377       -13.2894
  17   2.0000      -0.476156       -12.9569
  18   2.0000      -0.457435       -12.4474
  19   2.0000      -0.308144        -8.3850
  20   0.0000       0.110881         3.0172
  21   0.0000       0.130990         3.5644
  22   0.0000       0.155279         4.2253
  23   0.0000       0.158523         4.3136
  24   0.0000       0.177245         4.8231

MULLIKEN ATOMIC CHARGES
-----------------------
   0 C :   -0.266803
   1 C :   -0.438313
   2 C :    0.187466
   3 C :   -0.476505
   4 N :   -0.456814
   5 H :    0.247532
   6 H :    0.250079
   7 H :    0.125483
   8 H :    0.102632
   9 H :    0.143603
  10 H :    0.150032
  11 H :    0.154846
  12 H :    0.158213
  13 H :    0.118549
Sum of atomic charges:   -0.0000000

LOEWDIN ATOMIC CHARGES
----------------------
   0 C :   -0.251021
   1 C :   -0.317617
   2 C :   -0.380418
   3 C :   -0.290304
   4 N :   -0.010770
   5 H :    0.173953
   6 H :    0.184117
   7 H :    0.110994
   8 H :    0.106062
   9 H :    0.155238
  10 H :    0.151181
  11 H :    0.125091
  12 H :    0.127649
  13 H :    0.115844

  Mayer bond orders larger than 0.100000
B(  0-C ,  1-C ) :   0.9510 B(  0-C ,  2-C ) :   0.9409 B(  0-C ,  9-H ) :   0.9808
B(  0-C , 10-H ) :   0.9705 B(  1-C , 11-H ) :   0.9796 B(  1-C , 12-H ) :   0.9681
B(  1-C , 13-H ) :   0.9763 B(  2-C ,  3-C ) :   1.7670 B(  2-C ,  4-N ) :   1.1484
B(  3-C ,  7-H ) :   1.0019 B(  3-C ,  8-H ) :   0.9944 B(  4-N ,  5-H ) :   0.9284
B(  4-N ,  6-H ) :   0.9190

FINAL SINGLE POINT ENERGY      -211.906800868720

DIPOLE MOMENT
-------------
                                X             Y             Z
Electronic contribution:     -1.47452      -0.44594       2.04878
Nuclear contribution   :      1.56827      -0.21459      -2.46657
                        -----------------------------------------
Total Dipole Moment    :      0.09374      -0.66053      -0.41779
                        -----------------------------------------
Magnitude (a.u.)       :      0.78717
Magnitude (Debye)      :      2.00083

Rotational constants in cm-1:     0.294070     0.127722     0.097792
Rotational constants in MHz :  8815.983970  3829.010547  2931.715816

                             ****ORCA TERMINATED NORMALLY****
TOTAL RUN TIME: 0 days 0 hours 0 minutes 31 seconds 852 msec
