                         Program Version 5.0.0 -  RELEASE  -
|  1> !LC-PBE RIJCOSX def2-TZVP def2/J TightSCF
|  2> *xyz 0 1
|  3> C          4.36645       -0.13321       -1.41606
|  4> C          4.50829       -0.93187       -2.72425
|  5> C          3.05650       -0.32080       -0.70738
|  6> N          2.38983        0.71129       -0.24391
|  7> C          2.51600       -1.50772       -0.55023
|  8> H          2.96768       -2.32291       -0.95631
|  9> H          1.54987       -1.49063       -0.24988
| 10> H          2.74307        1.64947       -0.41280
| 11> H          1.44036        0.50278        0.03703
| 12> H          4.48784        0.93300       -1.61157
| 13> H          5.16967       -0.41443       -0.72982
| 14> H          5.46700       -0.73824       -3.15818
| 15> H          3.74074       -0.63528       -3.40821
| 16> H          4.41574       -1.97727       -2.51573
| 17> *
| 18>
| 19> %MaxCore 64000
| 20>
| 21> %pal nprocs 4
| 22> end
| 23>
| 24> %scf
| 25>   MaxIter 150
| 26> end
| 27>
| 28>
| 29>                          ****END OF INPUT****

CARTESIAN COORDINATES (ANGSTROEM)
---------------------------------
  C      4.366450   -0.133210   -1.416060
  C      4.508290   -0.931870   -2.724250
  C      3.056500   -0.320800   -0.707380
  N      2.389830    0.711290   -0.243910
  C      2.516000   -1.507720   -0.550230
  H      2.967680   -2.322910   -0.956310
  H      1.549870   -1.490630   -0.249880
  H      2.743070    1.649470   -0.412800
  H      1.440360    0.502780    0.037030
  H      4.487840    0.933000   -1.611570
  H      5.169670   -0.414430   -0.729820
  H      5.467000   -0.738240   -3.158180
  H      3.740740   -0.635280   -3.408210
  H      4.415740   -1.977270   -2.515730

 Total Charge           Charge          ....    0
 Multiplicity           Mult            ....    1
 Number of Electrons    NEL             ....   40
 Basis Dimension        Dim             ....  209

ORBITAL ENERGIES
----------------

  NO   OCC          E(Eh)            E(eV)
   0   2.0000     -14.210027      -386.6745
   1   2.0000     -10.137020      -275.8423
   2   2.0000     -10.118331      -275.3338
   3   2.0000     -10.098658      -274.7985
   4   2.0000     -10.039867      -273.1987
   5   2.0000      -1.108469       -30.1630
   6   2.0000      -0.957385       -26.0518
   7   2.0000      -0.880731       -23.9659
   8   2.0000      -0.811046       -22.0697
   9   2.0000      -0.703774       -19.1507
  10   2.0000      -0.678564       -18.4647
  11   2.0000      -0.624905       -17.0045
  12   2.0000      -0.596415       -16.2293
  13   2.0000      -0.545406       -14.8413
  14   2.0000      -0.526943       -14.3388
  15   2.0000      -0.517585       -14.0842
  16   2.0000      -0.491020       -13.3613
  17   2.0000      -0.470874       -12.8131
  18   2.0000      -0.459997       -12.5172
  19   2.0000      -0.306572        -8.3423
  20   0.0000       0.114806         3.1240
  21   0.0000       0.127271         3.4632
  22   0.0000       0.154021         4.1911
  23   0.0000       0.157406         4.2832
  24   0.0000       0.181242         4.9318

MULLIKEN ATOMIC CHARGES
-----------------------
   0 C :   -0.263552
   1 C :   -0.442548
   2 C :    0.199120
   3 N :   -0.462634
   4 C :   -0.470715
   5 H :    0.116707
   6 H :    0.104381
   7 H :    0.248149
   8 H :    0.248124
   9 H :    0.118020
  10 H :    0.158804
  11 H :    0.146683
  12 H :    0.153270
  13 H :    0.146191
Sum of atomic charges:    0.0000000

LOEWDIN ATOMIC CHARGES
----------------------
   0 C :   -0.251472
   1 C :   -0.309628
   2 C :   -0.378671
   3 N :   -0.012809
   4 C :   -0.292856
   5 H :    0.110019
   6 H :    0.106411
   7 H :    0.174484
   8 H :    0.183556
   9 H :    0.141080
  10 H :    0.156531
  11 H :    0.121671
  12 H :    0.126675
  13 H :    0.125010

  Mayer bond orders larger than 0.100000
B(  0-C ,  1-C ) :   0.9701 B(  0-C ,  2-C ) :   0.9107 B(  0-C ,  9-H ) :   0.9883
B(  0-C , 10-H ) :   0.9708 B(  1-C , 11-H ) :   0.9779 B(  1-C , 12-H ) :   0.9717
B(  1-C , 13-H ) :   0.9735 B(  2-C ,  3-N ) :   1.1703 B(  2-C ,  4-C ) :   1.7312
B(  3-N ,  7-H ) :   0.9222 B(  3-N ,  8-H ) :   0.9187 B(  4-C ,  5-H ) :   1.0099
B(  4-C ,  6-H ) :   0.9921

FINAL SINGLE POINT ENERGY      -211.905503498360

DIPOLE MOMENT
-------------
                                X             Y             Z
Electronic contribution:     -1.58996       1.49500       2.33053
Nuclear contribution   :      1.59749      -0.72853      -2.53752
                        -----------------------------------------
Total Dipole Moment    :      0.00753       0.76647      -0.20699
                        -----------------------------------------
Magnitude (a.u.)       :      0.79397
Magnitude (Debye)      :      2.01810

Rotational constants in cm-1:     0.304597     0.124127     0.096828
Rotational constants in MHz :  9131.600925  3721.227051  2902.830760

                             ****ORCA TERMINATED NORMALLY****
TOTAL RUN TIME: 0 days 0 hours 0 minutes 31 seconds 5 msec
