                         Program Version 5.0.0 -  RELEASE  -
|  1> !LC-PBE RIJCOSX def2-TZVP def2/J TightSCF xyzfile
|  2>
|  3> *xyzfile 0 1 D1.xyz
|  4>
|  5> %MaxCore 64000
|  6>
|  7> %pal nprocs 18
|  8> end
|  9>
| 10> %scf
| 11>   MaxIter 150
| 12> end
| 13>
| 14>
| 15>                          ****END OF INPUT****

CARTESIAN COORDINATES (ANGSTROEM)
---------------------------------
  C      4.366454   -0.133215   -1.416062
  C      4.508292   -0.931872   -2.724249
  H      4.753716   -1.972051   -2.488408
  C      3.294164   -0.918214   -3.656570
  H      5.385637   -0.536236   -3.242640
  H      2.483463   -1.477378   -3.185764
  H      3.553092   -1.478495   -4.560331
  C      2.772335    0.460100   -4.051448
  H      2.608762    1.065107   -3.155194
  C      1.465354    0.410537   -4.853644
  H      3.532940    0.988848   -4.635671
  C      0.326171   -0.375613   -4.192580
  H      1.666704   -0.022269   -5.839323
  H      1.138198    1.439246   -5.035449
  C     -0.017405    0.080588   -2.778406
  H      0.585573   -1.439385   -4.168057
  H     -0.560005   -0.311425   -4.831461
  H      0.902090    0.201296   -2.206729
  C     -0.903495   -0.873945   -1.987388
  H     -0.479549    1.074657   -2.811915
  H     -0.502554   -1.892096   -2.081204
  H     -1.917039   -0.895427   -2.406277
  C     -0.960148   -0.522365   -0.489867
  H     -1.690392   -1.208130   -0.021677
  H     -1.414490    0.486329   -0.406677
  F      0.261703   -0.580307    0.138611
  C      3.056503   -0.320797   -0.707384
  C      2.389825    0.711285   -0.243909
  N      2.515999   -1.507721   -0.550229
  H      2.967683   -2.322915   -0.956305
  H      1.549872   -1.490634   -0.249876
  H      2.743071    1.649471   -0.412802
  H      1.440364    0.502778    0.037031
  H      4.487835    0.932997   -1.611569
  H      5.169672   -0.414432   -0.729817

 Total Charge           Charge          ....    0
 Multiplicity           Mult            ....    1
 Number of Electrons    NEL             ....  104
 Basis Dimension        Dim             ....  535

ORBITAL ENERGIES
----------------

  NO   OCC          E(Eh)            E(eV)
   0   2.0000     -24.506221      -666.8482
   1   2.0000     -14.184647      -385.9839
   2   2.0000     -10.207385      -277.7571
   3   2.0000     -10.127739      -275.5898
   4   2.0000     -10.119361      -275.3618
   5   2.0000     -10.108382      -275.0630
   6   2.0000     -10.107486      -275.0387
   7   2.0000     -10.105161      -274.9754
   8   2.0000     -10.104927      -274.9691
   9   2.0000     -10.103083      -274.9189
  10   2.0000     -10.100737      -274.8550
  11   2.0000     -10.098565      -274.7959
  12   2.0000     -10.016597      -272.5655
  13   2.0000      -1.392763       -37.8990
  14   2.0000      -1.090743       -29.6806
  15   2.0000      -1.002228       -27.2720
  16   2.0000      -0.976999       -26.5855
  17   2.0000      -0.948309       -25.8048
  18   2.0000      -0.905335       -24.6354
  19   2.0000      -0.876485       -23.8504
  20   2.0000      -0.854516       -23.2526
  21   2.0000      -0.802595       -21.8397
  22   2.0000      -0.777827       -21.1658
  23   2.0000      -0.746848       -20.3228
  24   2.0000      -0.711961       -19.3734
  25   2.0000      -0.694860       -18.9081
  26   2.0000      -0.686514       -18.6810
  27   2.0000      -0.676744       -18.4151
  28   2.0000      -0.666606       -18.1393
  29   2.0000      -0.636760       -17.3271
  30   2.0000      -0.620040       -16.8721
  31   2.0000      -0.606176       -16.4949
  32   2.0000      -0.587227       -15.9793
  33   2.0000      -0.580753       -15.8031
  34   2.0000      -0.570061       -15.5121
  35   2.0000      -0.563870       -15.3437
  36   2.0000      -0.536371       -14.5954
  37   2.0000      -0.525923       -14.3111
  38   2.0000      -0.514987       -14.0135
  39   2.0000      -0.506534       -13.7835
  40   2.0000      -0.499259       -13.5855
  41   2.0000      -0.488389       -13.2897
  42   2.0000      -0.482880       -13.1398
  43   2.0000      -0.471186       -12.8216
  44   2.0000      -0.467716       -12.7272
  45   2.0000      -0.457729       -12.4554
  46   2.0000      -0.441465       -12.0129
  47   2.0000      -0.438985       -11.9454
  48   2.0000      -0.428849       -11.6696
  49   2.0000      -0.425667       -11.5830
  50   2.0000      -0.423479       -11.5235
  51   2.0000      -0.289128        -7.8676
  52   0.0000       0.109810         2.9881
  53   0.0000       0.120389         3.2760
  54   0.0000       0.127238         3.4623
  55   0.0000       0.135459         3.6860
  56   0.0000       0.141398         3.8476

MULLIKEN ATOMIC CHARGES
-----------------------
   0 C :   -0.285735
   1 C :   -0.367349
   2 H :    0.167980
   3 C :   -0.271247
   4 H :    0.151945
   5 H :    0.142794
   6 H :    0.150273
   7 C :   -0.353332
   8 H :    0.186475
   9 C :   -0.234633
  10 H :    0.149695
  11 C :   -0.365695
  12 H :    0.148001
  13 H :    0.147327
  14 C :   -0.251156
  15 H :    0.166569
  16 H :    0.150388
  17 H :    0.119619
  18 C :   -0.310911
  19 H :    0.148464
  20 H :    0.155391
  21 H :    0.156210
  22 C :   -0.051589
  23 H :    0.151474
  24 H :    0.147007
  25 F :   -0.217867
  26 C :    0.072993
  27 C :   -0.508950
  28 N :   -0.437500
  29 H :    0.246357
  30 H :    0.263084
  31 H :    0.123493
  32 H :    0.173980
  33 H :    0.173114
  34 H :    0.163334
Sum of atomic charges:   -0.0000000

LOEWDIN ATOMIC CHARGES
----------------------
   0 C :   -0.233487
   1 C :   -0.284903
   2 H :    0.140752
   3 C :   -0.287346
   4 H :    0.146312
   5 H :    0.142077
   6 H :    0.144273
   7 C :   -0.285036
   8 H :    0.149943
   9 C :   -0.283089
  10 H :    0.142847
  11 C :   -0.289983
  12 H :    0.143831
  13 H :    0.144397
  14 C :   -0.286601
  15 H :    0.142720
  16 H :    0.142352
  17 H :    0.157119
  18 C :   -0.295040
  19 H :    0.145262
  20 H :    0.147106
  21 H :    0.151549
  22 C :   -0.354406
  23 H :    0.134560
  24 H :    0.138469
  25 F :    0.148251
  26 C :   -0.392116
  27 C :   -0.304060
  28 N :   -0.010639
  29 H :    0.170129
  30 H :    0.160486
  31 H :    0.106488
  32 H :    0.097743
  33 H :    0.156781
  34 H :    0.153260

  Mayer bond orders larger than 0.100000
B(  0-C ,  1-C ) :   0.9020 B(  0-C , 26-C ) :   0.9079 B(  0-C , 33-H ) :   0.9912
B(  0-C , 34-H ) :   0.9781 B(  1-C ,  2-H ) :   1.0036 B(  1-C ,  3-C ) :   0.9181
B(  1-C ,  4-H ) :   0.9791 B(  3-C ,  5-H ) :   0.9802 B(  3-C ,  6-H ) :   0.9757
B(  3-C ,  7-C ) :   0.8794 B(  7-C ,  8-H ) :   0.9812 B(  7-C ,  9-C ) :   0.9389
B(  7-C , 10-H ) :   0.9768 B(  9-C , 11-C ) :   0.9425 B(  9-C , 12-H ) :   0.9879
B(  9-C , 13-H ) :   0.9892 B( 11-C , 14-C ) :   0.9177 B( 11-C , 15-H ) :   0.9908
B( 11-C , 16-H ) :   0.9814 B( 14-C , 17-H ) :   0.9786 B( 14-C , 18-C ) :   0.9277
B( 14-C , 19-H ) :   0.9730 B( 18-C , 20-H ) :   0.9742 B( 18-C , 21-H ) :   0.9585
B( 18-C , 22-C ) :   0.9745 B( 22-C , 23-H ) :   0.9807 B( 22-C , 24-H ) :   0.9800
B( 22-C , 25-F ) :   0.9177 B( 26-C , 27-C ) :   1.7495 B( 26-C , 28-N ) :   1.1487
B( 27-C , 31-H ) :   1.0112 B( 27-C , 32-H ) :   0.9778 B( 28-N , 29-H ) :   0.9261
B( 28-N , 30-H ) :   0.8840

FINAL SINGLE POINT ENERGY      -585.264562686070

DIPOLE MOMENT
-------------
                                X             Y             Z
Electronic contribution:     -2.71579      -1.61540      10.40380
Nuclear contribution   :      1.82572       1.04089     -11.09065
                        -----------------------------------------
Total Dipole Moment    :     -0.89008      -0.57450      -0.68685
                        -----------------------------------------
Magnitude (a.u.)       :      1.26256
Magnitude (Debye)      :      3.20917

Rotational constants in cm-1:     0.028436     0.022359     0.014416
Rotational constants in MHz :   852.496561   670.291843   432.183951

                             ****ORCA TERMINATED NORMALLY****
TOTAL RUN TIME: 0 days 0 hours 1 minutes 21 seconds 316 msec
