                         Program Version 5.0.0 -  RELEASE  -
|  1> !M062X D3Zero RIJCOSX def2-SVPD def2/J TightSCF
|  2> *xyz -1 1
|  3> C          4.90646       -3.10282       -5.95484
|  4> C          3.51177       -2.80621       -6.49228
|  5> H          2.73604       -3.37345       -5.97374
|  6> H          3.44490       -3.04083       -7.55528
|  7> S          3.00462       -1.09621       -6.38926
|  8> O          4.12886       -0.32965       -6.95372
|  9> O          1.78128       -1.00078       -7.13640
| 10> C          5.02498       -3.02568       -4.43762
| 11> H          5.20153       -4.10021       -6.29691
| 12> H          5.60592       -2.39782       -6.41337
| 13> O          2.85155       -0.78368       -4.95679
| 14> H          4.73604       -2.05011       -4.10644
| 15> H          6.03776       -3.21492       -4.14890
| 16> H          4.38436       -3.75784       -3.99214
| 17> *
| 18>
| 19> %MaxCore 64000
| 20>
| 21> %pal nprocs 8
| 22> end
| 23>
| 24> %scf
| 25>   MaxIter 150
| 26> end
| 27>
| 28>
| 29>                          ****END OF INPUT****

CARTESIAN COORDINATES (ANGSTROEM)
---------------------------------
  C      4.906460   -3.102820   -5.954840
  C      3.511770   -2.806210   -6.492280
  H      2.736040   -3.373450   -5.973740
  H      3.444900   -3.040830   -7.555280
  S      3.004620   -1.096210   -6.389260
  O      4.128860   -0.329650   -6.953720
  O      1.781280   -1.000780   -7.136400
  C      5.024980   -3.025680   -4.437620
  H      5.201530   -4.100210   -6.296910
  H      5.605920   -2.397820   -6.413370
  O      2.851550   -0.783680   -4.956790
  H      4.736040   -2.050110   -4.106440
  H      6.037760   -3.214920   -4.148900
  H      4.384360   -3.757840   -3.992140

 Total Charge           Charge          ....   -1
 Multiplicity           Mult            ....    1
 Number of Electrons    NEL             ....   66
 Basis Dimension        Dim             ....  212

ORBITAL ENERGIES
----------------

  NO   OCC          E(Eh)            E(eV)
   0   2.0000     -89.938346     -2447.3468
   1   2.0000     -19.422228      -528.5057
   2   2.0000     -19.411323      -528.2090
   3   2.0000     -19.410720      -528.1925
   4   2.0000     -10.421061      -283.5715
   5   2.0000     -10.416157      -283.4380
   6   2.0000     -10.404241      -283.1138
   7   2.0000      -8.261719      -224.8128
   8   2.0000      -6.187028      -168.3576
   9   2.0000      -6.186919      -168.3546
  10   2.0000      -6.186516      -168.3436
  11   2.0000      -1.049654       -28.5625
  12   2.0000      -0.903793       -24.5935
  13   2.0000      -0.882791       -24.0220
  14   2.0000      -0.751835       -20.4585
  15   2.0000      -0.656395       -17.8614
  16   2.0000      -0.553155       -15.0521
  17   2.0000      -0.464916       -12.6510
  18   2.0000      -0.409854       -11.1527
  19   2.0000      -0.394409       -10.7324
  20   2.0000      -0.369561       -10.0563
  21   2.0000      -0.355308        -9.6684
  22   2.0000      -0.343890        -9.3577
  23   2.0000      -0.328738        -8.9454
  24   2.0000      -0.288817        -7.8591
  25   2.0000      -0.278022        -7.5654
  26   2.0000      -0.267426        -7.2770
  27   2.0000      -0.227020        -6.1775
  28   2.0000      -0.226032        -6.1506
  29   2.0000      -0.187721        -5.1082
  30   2.0000      -0.175679        -4.7805
  31   2.0000      -0.169998        -4.6259
  32   2.0000      -0.137974        -3.7545
  33   0.0000       0.152470         4.1489
  34   0.0000       0.171996         4.6802
  35   0.0000       0.175204         4.7675
  36   0.0000       0.186289         5.0692
  37   0.0000       0.201602         5.4859

MULLIKEN ATOMIC CHARGES
-----------------------
   0 C :   -0.233796
   1 C :    0.030429
   2 H :   -0.038919
   3 H :   -0.043773
   4 S :    1.451437
   5 O :   -0.854826
   6 O :   -0.847078
   7 C :    0.816719
   8 H :   -0.163218
   9 H :   -0.024590
  10 O :   -0.862377
  11 H :   -0.169947
  12 H :   -0.060384
  13 H :    0.000323
Sum of atomic charges:   -1.0000000

LOEWDIN ATOMIC CHARGES
----------------------
   0 C :   -0.093404
   1 C :   -0.098559
   2 H :    0.010249
   3 H :    0.005305
   4 S :    0.899188
   5 O :   -0.599188
   6 O :   -0.583853
   7 C :    0.121074
   8 H :    0.007334
   9 H :    0.015405
  10 O :   -0.597832
  11 H :   -0.034411
  12 H :   -0.030553
  13 H :   -0.020757

  Mayer bond orders larger than 0.100000
B(  0-C ,  1-C ) :   1.2001 B(  0-C ,  3-H ) :   0.1135 B(  0-C ,  7-C ) :   1.2330
B(  0-C ,  8-H ) :   0.9232 B(  0-C ,  9-H ) :   0.9235 B(  0-C , 11-H ) :   0.2598
B(  0-C , 12-H ) :   0.2077 B(  0-C , 13-H ) :   0.2135 B(  1-C ,  2-H ) :   0.9472
B(  1-C ,  3-H ) :   0.9568 B(  1-C ,  4-S ) :   0.9127 B(  1-C ,  8-H ) :   0.1109
B(  1-C ,  9-H ) :   0.1437 B(  4-S ,  5-O ) :   1.2354 B(  4-S ,  6-O ) :   1.3001
B(  4-S , 10-O ) :   1.2217 B(  7-C , 11-H ) :   0.8174 B(  7-C , 12-H ) :   0.7485
B(  7-C , 13-H ) :   0.7329 B( 11-H , 13-H ) :   0.1060

Dispersion correction           -0.000285677
FINAL SINGLE POINT ENERGY      -741.893611421710

DIPOLE MOMENT
-------------
                                X             Y             Z
Electronic contribution:     -6.16951       7.86215      -3.68073
Nuclear contribution   :      7.19636      -9.97366       3.94889
                        -----------------------------------------
Total Dipole Moment    :      1.02685      -2.11150       0.26816
                        -----------------------------------------
Magnitude (a.u.)       :      2.36321
Magnitude (Debye)      :      6.00681

Rotational constants in cm-1:     0.137066     0.054570     0.051980
Rotational constants in MHz :  4109.139955  1635.961703  1558.315282

                             ****ORCA TERMINATED NORMALLY****
TOTAL RUN TIME: 0 days 0 hours 0 minutes 15 seconds 741 msec
