                         Program Version 5.0.0 -  RELEASE  -
|  1> !M062X D3Zero RIJCOSX def2-SVPD def2/J TightSCF
|  2> *xyz 1 1
|  3> C          4.49059        1.15590       -2.46929
|  4> N          4.30539        1.22276       -3.90832
|  5> C          4.63192        2.24637       -4.67096
|  6> N          4.54169        2.14399       -5.98714
|  7> N          5.08409        3.39358       -4.11855
|  8> H          4.92067        3.57050       -3.13587
|  9> H          5.25465        4.19739       -4.70696
| 10> H          3.82453        0.44911       -4.35093
| 11> H          4.34337        1.24932       -6.41665
| 12> H          4.67671        2.95662       -6.57411
| 13> C          5.94213        0.93950       -2.03689
| 14> H          3.86431        0.32853       -2.13661
| 15> H          4.07623        2.04999       -1.98901
| 16> C          6.55996       -0.35629       -2.55909
| 17> H          5.96798        0.95257       -0.94244
| 18> H          6.54718        1.78833       -2.36885
| 19> H          6.53022       -0.35990       -3.62867
| 20> H          6.00654       -1.19175       -2.18407
| 21> H          7.57588       -0.42487       -2.23029
| 22> *
| 23>
| 24> %MaxCore 64000
| 25>
| 26> %pal nprocs 8
| 27> end
| 28>
| 29> %scf
| 30>   MaxIter 150
| 31> end
| 32>
| 33>
| 34>                          ****END OF INPUT****

CARTESIAN COORDINATES (ANGSTROEM)
---------------------------------
  C      4.490590    1.155900   -2.469290
  N      4.305390    1.222760   -3.908320
  C      4.631920    2.246370   -4.670960
  N      4.541690    2.143990   -5.987140
  N      5.084090    3.393580   -4.118550
  H      4.920670    3.570500   -3.135870
  H      5.254650    4.197390   -4.706960
  H      3.824530    0.449110   -4.350930
  H      4.343370    1.249320   -6.416650
  H      4.676710    2.956620   -6.574110
  C      5.942130    0.939500   -2.036890
  H      3.864310    0.328530   -2.136610
  H      4.076230    2.049990   -1.989010
  C      6.559960   -0.356290   -2.559090
  H      5.967980    0.952570   -0.942440
  H      6.547180    1.788330   -2.368850
  H      6.530220   -0.359900   -3.628670
  H      6.006540   -1.191750   -2.184070
  H      7.575880   -0.424870   -2.230290

 Total Charge           Charge          ....    1
 Multiplicity           Mult            ....    1
 Number of Electrons    NEL             ....   56
 Basis Dimension        Dim             ....  236

ORBITAL ENERGIES
----------------

  NO   OCC          E(Eh)            E(eV)
   0   2.0000     -14.985258      -407.7696
   1   2.0000     -14.984942      -407.7610
   2   2.0000     -14.982128      -407.6844
   3   2.0000     -10.890316      -296.3406
   4   2.0000     -10.754271      -292.6386
   5   2.0000     -10.691146      -290.9209
   6   2.0000     -10.661404      -290.1116
   7   2.0000      -1.317743       -35.8576
   8   2.0000      -1.199585       -32.6424
   9   2.0000      -1.182436       -32.1757
  10   2.0000      -1.028014       -27.9737
  11   2.0000      -0.948659       -25.8143
  12   2.0000      -0.902746       -24.5650
  13   2.0000      -0.865852       -23.5610
  14   2.0000      -0.842476       -22.9249
  15   2.0000      -0.799379       -21.7522
  16   2.0000      -0.762899       -20.7595
  17   2.0000      -0.756982       -20.5985
  18   2.0000      -0.732210       -19.9244
  19   2.0000      -0.698228       -18.9998
  20   2.0000      -0.667104       -18.1528
  21   2.0000      -0.644358       -17.5339
  22   2.0000      -0.612865       -16.6769
  23   2.0000      -0.566638       -15.4190
  24   2.0000      -0.547234       -14.8910
  25   2.0000      -0.546670       -14.8756
  26   2.0000      -0.531804       -14.4711
  27   2.0000      -0.504760       -13.7352
  28   0.0000      -0.131000        -3.5647
  29   0.0000      -0.128816        -3.5053
  30   0.0000      -0.098717        -2.6862
  31   0.0000      -0.090520        -2.4632
  32   0.0000      -0.065704        -1.7879

MULLIKEN ATOMIC CHARGES
-----------------------
   0 C :    0.731202
   1 N :   -0.663149
   2 C :    1.623845
   3 N :   -0.167342
   4 N :   -0.066081
   5 H :    0.007061
   6 H :   -0.167697
   7 H :   -0.141950
   8 H :   -0.039055
   9 H :   -0.037759
  10 C :   -0.376492
  11 H :   -0.281385
  12 H :   -0.005134
  13 C :    0.670704
  14 H :   -0.104304
  15 H :    0.034567
  16 H :   -0.064362
  17 H :    0.081541
  18 H :   -0.034212
Sum of atomic charges:    1.0000000

LOEWDIN ATOMIC CHARGES
----------------------
   0 C :    0.071474
   1 N :    0.035504
   2 C :   -0.021302
   3 N :    0.255213
   4 N :    0.276899
   5 H :    0.018224
   6 H :    0.037134
   7 H :    0.064631
   8 H :    0.043744
   9 H :    0.042866
  10 C :   -0.056052
  11 H :    0.043799
  12 H :    0.029264
  13 C :    0.139089
  14 H :    0.037966
  15 H :    0.014470
  16 H :   -0.023664
  17 H :   -0.006707
  18 H :   -0.002552

  Mayer bond orders larger than 0.100000
B(  0-C ,  1-N ) :   0.8444 B(  0-C ,  7-H ) :  -0.1633 B(  0-C , 10-C ) :   1.1225
B(  0-C , 11-H ) :   0.7809 B(  0-C , 12-H ) :   0.8977 B(  0-C , 15-H ) :   0.1104
B(  1-N ,  2-C ) :   0.8957 B(  1-N ,  3-N ) :   0.3174 B(  1-N ,  4-N ) :   0.2600
B(  1-N ,  7-H ) :   1.3181 B(  1-N , 11-H ) :   0.2342 B(  2-C ,  3-N ) :   0.7183
B(  2-C ,  4-N ) :   0.8565 B(  2-C ,  5-H ) :  -0.1156 B(  2-C ,  6-H ) :  -0.1715
B(  2-C ,  7-H ) :  -0.2475 B(  2-C ,  8-H ) :  -0.1961 B(  2-C ,  9-H ) :  -0.1446
B(  3-N ,  4-N ) :   0.1442 B(  3-N ,  8-H ) :   1.2018 B(  3-N ,  9-H ) :   1.2380
B(  4-N ,  5-H ) :   1.0675 B(  4-N ,  6-H ) :   1.2896 B(  5-H ,  6-H ) :  -0.2154
B(  8-H ,  9-H ) :  -0.1861 B( 10-C , 11-H ) :   0.1220 B( 10-C , 13-C ) :   1.3366
B( 10-C , 14-H ) :   1.0561 B( 10-C , 15-H ) :   0.8953 B( 10-C , 16-H ) :   0.1979
B( 10-C , 17-H ) :   0.1925 B( 10-C , 18-H ) :   0.2128 B( 11-H , 12-H ) :  -0.1398
B( 13-C , 16-H ) :   0.8311 B( 13-C , 17-H ) :   0.7845 B( 13-C , 18-H ) :   0.8138

Dispersion correction           -0.000502271
FINAL SINGLE POINT ENERGY      -323.335529216543

DIPOLE MOMENT
-------------
                                X             Y             Z
Electronic contribution:     -3.25290       3.78311      -4.82259
Nuclear contribution   :      2.46011      -2.82418       3.51638
                        -----------------------------------------
Total Dipole Moment    :     -0.79278       0.95893      -1.30621
                        -----------------------------------------
Magnitude (a.u.)       :      1.80395
Magnitude (Debye)      :      4.58529

Rotational constants in cm-1:     0.152406     0.050160     0.046480
Rotational constants in MHz :  4569.006375  1503.763011  1393.441650

                             ****ORCA TERMINATED NORMALLY****
TOTAL RUN TIME: 0 days 0 hours 0 minutes 19 seconds 120 msec
