                         Program Version 5.0.0 -  RELEASE  -
|  1> !M062X D3Zero RIJCOSX def2-SVPD def2/J TightSCF
|  2> *xyz 0 1
|  3> C          4.90646       -3.10282       -5.95484
|  4> C          3.51177       -2.80621       -6.49228
|  5> H          2.73604       -3.37345       -5.97374
|  6> H          3.44490       -3.04083       -7.55528
|  7> S          3.00462       -1.09621       -6.38926
|  8> F          4.12886       -0.32965       -6.95372
|  9> O          1.78128       -1.00078       -7.13640
| 10> C          5.02498       -3.02568       -4.43762
| 11> H          5.20153       -4.10021       -6.29691
| 12> H          5.60592       -2.39782       -6.41337
| 13> O          2.85155       -0.78368       -4.95679
| 14> H          4.73604       -2.05011       -4.10644
| 15> H          6.03776       -3.21492       -4.14890
| 16> H          4.38436       -3.75784       -3.99214
| 17> *
| 18>
| 19> %MaxCore 64000
| 20>
| 21> %pal nprocs 8
| 22> end
| 23>
| 24> %scf
| 25>   MaxIter 150
| 26> end
| 27>
| 28>
| 29>                          ****END OF INPUT****

CARTESIAN COORDINATES (ANGSTROEM)
---------------------------------
  C      4.906460   -3.102820   -5.954840
  C      3.511770   -2.806210   -6.492280
  H      2.736040   -3.373450   -5.973740
  H      3.444900   -3.040830   -7.555280
  S      3.004620   -1.096210   -6.389260
  F      4.128860   -0.329650   -6.953720
  O      1.781280   -1.000780   -7.136400
  C      5.024980   -3.025680   -4.437620
  H      5.201530   -4.100210   -6.296910
  H      5.605920   -2.397820   -6.413370
  O      2.851550   -0.783680   -4.956790
  H      4.736040   -2.050110   -4.106440
  H      6.037760   -3.214920   -4.148900
  H      4.384360   -3.757840   -3.992140

 Total Charge           Charge          ....    0
 Multiplicity           Mult            ....    1
 Number of Electrons    NEL             ....   66
 Basis Dimension        Dim             ....  212

ORBITAL ENERGIES
----------------

  NO   OCC          E(Eh)            E(eV)
   0   2.0000     -90.196452     -2454.3702
   1   2.0000     -25.365637      -690.2341
   2   2.0000     -19.655451      -534.8520
   3   2.0000     -19.643477      -534.5262
   4   2.0000     -10.616421      -288.8875
   5   2.0000     -10.585777      -288.0536
   6   2.0000     -10.548784      -287.0470
   7   2.0000      -8.520723      -231.8607
   8   2.0000      -6.449062      -175.4879
   9   2.0000      -6.443942      -175.3486
  10   2.0000      -6.442811      -175.3178
  11   2.0000      -1.492273       -40.6068
  12   2.0000      -1.232290       -33.5323
  13   2.0000      -1.125828       -30.6353
  14   2.0000      -0.933780       -25.4094
  15   2.0000      -0.847247       -23.0548
  16   2.0000      -0.797181       -21.6924
  17   2.0000      -0.720062       -19.5939
  18   2.0000      -0.679979       -18.5032
  19   2.0000      -0.671501       -18.2725
  20   2.0000      -0.630968       -17.1695
  21   2.0000      -0.568035       -15.4570
  22   2.0000      -0.566999       -15.4288
  23   2.0000      -0.536054       -14.5868
  24   2.0000      -0.525147       -14.2900
  25   2.0000      -0.507305       -13.8045
  26   2.0000      -0.466818       -12.7028
  27   2.0000      -0.451015       -12.2727
  28   2.0000      -0.442844       -12.0504
  29   2.0000      -0.429970       -11.7001
  30   2.0000      -0.409484       -11.1426
  31   2.0000      -0.392033       -10.6678
  32   2.0000      -0.382985       -10.4216
  33   0.0000       0.010876         0.2960
  34   0.0000       0.037362         1.0167
  35   0.0000       0.041774         1.1367
  36   0.0000       0.043247         1.1768
  37   0.0000       0.066957         1.8220

MULLIKEN ATOMIC CHARGES
-----------------------
   0 C :   -0.221507
   1 C :   -0.031005
   2 H :    0.030256
   3 H :    0.022696
   4 S :    1.589648
   5 F :   -0.438076
   6 O :   -0.709423
   7 C :    0.811603
   8 H :   -0.125314
   9 H :   -0.024133
  10 O :   -0.736100
  11 H :   -0.172138
  12 H :   -0.024772
  13 H :    0.028265
Sum of atomic charges:    0.0000000

LOEWDIN ATOMIC CHARGES
----------------------
   0 C :   -0.078323
   1 C :   -0.051167
   2 H :    0.041352
   3 H :    0.024267
   4 S :    1.155860
   5 F :   -0.278565
   6 O :   -0.472296
   7 C :    0.141230
   8 H :    0.031365
   9 H :    0.023371
  10 O :   -0.488591
  11 H :   -0.032572
  12 H :   -0.010481
  13 H :   -0.005450

  Mayer bond orders larger than 0.100000
B(  0-C ,  1-C ) :   1.1879 B(  0-C ,  3-H ) :   0.1022 B(  0-C ,  7-C ) :   1.2654
B(  0-C ,  8-H ) :   0.9409 B(  0-C ,  9-H ) :   0.9093 B(  0-C , 11-H ) :   0.2461
B(  0-C , 12-H ) :   0.1965 B(  0-C , 13-H ) :   0.2103 B(  1-C ,  2-H ) :   0.9474
B(  1-C ,  3-H ) :   0.9691 B(  1-C ,  4-S ) :   0.9874 B(  1-C ,  9-H ) :   0.1277
B(  4-S ,  5-F ) :   0.5802 B(  4-S ,  6-O ) :   1.5343 B(  4-S , 10-O ) :   1.4597
B(  7-C , 11-H ) :   0.8280 B(  7-C , 12-H ) :   0.7608 B(  7-C , 13-H ) :   0.7387
B( 11-H , 13-H ) :   0.1046

Dispersion correction           -0.000287578
FINAL SINGLE POINT ENERGY      -766.386252130041

DIPOLE MOMENT
-------------
                                X             Y             Z
Electronic contribution:     -5.25138      10.13671      -5.31180
Nuclear contribution   :      6.51452     -11.35172       4.86721
                        -----------------------------------------
Total Dipole Moment    :      1.26314      -1.21501      -0.44460
                        -----------------------------------------
Magnitude (a.u.)       :      1.80816
Magnitude (Debye)      :      4.59597

Rotational constants in cm-1:     0.130386     0.053203     0.051661
Rotational constants in MHz :  3908.886819  1594.983443  1548.763987

                             ****ORCA TERMINATED NORMALLY****
TOTAL RUN TIME: 0 days 0 hours 0 minutes 16 seconds 554 msec
