                         Program Version 5.0.0 -  RELEASE  -
|  1> !M062X D3Zero RIJCOSX def2-SVPD def2/J TightSCF
|  2> *xyz 0 1
|  3> C          4.49059        1.15590       -2.46929
|  4> C          4.30539        1.22276       -3.90832
|  5> C          4.63192        2.24637       -4.67096
|  6> N          4.54169        2.14399       -5.98714
|  7> N          5.08409        3.39358       -4.11855
|  8> H          4.92067        3.57050       -3.13587
|  9> H          5.25465        4.19739       -4.70696
| 10> H          3.82453        0.44911       -4.35093
| 11> H          4.34337        1.24932       -6.41665
| 12> H          4.67671        2.95662       -6.57411
| 13> C          5.94213        0.93950       -2.03689
| 14> H          3.86431        0.32853       -2.13661
| 15> H          4.07623        2.04999       -1.98901
| 16> C          6.55996       -0.35629       -2.55909
| 17> H          5.96798        0.95257       -0.94244
| 18> H          6.54718        1.78833       -2.36885
| 19> H          6.53022       -0.35990       -3.62867
| 20> H          6.00654       -1.19175       -2.18407
| 21> H          7.57588       -0.42487       -2.23029
| 22> *
| 23>
| 24> %MaxCore 64000
| 25>
| 26> %pal nprocs 8
| 27> end
| 28>
| 29> %scf
| 30>   MaxIter 150
| 31> end
| 32>
| 33>
| 34>                          ****END OF INPUT****

CARTESIAN COORDINATES (ANGSTROEM)
---------------------------------
  C      4.490590    1.155900   -2.469290
  C      4.305390    1.222760   -3.908320
  C      4.631920    2.246370   -4.670960
  N      4.541690    2.143990   -5.987140
  N      5.084090    3.393580   -4.118550
  H      4.920670    3.570500   -3.135870
  H      5.254650    4.197390   -4.706960
  H      3.824530    0.449110   -4.350930
  H      4.343370    1.249320   -6.416650
  H      4.676710    2.956620   -6.574110
  C      5.942130    0.939500   -2.036890
  H      3.864310    0.328530   -2.136610
  H      4.076230    2.049990   -1.989010
  C      6.559960   -0.356290   -2.559090
  H      5.967980    0.952570   -0.942440
  H      6.547180    1.788330   -2.368850
  H      6.530220   -0.359900   -3.628670
  H      6.006540   -1.191750   -2.184070
  H      7.575880   -0.424870   -2.230290

 Total Charge           Charge          ....    0
 Multiplicity           Mult            ....    1
 Number of Electrons    NEL             ....   56
 Basis Dimension        Dim             ....  236

ORBITAL ENERGIES
----------------

  NO   OCC          E(Eh)            E(eV)
   0   2.0000     -14.763125      -401.7251
   1   2.0000     -14.761211      -401.6730
   2   2.0000     -10.595907      -288.3293
   3   2.0000     -10.524632      -286.3898
   4   2.0000     -10.522905      -286.3428
   5   2.0000     -10.514158      -286.1048
   6   2.0000     -10.472198      -284.9630
   7   2.0000      -1.060238       -28.8505
   8   2.0000      -0.962379       -26.1877
   9   2.0000      -0.874634       -23.8000
  10   2.0000      -0.807404       -21.9706
  11   2.0000      -0.740078       -20.1385
  12   2.0000      -0.673487       -18.3265
  13   2.0000      -0.645576       -17.5670
  14   2.0000      -0.616487       -16.7755
  15   2.0000      -0.576230       -15.6800
  16   2.0000      -0.544333       -14.8121
  17   2.0000      -0.511828       -13.9276
  18   2.0000      -0.501510       -13.6468
  19   2.0000      -0.480338       -13.0707
  20   2.0000      -0.459408       -12.5011
  21   2.0000      -0.432492       -11.7687
  22   2.0000      -0.421883       -11.4800
  23   2.0000      -0.388887       -10.5821
  24   2.0000      -0.371396       -10.1062
  25   2.0000      -0.368347       -10.0232
  26   2.0000      -0.329526        -8.9669
  27   2.0000      -0.212683        -5.7874
  28   0.0000       0.034220         0.9312
  29   0.0000       0.059053         1.6069
  30   0.0000       0.063270         1.7217
  31   0.0000       0.076297         2.0762
  32   0.0000       0.086733         2.3601

MULLIKEN ATOMIC CHARGES
-----------------------
   0 C :    0.225186
   1 C :   -0.294628
   2 C :    1.146681
   3 N :   -0.128249
   4 N :   -0.115483
   5 H :   -0.012690
   6 H :   -0.251453
   7 H :   -0.425630
   8 H :   -0.022599
   9 H :   -0.157208
  10 C :   -0.349125
  11 H :   -0.009852
  12 H :   -0.093524
  13 C :    0.722627
  14 H :   -0.104799
  15 H :   -0.068010
  16 H :   -0.068286
  17 H :    0.047421
  18 H :   -0.040379
Sum of atomic charges:   -0.0000000

LOEWDIN ATOMIC CHARGES
----------------------
   0 C :   -0.070021
   1 C :   -0.035925
   2 C :   -0.212734
   3 N :    0.168109
   4 N :    0.197772
   5 H :   -0.010872
   6 H :   -0.009712
   7 H :   -0.048365
   8 H :    0.011632
   9 H :   -0.005770
  10 C :   -0.082364
  11 H :    0.018399
  12 H :    0.006033
  13 C :    0.119255
  14 H :    0.013147
  15 H :    0.007930
  16 H :   -0.025222
  17 H :   -0.018674
  18 H :   -0.022620

  Mayer bond orders larger than 0.100000
B(  0-C ,  1-C ) :   1.1793 B(  0-C ,  7-H ) :   0.2675 B(  0-C , 10-C ) :   1.1338
B(  0-C , 11-H ) :   0.6967 B(  0-C , 12-H ) :   0.9115 B(  0-C , 14-H ) :   0.1239
B(  0-C , 15-H ) :   0.1488 B(  1-C ,  2-C ) :   1.5807 B(  1-C ,  3-N ) :   0.3908
B(  1-C ,  4-N ) :   0.2245 B(  1-C ,  7-H ) :   0.8815 B(  1-C , 11-H ) :   0.3465
B(  1-C , 12-H ) :   0.1496 B(  2-C ,  3-N ) :   0.7322 B(  2-C ,  4-N ) :   0.8186
B(  2-C ,  6-H ) :  -0.1923 B(  2-C ,  8-H ) :  -0.1147 B(  3-N ,  4-N ) :   0.1121
B(  3-N ,  8-H ) :   1.1657 B(  3-N ,  9-H ) :   1.2618 B(  4-N ,  5-H ) :   1.0487
B(  4-N ,  6-H ) :   1.3397 B(  5-H ,  6-H ) :  -0.2005 B(  8-H ,  9-H ) :  -0.1784
B( 10-C , 11-H ) :   0.1109 B( 10-C , 13-C ) :   1.3419 B( 10-C , 14-H ) :   0.9749
B( 10-C , 15-H ) :   0.9286 B( 10-C , 16-H ) :   0.2413 B( 10-C , 17-H ) :   0.2296
B( 10-C , 18-H ) :   0.2363 B( 13-C , 16-H ) :   0.8181 B( 13-C , 17-H ) :   0.7662
B( 13-C , 18-H ) :   0.7523

Dispersion correction           -0.000498397
FINAL SINGLE POINT ENERGY      -306.867959511435

DIPOLE MOMENT
-------------
                                X             Y             Z
Electronic contribution:     -2.32416       3.65778      -4.16542
Nuclear contribution   :      2.29046      -2.89565       3.47129
                        -----------------------------------------
Total Dipole Moment    :     -0.03370       0.76213      -0.69413
                        -----------------------------------------
Magnitude (a.u.)       :      1.03140
Magnitude (Debye)      :      2.62162

Rotational constants in cm-1:     0.154384     0.050352     0.046525
Rotational constants in MHz :  4628.320816  1509.522910  1394.780903

                             ****ORCA TERMINATED NORMALLY****
TOTAL RUN TIME: 0 days 0 hours 0 minutes 19 seconds 680 msec
