                         Program Version 5.0.0 -  RELEASE  -
|  1> !M062X D3Zero RIJCOSX def2-SVPD def2/J TightSCF
|  2> *xyz 0 1
|  3> C          4.90646       -3.10282       -5.95484
|  4> C          3.51177       -2.80621       -6.49228
|  5> H          2.73604       -3.37345       -5.97374
|  6> H          3.44490       -3.04083       -7.55528
|  7> S          3.00462       -1.09621       -6.38926
|  8> O          4.12886       -0.32965       -6.95372
|  9> F          1.78128       -1.00078       -7.13640
| 10> C          5.02498       -3.02568       -4.43762
| 11> H          5.20153       -4.10021       -6.29691
| 12> H          5.60592       -2.39782       -6.41337
| 13> O          2.85155       -0.78368       -4.95679
| 14> H          4.73604       -2.05011       -4.10644
| 15> H          6.03776       -3.21492       -4.14890
| 16> H          4.38436       -3.75784       -3.99214
| 17> *
| 18>
| 19> %MaxCore 64000
| 20>
| 21> %pal nprocs 8
| 22> end
| 23>
| 24> %scf
| 25>   MaxIter 150
| 26> end
| 27>
| 28>
| 29>                          ****END OF INPUT****

CARTESIAN COORDINATES (ANGSTROEM)
---------------------------------
  C      4.906460   -3.102820   -5.954840
  C      3.511770   -2.806210   -6.492280
  H      2.736040   -3.373450   -5.973740
  H      3.444900   -3.040830   -7.555280
  S      3.004620   -1.096210   -6.389260
  O      4.128860   -0.329650   -6.953720
  F      1.781280   -1.000780   -7.136400
  C      5.024980   -3.025680   -4.437620
  H      5.201530   -4.100210   -6.296910
  H      5.605920   -2.397820   -6.413370
  O      2.851550   -0.783680   -4.956790
  H      4.736040   -2.050110   -4.106440
  H      6.037760   -3.214920   -4.148900
  H      4.384360   -3.757840   -3.992140

 Total Charge           Charge          ....    0
 Multiplicity           Mult            ....    1
 Number of Electrons    NEL             ....   66
 Basis Dimension        Dim             ....  212

ORBITAL ENERGIES
----------------

  NO   OCC          E(Eh)            E(eV)
   0   2.0000     -90.198016     -2454.4128
   1   2.0000     -25.384105      -690.7366
   2   2.0000     -19.644261      -534.5475
   3   2.0000     -19.643935      -534.5386
   4   2.0000     -10.617260      -288.9103
   5   2.0000     -10.580658      -287.9143
   6   2.0000     -10.543396      -286.9004
   7   2.0000      -8.522489      -231.9087
   8   2.0000      -6.450882      -175.5374
   9   2.0000      -6.445509      -175.3912
  10   2.0000      -6.444495      -175.3636
  11   2.0000      -1.524283       -41.4778
  12   2.0000      -1.218532       -33.1580
  13   2.0000      -1.111705       -30.2510
  14   2.0000      -0.929700       -25.2984
  15   2.0000      -0.856562       -23.3082
  16   2.0000      -0.804518       -21.8921
  17   2.0000      -0.724922       -19.7261
  18   2.0000      -0.695233       -18.9182
  19   2.0000      -0.675597       -18.3839
  20   2.0000      -0.641819       -17.4648
  21   2.0000      -0.570542       -15.5252
  22   2.0000      -0.563406       -15.3311
  23   2.0000      -0.529950       -14.4207
  24   2.0000      -0.517497       -14.0818
  25   2.0000      -0.499959       -13.6046
  26   2.0000      -0.460022       -12.5178
  27   2.0000      -0.440624       -11.9900
  28   2.0000      -0.437575       -11.9070
  29   2.0000      -0.423991       -11.5374
  30   2.0000      -0.399941       -10.8829
  31   2.0000      -0.386892       -10.5279
  32   2.0000      -0.376459       -10.2440
  33   0.0000       0.010192         0.2773
  34   0.0000       0.034501         0.9388
  35   0.0000       0.041439         1.1276
  36   0.0000       0.046315         1.2603
  37   0.0000       0.070511         1.9187

MULLIKEN ATOMIC CHARGES
-----------------------
   0 C :   -0.262611
   1 C :   -0.053749
   2 H :    0.038604
   3 H :    0.042610
   4 S :    1.624904
   5 O :   -0.718025
   6 F :   -0.453765
   7 C :    0.805826
   8 H :   -0.116268
   9 H :    0.002746
  10 O :   -0.735144
  11 H :   -0.172647
  12 H :   -0.024568
  13 H :    0.022087
Sum of atomic charges:    0.0000000

LOEWDIN ATOMIC CHARGES
----------------------
   0 C :   -0.062744
   1 C :   -0.063425
   2 H :    0.027704
   3 H :    0.021857
   4 S :    1.162092
   5 O :   -0.490374
   6 F :   -0.263815
   7 C :    0.143833
   8 H :    0.033861
   9 H :    0.028870
  10 O :   -0.491471
  11 H :   -0.028662
  12 H :   -0.009691
  13 H :   -0.008035

  Mayer bond orders larger than 0.100000
B(  0-C ,  1-C ) :   1.2475 B(  0-C ,  3-H ) :   0.1189 B(  0-C ,  7-C ) :   1.2546
B(  0-C ,  8-H ) :   0.9344 B(  0-C ,  9-H ) :   0.9219 B(  0-C , 11-H ) :   0.2418
B(  0-C , 12-H ) :   0.1986 B(  0-C , 13-H ) :   0.2056 B(  1-C ,  2-H ) :   0.9451
B(  1-C ,  3-H ) :   0.9164 B(  1-C ,  4-S ) :   0.9539 B(  1-C ,  8-H ) :   0.1047
B(  1-C ,  9-H ) :   0.1370 B(  4-S ,  5-O ) :   1.4594 B(  4-S ,  6-F ) :   0.6202
B(  4-S , 10-O ) :   1.4303 B(  7-C , 11-H ) :   0.8297 B(  7-C , 12-H ) :   0.7582
B(  7-C , 13-H ) :   0.7351 B( 11-H , 13-H ) :   0.1067

Dispersion correction           -0.000276045
FINAL SINGLE POINT ENERGY      -766.371181926930

DIPOLE MOMENT
-------------
                                X             Y             Z
Electronic contribution:     -9.31796       9.00539      -5.64124
Nuclear contribution   :      9.03920     -10.62996       5.06367
                        -----------------------------------------
Total Dipole Moment    :     -0.27876      -1.62457      -0.57758
                        -----------------------------------------
Magnitude (a.u.)       :      1.74657
Magnitude (Debye)      :      4.43944

Rotational constants in cm-1:     0.135071     0.052485     0.050188
Rotational constants in MHz :  4049.321380  1573.451279  1504.609887

                             ****ORCA TERMINATED NORMALLY****
TOTAL RUN TIME: 0 days 0 hours 0 minutes 17 seconds 122 msec
