                         Program Version 5.0.0 -  RELEASE  -
|  1> !M062X D3Zero RIJCOSX def2-SVPD def2/J TightSCF
|  2> *xyz 0 1
|  3> C          4.49059        1.15590       -2.46929
|  4> N          4.30539        1.22276       -3.90832
|  5> C          4.63192        2.24637       -4.67096
|  6> C          4.54169        2.14399       -5.98714
|  7> N          5.08409        3.39358       -4.11855
|  8> H          4.92067        3.57050       -3.13587
|  9> H          5.25465        4.19739       -4.70696
| 10> H          3.82453        0.44911       -4.35093
| 11> H          4.34337        1.24932       -6.41665
| 12> H          4.67671        2.95662       -6.57411
| 13> C          5.94213        0.93950       -2.03689
| 14> H          3.86431        0.32853       -2.13661
| 15> H          4.07623        2.04999       -1.98901
| 16> C          6.55996       -0.35629       -2.55909
| 17> H          5.96798        0.95257       -0.94244
| 18> H          6.54718        1.78833       -2.36885
| 19> H          6.53022       -0.35990       -3.62867
| 20> H          6.00654       -1.19175       -2.18407
| 21> H          7.57588       -0.42487       -2.23029
| 22> *
| 23>
| 24> %MaxCore 64000
| 25>
| 26> %pal nprocs 8
| 27> end
| 28>
| 29> %scf
| 30>   MaxIter 150
| 31> end
| 32>
| 33>
| 34>                          ****END OF INPUT****

CARTESIAN COORDINATES (ANGSTROEM)
---------------------------------
  C      4.490590    1.155900   -2.469290
  N      4.305390    1.222760   -3.908320
  C      4.631920    2.246370   -4.670960
  C      4.541690    2.143990   -5.987140
  N      5.084090    3.393580   -4.118550
  H      4.920670    3.570500   -3.135870
  H      5.254650    4.197390   -4.706960
  H      3.824530    0.449110   -4.350930
  H      4.343370    1.249320   -6.416650
  H      4.676710    2.956620   -6.574110
  C      5.942130    0.939500   -2.036890
  H      3.864310    0.328530   -2.136610
  H      4.076230    2.049990   -1.989010
  C      6.559960   -0.356290   -2.559090
  H      5.967980    0.952570   -0.942440
  H      6.547180    1.788330   -2.368850
  H      6.530220   -0.359900   -3.628670
  H      6.006540   -1.191750   -2.184070
  H      7.575880   -0.424870   -2.230290

 Total Charge           Charge          ....    0
 Multiplicity           Mult            ....    1
 Number of Electrons    NEL             ....   56
 Basis Dimension        Dim             ....  236

ORBITAL ENERGIES
----------------

  NO   OCC          E(Eh)            E(eV)
   0   2.0000     -14.761263      -401.6744
   1   2.0000     -14.760138      -401.6438
   2   2.0000     -10.596840      -288.3547
   3   2.0000     -10.589869      -288.1650
   4   2.0000     -10.548198      -287.0311
   5   2.0000     -10.533734      -286.6375
   6   2.0000     -10.461448      -284.6705
   7   2.0000      -1.068466       -29.0744
   8   2.0000      -0.974621       -26.5208
   9   2.0000      -0.877313       -23.8729
  10   2.0000      -0.811130       -22.0720
  11   2.0000      -0.751781       -20.4570
  12   2.0000      -0.691689       -18.8218
  13   2.0000      -0.661212       -17.9925
  14   2.0000      -0.606956       -16.5161
  15   2.0000      -0.571225       -15.5438
  16   2.0000      -0.549425       -14.9506
  17   2.0000      -0.530993       -14.4491
  18   2.0000      -0.507832       -13.8188
  19   2.0000      -0.470090       -12.7918
  20   2.0000      -0.464542       -12.6408
  21   2.0000      -0.455631       -12.3984
  22   2.0000      -0.435307       -11.8453
  23   2.0000      -0.412371       -11.2212
  24   2.0000      -0.406797       -11.0695
  25   2.0000      -0.398652       -10.8479
  26   2.0000      -0.316754        -8.6193
  27   2.0000      -0.214326        -5.8321
  28   0.0000       0.031774         0.8646
  29   0.0000       0.053479         1.4552
  30   0.0000       0.060710         1.6520
  31   0.0000       0.063877         1.7382
  32   0.0000       0.091620         2.4931

MULLIKEN ATOMIC CHARGES
-----------------------
   0 C :    0.757449
   1 N :   -0.574796
   2 C :    0.889187
   3 C :    0.286910
   4 N :    0.071971
   5 H :   -0.086824
   6 H :   -0.197448
   7 H :   -0.190218
   8 H :   -0.278781
   9 H :   -0.379554
  10 C :   -0.374206
  11 H :   -0.345578
  12 H :   -0.057814
  13 C :    0.683673
  14 H :   -0.166177
  15 H :    0.018923
  16 H :   -0.060354
  17 H :    0.066543
  18 H :   -0.062907
Sum of atomic charges:   -0.0000000

LOEWDIN ATOMIC CHARGES
----------------------
   0 C :    0.042181
   1 N :   -0.026805
   2 C :   -0.232706
   3 C :    0.144468
   4 N :    0.193926
   5 H :   -0.024146
   6 H :    0.006419
   7 H :    0.040085
   8 H :   -0.098670
   9 H :   -0.100915
  10 C :   -0.072266
  11 H :    0.023576
  12 H :    0.010220
  13 C :    0.123524
  14 H :    0.018390
  15 H :    0.010364
  16 H :   -0.020461
  17 H :   -0.018668
  18 H :   -0.018513

  Mayer bond orders larger than 0.100000
B(  0-C ,  1-N ) :   0.8728 B(  0-C ,  7-H ) :  -0.1814 B(  0-C , 10-C ) :   1.1115
B(  0-C , 11-H ) :   0.7633 B(  0-C , 12-H ) :   0.9015 B(  0-C , 15-H ) :   0.1191
B(  1-N ,  2-C ) :   0.9352 B(  1-N ,  3-C ) :   0.2534 B(  1-N ,  4-N ) :   0.2057
B(  1-N ,  7-H ) :   1.2994 B(  1-N , 11-H ) :   0.2544 B(  2-C ,  3-C ) :   1.3529
B(  2-C ,  4-N ) :   0.8820 B(  2-C ,  6-H ) :  -0.1195 B(  2-C ,  7-H ) :  -0.2098
B(  2-C ,  9-H ) :   0.1592 B(  3-C ,  4-N ) :   0.1810 B(  3-C ,  8-H ) :   0.8896
B(  3-C ,  9-H ) :   0.7792 B(  4-N ,  5-H ) :   1.0531 B(  4-N ,  6-H ) :   1.2233
B(  4-N , 12-H ) :   0.1001 B(  5-H ,  6-H ) :  -0.2028 B( 10-C , 11-H ) :   0.1295
B( 10-C , 13-C ) :   1.3085 B( 10-C , 14-H ) :   1.0687 B( 10-C , 15-H ) :   0.9019
B( 10-C , 16-H ) :   0.2137 B( 10-C , 17-H ) :   0.1966 B( 10-C , 18-H ) :   0.2184
B( 11-H , 12-H ) :  -0.1534 B( 13-C , 16-H ) :   0.8336 B( 13-C , 17-H ) :   0.7833
B( 13-C , 18-H ) :   0.8004

Dispersion correction           -0.000493543
FINAL SINGLE POINT ENERGY      -306.860352084173

DIPOLE MOMENT
-------------
                                X             Y             Z
Electronic contribution:     -2.44445       2.73706      -1.99540
Nuclear contribution   :      2.34222      -2.69386       3.01591
                        -----------------------------------------
Total Dipole Moment    :     -0.10223       0.04320       1.02051
                        -----------------------------------------
Magnitude (a.u.)       :      1.02653
Magnitude (Debye)      :      2.60923

Rotational constants in cm-1:     0.155143     0.051710     0.048050
Rotational constants in MHz :  4651.080391  1550.217078  1440.507386

                             ****ORCA TERMINATED NORMALLY****
TOTAL RUN TIME: 0 days 0 hours 0 minutes 20 seconds 417 msec
