                         Program Version 5.0.0 -  RELEASE  -
|  1> !M062X D3Zero RIJCOSX def2-SVPD def2/J TightSCF
|  2> *xyz 0 1
|  3> C          4.90646       -3.10282       -5.95484
|  4> C          3.51177       -2.80621       -6.49228
|  5> H          2.73604       -3.37345       -5.97374
|  6> H          3.44490       -3.04083       -7.55528
|  7> S          3.00462       -1.09621       -6.38926
|  8> O          4.12886       -0.32965       -6.95372
|  9> O          1.78128       -1.00078       -7.13640
| 10> C          5.02498       -3.02568       -4.43762
| 11> H          5.20153       -4.10021       -6.29691
| 12> H          5.60592       -2.39782       -6.41337
| 13> F          2.85155       -0.78368       -4.95679
| 14> H          4.73604       -2.05011       -4.10644
| 15> H          6.03776       -3.21492       -4.14890
| 16> H          4.38436       -3.75784       -3.99214
| 17> *
| 18>
| 19> %MaxCore 64000
| 20>
| 21> %pal nprocs 8
| 22> end
| 23>
| 24> %scf
| 25>   MaxIter 150
| 26> end
| 27>
| 28>
| 29>                          ****END OF INPUT****

CARTESIAN COORDINATES (ANGSTROEM)
---------------------------------
  C      4.906460   -3.102820   -5.954840
  C      3.511770   -2.806210   -6.492280
  H      2.736040   -3.373450   -5.973740
  H      3.444900   -3.040830   -7.555280
  S      3.004620   -1.096210   -6.389260
  O      4.128860   -0.329650   -6.953720
  O      1.781280   -1.000780   -7.136400
  C      5.024980   -3.025680   -4.437620
  H      5.201530   -4.100210   -6.296910
  H      5.605920   -2.397820   -6.413370
  F      2.851550   -0.783680   -4.956790
  H      4.736040   -2.050110   -4.106440
  H      6.037760   -3.214920   -4.148900
  H      4.384360   -3.757840   -3.992140

 Total Charge           Charge          ....    0
 Multiplicity           Mult            ....    1
 Number of Electrons    NEL             ....   66
 Basis Dimension        Dim             ....  212

ORBITAL ENERGIES
----------------

  NO   OCC          E(Eh)            E(eV)
   0   2.0000     -90.196072     -2454.3599
   1   2.0000     -25.364682      -690.2081
   2   2.0000     -19.655410      -534.8509
   3   2.0000     -19.643848      -534.5363
   4   2.0000     -10.616235      -288.8825
   5   2.0000     -10.582374      -287.9610
   6   2.0000     -10.558831      -287.3204
   7   2.0000      -8.520332      -231.8500
   8   2.0000      -6.448647      -175.4766
   9   2.0000      -6.443509      -175.3368
  10   2.0000      -6.442509      -175.3096
  11   2.0000      -1.491154       -40.5764
  12   2.0000      -1.231963       -33.5234
  13   2.0000      -1.126812       -30.6621
  14   2.0000      -0.932962       -25.3872
  15   2.0000      -0.848701       -23.0943
  16   2.0000      -0.798881       -21.7387
  17   2.0000      -0.725592       -19.7444
  18   2.0000      -0.673981       -18.3400
  19   2.0000      -0.667794       -18.1716
  20   2.0000      -0.635621       -17.2961
  21   2.0000      -0.573482       -15.6053
  22   2.0000      -0.558886       -15.2081
  23   2.0000      -0.542075       -14.7506
  24   2.0000      -0.529203       -14.4004
  25   2.0000      -0.507404       -13.8072
  26   2.0000      -0.470528       -12.8037
  27   2.0000      -0.454386       -12.3645
  28   2.0000      -0.436199       -11.8696
  29   2.0000      -0.429897       -11.6981
  30   2.0000      -0.408935       -11.1277
  31   2.0000      -0.395194       -10.7538
  32   2.0000      -0.387967       -10.5571
  33   0.0000       0.014230         0.3872
  34   0.0000       0.035651         0.9701
  35   0.0000       0.041592         1.1318
  36   0.0000       0.044406         1.2083
  37   0.0000       0.070258         1.9118

MULLIKEN ATOMIC CHARGES
-----------------------
   0 C :   -0.206866
   1 C :   -0.046525
   2 H :    0.037984
   3 H :    0.032308
   4 S :    1.578821
   5 O :   -0.727537
   6 O :   -0.705880
   7 C :    0.794367
   8 H :   -0.111445
   9 H :   -0.001304
  10 F :   -0.443816
  11 H :   -0.199876
  12 H :   -0.026646
  13 H :    0.026415
Sum of atomic charges:    0.0000000

LOEWDIN ATOMIC CHARGES
----------------------
   0 C :   -0.075196
   1 C :   -0.052265
   2 H :    0.027979
   3 H :    0.036524
   4 S :    1.151950
   5 O :   -0.488467
   6 O :   -0.472719
   7 C :    0.138938
   8 H :    0.032868
   9 H :    0.027101
  10 F :   -0.281903
  11 H :   -0.028891
  12 H :   -0.007669
  13 H :   -0.008248

  Mayer bond orders larger than 0.100000
B(  0-C ,  1-C ) :   1.2229 B(  0-C ,  3-H ) :   0.1025 B(  0-C ,  7-C ) :   1.2508
B(  0-C ,  8-H ) :   0.9230 B(  0-C ,  9-H ) :   0.9294 B(  0-C , 11-H ) :   0.2341
B(  0-C , 12-H ) :   0.1977 B(  0-C , 13-H ) :   0.2033 B(  1-C ,  2-H ) :   0.9517
B(  1-C ,  3-H ) :   0.9419 B(  1-C ,  4-S ) :   0.9956 B(  1-C ,  8-H ) :   0.1101
B(  1-C ,  9-H ) :   0.1415 B(  4-S ,  5-O ) :   1.4803 B(  4-S ,  6-O ) :   1.5272
B(  4-S , 10-F ) :   0.5705 B(  7-C , 11-H ) :   0.8192 B(  7-C , 12-H ) :   0.7693
B(  7-C , 13-H ) :   0.7467

Dispersion correction           -0.000292020
FINAL SINGLE POINT ENERGY      -766.387160173675

DIPOLE MOMENT
-------------
                                X             Y             Z
Electronic contribution:     -7.42898       9.32468      -1.85891
Nuclear contribution   :      7.88819     -10.86344       2.71963
                        -----------------------------------------
Total Dipole Moment    :      0.45921      -1.53876       0.86072
                        -----------------------------------------
Magnitude (a.u.)       :      1.82194
Magnitude (Debye)      :      4.63102

Rotational constants in cm-1:     0.130261     0.054435     0.050898
Rotational constants in MHz :  3905.114465  1631.935083  1525.880669

                             ****ORCA TERMINATED NORMALLY****
TOTAL RUN TIME: 0 days 0 hours 0 minutes 16 seconds 628 msec
