                         Program Version 5.0.0 -  RELEASE  -
|  1> !M062X D3Zero RIJCOSX def2-SVPD def2/J TightSCF
|  2> *xyz 0 1
|  3> C          4.49059        1.15590       -2.46929
|  4> N          4.30539        1.22276       -3.90832
|  5> C          4.63192        2.24637       -4.67096
|  6> N          4.54169        2.14399       -5.98714
|  7> C          5.08409        3.39358       -4.11855
|  8> H          4.92067        3.57050       -3.13587
|  9> H          5.25465        4.19739       -4.70696
| 10> H          3.82453        0.44911       -4.35093
| 11> H          4.34337        1.24932       -6.41665
| 12> H          4.67671        2.95662       -6.57411
| 13> C          5.94213        0.93950       -2.03689
| 14> H          3.86431        0.32853       -2.13661
| 15> H          4.07623        2.04999       -1.98901
| 16> C          6.55996       -0.35629       -2.55909
| 17> H          5.96798        0.95257       -0.94244
| 18> H          6.54718        1.78833       -2.36885
| 19> H          6.53022       -0.35990       -3.62867
| 20> H          6.00654       -1.19175       -2.18407
| 21> H          7.57588       -0.42487       -2.23029
| 22> *
| 23>
| 24> %MaxCore 64000
| 25>
| 26> %pal nprocs 8
| 27> end
| 28>
| 29> %scf
| 30>   MaxIter 150
| 31> end
| 32>
| 33>
| 34>                          ****END OF INPUT****

CARTESIAN COORDINATES (ANGSTROEM)
---------------------------------
  C      4.490590    1.155900   -2.469290
  N      4.305390    1.222760   -3.908320
  C      4.631920    2.246370   -4.670960
  N      4.541690    2.143990   -5.987140
  C      5.084090    3.393580   -4.118550
  H      4.920670    3.570500   -3.135870
  H      5.254650    4.197390   -4.706960
  H      3.824530    0.449110   -4.350930
  H      4.343370    1.249320   -6.416650
  H      4.676710    2.956620   -6.574110
  C      5.942130    0.939500   -2.036890
  H      3.864310    0.328530   -2.136610
  H      4.076230    2.049990   -1.989010
  C      6.559960   -0.356290   -2.559090
  H      5.967980    0.952570   -0.942440
  H      6.547180    1.788330   -2.368850
  H      6.530220   -0.359900   -3.628670
  H      6.006540   -1.191750   -2.184070
  H      7.575880   -0.424870   -2.230290

 Total Charge           Charge          ....    0
 Multiplicity           Mult            ....    1
 Number of Electrons    NEL             ....   56
 Basis Dimension        Dim             ....  236

ORBITAL ENERGIES
----------------

  NO   OCC          E(Eh)            E(eV)
   0   2.0000     -14.765634      -401.7933
   1   2.0000     -14.763158      -401.7260
   2   2.0000     -10.600104      -288.4435
   3   2.0000     -10.582179      -287.9557
   4   2.0000     -10.538743      -286.7738
   5   2.0000     -10.529105      -286.5115
   6   2.0000     -10.463005      -284.7128
   7   2.0000      -1.072914       -29.1955
   8   2.0000      -0.982621       -26.7385
   9   2.0000      -0.864336       -23.5198
  10   2.0000      -0.796802       -21.6821
  11   2.0000      -0.771346       -20.9894
  12   2.0000      -0.684920       -18.6376
  13   2.0000      -0.631051       -17.1718
  14   2.0000      -0.625878       -17.0310
  15   2.0000      -0.594693       -16.1824
  16   2.0000      -0.545474       -14.8431
  17   2.0000      -0.519980       -14.1494
  18   2.0000      -0.496641       -13.5143
  19   2.0000      -0.467596       -12.7239
  20   2.0000      -0.462362       -12.5815
  21   2.0000      -0.450021       -12.2457
  22   2.0000      -0.434485       -11.8229
  23   2.0000      -0.409201       -11.1349
  24   2.0000      -0.400030       -10.8854
  25   2.0000      -0.390419       -10.6238
  26   2.0000      -0.312188        -8.4951
  27   2.0000      -0.215252        -5.8573
  28   0.0000       0.031495         0.8570
  29   0.0000       0.054970         1.4958
  30   0.0000       0.062159         1.6914
  31   0.0000       0.067029         1.8239
  32   0.0000       0.087819         2.3897

MULLIKEN ATOMIC CHARGES
-----------------------
   0 C :    0.722420
   1 N :   -0.669921
   2 C :    0.820788
   3 N :   -0.041361
   4 C :    0.410456
   5 H :    0.025183
   6 H :   -0.606323
   7 H :   -0.260307
   8 H :   -0.138047
   9 H :   -0.068586
  10 C :   -0.355485
  11 H :   -0.366756
  12 H :    0.068965
  13 C :    0.679835
  14 H :   -0.144982
  15 H :    0.005684
  16 H :   -0.069380
  17 H :    0.053008
  18 H :   -0.065190
Sum of atomic charges:   -0.0000000

LOEWDIN ATOMIC CHARGES
----------------------
   0 C :    0.049622
   1 N :   -0.032022
   2 C :   -0.232022
   3 N :    0.173431
   4 C :    0.166525
   5 H :   -0.114937
   6 H :   -0.106227
   7 H :    0.026428
   8 H :   -0.003823
   9 H :    0.012028
  10 C :   -0.064342
  11 H :    0.022423
  12 H :    0.018032
  13 C :    0.119732
  14 H :    0.020471
  15 H :    0.010449
  16 H :   -0.025504
  17 H :   -0.020976
  18 H :   -0.019288

  Mayer bond orders larger than 0.100000
B(  0-C ,  1-N ) :   0.8644 B(  0-C ,  5-H ) :   0.1109 B(  0-C ,  7-H ) :  -0.1797
B(  0-C , 10-C ) :   1.0928 B(  0-C , 11-H ) :   0.8365 B(  0-C , 12-H ) :   0.8683
B(  0-C , 15-H ) :   0.1364 B(  1-N ,  2-C ) :   0.7752 B(  1-N ,  3-N ) :   0.2330
B(  1-N ,  4-C ) :   0.3381 B(  1-N ,  7-H ) :   1.4671 B(  1-N , 11-H ) :   0.1920
B(  2-C ,  3-N ) :   0.8116 B(  2-C ,  4-C ) :   1.7076 B(  2-C ,  5-H ) :   0.2942
B(  2-C ,  6-H ) :   0.1851 B(  2-C ,  7-H ) :  -0.3338 B(  2-C ,  8-H ) :  -0.1028
B(  2-C ,  9-H ) :  -0.1057 B(  2-C , 11-H ) :   0.1128 B(  3-N ,  4-C ) :   0.2135
B(  3-N ,  8-H ) :   1.1916 B(  3-N ,  9-H ) :   1.2131 B(  4-C ,  5-H ) :   0.6096
B(  4-C ,  6-H ) :   0.8702 B(  5-H , 11-H ) :  -0.1292 B(  5-H , 12-H ) :   0.1175
B(  8-H ,  9-H ) :  -0.1795 B( 10-C , 11-H ) :   0.1352 B( 10-C , 13-C ) :   1.2996
B( 10-C , 14-H ) :   1.0544 B( 10-C , 15-H ) :   0.9199 B( 10-C , 16-H ) :   0.2067
B( 10-C , 17-H ) :   0.1966 B( 10-C , 18-H ) :   0.2166 B( 11-H , 12-H ) :  -0.1895
B( 13-C , 16-H ) :   0.8407 B( 13-C , 17-H ) :   0.7845 B( 13-C , 18-H ) :   0.8039

Dispersion correction           -0.000497214
FINAL SINGLE POINT ENERGY      -306.859832966183

DIPOLE MOMENT
-------------
                                X             Y             Z
Electronic contribution:     -2.92094       1.56485      -3.86039
Nuclear contribution   :      2.46104      -2.42013       3.42523
                        -----------------------------------------
Total Dipole Moment    :     -0.45990      -0.85527      -0.43515
                        -----------------------------------------
Magnitude (a.u.)       :      1.06413
Magnitude (Debye)      :      2.70479

Rotational constants in cm-1:     0.157414     0.050835     0.047338
Rotational constants in MHz :  4719.163414  1524.007825  1419.164399

                             ****ORCA TERMINATED NORMALLY****
TOTAL RUN TIME: 0 days 0 hours 0 minutes 19 seconds 861 msec
