                         Program Version 5.0.0 -  RELEASE  -
|  1> !M062X D3Zero RIJCOSX def2-SVPD def2/J TightSCF xyzfile
|  2>
|  3> *xyzfile 0 1 D4.xyz
|  4>
|  5> %MaxCore 64000
|  6>
|  7> %pal nprocs 4
|  8> end
|  9>
| 10> %scf
| 11>   MaxIter 150
| 12> end
| 13>
| 14>
| 15>                          ****END OF INPUT****

CARTESIAN COORDINATES (ANGSTROEM)
---------------------------------
  C      4.490588    1.155899   -2.469290
  C      4.305394    1.222762   -3.908317
  C      4.906458   -3.102816   -5.954844
  C      3.511771   -2.806215   -6.492283
  H      2.736044   -3.373445   -5.973736
  H      3.444904   -3.040831   -7.555281
  S      3.004618   -1.096206   -6.389259
  C      4.631918    2.246365   -4.670958
  N      4.541686    2.143990   -5.987139
  N      5.084086    3.393584   -4.118545
  H      4.920675    3.570501   -3.135870
  H      5.254652    4.197390   -4.706956
  H      3.824530    0.449113   -4.350926
  H      4.343373    1.249318   -6.416646
  H      4.676712    2.956624   -6.574113
  O      4.128856   -0.329647   -6.953717
  F      1.781285   -1.000779   -7.136399
  C      5.942129    0.939500   -2.036893
  H      3.864305    0.328532   -2.136611
  H      4.076233    2.049994   -1.989010
  C      6.462677   -3.117775   -3.944671
  C      5.024977   -3.025679   -4.437625
  H      4.423321   -3.818693   -3.977648
  H      4.579350   -2.087131   -4.108727
  H      5.201533   -4.100207   -6.296905
  H      5.605922   -2.397822   -6.413368
  C      6.559957   -0.356290   -2.559086
  H      5.967976    0.952567   -0.942444
  H      6.547184    1.788331   -2.368849
  C      6.006283   -1.615917   -1.899301
  H      7.642360   -0.318000   -2.402059
  H      6.414855   -0.403433   -3.642587
  C      6.608718   -2.917014   -2.435655
  H      6.190324   -1.561115   -0.820948
  H      4.919250   -1.651245   -2.016586
  H      7.066975   -2.374258   -4.475514
  H      6.887808   -4.089747   -4.215332
  H      6.135197   -3.755573   -1.915159
  H      7.671142   -2.955503   -2.172291
  O      2.851546   -0.783683   -4.956789

 Total Charge           Charge          ....    0
 Multiplicity           Mult            ....    1
 Number of Electrons    NEL             ....  144
 Basis Dimension        Dim             ....  540

ORBITAL ENERGIES
----------------

  NO   OCC          E(Eh)            E(eV)
   0   2.0000     -90.214992     -2454.8747
   1   2.0000     -25.395928      -691.0583
   2   2.0000     -19.665130      -535.1154
   3   2.0000     -19.655752      -534.8602
   4   2.0000     -14.739283      -401.0763
   5   2.0000     -14.719038      -400.5254
   6   2.0000     -10.624393      -289.1044
   7   2.0000     -10.581017      -287.9241
   8   2.0000     -10.565387      -287.4988
   9   2.0000     -10.548276      -287.0332
  10   2.0000     -10.542093      -286.8649
  11   2.0000     -10.535503      -286.6856
  12   2.0000     -10.525449      -286.4120
  13   2.0000     -10.516318      -286.1636
  14   2.0000     -10.510925      -286.0168
  15   2.0000     -10.503330      -285.8101
  16   2.0000     -10.432964      -283.8954
  17   2.0000      -8.538195      -232.3361
  18   2.0000      -6.466654      -175.9666
  19   2.0000      -6.461487      -175.8260
  20   2.0000      -6.460203      -175.7911
  21   2.0000      -1.535287       -41.7773
  22   2.0000      -1.237946       -33.6862
  23   2.0000      -1.131941       -30.8017
  24   2.0000      -1.030101       -28.0305
  25   2.0000      -0.940321       -25.5874
  26   2.0000      -0.931871       -25.3575
  27   2.0000      -0.897228       -24.4148
  28   2.0000      -0.868171       -23.6241
  29   2.0000      -0.848887       -23.0994
  30   2.0000      -0.817384       -22.2422
  31   2.0000      -0.786738       -21.4082
  32   2.0000      -0.751424       -20.4473
  33   2.0000      -0.722191       -19.6518
  34   2.0000      -0.707987       -19.2653
  35   2.0000      -0.698626       -19.0106
  36   2.0000      -0.680685       -18.5224
  37   2.0000      -0.667842       -18.1729
  38   2.0000      -0.649221       -17.6662
  39   2.0000      -0.628686       -17.1074
  40   2.0000      -0.611305       -16.6345
  41   2.0000      -0.595030       -16.1916
  42   2.0000      -0.583197       -15.8696
  43   2.0000      -0.574103       -15.6221
  44   2.0000      -0.551732       -15.0134
  45   2.0000      -0.543928       -14.8010
  46   2.0000      -0.538882       -14.6637
  47   2.0000      -0.522875       -14.2281
  48   2.0000      -0.516915       -14.0660
  49   2.0000      -0.502063       -13.6618
  50   2.0000      -0.494563       -13.4577
  51   2.0000      -0.481963       -13.1149
  52   2.0000      -0.480605       -13.0779
  53   2.0000      -0.476920       -12.9776
  54   2.0000      -0.450456       -12.2575
  55   2.0000      -0.446147       -12.1403
  56   2.0000      -0.441094       -12.0028
  57   2.0000      -0.431867       -11.7517
  58   2.0000      -0.422846       -11.5062
  59   2.0000      -0.419141       -11.4054
  60   2.0000      -0.407749       -11.0954
  61   2.0000      -0.400503       -10.8982
  62   2.0000      -0.398537       -10.8447
  63   2.0000      -0.386794       -10.5252
  64   2.0000      -0.380109       -10.3433
  65   2.0000      -0.376420       -10.2429
  66   2.0000      -0.363529        -9.8921
  67   2.0000      -0.353166        -9.6101
  68   2.0000      -0.345295        -9.3959
  69   2.0000      -0.332648        -9.0518
  70   2.0000      -0.300643        -8.1809
  71   2.0000      -0.183375        -4.9899
  72   0.0000       0.003340         0.0909
  73   0.0000       0.030002         0.8164
  74   0.0000       0.031872         0.8673
  75   0.0000       0.043844         1.1931
  76   0.0000       0.056319         1.5325

MULLIKEN ATOMIC CHARGES
-----------------------
   0 C :    0.146701
   1 C :    0.261498
   2 C :    0.210113
   3 C :    0.263001
   4 H :    0.046482
   5 H :    0.020373
   6 S :    1.716812
   7 C :    1.122408
   8 N :    0.152816
   9 N :   -0.086594
  10 H :   -0.025805
  11 H :   -0.263992
  12 H :   -0.846255
  13 H :   -0.289532
  14 H :   -0.221426
  15 O :   -0.686965
  16 F :   -0.552474
  17 C :    0.472366
  18 H :    0.175889
  19 H :   -0.215171
  20 C :    0.056319
  21 C :    0.353672
  22 H :    0.029703
  23 H :   -0.651850
  24 H :   -0.114250
  25 H :    0.063032
  26 C :    0.117310
  27 H :   -0.093101
  28 H :   -0.165192
  29 C :   -0.049339
  30 H :   -0.166066
  31 H :   -0.054378
  32 C :    0.701432
  33 H :   -0.401392
  34 H :    0.125003
  35 H :    0.134254
  36 H :   -0.388362
  37 H :   -0.050517
  38 H :   -0.004605
  39 O :   -0.841917
Sum of atomic charges:    0.0000000

LOEWDIN ATOMIC CHARGES
----------------------
   0 C :   -0.045147
   1 C :   -0.009612
   2 C :   -0.017820
   3 C :   -0.045153
   4 H :    0.032668
   5 H :    0.023988
   6 S :    1.228659
   7 C :   -0.189328
   8 N :    0.197049
   9 N :    0.192162
  10 H :   -0.015730
  11 H :   -0.014671
  12 H :   -0.146175
  13 H :   -0.115909
  14 H :   -0.006979
  15 O :   -0.456125
  16 F :   -0.250387
  17 C :   -0.030758
  18 H :    0.010784
  19 H :    0.005578
  20 C :   -0.035338
  21 C :   -0.023177
  22 H :    0.041572
  23 H :   -0.013171
  24 H :    0.040471
  25 H :    0.033362
  26 C :   -0.031615
  27 H :    0.014835
  28 H :    0.010539
  29 C :   -0.036568
  30 H :    0.023758
  31 H :    0.007395
  32 C :   -0.032202
  33 H :    0.023335
  34 H :    0.007093
  35 H :    0.020185
  36 H :    0.022366
  37 H :    0.020606
  38 H :    0.022658
  39 O :   -0.463198

  Mayer bond orders larger than 0.100000
B(  0-C ,  1-C ) :   1.1715 B(  0-C , 12-H ) :   0.8308 B(  0-C , 17-C ) :   1.1164
B(  0-C , 18-H ) :   0.6647 B(  0-C , 19-H ) :   0.9146 B(  0-C , 26-C ) :   0.1244
B(  0-C , 27-H ) :   0.1912 B(  0-C , 28-H ) :   0.1103 B(  0-C , 30-H ) :  -0.1300
B(  1-C ,  7-C ) :   1.5928 B(  1-C ,  8-N ) :   0.3201 B(  1-C ,  9-N ) :   0.3087
B(  1-C , 12-H ) :  -0.3867 B(  1-C , 18-H ) :   0.4216 B(  1-C , 19-H ) :   0.1521
B(  2-C ,  3-C ) :   1.2600 B(  2-C ,  5-H ) :   0.2722 B(  2-C , 20-C ) :   0.1142
B(  2-C , 21-C ) :   1.1112 B(  2-C , 22-H ) :   0.1011 B(  2-C , 24-H ) :   0.8493
B(  2-C , 25-H ) :   0.8579 B(  3-C ,  4-H ) :   0.9257 B(  3-C ,  5-H ) :   0.6922
B(  3-C ,  6-S ) :   0.9781 B(  3-C , 21-C ) :   0.1166 B(  6-S , 15-O ) :   1.3235
B(  6-S , 16-F ) :   0.4162 B(  6-S , 39-O ) :   1.4169 B(  7-C ,  8-N ) :   0.7357
B(  7-C ,  9-N ) :   0.7012 B(  7-C , 11-H ) :  -0.1870 B(  7-C , 12-H ) :  -0.1658
B(  7-C , 13-H ) :  -0.2765 B(  7-C , 14-H ) :  -0.1681 B(  8-N , 13-H ) :   1.2327
B(  8-N , 14-H ) :   1.3437 B(  9-N , 10-H ) :   1.0574 B(  9-N , 11-H ) :   1.3361
B( 10-H , 11-H ) :  -0.2055 B( 11-H , 12-H ) :  -0.1058 B( 12-H , 18-H ) :  -0.2220
B( 12-H , 39-O ) :   0.1735 B( 13-H , 14-H ) :  -0.2519 B( 17-C , 26-C ) :   1.2881
B( 17-C , 27-H ) :   0.8027 B( 17-C , 28-H ) :   0.7112 B( 17-C , 31-H ) :   0.1140
B( 18-H , 19-H ) :  -0.1420 B( 20-C , 21-C ) :   1.2165 B( 20-C , 22-H ) :   0.1100
B( 20-C , 29-C ) :   0.1335 B( 20-C , 32-C ) :   1.1258 B( 20-C , 35-H ) :   0.8444
B( 20-C , 36-H ) :   1.0064 B( 20-C , 38-H ) :   0.2264 B( 21-C , 22-H ) :   0.6913
B( 21-C , 23-H ) :   0.7937 B( 21-C , 24-H ) :   0.1865 B( 21-C , 36-H ) :   0.2002
B( 22-H , 23-H ) :   0.2151 B( 23-H , 34-H ) :   0.1437 B( 26-C , 27-H ) :   0.1009
B( 26-C , 28-H ) :   0.2242 B( 26-C , 29-C ) :   1.1940 B( 26-C , 30-H ) :   0.8473
B( 26-C , 31-H ) :   0.9161 B( 26-C , 33-H ) :   0.1193 B( 27-H , 28-H ) :  -0.1692
B( 29-C , 30-H ) :   0.1201 B( 29-C , 31-H ) :   0.1083 B( 29-C , 32-C ) :   1.1175
B( 29-C , 33-H ) :   1.0747 B( 29-C , 34-H ) :   0.8471 B( 29-C , 37-H ) :   0.2962
B( 29-C , 38-H ) :   0.1188 B( 31-H , 35-H ) :   0.1124 B( 32-C , 37-H ) :   0.6850
B( 32-C , 38-H ) :   0.7031 B( 37-H , 38-H ) :  -0.1427

Dispersion correction           -0.003045972
FINAL SINGLE POINT ENERGY     -1189.844342503818

DIPOLE MOMENT
-------------
                                X             Y             Z
Electronic contribution:    -20.55577       3.45305     -21.96928
Nuclear contribution   :     19.99734      -4.67125      20.55522
                        -----------------------------------------
Total Dipole Moment    :     -0.55843      -1.21819      -1.41406
                        -----------------------------------------
Magnitude (a.u.)       :      1.94818
Magnitude (Debye)      :      4.95189

Rotational constants in cm-1:     0.014213     0.012058     0.007367
Rotational constants in MHz :   426.102180   361.491761   220.844824

                             ****ORCA TERMINATED NORMALLY****
TOTAL RUN TIME: 0 days 0 hours 5 minutes 15 seconds 592 msec
