                         Program Version 5.0.0 -  RELEASE  -
|  1> !M062X D3Zero RIJCOSX def2-SVPD def2/J TightSCF xyzfile
|  2>
|  3> *xyzfile 0 1 D6.xyz
|  4>
|  5> %MaxCore 64000
|  6>
|  7> %pal nprocs 4
|  8> end
|  9>
| 10> %scf
| 11>   MaxIter 150
| 12> end
| 13>
| 14>
| 15>                          ****END OF INPUT****

CARTESIAN COORDINATES (ANGSTROEM)
---------------------------------
  C      4.490588    1.155899   -2.469290
  N      4.305394    1.222762   -3.908317
  C      4.906458   -3.102816   -5.954844
  C      3.511771   -2.806215   -6.492283
  H      2.736044   -3.373445   -5.973736
  H      3.444904   -3.040831   -7.555281
  S      3.004618   -1.096206   -6.389259
  C      4.631918    2.246365   -4.670958
  N      4.541686    2.143990   -5.987139
  C      5.084086    3.393584   -4.118545
  H      4.920675    3.570501   -3.135870
  H      5.254652    4.197390   -4.706956
  H      3.824530    0.449113   -4.350926
  H      4.343373    1.249318   -6.416646
  H      4.676712    2.956624   -6.574113
  O      4.128856   -0.329647   -6.953717
  F      1.781285   -1.000779   -7.136399
  C      5.942129    0.939500   -2.036893
  H      3.864305    0.328532   -2.136611
  H      4.076233    2.049994   -1.989010
  C      6.462677   -3.117775   -3.944671
  C      5.024977   -3.025679   -4.437625
  H      4.423321   -3.818693   -3.977648
  H      4.579350   -2.087131   -4.108727
  H      5.201533   -4.100207   -6.296905
  H      5.605922   -2.397822   -6.413368
  C      6.559957   -0.356290   -2.559086
  H      5.967976    0.952567   -0.942444
  H      6.547184    1.788331   -2.368849
  C      6.006283   -1.615917   -1.899301
  H      7.642360   -0.318000   -2.402059
  H      6.414855   -0.403433   -3.642587
  C      6.608718   -2.917014   -2.435655
  H      6.190324   -1.561115   -0.820948
  H      4.919250   -1.651245   -2.016586
  H      7.066975   -2.374258   -4.475514
  H      6.887808   -4.089747   -4.215332
  H      6.135197   -3.755573   -1.915159
  H      7.671142   -2.955503   -2.172291
  O      2.851546   -0.783683   -4.956789

 Total Charge           Charge          ....    0
 Multiplicity           Mult            ....    1
 Number of Electrons    NEL             ....  144
 Basis Dimension        Dim             ....  540

ORBITAL ENERGIES
----------------

  NO   OCC          E(Eh)            E(eV)
   0   2.0000     -90.233227     -2455.3709
   1   2.0000     -25.411364      -691.4784
   2   2.0000     -19.680238      -535.5265
   3   2.0000     -19.679680      -535.5113
   4   2.0000     -14.722912      -400.6308
   5   2.0000     -14.718782      -400.5184
   6   2.0000     -10.638340      -289.4840
   7   2.0000     -10.592982      -288.2497
   8   2.0000     -10.567788      -287.5641
   9   2.0000     -10.561022      -287.3800
  10   2.0000     -10.558881      -287.3218
  11   2.0000     -10.552397      -287.1453
  12   2.0000     -10.545410      -286.9552
  13   2.0000     -10.537181      -286.7313
  14   2.0000     -10.528946      -286.5072
  15   2.0000     -10.522364      -286.3281
  16   2.0000     -10.433548      -283.9113
  17   2.0000      -8.556581      -232.8364
  18   2.0000      -6.484985      -176.4654
  19   2.0000      -6.479991      -176.3295
  20   2.0000      -6.478477      -176.2883
  21   2.0000      -1.550637       -42.1950
  22   2.0000      -1.257134       -34.2084
  23   2.0000      -1.151680       -31.3388
  24   2.0000      -1.037744       -28.2384
  25   2.0000      -0.953521       -25.9466
  26   2.0000      -0.947838       -25.7920
  27   2.0000      -0.907921       -24.7058
  28   2.0000      -0.877593       -23.8805
  29   2.0000      -0.850565       -23.1450
  30   2.0000      -0.818882       -22.2829
  31   2.0000      -0.779164       -21.2021
  32   2.0000      -0.764692       -20.8083
  33   2.0000      -0.741939       -20.1892
  34   2.0000      -0.723652       -19.6916
  35   2.0000      -0.714925       -19.4541
  36   2.0000      -0.695394       -18.9226
  37   2.0000      -0.676303       -18.4032
  38   2.0000      -0.665296       -18.1036
  39   2.0000      -0.631966       -17.1967
  40   2.0000      -0.615691       -16.7538
  41   2.0000      -0.599044       -16.3008
  42   2.0000      -0.597834       -16.2679
  43   2.0000      -0.577781       -15.7222
  44   2.0000      -0.570434       -15.5223
  45   2.0000      -0.552393       -15.0314
  46   2.0000      -0.548099       -14.9145
  47   2.0000      -0.533308       -14.5120
  48   2.0000      -0.522936       -14.2298
  49   2.0000      -0.508417       -13.8347
  50   2.0000      -0.500101       -13.6084
  51   2.0000      -0.498451       -13.5636
  52   2.0000      -0.491718       -13.3803
  53   2.0000      -0.473146       -12.8750
  54   2.0000      -0.458354       -12.4724
  55   2.0000      -0.451913       -12.2972
  56   2.0000      -0.448389       -12.2013
  57   2.0000      -0.441795       -12.0218
  58   2.0000      -0.430553       -11.7159
  59   2.0000      -0.424306       -11.5460
  60   2.0000      -0.421012       -11.4563
  61   2.0000      -0.414158       -11.2698
  62   2.0000      -0.406254       -11.0547
  63   2.0000      -0.403166       -10.9707
  64   2.0000      -0.397425       -10.8145
  65   2.0000      -0.391983       -10.6664
  66   2.0000      -0.384275       -10.4567
  67   2.0000      -0.367642       -10.0040
  68   2.0000      -0.366103        -9.9622
  69   2.0000      -0.356527        -9.7016
  70   2.0000      -0.277416        -7.5489
  71   2.0000      -0.185687        -5.0528
  72   0.0000      -0.005879        -0.1600
  73   0.0000       0.021173         0.5761
  74   0.0000       0.024322         0.6618
  75   0.0000       0.037268         1.0141
  76   0.0000       0.049562         1.3486

MULLIKEN ATOMIC CHARGES
-----------------------
   0 C :    1.029504
   1 N :    0.273017
   2 C :    0.192773
   3 C :    0.266471
   4 H :    0.047933
   5 H :    0.038220
   6 S :    1.678248
   7 C :    0.749216
   8 N :    0.527803
   9 C :    0.467846
  10 H :    0.169319
  11 H :   -0.714900
  12 H :   -1.356310
  13 H :   -0.458400
  14 H :   -0.211473
  15 O :   -0.714179
  16 F :   -0.553681
  17 C :    0.388673
  18 H :   -0.331067
  19 H :   -0.104762
  20 C :    0.036968
  21 C :    0.303489
  22 H :    0.034173
  23 H :   -0.600936
  24 H :   -0.107135
  25 H :    0.071309
  26 C :    0.154511
  27 H :   -0.156802
  28 H :   -0.082707
  29 C :   -0.125301
  30 H :   -0.211616
  31 H :   -0.111624
  32 C :    0.711292
  33 H :   -0.398240
  34 H :    0.165976
  35 H :    0.139308
  36 H :   -0.383707
  37 H :   -0.048879
  38 H :    0.002047
  39 O :   -0.776377
Sum of atomic charges:    0.0000000

LOEWDIN ATOMIC CHARGES
----------------------
   0 C :    0.069693
   1 N :    0.003571
   2 C :   -0.016200
   3 C :   -0.041969
   4 H :    0.033959
   5 H :    0.026890
   6 S :    1.233275
   7 C :   -0.213025
   8 N :    0.205723
   9 C :    0.154998
  10 H :   -0.122220
  11 H :   -0.114127
  12 H :   -0.098148
  13 H :   -0.125457
  14 H :    0.011204
  15 O :   -0.454738
  16 F :   -0.243790
  17 C :   -0.013821
  18 H :    0.015107
  19 H :    0.017167
  20 C :   -0.034023
  21 C :   -0.024778
  22 H :    0.042523
  23 H :   -0.016439
  24 H :    0.042756
  25 H :    0.034464
  26 C :   -0.031619
  27 H :    0.021702
  28 H :    0.011913
  29 C :   -0.039367
  30 H :    0.026557
  31 H :    0.007080
  32 C :   -0.030271
  33 H :    0.024767
  34 H :    0.004618
  35 H :    0.020922
  36 H :    0.024061
  37 H :    0.021724
  38 H :    0.024490
  39 O :   -0.459172

  Mayer bond orders larger than 0.100000
B(  0-C ,  1-N ) :   0.9876 B(  0-C , 10-H ) :   0.1276 B(  0-C , 12-H ) :  -0.6283
B(  0-C , 17-C ) :   1.0663 B(  0-C , 18-H ) :   0.6930 B(  0-C , 19-H ) :   0.8519
B(  0-C , 26-C ) :   0.1583 B(  1-N ,  7-C ) :   0.9654 B(  1-N ,  9-C ) :   0.2843
B(  1-N , 11-H ) :   0.1583 B(  1-N , 12-H ) :   0.8362 B(  1-N , 13-H ) :   0.1725
B(  1-N , 14-H ) :  -0.1249 B(  1-N , 18-H ) :   0.2971 B(  1-N , 28-H ) :   0.1174
B(  2-C ,  3-C ) :   1.2636 B(  2-C ,  5-H ) :   0.2740 B(  2-C , 20-C ) :   0.1174
B(  2-C , 21-C ) :   1.1172 B(  2-C , 22-H ) :   0.1031 B(  2-C , 24-H ) :   0.8559
B(  2-C , 25-H ) :   0.8575 B(  3-C ,  4-H ) :   0.9252 B(  3-C ,  5-H ) :   0.6869
B(  3-C ,  6-S ) :   0.9958 B(  3-C , 21-C ) :   0.1174 B(  6-S , 15-O ) :   1.3248
B(  6-S , 16-F ) :   0.4373 B(  6-S , 39-O ) :   1.3199 B(  7-C ,  8-N ) :   0.9068
B(  7-C ,  9-C ) :   1.6718 B(  7-C , 10-H ) :   0.3854 B(  7-C , 11-H ) :   0.3673
B(  7-C , 12-H ) :  -0.8615 B(  7-C , 13-H ) :  -0.2227 B(  7-C , 14-H ) :  -0.1222
B(  7-C , 18-H ) :   0.1352 B(  8-N ,  9-C ) :   0.1921 B(  8-N , 13-H ) :   0.9570
B(  8-N , 14-H ) :   1.2592 B(  8-N , 15-O ) :  -0.1068 B(  9-C , 10-H ) :   0.4941
B(  9-C , 11-H ) :   0.6971 B( 10-H , 13-H ) :   0.1818 B( 10-H , 18-H ) :  -0.1389
B( 10-H , 19-H ) :   0.1435 B( 11-H , 12-H ) :  -0.1350 B( 12-H , 13-H ) :   0.1142
B( 12-H , 39-O ) :   0.1822 B( 13-H , 14-H ) :  -0.2737 B( 13-H , 15-O ) :   0.1090
B( 17-C , 18-H ) :   0.1056 B( 17-C , 26-C ) :   1.1822 B( 17-C , 27-H ) :   0.9315
B( 17-C , 28-H ) :   0.7651 B( 18-H , 19-H ) :  -0.2585 B( 20-C , 21-C ) :   1.2293
B( 20-C , 22-H ) :   0.1101 B( 20-C , 29-C ) :   0.1392 B( 20-C , 32-C ) :   1.1284
B( 20-C , 35-H ) :   0.8471 B( 20-C , 36-H ) :   1.0094 B( 20-C , 38-H ) :   0.2236
B( 21-C , 22-H ) :   0.6967 B( 21-C , 23-H ) :   0.8427 B( 21-C , 24-H ) :   0.1880
B( 21-C , 36-H ) :   0.2012 B( 22-H , 23-H ) :   0.2045 B( 23-H , 34-H ) :   0.1425
B( 26-C , 28-H ) :   0.2239 B( 26-C , 29-C ) :   1.1971 B( 26-C , 30-H ) :   0.9033
B( 26-C , 31-H ) :   0.9360 B( 26-C , 33-H ) :   0.1272 B( 27-H , 28-H ) :  -0.1833
B( 29-C , 30-H ) :   0.1388 B( 29-C , 31-H ) :   0.1233 B( 29-C , 32-C ) :   1.1267
B( 29-C , 33-H ) :   1.0868 B( 29-C , 34-H ) :   0.8417 B( 29-C , 37-H ) :   0.2977
B( 29-C , 38-H ) :   0.1187 B( 31-H , 35-H ) :   0.1153 B( 32-C , 37-H ) :   0.6777
B( 32-C , 38-H ) :   0.7079 B( 37-H , 38-H ) :  -0.1448

Dispersion correction           -0.003071792
FINAL SINGLE POINT ENERGY     -1189.850549572178

DIPOLE MOMENT
-------------
                                X             Y             Z
Electronic contribution:    -21.10208       1.26886     -21.85410
Nuclear contribution   :     20.11362      -4.34709      20.52383
                        -----------------------------------------
Total Dipole Moment    :     -0.98846      -3.07822      -1.33028
                        -----------------------------------------
Magnitude (a.u.)       :      3.49602
Magnitude (Debye)      :      8.88617

Rotational constants in cm-1:     0.014449     0.012108     0.007447
Rotational constants in MHz :   433.168496   362.988632   223.260798

                             ****ORCA TERMINATED NORMALLY****
TOTAL RUN TIME: 0 days 0 hours 5 minutes 13 seconds 182 msec
