                         Program Version 5.0.0 -  RELEASE  -
|  1> !M062X D3Zero RIJCOSX def2-SVPD def2/J TightSCF xyzfile
|  2>
|  3> *xyzfile 0 1 D8.xyz
|  4>
|  5> %MaxCore 64000
|  6>
|  7> %pal nprocs 4
|  8> end
|  9>
| 10> %scf
| 11>   MaxIter 150
| 12> end
| 13>
| 14>
| 15>                          ****END OF INPUT****

CARTESIAN COORDINATES (ANGSTROEM)
---------------------------------
  C      4.490588    1.155899   -2.469290
  N      4.305394    1.222762   -3.908317
  C      4.906458   -3.102816   -5.954844
  C      3.511771   -2.806215   -6.492283
  H      2.736044   -3.373445   -5.973736
  H      3.444904   -3.040831   -7.555281
  S      3.004618   -1.096206   -6.389259
  C      4.631918    2.246365   -4.670958
  C      4.541686    2.143990   -5.987139
  N      5.084086    3.393584   -4.118545
  H      4.920675    3.570501   -3.135870
  H      5.254652    4.197390   -4.706956
  H      3.824530    0.449113   -4.350926
  H      4.343373    1.249318   -6.416646
  H      4.676712    2.956624   -6.574113
  O      4.128856   -0.329647   -6.953717
  O      1.781285   -1.000779   -7.136399
  C      5.942129    0.939500   -2.036893
  H      3.864305    0.328532   -2.136611
  H      4.076233    2.049994   -1.989010
  C      6.462677   -3.117775   -3.944671
  C      5.024977   -3.025679   -4.437625
  H      4.423321   -3.818693   -3.977648
  H      4.579350   -2.087131   -4.108727
  H      5.201533   -4.100207   -6.296905
  H      5.605922   -2.397822   -6.413368
  C      6.559957   -0.356290   -2.559086
  H      5.967976    0.952567   -0.942444
  H      6.547184    1.788331   -2.368849
  C      6.006283   -1.615917   -1.899301
  H      7.642360   -0.318000   -2.402059
  H      6.414855   -0.403433   -3.642587
  C      6.608718   -2.917014   -2.435655
  H      6.190324   -1.561115   -0.820948
  H      4.919250   -1.651245   -2.016586
  H      7.066975   -2.374258   -4.475514
  H      6.887808   -4.089747   -4.215332
  H      6.135197   -3.755573   -1.915159
  H      7.671142   -2.955503   -2.172291
  F      2.851546   -0.783683   -4.956789

 Total Charge           Charge          ....    0
 Multiplicity           Mult            ....    1
 Number of Electrons    NEL             ....  144
 Basis Dimension        Dim             ....  540

ORBITAL ENERGIES
----------------

  NO   OCC          E(Eh)            E(eV)
   0   2.0000     -90.204768     -2454.5965
   1   2.0000     -25.382591      -690.6954
   2   2.0000     -19.661392      -535.0137
   3   2.0000     -19.648584      -534.6652
   4   2.0000     -14.746742      -401.2792
   5   2.0000     -14.746006      -401.2592
   6   2.0000     -10.619876      -288.9815
   7   2.0000     -10.584223      -288.0114
   8   2.0000     -10.582143      -287.9547
   9   2.0000     -10.578431      -287.8537
  10   2.0000     -10.568172      -287.5746
  11   2.0000     -10.557713      -287.2900
  12   2.0000     -10.553600      -287.1781
  13   2.0000     -10.550095      -287.0827
  14   2.0000     -10.544619      -286.9337
  15   2.0000     -10.544228      -286.9230
  16   2.0000     -10.432915      -283.8940
  17   2.0000      -8.528046      -232.0599
  18   2.0000      -6.456569      -175.6922
  19   2.0000      -6.451239      -175.5471
  20   2.0000      -6.450101      -175.5162
  21   2.0000      -1.510268       -41.0965
  22   2.0000      -1.239341       -33.7242
  23   2.0000      -1.135049       -30.8863
  24   2.0000      -1.055950       -28.7339
  25   2.0000      -0.963506       -26.2183
  26   2.0000      -0.943234       -25.6667
  27   2.0000      -0.910578       -24.7781
  28   2.0000      -0.881042       -23.9744
  29   2.0000      -0.846317       -23.0294
  30   2.0000      -0.824461       -22.4347
  31   2.0000      -0.798136       -21.7184
  32   2.0000      -0.762308       -20.7435
  33   2.0000      -0.736747       -20.0479
  34   2.0000      -0.716709       -19.5027
  35   2.0000      -0.703646       -19.1472
  36   2.0000      -0.687114       -18.6973
  37   2.0000      -0.674187       -18.3456
  38   2.0000      -0.654379       -17.8066
  39   2.0000      -0.645589       -17.5674
  40   2.0000      -0.634493       -17.2654
  41   2.0000      -0.593231       -16.1426
  42   2.0000      -0.581778       -15.8310
  43   2.0000      -0.564948       -15.3730
  44   2.0000      -0.559791       -15.2327
  45   2.0000      -0.557147       -15.1607
  46   2.0000      -0.546296       -14.8655
  47   2.0000      -0.542457       -14.7610
  48   2.0000      -0.534693       -14.5497
  49   2.0000      -0.516311       -14.0495
  50   2.0000      -0.512453       -13.9445
  51   2.0000      -0.502393       -13.6708
  52   2.0000      -0.485769       -13.2184
  53   2.0000      -0.477589       -12.9959
  54   2.0000      -0.463725       -12.6186
  55   2.0000      -0.458596       -12.4790
  56   2.0000      -0.453787       -12.3482
  57   2.0000      -0.445063       -12.1108
  58   2.0000      -0.436319       -11.8728
  59   2.0000      -0.430879       -11.7248
  60   2.0000      -0.428331       -11.6555
  61   2.0000      -0.414505       -11.2793
  62   2.0000      -0.410176       -11.1614
  63   2.0000      -0.404015       -10.9938
  64   2.0000      -0.400768       -10.9055
  65   2.0000      -0.394516       -10.7353
  66   2.0000      -0.381482       -10.3806
  67   2.0000      -0.380029       -10.3411
  68   2.0000      -0.373183       -10.1548
  69   2.0000      -0.363225        -9.8838
  70   2.0000      -0.305524        -8.3137
  71   2.0000      -0.196664        -5.3515
  72   0.0000       0.010379         0.2824
  73   0.0000       0.027876         0.7586
  74   0.0000       0.037042         1.0080
  75   0.0000       0.040018         1.0889
  76   0.0000       0.052235         1.4214

MULLIKEN ATOMIC CHARGES
-----------------------
   0 C :    1.089985
   1 N :    0.337836
   2 C :    0.256805
   3 C :    0.289325
   4 H :    0.014030
   5 H :    0.038472
   6 S :    1.559577
   7 C :    1.187522
   8 C :    0.489557
   9 N :    0.170104
  10 H :   -0.041124
  11 H :   -0.214423
  12 H :   -1.316305
  13 H :   -0.387222
  14 H :   -0.673720
  15 O :   -0.733591
  16 O :   -0.764824
  17 C :    0.352861
  18 H :   -0.319590
  19 H :   -0.198730
  20 C :    0.034837
  21 C :    0.299512
  22 H :    0.034108
  23 H :   -0.644802
  24 H :   -0.104179
  25 H :    0.076983
  26 C :    0.187802
  27 H :   -0.186009
  28 H :   -0.055707
  29 C :   -0.109976
  30 H :   -0.202120
  31 H :   -0.103901
  32 C :    0.696818
  33 H :   -0.399293
  34 H :    0.153706
  35 H :    0.135140
  36 H :   -0.374509
  37 H :   -0.046364
  38 H :    0.004630
  39 F :   -0.533225
Sum of atomic charges:   -0.0000000

LOEWDIN ATOMIC CHARGES
----------------------
   0 C :    0.061293
   1 N :   -0.002764
   2 C :   -0.030875
   3 C :   -0.036883
   4 H :    0.030534
   5 H :    0.039469
   6 S :    1.188103
   7 C :   -0.209499
   8 C :    0.183086
   9 N :    0.189801
  10 H :   -0.027607
  11 H :    0.004638
  12 H :   -0.057719
  13 H :   -0.191650
  14 H :   -0.091771
  15 O :   -0.458505
  16 O :   -0.452204
  17 C :   -0.019797
  18 H :    0.014469
  19 H :    0.011907
  20 C :   -0.031723
  21 C :   -0.031530
  22 H :    0.041658
  23 H :   -0.017286
  24 H :    0.039497
  25 H :    0.032858
  26 C :   -0.029579
  27 H :    0.021667
  28 H :    0.013707
  29 C :   -0.040244
  30 H :    0.028754
  31 H :    0.009905
  32 C :   -0.029295
  33 H :    0.025289
  34 H :    0.001887
  35 H :    0.022294
  36 H :    0.027093
  37 H :    0.022912
  38 H :    0.025386
  39 F :   -0.277278

  Mayer bond orders larger than 0.100000
B(  0-C ,  1-N ) :   0.9753 B(  0-C , 12-H ) :  -0.6225 B(  0-C , 17-C ) :   1.0879
B(  0-C , 18-H ) :   0.5995 B(  0-C , 19-H ) :   0.8595 B(  0-C , 26-C ) :   0.1716
B(  1-N ,  7-C ) :   1.2198 B(  1-N ,  8-C ) :   0.1323 B(  1-N ,  9-N ) :   0.3284
B(  1-N , 12-H ) :   0.6583 B(  1-N , 14-H ) :  -0.1193 B(  1-N , 18-H ) :   0.2566
B(  1-N , 39-F ) :  -0.1691 B(  2-C ,  3-C ) :   1.2356 B(  2-C ,  5-H ) :   0.2444
B(  2-C , 20-C ) :   0.1129 B(  2-C , 21-C ) :   1.1448 B(  2-C , 22-H ) :   0.1036
B(  2-C , 24-H ) :   0.8473 B(  2-C , 25-H ) :   0.8739 B(  3-C ,  4-H ) :   0.9440
B(  3-C ,  5-H ) :   0.7253 B(  3-C ,  6-S ) :   0.9637 B(  3-C , 21-C ) :   0.1057
B(  6-S , 15-O ) :   1.4388 B(  6-S , 16-O ) :   1.3972 B(  6-S , 39-F ) :   0.5250
B(  7-C ,  8-C ) :   1.2550 B(  7-C ,  9-N ) :   0.7451 B(  7-C , 11-H ) :  -0.1117
B(  7-C , 12-H ) :  -0.9267 B(  7-C , 14-H ) :   0.1461 B(  7-C , 17-C ) :   0.1122
B(  8-C ,  9-N ) :   0.2865 B(  8-C , 12-H ) :   0.1164 B(  8-C , 13-H ) :   0.4960
B(  8-C , 14-H ) :   0.7879 B(  9-N , 10-H ) :   0.9719 B(  9-N , 11-H ) :   1.2136
B(  9-N , 18-H ) :  -0.1005 B( 10-H , 11-H ) :  -0.2019 B( 12-H , 18-H ) :   0.1697
B( 12-H , 39-F ) :   0.2164 B( 13-H , 14-H ) :  -0.2542 B( 17-C , 18-H ) :   0.1095
B( 17-C , 19-H ) :   0.1014 B( 17-C , 26-C ) :   1.2158 B( 17-C , 27-H ) :   0.9709
B( 17-C , 28-H ) :   0.7199 B( 18-H , 19-H ) :  -0.2273 B( 18-H , 26-C ) :  -0.1102
B( 20-C , 21-C ) :   1.2323 B( 20-C , 22-H ) :   0.1091 B( 20-C , 23-H ) :   0.1059
B( 20-C , 29-C ) :   0.1445 B( 20-C , 32-C ) :   1.1270 B( 20-C , 35-H ) :   0.8492
B( 20-C , 36-H ) :   1.0059 B( 20-C , 38-H ) :   0.2246 B( 21-C , 22-H ) :   0.6957
B( 21-C , 23-H ) :   0.7895 B( 21-C , 24-H ) :   0.1916 B( 21-C , 36-H ) :   0.1968
B( 22-H , 23-H ) :   0.2212 B( 23-H , 34-H ) :   0.1532 B( 26-C , 28-H ) :   0.2166
B( 26-C , 29-C ) :   1.1971 B( 26-C , 30-H ) :   0.8920 B( 26-C , 31-H ) :   0.9353
B( 26-C , 33-H ) :   0.1244 B( 27-H , 28-H ) :  -0.1457 B( 29-C , 30-H ) :   0.1371
B( 29-C , 31-H ) :   0.1119 B( 29-C , 32-C ) :   1.1289 B( 29-C , 33-H ) :   1.0857
B( 29-C , 34-H ) :   0.8348 B( 29-C , 37-H ) :   0.2943 B( 29-C , 38-H ) :   0.1171
B( 31-H , 35-H ) :   0.1168 B( 32-C , 37-H ) :   0.6809 B( 32-C , 38-H ) :   0.7088
B( 37-H , 38-H ) :  -0.1443

Dispersion correction           -0.003070670
FINAL SINGLE POINT ENERGY     -1189.840392680170

DIPOLE MOMENT
-------------
                                X             Y             Z
Electronic contribution:    -18.40121       3.12663     -16.15607
Nuclear contribution   :     18.77618      -4.78855      17.68602
                        -----------------------------------------
Total Dipole Moment    :      0.37497      -1.66191       1.52996
                        -----------------------------------------
Magnitude (a.u.)       :      2.28983
Magnitude (Debye)      :      5.82028

Rotational constants in cm-1:     0.014368     0.012319     0.007509
Rotational constants in MHz :   430.738566   369.302170   225.105103

                             ****ORCA TERMINATED NORMALLY****
TOTAL RUN TIME: 0 days 0 hours 5 minutes 18 seconds 560 msec
