                         Program Version 5.0.0 -  RELEASE  -
|  1> !PBE0 D3BJ RIJCOSX def2-SVPD def2/J TightSCF
|  2> *xyz -1 1
|  3> C          0.84888        2.66797       -4.30235
|  4> C          2.09343        1.86104       -4.65684
|  5> H          2.44481        2.04157       -5.67499
|  6> H          2.90175        2.13786       -3.98034
|  7> S          1.87964        0.07859       -4.46297
|  8> O          3.20757       -0.46611       -4.42026
|  9> O          1.07506       -0.05616       -3.26876
| 10> O          1.13166       -0.31996       -5.67903
| 11> H          0.05064        2.40112       -4.96303
| 12> H          1.06043        3.71210       -4.40203
| 13> H          0.56237        2.45684       -3.29327
| 14> *
| 15>
| 16> %MaxCore 64000
| 17>
| 18> %pal nprocs 4
| 19> end
| 20>
| 21> %scf
| 22>   MaxIter 150
| 23> end
| 24>
| 25>
| 26>                          ****END OF INPUT****

CARTESIAN COORDINATES (ANGSTROEM)
---------------------------------
  C      0.848880    2.667970   -4.302350
  C      2.093430    1.861040   -4.656840
  H      2.444810    2.041570   -5.674990
  H      2.901750    2.137860   -3.980340
  S      1.879640    0.078590   -4.462970
  O      3.207570   -0.466110   -4.420260
  O      1.075060   -0.056160   -3.268760
  O      1.131660   -0.319960   -5.679030
  H      0.050640    2.401120   -4.963030
  H      1.060430    3.712100   -4.402030
  H      0.562370    2.456840   -3.293270

 Total Charge           Charge          ....   -1
 Multiplicity           Mult            ....    1
 Number of Electrons    NEL             ....   58
 Basis Dimension        Dim             ....  176

ORBITAL ENERGIES
----------------

  NO   OCC          E(Eh)            E(eV)
   0   2.0000     -89.036378     -2422.8030
   1   2.0000     -19.000793      -517.0379
   2   2.0000     -18.997529      -516.9490
   3   2.0000     -18.985161      -516.6125
   4   2.0000     -10.093175      -274.6493
   5   2.0000     -10.086585      -274.4699
   6   2.0000      -7.996046      -217.5835
   7   2.0000      -5.938327      -161.5901
   8   2.0000      -5.938118      -161.5844
   9   2.0000      -5.937717      -161.5735
  10   2.0000      -0.960697       -26.1419
  11   2.0000      -0.822755       -22.3883
  12   2.0000      -0.796020       -21.6608
  13   2.0000      -0.648237       -17.6394
  14   2.0000      -0.519309       -14.1311
  15   2.0000      -0.397574       -10.8185
  16   2.0000      -0.335279        -9.1234
  17   2.0000      -0.330727        -8.9995
  18   2.0000      -0.293610        -7.9895
  19   2.0000      -0.281076        -7.6485
  20   2.0000      -0.271421        -7.3857
  21   2.0000      -0.243249        -6.6191
  22   2.0000      -0.225631        -6.1397
  23   2.0000      -0.168138        -4.5753
  24   2.0000      -0.167861        -4.5677
  25   2.0000      -0.133021        -3.6197
  26   2.0000      -0.122492        -3.3332
  27   2.0000      -0.112136        -3.0514
  28   2.0000      -0.080022        -2.1775
  29   0.0000       0.150031         4.0825
  30   0.0000       0.176133         4.7928
  31   0.0000       0.183654         4.9975
  32   0.0000       0.188879         5.1396
  33   0.0000       0.210491         5.7277

MULLIKEN ATOMIC CHARGES
-----------------------
   0 C :    0.576019
   1 C :   -0.479125
   2 H :   -0.009112
   3 H :    0.038254
   4 S :    1.445660
   5 O :   -0.820066
   6 O :   -0.834388
   7 O :   -0.866464
   8 H :   -0.004883
   9 H :   -0.062235
  10 H :    0.016340
Sum of atomic charges:   -1.0000000

LOEWDIN ATOMIC CHARGES
----------------------
   0 C :    0.091890
   1 C :   -0.137159
   2 H :    0.005858
   3 H :   -0.001300
   4 S :    0.866056
   5 O :   -0.576133
   6 O :   -0.575495
   7 O :   -0.602272
   8 H :   -0.013772
   9 H :   -0.033467
  10 H :   -0.024205

  Mayer bond orders larger than 0.100000
B(  0-C ,  1-C ) :   1.2968 B(  0-C ,  8-H ) :   0.8464 B(  0-C ,  9-H ) :   0.8031
B(  0-C , 10-H ) :   0.8472 B(  1-C ,  2-H ) :   1.0098 B(  1-C ,  3-H ) :   0.9974
B(  1-C ,  4-S ) :   0.9232 B(  1-C ,  8-H ) :   0.1655 B(  1-C ,  9-H ) :   0.1796
B(  1-C , 10-H ) :   0.1806 B(  4-S ,  5-O ) :   1.3147 B(  4-S ,  6-O ) :   1.2821
B(  4-S ,  7-O ) :   1.2482

Dispersion correction           -0.008291641
FINAL SINGLE POINT ENERGY      -702.319205486157

DIPOLE MOMENT
-------------
                                X             Y             Z
Electronic contribution:      1.61433      -7.64172       0.05803
Nuclear contribution   :     -1.55288       9.51857       0.00420
                        -----------------------------------------
Total Dipole Moment    :      0.06145       1.87686       0.06224
                        -----------------------------------------
Magnitude (a.u.)       :      1.87889
Magnitude (Debye)      :      4.77577

Rotational constants in cm-1:     0.163401     0.083833     0.082462
Rotational constants in MHz :  4898.624208  2513.264548  2472.149188

                             ****ORCA TERMINATED NORMALLY****
TOTAL RUN TIME: 0 days 0 hours 0 minutes 21 seconds 545 msec
