                         Program Version 5.0.0 -  RELEASE  -
|  1> !PBE0 D3BJ RIJCOSX def2-SVPD def2/J TightSCF
|  2> *xyz 1 1
|  3> C         -0.46129        2.23469       -4.98962
|  4> C          0.84888        2.66797       -4.30235
|  5> C         -0.42384        2.39877       -6.47432
|  6> N         -0.95947        3.49265       -7.00740
|  7> N          0.14558        1.48689       -7.20399
|  8> H          0.56537        0.69681       -6.72386
|  9> H          0.22068        1.58177       -8.20752
| 10> H         -1.40624        4.18151       -6.40326
| 11> H         -0.93421        3.68160       -7.99947
| 12> H         -1.28888        2.82674       -4.59500
| 13> H         -0.65170        1.18634       -4.75655
| 14> H          1.66208        2.08894       -4.68750
| 15> H          0.76716        2.51042       -3.24717
| 16> H          1.02677        3.70527       -4.49537
| 17> *
| 18>
| 19> %MaxCore 64000
| 20>
| 21> %pal nprocs 4
| 22> end
| 23>
| 24> %scf
| 25>   MaxIter 150
| 26> end
| 27>
| 28>
| 29>                          ****END OF INPUT****

CARTESIAN COORDINATES (ANGSTROEM)
---------------------------------
  C     -0.461290    2.234690   -4.989620
  C      0.848880    2.667970   -4.302350
  C     -0.423840    2.398770   -6.474320
  N     -0.959470    3.492650   -7.007400
  N      0.145580    1.486890   -7.203990
  H      0.565370    0.696810   -6.723860
  H      0.220680    1.581770   -8.207520
  H     -1.406240    4.181510   -6.403260
  H     -0.934210    3.681600   -7.999470
  H     -1.288880    2.826740   -4.595000
  H     -0.651700    1.186340   -4.756550
  H      1.662080    2.088940   -4.687500
  H      0.767160    2.510420   -3.247170
  H      1.026770    3.705270   -4.495370

 Total Charge           Charge          ....    1
 Multiplicity           Mult            ....    1
 Number of Electrons    NEL             ....   40
 Basis Dimension        Dim             ....  172

ORBITAL ENERGIES
----------------

  NO   OCC          E(Eh)            E(eV)
   0   2.0000     -14.645207      -398.5164
   1   2.0000     -14.641483      -398.4150
   2   2.0000     -10.556231      -287.2496
   3   2.0000     -10.433036      -283.8973
   4   2.0000     -10.389538      -282.7137
   5   2.0000      -1.225021       -33.3345
   6   2.0000      -1.127711       -30.6866
   7   2.0000      -0.986968       -26.8568
   8   2.0000      -0.877719       -23.8840
   9   2.0000      -0.833268       -22.6744
  10   2.0000      -0.796947       -21.6860
  11   2.0000      -0.766755       -20.8645
  12   2.0000      -0.718226       -19.5439
  13   2.0000      -0.665425       -18.1071
  14   2.0000      -0.638191       -17.3661
  15   2.0000      -0.630162       -17.1476
  16   2.0000      -0.559424       -15.2227
  17   2.0000      -0.548601       -14.9282
  18   2.0000      -0.541389       -14.7319
  19   2.0000      -0.506789       -13.7904
  20   0.0000      -0.206336        -5.6147
  21   0.0000      -0.152206        -4.1417
  22   0.0000      -0.108013        -2.9392
  23   0.0000      -0.106239        -2.8909
  24   0.0000      -0.076823        -2.0905

MULLIKEN ATOMIC CHARGES
-----------------------
   0 C :   -0.474204
   1 C :    0.478017
   2 C :    0.959307
   3 N :   -0.154429
   4 N :   -0.014886
   5 H :    0.091691
   6 H :   -0.128527
   7 H :    0.074891
   8 H :   -0.107676
   9 H :    0.067936
  10 H :    0.086157
  11 H :    0.023175
  12 H :    0.079834
  13 H :    0.018715
Sum of atomic charges:    1.0000000

LOEWDIN ATOMIC CHARGES
----------------------
   0 C :    0.006263
   1 C :    0.170370
   2 C :   -0.042472
   3 N :    0.276923
   4 N :    0.281521
   5 H :    0.060524
   6 H :    0.054681
   7 H :    0.055993
   8 H :    0.045272
   9 H :    0.041274
  10 H :    0.046766
  11 H :   -0.006146
  12 H :    0.009782
  13 H :   -0.000751

  Mayer bond orders larger than 0.100000
B(  0-C ,  1-C ) :   1.2826 B(  0-C ,  2-C ) :   1.1218 B(  0-C ,  9-H ) :   0.9145
B(  0-C , 10-H ) :   0.9174 B(  0-C , 11-H ) :   0.1619 B(  0-C , 12-H ) :   0.1250
B(  0-C , 13-H ) :   0.1444 B(  1-C , 11-H ) :   0.8360 B(  1-C , 12-H ) :   0.8531
B(  1-C , 13-H ) :   0.8731 B(  2-C ,  3-N ) :   0.9192 B(  2-C ,  4-N ) :   1.1048
B(  2-C ,  6-H ) :  -0.1732 B(  2-C ,  8-H ) :  -0.2066 B(  3-N ,  4-N ) :   0.1684
B(  3-N ,  7-H ) :   1.0734 B(  3-N ,  8-H ) :   1.3269 B(  4-N ,  5-H ) :   1.0523
B(  4-N ,  6-H ) :   1.3148 B(  5-H ,  6-H ) :  -0.1610 B(  7-H ,  8-H ) :  -0.1693

Dispersion correction           -0.008491359
FINAL SINGLE POINT ENERGY      -228.620280438566

DIPOLE MOMENT
-------------
                                X             Y             Z
Electronic contribution:     -1.55503      -0.26733      -3.88090
Nuclear contribution   :      1.33202       0.27544       2.83701
                        -----------------------------------------
Total Dipole Moment    :     -0.22301       0.00811      -1.04389
                        -----------------------------------------
Magnitude (a.u.)       :      1.06748
Magnitude (Debye)      :      2.71331

Rotational constants in cm-1:     0.258570     0.126296     0.098869
Rotational constants in MHz :  7751.748523  3786.267300  2964.011691

                             ****ORCA TERMINATED NORMALLY****
TOTAL RUN TIME: 0 days 0 hours 0 minutes 22 seconds 443 msec
