                         Program Version 5.0.0 -  RELEASE  -
|  1> !PBE0 D3BJ RIJCOSX def2-SVPD def2/J TightSCF xyzfile
|  2>
|  3> *xyzfile 0 1 B.xyz
|  4>
|  5> %MaxCore 64000
|  6>
|  7> %pal nprocs 4
|  8> end
|  9>
| 10> %scf
| 11>   MaxIter 150
| 12> end
| 13>
| 14>
| 15>                          ****END OF INPUT****

CARTESIAN COORDINATES (ANGSTROEM)
---------------------------------
  C     -0.461293    2.234686   -4.989619
  C      0.848883    2.667967   -4.302351
  C      2.093434    1.861037   -4.656845
  H      2.444814    2.041567   -5.674990
  H      2.901748    2.137864   -3.980338
  S      1.879644    0.078594   -4.462965
  C     -0.423841    2.398772   -6.474317
  N     -0.959467    3.492647   -7.007401
  N      0.145585    1.486891   -7.203987
  H      0.565371    0.696807   -6.723858
  H      0.220682    1.581768   -8.207520
  H     -1.406243    4.181507   -6.403261
  H     -0.934215    3.681601   -7.999468
  O      3.207574   -0.466111   -4.420259
  O      1.075064   -0.056160   -3.268758
  O      1.131661   -0.319960   -5.679031
  H      0.668432    2.559427   -3.232850
  H      1.034074    3.729426   -4.497081
  H     -1.288884    2.826737   -4.594997
  H     -0.651696    1.186343   -4.756552

 Total Charge           Charge          ....    0
 Multiplicity           Mult            ....    1
 Number of Electrons    NEL             ....   88
 Basis Dimension        Dim             ....  296

ORBITAL ENERGIES
----------------

  NO   OCC          E(Eh)            E(eV)
   0   2.0000     -89.190630     -2427.0004
   1   2.0000     -19.157569      -521.3040
   2   2.0000     -19.143101      -520.9103
   3   2.0000     -19.141299      -520.8612
   4   2.0000     -14.507749      -394.7759
   5   2.0000     -14.474690      -393.8763
   6   2.0000     -10.408856      -283.2394
   7   2.0000     -10.286038      -279.8973
   8   2.0000     -10.266892      -279.3763
   9   2.0000     -10.242749      -278.7194
  10   2.0000      -8.149406      -221.7566
  11   2.0000      -6.092200      -165.7772
  12   2.0000      -6.091333      -165.7536
  13   2.0000      -6.090885      -165.7414
  14   2.0000      -1.113315       -30.2948
  15   2.0000      -1.078384       -29.3443
  16   2.0000      -0.983914       -26.7737
  17   2.0000      -0.965719       -26.2785
  18   2.0000      -0.961896       -26.1745
  19   2.0000      -0.854073       -23.2405
  20   2.0000      -0.775205       -21.0944
  21   2.0000      -0.712066       -19.3763
  22   2.0000      -0.668511       -18.1911
  23   2.0000      -0.651819       -17.7369
  24   2.0000      -0.621831       -16.9209
  25   2.0000      -0.581291       -15.8177
  26   2.0000      -0.539401       -14.6778
  27   2.0000      -0.531021       -14.4498
  28   2.0000      -0.501431       -13.6446
  29   2.0000      -0.489547       -13.3212
  30   2.0000      -0.463925       -12.6240
  31   2.0000      -0.456129       -12.4119
  32   2.0000      -0.434407       -11.8208
  33   2.0000      -0.426240       -11.5986
  34   2.0000      -0.405750       -11.0410
  35   2.0000      -0.392011       -10.6672
  36   2.0000      -0.374443       -10.1891
  37   2.0000      -0.361161        -9.8277
  38   2.0000      -0.321763        -8.7556
  39   2.0000      -0.316090        -8.6012
  40   2.0000      -0.286138        -7.7862
  41   2.0000      -0.275419        -7.4945
  42   2.0000      -0.265636        -7.2283
  43   2.0000      -0.235278        -6.4023
  44   0.0000      -0.062743        -1.7073
  45   0.0000      -0.032705        -0.8900
  46   0.0000       0.005236         0.1425
  47   0.0000       0.025111         0.6833
  48   0.0000       0.037843         1.0298

MULLIKEN ATOMIC CHARGES
-----------------------
   0 C :   -0.029208
   1 C :    0.044313
   2 C :   -0.020701
   3 H :    0.163511
   4 H :   -0.065291
   5 S :    1.548955
   6 C :    1.006617
   7 N :   -0.161716
   8 N :    0.187968
   9 H :   -0.056805
  10 H :   -0.158947
  11 H :    0.009740
  12 H :   -0.153249
  13 O :   -0.826774
  14 O :   -0.820340
  15 O :   -0.947272
  16 H :    0.223266
  17 H :   -0.126546
  18 H :   -0.023744
  19 H :    0.206222
Sum of atomic charges:    0.0000000

LOEWDIN ATOMIC CHARGES
----------------------
   0 C :    0.053268
   1 C :   -0.018027
   2 C :   -0.069469
   3 H :    0.010001
   4 H :    0.020092
   5 S :    0.945014
   6 C :   -0.032620
   7 N :    0.243521
   8 N :    0.304914
   9 H :   -0.116119
  10 H :    0.044700
  11 H :    0.037213
  12 H :    0.027216
  13 O :   -0.515872
  14 O :   -0.526502
  15 O :   -0.533010
  16 H :    0.035910
  17 H :    0.024428
  18 H :    0.032094
  19 H :    0.033246

  Mayer bond orders larger than 0.100000
B(  0-C ,  1-C ) :   1.2358 B(  0-C ,  6-C ) :   1.0887 B(  0-C , 16-H ) :   0.1170
B(  0-C , 18-H ) :   0.8326 B(  0-C , 19-H ) :   0.8436 B(  1-C ,  2-C ) :   1.3516
B(  1-C ,  3-H ) :   0.1098 B(  1-C ,  4-H ) :   0.1576 B(  1-C , 16-H ) :   0.7931
B(  1-C , 17-H ) :   0.9100 B(  1-C , 18-H ) :   0.1465 B(  1-C , 19-H ) :   0.1187
B(  2-C ,  3-H ) :   0.8810 B(  2-C ,  4-H ) :   0.8834 B(  2-C ,  5-S ) :   0.9014
B(  2-C , 15-O ) :   0.1478 B(  2-C , 16-H ) :   0.1283 B(  2-C , 17-H ) :   0.1044
B(  5-S , 13-O ) :   1.3444 B(  5-S , 14-O ) :   1.2999 B(  5-S , 15-O ) :   1.0962
B(  6-C ,  7-N ) :   0.8444 B(  6-C ,  8-N ) :   1.0568 B(  6-C , 10-H ) :  -0.2494
B(  6-C , 11-H ) :  -0.1259 B(  6-C , 12-H ) :  -0.1867 B(  7-N ,  8-N ) :   0.1603
B(  7-N , 11-H ) :   1.1593 B(  7-N , 12-H ) :   1.3423 B(  8-N ,  9-H ) :   1.0906
B(  8-N , 10-H ) :   1.3552 B(  9-H , 10-H ) :  -0.2385 B(  9-H , 15-O ) :   0.1532
B( 11-H , 12-H ) :  -0.1755

Dispersion correction           -0.019880335
FINAL SINGLE POINT ENERGY      -890.661921548731

DIPOLE MOMENT
-------------
                                X             Y             Z
Electronic contribution:      3.09106      -7.61121       1.07957
Nuclear contribution   :     -5.91573      12.15027      -4.18945
                        -----------------------------------------
Total Dipole Moment    :     -2.82467       4.53906      -3.10988
                        -----------------------------------------
Magnitude (a.u.)       :      6.18491
Magnitude (Debye)      :     15.72080

Rotational constants in cm-1:     0.082044     0.024757     0.022371
Rotational constants in MHz :  2459.631375   742.181961   670.660570

                             ****ORCA TERMINATED NORMALLY****
TOTAL RUN TIME: 0 days 0 hours 1 minutes 6 seconds 31 msec
