                         Program Version 5.0.0 -  RELEASE  -
|  1> !PBE0 D3BJ RIJCOSX def2-SVPD def2/J TightSCF
|  2> *xyz 0 1
|  3> C          0.84888        2.66797       -4.30235
|  4> C          2.09343        1.86104       -4.65684
|  5> H          2.44481        2.04157       -5.67499
|  6> H          2.90175        2.13786       -3.98034
|  7> S          1.87964        0.07859       -4.46297
|  8> F          3.20757       -0.46611       -4.42026
|  9> O          1.07506       -0.05616       -3.26876
| 10> O          1.13166       -0.31996       -5.67903
| 11> H          0.05064        2.40112       -4.96303
| 12> H          1.06043        3.71210       -4.40203
| 13> H          0.56237        2.45684       -3.29327
| 14> *
| 15>
| 16> %MaxCore 64000
| 17>
| 18> %pal nprocs 4
| 19> end
| 20>
| 21> %scf
| 22>   MaxIter 150
| 23> end
| 24>
| 25>
| 26>                          ****END OF INPUT****

CARTESIAN COORDINATES (ANGSTROEM)
---------------------------------
  C      0.848880    2.667970   -4.302350
  C      2.093430    1.861040   -4.656840
  H      2.444810    2.041570   -5.674990
  H      2.901750    2.137860   -3.980340
  S      1.879640    0.078590   -4.462970
  F      3.207570   -0.466110   -4.420260
  O      1.075060   -0.056160   -3.268760
  O      1.131660   -0.319960   -5.679030
  H      0.050640    2.401120   -4.963030
  H      1.060430    3.712100   -4.402030
  H      0.562370    2.456840   -3.293270

 Total Charge           Charge          ....    0
 Multiplicity           Mult            ....    1
 Number of Electrons    NEL             ....   58
 Basis Dimension        Dim             ....  176

ORBITAL ENERGIES
----------------

  NO   OCC          E(Eh)            E(eV)
   0   2.0000     -89.297725     -2429.9146
   1   2.0000     -24.909117      -677.8115
   2   2.0000     -19.232687      -523.3480
   3   2.0000     -19.220250      -523.0096
   4   2.0000     -10.296533      -280.1829
   5   2.0000     -10.250896      -278.9411
   6   2.0000      -8.258271      -224.7190
   7   2.0000      -6.204523      -168.8337
   8   2.0000      -6.198158      -168.6604
   9   2.0000      -6.196854      -168.6250
  10   2.0000      -1.417440       -38.5705
  11   2.0000      -1.137158       -30.9436
  12   2.0000      -1.031344       -28.0643
  13   2.0000      -0.840964       -22.8838
  14   2.0000      -0.762838       -20.7579
  15   2.0000      -0.695832       -18.9345
  16   2.0000      -0.615082       -16.7372
  17   2.0000      -0.612228       -16.6596
  18   2.0000      -0.576797       -15.6954
  19   2.0000      -0.510013       -13.8782
  20   2.0000      -0.504305       -13.7228
  21   2.0000      -0.463827       -12.6214
  22   2.0000      -0.446929       -12.1615
  23   2.0000      -0.422617       -11.5000
  24   2.0000      -0.403376       -10.9764
  25   2.0000      -0.399692       -10.8762
  26   2.0000      -0.351375        -9.5614
  27   2.0000      -0.335736        -9.1358
  28   2.0000      -0.322264        -8.7692
  29   0.0000       0.001016         0.0276
  30   0.0000       0.026550         0.7225
  31   0.0000       0.040229         1.0947
  32   0.0000       0.045201         1.2300
  33   0.0000       0.055888         1.5208

MULLIKEN ATOMIC CHARGES
-----------------------
   0 C :    0.570464
   1 C :   -0.509948
   2 H :    0.042612
   3 H :    0.091844
   4 S :    1.614376
   5 F :   -0.420121
   6 O :   -0.696116
   7 O :   -0.725028
   8 H :    0.015903
   9 H :   -0.024430
  10 H :    0.040445
Sum of atomic charges:    0.0000000

LOEWDIN ATOMIC CHARGES
----------------------
   0 C :    0.136837
   1 C :   -0.100310
   2 H :    0.025858
   3 H :    0.016435
   4 S :    1.132845
   5 F :   -0.255060
   6 O :   -0.465840
   7 O :   -0.486271
   8 H :    0.003736
   9 H :   -0.001698
  10 H :   -0.006532

  Mayer bond orders larger than 0.100000
B(  0-C ,  1-C ) :   1.3623 B(  0-C ,  8-H ) :   0.8459 B(  0-C ,  9-H ) :   0.8060
B(  0-C , 10-H ) :   0.8413 B(  1-C ,  2-H ) :   0.9931 B(  1-C ,  3-H ) :   0.9590
B(  1-C ,  4-S ) :   0.9712 B(  1-C ,  8-H ) :   0.1597 B(  1-C ,  9-H ) :   0.1690
B(  1-C , 10-H ) :   0.1743 B(  4-S ,  5-F ) :   0.6612 B(  4-S ,  6-O ) :   1.4949
B(  4-S ,  7-O ) :   1.4554

Dispersion correction           -0.007928436
FINAL SINGLE POINT ENERGY      -726.787562923497

DIPOLE MOMENT
-------------
                                X             Y             Z
Electronic contribution:      4.16107      -9.28110       0.10481
Nuclear contribution   :     -3.08754      10.54185      -0.04092
                        -----------------------------------------
Total Dipole Moment    :      1.07353       1.26076       0.06389
                        -----------------------------------------
Magnitude (a.u.)       :      1.65712
Magnitude (Debye)      :      4.21208

Rotational constants in cm-1:     0.158925     0.081210     0.079022
Rotational constants in MHz :  4764.450166  2434.603461  2369.014434

                             ****ORCA TERMINATED NORMALLY****
TOTAL RUN TIME: 0 days 0 hours 0 minutes 23 seconds 47 msec
