                         Program Version 5.0.0 -  RELEASE  -
|  1> !PBE0 D3BJ RIJCOSX def2-SVPD def2/J TightSCF
|  2> *xyz 0 1
|  3> C         -0.46129        2.23469       -4.98962
|  4> C          0.84888        2.66797       -4.30235
|  5> C         -0.42384        2.39877       -6.47432
|  6> C         -0.95947        3.49265       -7.00740
|  7> N          0.14558        1.48689       -7.20399
|  8> H          0.56537        0.69681       -6.72386
|  9> H          0.22068        1.58177       -8.20752
| 10> H         -1.40624        4.18151       -6.40326
| 11> H         -0.93421        3.68160       -7.99947
| 12> H         -1.28888        2.82674       -4.59500
| 13> H         -0.65170        1.18634       -4.75655
| 14> H          1.66208        2.08894       -4.68750
| 15> H          0.76716        2.51042       -3.24717
| 16> H          1.02677        3.70527       -4.49537
| 17> *
| 18>
| 19> %MaxCore 64000
| 20>
| 21> %pal nprocs 4
| 22> end
| 23>
| 24> %scf
| 25>   MaxIter 150
| 26> end
| 27>
| 28>
| 29>                          ****END OF INPUT****

CARTESIAN COORDINATES (ANGSTROEM)
---------------------------------
  C     -0.461290    2.234690   -4.989620
  C      0.848880    2.667970   -4.302350
  C     -0.423840    2.398770   -6.474320
  C     -0.959470    3.492650   -7.007400
  N      0.145580    1.486890   -7.203990
  H      0.565370    0.696810   -6.723860
  H      0.220680    1.581770   -8.207520
  H     -1.406240    4.181510   -6.403260
  H     -0.934210    3.681600   -7.999470
  H     -1.288880    2.826740   -4.595000
  H     -0.651700    1.186340   -4.756550
  H      1.662080    2.088940   -4.687500
  H      0.767160    2.510420   -3.247170
  H      1.026770    3.705270   -4.495370

 Total Charge           Charge          ....    0
 Multiplicity           Mult            ....    1
 Number of Electrons    NEL             ....   40
 Basis Dimension        Dim             ....  172

ORBITAL ENERGIES
----------------

  NO   OCC          E(Eh)            E(eV)
   0   2.0000     -14.399647      -391.8343
   1   2.0000     -10.252128      -278.9746
   2   2.0000     -10.232839      -278.4497
   3   2.0000     -10.218770      -278.0669
   4   2.0000     -10.164009      -276.5767
   5   2.0000      -0.954916       -25.9846
   6   2.0000      -0.795333       -21.6421
   7   2.0000      -0.729310       -19.8455
   8   2.0000      -0.650530       -17.7018
   9   2.0000      -0.585976       -15.9452
  10   2.0000      -0.545966       -14.8565
  11   2.0000      -0.495136       -13.4733
  12   2.0000      -0.451784       -12.2937
  13   2.0000      -0.433859       -11.8059
  14   2.0000      -0.406136       -11.0515
  15   2.0000      -0.394906       -10.7459
  16   2.0000      -0.364544        -9.9197
  17   2.0000      -0.347895        -9.4667
  18   2.0000      -0.344766        -9.3816
  19   2.0000      -0.197990        -5.3876
  20   0.0000       0.022006         0.5988
  21   0.0000       0.047986         1.3058
  22   0.0000       0.060194         1.6379
  23   0.0000       0.066302         1.8042
  24   0.0000       0.073968         2.0128

MULLIKEN ATOMIC CHARGES
-----------------------
   0 C :   -0.302730
   1 C :    0.476046
   2 C :    0.012155
   3 C :    0.355105
   4 N :    0.099027
   5 H :   -0.069040
   6 H :   -0.189938
   7 H :   -0.069970
   8 H :   -0.429929
   9 H :    0.112833
  10 H :   -0.009394
  11 H :   -0.010335
  12 H :    0.042101
  13 H :   -0.015932
Sum of atomic charges:    0.0000000

LOEWDIN ATOMIC CHARGES
----------------------
   0 C :   -0.035711
   1 C :    0.130985
   2 C :   -0.271901
   3 C :    0.172000
   4 N :    0.163675
   5 H :    0.007955
   6 H :    0.015187
   7 H :   -0.080257
   8 H :   -0.089378
   9 H :    0.024080
  10 H :    0.018572
  11 H :   -0.022578
  12 H :   -0.018964
  13 H :   -0.013667

  Mayer bond orders larger than 0.100000
B(  0-C ,  1-C ) :   1.2771 B(  0-C ,  2-C ) :   1.1552 B(  0-C ,  3-C ) :   0.1481
B(  0-C ,  9-H ) :   0.8658 B(  0-C , 10-H ) :   0.8886 B(  0-C , 11-H ) :   0.1881
B(  0-C , 12-H ) :   0.1406 B(  0-C , 13-H ) :   0.1580 B(  1-C , 11-H ) :   0.8411
B(  1-C , 12-H ) :   0.8368 B(  1-C , 13-H ) :   0.8910 B(  2-C ,  3-C ) :   1.7241
B(  2-C ,  4-N ) :   1.1688 B(  2-C ,  8-H ) :   0.1522 B(  2-C ,  9-H ) :   0.1219
B(  2-C , 10-H ) :   0.1364 B(  3-C ,  4-N ) :   0.2437 B(  3-C ,  7-H ) :   0.9365
B(  3-C ,  8-H ) :   0.8040 B(  4-N ,  5-H ) :   1.1065 B(  4-N ,  6-H ) :   1.2820
B(  5-H ,  6-H ) :  -0.1359

Dispersion correction           -0.008838256
FINAL SINGLE POINT ENERGY      -212.171734115197

DIPOLE MOMENT
-------------
                                X             Y             Z
Electronic contribution:     -0.72104      -1.17113      -2.59482
Nuclear contribution   :      1.14741       0.51394       2.60761
                        -----------------------------------------
Total Dipole Moment    :      0.42637      -0.65719       0.01279
                        -----------------------------------------
Magnitude (a.u.)       :      0.78349
Magnitude (Debye)      :      1.99146

Rotational constants in cm-1:     0.269157     0.129188     0.102123
Rotational constants in MHz :  8069.118715  3872.945231  3061.580645

                             ****ORCA TERMINATED NORMALLY****
TOTAL RUN TIME: 0 days 0 hours 0 minutes 20 seconds 689 msec
