                         Program Version 5.0.0 -  RELEASE  -
|  1> !PBE0 D3BJ RIJCOSX def2-SVPD def2/J TightSCF
|  2> *xyz 0 1
|  3> C          0.84888        2.66797       -4.30235
|  4> C          2.09343        1.86104       -4.65684
|  5> H          2.44481        2.04157       -5.67499
|  6> H          2.90175        2.13786       -3.98034
|  7> S          1.87964        0.07859       -4.46297
|  8> O          3.20757       -0.46611       -4.42026
|  9> F          1.07506       -0.05616       -3.26876
| 10> O          1.13166       -0.31996       -5.67903
| 11> H          0.05064        2.40112       -4.96303
| 12> H          1.06043        3.71210       -4.40203
| 13> H          0.56237        2.45684       -3.29327
| 14> *
| 15>
| 16> %MaxCore 64000
| 17>
| 18> %pal nprocs 4
| 19> end
| 20>
| 21> %scf
| 22>   MaxIter 150
| 23> end
| 24>
| 25>
| 26>                          ****END OF INPUT****

CARTESIAN COORDINATES (ANGSTROEM)
---------------------------------
  C      0.848880    2.667970   -4.302350
  C      2.093430    1.861040   -4.656840
  H      2.444810    2.041570   -5.674990
  H      2.901750    2.137860   -3.980340
  S      1.879640    0.078590   -4.462970
  O      3.207570   -0.466110   -4.420260
  F      1.075060   -0.056160   -3.268760
  O      1.131660   -0.319960   -5.679030
  H      0.050640    2.401120   -4.963030
  H      1.060430    3.712100   -4.402030
  H      0.562370    2.456840   -3.293270

 Total Charge           Charge          ....    0
 Multiplicity           Mult            ....    1
 Number of Electrons    NEL             ....   58
 Basis Dimension        Dim             ....  176

ORBITAL ENERGIES
----------------

  NO   OCC          E(Eh)            E(eV)
   0   2.0000     -89.297172     -2429.8996
   1   2.0000     -24.903674      -677.6634
   2   2.0000     -19.236258      -523.4452
   3   2.0000     -19.220287      -523.0106
   4   2.0000     -10.296390      -280.1790
   5   2.0000     -10.257625      -279.1242
   6   2.0000      -8.257697      -224.7034
   7   2.0000      -6.204022      -168.8200
   8   2.0000      -6.197583      -168.6448
   9   2.0000      -6.196272      -168.6091
  10   2.0000      -1.408582       -38.3295
  11   2.0000      -1.141353       -31.0578
  12   2.0000      -1.034631       -28.1537
  13   2.0000      -0.846168       -23.0254
  14   2.0000      -0.756012       -20.5721
  15   2.0000      -0.698409       -19.0047
  16   2.0000      -0.620585       -16.8870
  17   2.0000      -0.608137       -16.5482
  18   2.0000      -0.567803       -15.4507
  19   2.0000      -0.512325       -13.9411
  20   2.0000      -0.497257       -13.5311
  21   2.0000      -0.471728       -12.8364
  22   2.0000      -0.457574       -12.4512
  23   2.0000      -0.428254       -11.6534
  24   2.0000      -0.412420       -11.2225
  25   2.0000      -0.400598       -10.9008
  26   2.0000      -0.352612        -9.5950
  27   2.0000      -0.336534        -9.1576
  28   2.0000      -0.325380        -8.8540
  29   0.0000      -0.002967        -0.0807
  30   0.0000       0.032330         0.8797
  31   0.0000       0.041362         1.1255
  32   0.0000       0.044724         1.2170
  33   0.0000       0.053610         1.4588

MULLIKEN ATOMIC CHARGES
-----------------------
   0 C :    0.576178
   1 C :   -0.467213
   2 H :    0.037098
   3 H :    0.081762
   4 S :    1.583175
   5 O :   -0.677798
   6 F :   -0.421691
   7 O :   -0.727057
   8 H :    0.018703
   9 H :   -0.026451
  10 H :    0.023293
Sum of atomic charges:    0.0000000

LOEWDIN ATOMIC CHARGES
----------------------
   0 C :    0.121932
   1 C :   -0.087672
   2 H :    0.038403
   3 H :    0.020600
   4 S :    1.127861
   5 O :   -0.460936
   6 F :   -0.259116
   7 O :   -0.485584
   8 H :   -0.000367
   9 H :   -0.003310
  10 H :   -0.011810

  Mayer bond orders larger than 0.100000
B(  0-C ,  1-C ) :   1.3084 B(  0-C ,  8-H ) :   0.8553 B(  0-C ,  9-H ) :   0.8061
B(  0-C , 10-H ) :   0.8463 B(  1-C ,  2-H ) :   0.9977 B(  1-C ,  3-H ) :   0.9907
B(  1-C ,  4-S ) :   0.9998 B(  1-C ,  8-H ) :   0.1565 B(  1-C ,  9-H ) :   0.1721
B(  1-C , 10-H ) :   0.1613 B(  4-S ,  5-O ) :   1.5307 B(  4-S ,  6-F ) :   0.6518
B(  4-S ,  7-O ) :   1.4692

Dispersion correction           -0.007876464
FINAL SINGLE POINT ENERGY      -726.792126541023

DIPOLE MOMENT
-------------
                                X             Y             Z
Electronic contribution:      0.56830      -8.56536       2.02943
Nuclear contribution   :     -0.86540      10.11467      -1.24082
                        -----------------------------------------
Total Dipole Moment    :     -0.29710       1.54931       0.78862
                        -----------------------------------------
Magnitude (a.u.)       :      1.76368
Magnitude (Debye)      :      4.48291

Rotational constants in cm-1:     0.154065     0.083345     0.080357
Rotational constants in MHz :  4618.752213  2498.631937  2409.037217

                             ****ORCA TERMINATED NORMALLY****
TOTAL RUN TIME: 0 days 0 hours 0 minutes 23 seconds 18 msec
