                         Program Version 5.0.0 -  RELEASE  -
|  1> !PBE0 D3BJ RIJCOSX def2-SVPD def2/J TightSCF
|  2> *xyz 0 1
|  3> C         -0.46129        2.23469       -4.98962
|  4> C          0.84888        2.66797       -4.30235
|  5> C         -0.42384        2.39877       -6.47432
|  6> N         -0.95947        3.49265       -7.00740
|  7> C          0.14558        1.48689       -7.20399
|  8> H          0.56537        0.69681       -6.72386
|  9> H          0.22068        1.58177       -8.20752
| 10> H         -1.40624        4.18151       -6.40326
| 11> H         -0.93421        3.68160       -7.99947
| 12> H         -1.28888        2.82674       -4.59500
| 13> H         -0.65170        1.18634       -4.75655
| 14> H          1.66208        2.08894       -4.68750
| 15> H          0.76716        2.51042       -3.24717
| 16> H          1.02677        3.70527       -4.49537
| 17> *
| 18>
| 19> %MaxCore 64000
| 20>
| 21> %pal nprocs 4
| 22> end
| 23>
| 24> %scf
| 25>   MaxIter 150
| 26> end
| 27>
| 28>
| 29>                          ****END OF INPUT****

CARTESIAN COORDINATES (ANGSTROEM)
---------------------------------
  C     -0.461290    2.234690   -4.989620
  C      0.848880    2.667970   -4.302350
  C     -0.423840    2.398770   -6.474320
  N     -0.959470    3.492650   -7.007400
  C      0.145580    1.486890   -7.203990
  H      0.565370    0.696810   -6.723860
  H      0.220680    1.581770   -8.207520
  H     -1.406240    4.181510   -6.403260
  H     -0.934210    3.681600   -7.999470
  H     -1.288880    2.826740   -4.595000
  H     -0.651700    1.186340   -4.756550
  H      1.662080    2.088940   -4.687500
  H      0.767160    2.510420   -3.247170
  H      1.026770    3.705270   -4.495370

 Total Charge           Charge          ....    0
 Multiplicity           Mult            ....    1
 Number of Electrons    NEL             ....   40
 Basis Dimension        Dim             ....  172

ORBITAL ENERGIES
----------------

  NO   OCC          E(Eh)            E(eV)
   0   2.0000     -14.396621      -391.7520
   1   2.0000     -10.250033      -278.9176
   2   2.0000     -10.232577      -278.4426
   3   2.0000     -10.217363      -278.0286
   4   2.0000     -10.162702      -276.5412
   5   2.0000      -0.942329       -25.6421
   6   2.0000      -0.796997       -21.6874
   7   2.0000      -0.733185       -19.9510
   8   2.0000      -0.651384       -17.7250
   9   2.0000      -0.580414       -15.7939
  10   2.0000      -0.536096       -14.5879
  11   2.0000      -0.497389       -13.5346
  12   2.0000      -0.453291       -12.3347
  13   2.0000      -0.428863       -11.6700
  14   2.0000      -0.406925       -11.0730
  15   2.0000      -0.395925       -10.7737
  16   2.0000      -0.362022        -9.8511
  17   2.0000      -0.350069        -9.5259
  18   2.0000      -0.341414        -9.2903
  19   2.0000      -0.202199        -5.5021
  20   0.0000       0.023678         0.6443
  21   0.0000       0.048476         1.3191
  22   0.0000       0.059848         1.6286
  23   0.0000       0.066631         1.8131
  24   0.0000       0.075255         2.0478

MULLIKEN ATOMIC CHARGES
-----------------------
   0 C :   -0.293320
   1 C :    0.450366
   2 C :    0.151749
   3 N :   -0.056741
   4 C :    0.330588
   5 H :   -0.054955
   6 H :   -0.382870
   7 H :   -0.065535
   8 H :   -0.170919
   9 H :   -0.034999
  10 H :    0.112508
  11 H :   -0.012327
  12 H :    0.045102
  13 H :   -0.018648
Sum of atomic charges:    0.0000000

LOEWDIN ATOMIC CHARGES
----------------------
   0 C :   -0.035732
   1 C :    0.131888
   2 C :   -0.264866
   3 N :    0.161987
   4 C :    0.164678
   5 H :   -0.071553
   6 H :   -0.079140
   7 H :    0.001247
   8 H :    0.004643
   9 H :    0.014134
  10 H :    0.026442
  11 H :   -0.017415
  12 H :   -0.019443
  13 H :   -0.016868

  Mayer bond orders larger than 0.100000
B(  0-C ,  1-C ) :   1.2919 B(  0-C ,  2-C ) :   1.0940 B(  0-C ,  3-N ) :   0.1157
B(  0-C ,  4-C ) :   0.1459 B(  0-C ,  9-H ) :   0.8921 B(  0-C , 10-H ) :   0.8686
B(  0-C , 11-H ) :   0.1690 B(  0-C , 12-H ) :   0.1310 B(  0-C , 13-H ) :   0.1734
B(  1-C , 11-H ) :   0.8775 B(  1-C , 12-H ) :   0.8362 B(  1-C , 13-H ) :   0.8719
B(  2-C ,  3-N ) :   1.0008 B(  2-C ,  4-C ) :   1.8136 B(  2-C ,  5-H ) :   0.1437
B(  2-C ,  6-H ) :   0.1930 B(  2-C ,  8-H ) :  -0.1429 B(  2-C ,  9-H ) :   0.1201
B(  3-N ,  4-C ) :   0.2644 B(  3-N ,  7-H ) :   1.1181 B(  3-N ,  8-H ) :   1.3086
B(  4-C ,  5-H ) :   0.8287 B(  4-C ,  6-H ) :   0.7899 B(  7-H ,  8-H ) :  -0.1560

Dispersion correction           -0.008843506
FINAL SINGLE POINT ENERGY      -212.171543828118

DIPOLE MOMENT
-------------
                                X             Y             Z
Electronic contribution:     -1.70112       0.58110      -2.42096
Nuclear contribution   :      1.40335       0.04939       2.56207
                        -----------------------------------------
Total Dipole Moment    :     -0.29776       0.63049       0.14112
                        -----------------------------------------
Magnitude (a.u.)       :      0.71141
Magnitude (Debye)      :      1.80825

Rotational constants in cm-1:     0.271383     0.128194     0.101873
Rotational constants in MHz :  8135.853259  3843.152748  3054.074278

                             ****ORCA TERMINATED NORMALLY****
TOTAL RUN TIME: 0 days 0 hours 0 minutes 22 seconds 95 msec
