                         Program Version 5.0.0 -  RELEASE  -
|  1> !PBE0 D3BJ RIJCOSX def2-SVPD def2/J TightSCF
|  2> *xyz 0 1
|  3> C          0.84888        2.66797       -4.30235
|  4> C          2.09343        1.86104       -4.65684
|  5> H          2.44481        2.04157       -5.67499
|  6> H          2.90175        2.13786       -3.98034
|  7> S          1.87964        0.07859       -4.46297
|  8> O          3.20757       -0.46611       -4.42026
|  9> O          1.07506       -0.05616       -3.26876
| 10> F          1.13166       -0.31996       -5.67903
| 11> H          0.05064        2.40112       -4.96303
| 12> H          1.06043        3.71210       -4.40203
| 13> H          0.56237        2.45684       -3.29327
| 14> *
| 15>
| 16> %MaxCore 64000
| 17>
| 18> %pal nprocs 4
| 19> end
| 20>
| 21> %scf
| 22>   MaxIter 150
| 23> end
| 24>
| 25>
| 26>                          ****END OF INPUT****

CARTESIAN COORDINATES (ANGSTROEM)
---------------------------------
  C      0.848880    2.667970   -4.302350
  C      2.093430    1.861040   -4.656840
  H      2.444810    2.041570   -5.674990
  H      2.901750    2.137860   -3.980340
  S      1.879640    0.078590   -4.462970
  O      3.207570   -0.466110   -4.420260
  O      1.075060   -0.056160   -3.268760
  F      1.131660   -0.319960   -5.679030
  H      0.050640    2.401120   -4.963030
  H      1.060430    3.712100   -4.402030
  H      0.562370    2.456840   -3.293270

 Total Charge           Charge          ....    0
 Multiplicity           Mult            ....    1
 Number of Electrons    NEL             ....   58
 Basis Dimension        Dim             ....  176

ORBITAL ENERGIES
----------------

  NO   OCC          E(Eh)            E(eV)
   0   2.0000     -89.295407     -2429.8515
   1   2.0000     -24.885343      -677.1646
   2   2.0000     -19.235902      -523.4355
   3   2.0000     -19.232534      -523.3439
   4   2.0000     -10.295447      -280.1534
   5   2.0000     -10.252018      -278.9716
   6   2.0000      -8.255901      -224.6545
   7   2.0000      -6.201939      -168.7633
   8   2.0000      -6.196046      -168.6030
   9   2.0000      -6.194685      -168.5659
  10   2.0000      -1.377642       -37.4875
  11   2.0000      -1.149693       -31.2847
  12   2.0000      -1.054278       -28.6884
  13   2.0000      -0.841962       -22.9110
  14   2.0000      -0.744230       -20.2515
  15   2.0000      -0.690471       -18.7887
  16   2.0000      -0.600597       -16.3431
  17   2.0000      -0.586630       -15.9630
  18   2.0000      -0.569739       -15.5034
  19   2.0000      -0.512797       -13.9539
  20   2.0000      -0.497943       -13.5497
  21   2.0000      -0.478549       -13.0220
  22   2.0000      -0.450343       -12.2545
  23   2.0000      -0.421125       -11.4594
  24   2.0000      -0.418373       -11.3845
  25   2.0000      -0.397704       -10.8221
  26   2.0000      -0.359420        -9.7803
  27   2.0000      -0.346993        -9.4422
  28   2.0000      -0.339170        -9.2293
  29   0.0000       0.000322         0.0088
  30   0.0000       0.032180         0.8757
  31   0.0000       0.040842         1.1114
  32   0.0000       0.044710         1.2166
  33   0.0000       0.053799         1.4639

MULLIKEN ATOMIC CHARGES
-----------------------
   0 C :    0.603512
   1 C :   -0.499994
   2 H :    0.035785
   3 H :    0.086268
   4 S :    1.600923
   5 O :   -0.689064
   6 O :   -0.709365
   7 F :   -0.439450
   8 H :   -0.004452
   9 H :   -0.027030
  10 H :    0.042868
Sum of atomic charges:    0.0000000

LOEWDIN ATOMIC CHARGES
----------------------
   0 C :    0.123775
   1 C :   -0.090595
   2 H :    0.024112
   3 H :    0.031245
   4 S :    1.128338
   5 O :   -0.461857
   6 O :   -0.463766
   7 F :   -0.275674
   8 H :   -0.003868
   9 H :   -0.004158
  10 H :   -0.007552

  Mayer bond orders larger than 0.100000
B(  0-C ,  1-C ) :   1.3250 B(  0-C ,  8-H ) :   0.8413 B(  0-C ,  9-H ) :   0.8009
B(  0-C , 10-H ) :   0.8488 B(  1-C ,  2-H ) :   0.9921 B(  1-C ,  3-H ) :   0.9863
B(  1-C ,  4-S ) :   0.9969 B(  1-C ,  8-H ) :   0.1603 B(  1-C ,  9-H ) :   0.1690
B(  1-C , 10-H ) :   0.1743 B(  4-S ,  5-O ) :   1.5253 B(  4-S ,  6-O ) :   1.5026
B(  4-S ,  7-F ) :   0.5998

Dispersion correction           -0.007896858
FINAL SINGLE POINT ENERGY      -726.808122746678

DIPOLE MOMENT
-------------
                                X             Y             Z
Electronic contribution:      0.64759      -9.04002      -2.04444
Nuclear contribution   :     -0.92438      10.38956       1.27076
                        -----------------------------------------
Total Dipole Moment    :     -0.27679       1.34954      -0.77368
                        -----------------------------------------
Magnitude (a.u.)       :      1.58002
Magnitude (Debye)      :      4.01609

Rotational constants in cm-1:     0.154243     0.082247     0.080562
Rotational constants in MHz :  4624.087322  2465.703680  2415.175852

                             ****ORCA TERMINATED NORMALLY****
TOTAL RUN TIME: 0 days 0 hours 0 minutes 20 seconds 11 msec
