                         Program Version 5.0.0 -  RELEASE  -
|  1> !PBE0 D3BJ RIJCOSX def2-SVPD def2/J TightSCF xyzfile
|  2>
|  3> *xyzfile 0 1 D1.xyz
|  4>
|  5> %MaxCore 64000
|  6>
|  7> %pal nprocs 4
|  8> end
|  9>
| 10> %scf
| 11>   MaxIter 150
| 12> end
| 13>
| 14>
| 15>                          ****END OF INPUT****

CARTESIAN COORDINATES (ANGSTROEM)
---------------------------------
  C     -0.461293    2.234686   -4.989619
  C      0.848883    2.667967   -4.302351
  C      2.093434    1.861037   -4.656845
  H      2.444814    2.041567   -5.674990
  H      2.901748    2.137864   -3.980338
  S      1.879644    0.078594   -4.462965
  C     -0.423841    2.398772   -6.474317
  C     -0.959467    3.492647   -7.007401
  N      0.145585    1.486891   -7.203987
  H      0.565371    0.696807   -6.723858
  H      0.220682    1.581768   -8.207520
  H     -1.406243    4.181507   -6.403261
  H     -0.934215    3.681601   -7.999468
  F      3.207574   -0.466111   -4.420259
  O      1.075064   -0.056160   -3.268758
  O      1.131661   -0.319960   -5.679031
  H      0.668432    2.559427   -3.232850
  H      1.034074    3.729426   -4.497081
  H     -1.288884    2.826737   -4.594997
  H     -0.651696    1.186343   -4.756552

 Total Charge           Charge          ....    0
 Multiplicity           Mult            ....    1
 Number of Electrons    NEL             ....   88
 Basis Dimension        Dim             ....  296

ORBITAL ENERGIES
----------------

  NO   OCC          E(Eh)            E(eV)
   0   2.0000     -89.318121     -2430.4696
   1   2.0000     -24.924547      -678.2314
   2   2.0000     -19.249528      -523.8063
   3   2.0000     -19.246220      -523.7163
   4   2.0000     -14.371239      -391.0613
   5   2.0000     -10.302681      -280.3502
   6   2.0000     -10.263968      -279.2968
   7   2.0000     -10.245823      -278.8030
   8   2.0000     -10.235450      -278.5208
   9   2.0000     -10.157409      -276.3972
  10   2.0000      -8.277896      -225.2530
  11   2.0000      -6.224049      -169.3650
  12   2.0000      -6.218141      -169.2042
  13   2.0000      -6.216398      -169.1568
  14   2.0000      -1.432549       -38.9816
  15   2.0000      -1.158557       -31.5259
  16   2.0000      -1.058053       -28.7911
  17   2.0000      -0.939674       -25.5698
  18   2.0000      -0.856171       -23.2976
  19   2.0000      -0.791917       -21.5492
  20   2.0000      -0.759374       -20.6636
  21   2.0000      -0.713140       -19.4055
  22   2.0000      -0.666014       -18.1232
  23   2.0000      -0.632950       -17.2235
  24   2.0000      -0.619101       -16.8466
  25   2.0000      -0.599902       -16.3242
  26   2.0000      -0.574693       -15.6382
  27   2.0000      -0.543749       -14.7962
  28   2.0000      -0.520054       -14.1514
  29   2.0000      -0.510314       -13.8864
  30   2.0000      -0.491277       -13.3683
  31   2.0000      -0.475377       -12.9357
  32   2.0000      -0.464842       -12.6490
  33   2.0000      -0.430793       -11.7225
  34   2.0000      -0.414646       -11.2831
  35   2.0000      -0.409214       -11.1353
  36   2.0000      -0.395462       -10.7611
  37   2.0000      -0.378946       -10.3116
  38   2.0000      -0.367051        -9.9880
  39   2.0000      -0.360027        -9.7968
  40   2.0000      -0.346682        -9.4337
  41   2.0000      -0.342363        -9.3162
  42   2.0000      -0.333295        -9.0694
  43   2.0000      -0.188702        -5.1348
  44   0.0000      -0.007691        -0.2093
  45   0.0000       0.018625         0.5068
  46   0.0000       0.029052         0.7905
  47   0.0000       0.038393         1.0447
  48   0.0000       0.043777         1.1912

MULLIKEN ATOMIC CHARGES
-----------------------
   0 C :    0.273478
   1 C :    0.004676
   2 C :   -0.069623
   3 H :    0.227624
   4 H :   -0.036636
   5 S :    1.725960
   6 C :    0.002926
   7 C :    0.260147
   8 N :    0.431452
   9 H :   -0.280319
  10 H :   -0.223460
  11 H :   -0.050239
  12 H :   -0.384631
  13 F :   -0.485704
  14 O :   -0.704648
  15 O :   -0.876970
  16 H :    0.229345
  17 H :   -0.120505
  18 H :    0.057329
  19 H :    0.019800
Sum of atomic charges:   -0.0000000

LOEWDIN ATOMIC CHARGES
----------------------
   0 C :    0.028133
   1 C :   -0.007215
   2 C :   -0.042385
   3 H :    0.026273
   4 H :    0.018760
   5 S :    1.182662
   6 C :   -0.247670
   7 C :    0.165855
   8 N :    0.195199
   9 H :   -0.133874
  10 H :    0.019378
  11 H :   -0.085675
  12 H :   -0.090318
  13 F :   -0.243730
  14 O :   -0.446074
  15 O :   -0.458433
  16 H :    0.028217
  17 H :    0.041862
  18 H :    0.033526
  19 H :    0.015507

  Mayer bond orders larger than 0.100000
B(  0-C ,  1-C ) :   1.2104 B(  0-C ,  6-C ) :   1.1453 B(  0-C ,  8-N ) :   0.1228
B(  0-C , 16-H ) :   0.1267 B(  0-C , 17-H ) :   0.1050 B(  0-C , 18-H ) :   0.7653
B(  0-C , 19-H ) :   0.7762 B(  1-C ,  2-C ) :   1.4054 B(  1-C ,  3-H ) :   0.1124
B(  1-C ,  4-H ) :   0.1945 B(  1-C , 16-H ) :   0.7658 B(  1-C , 17-H ) :   0.9440
B(  1-C , 18-H ) :   0.1339 B(  1-C , 19-H ) :   0.1365 B(  2-C ,  3-H ) :   0.8573
B(  2-C ,  4-H ) :   0.8321 B(  2-C ,  5-S ) :   0.9515 B(  2-C , 15-O ) :   0.1428
B(  2-C , 16-H ) :   0.1150 B(  5-S , 13-F ) :   0.6041 B(  5-S , 14-O ) :   1.4968
B(  5-S , 15-O ) :   1.3242 B(  6-C ,  7-C ) :   1.6998 B(  6-C ,  8-N ) :   1.0643
B(  6-C , 10-H ) :  -0.1559 B(  6-C , 12-H ) :   0.1733 B(  6-C , 18-H ) :   0.1319
B(  6-C , 19-H ) :   0.1464 B(  7-C ,  8-N ) :   0.2011 B(  7-C , 11-H ) :   0.9469
B(  7-C , 12-H ) :   0.7219 B(  8-N ,  9-H ) :   1.0150 B(  8-N , 10-H ) :   1.2863
B(  9-H , 10-H ) :  -0.2183 B(  9-H , 15-O ) :   0.1026

Dispersion correction           -0.019871998
FINAL SINGLE POINT ENERGY      -898.533785102755

DIPOLE MOMENT
-------------
                                X             Y             Z
Electronic contribution:     10.14937     -13.88740       5.45040
Nuclear contribution   :     -8.53047      14.15581      -5.17613
                        -----------------------------------------
Total Dipole Moment    :      1.61890       0.26841       0.27427
                        -----------------------------------------
Magnitude (a.u.)       :      1.66377
Magnitude (Debye)      :      4.22896

Rotational constants in cm-1:     0.081196     0.024861     0.022477
Rotational constants in MHz :  2434.181666   745.320670   673.846846

                             ****ORCA TERMINATED NORMALLY****
TOTAL RUN TIME: 0 days 0 hours 1 minutes 3 seconds 851 msec
