                         Program Version 5.0.0 -  RELEASE  -
|  1> !TPSS D3BJ RIJCOSX def2-SVPD def2/J TightSCF
|  2> *xyz -1 1
|  3> C          4.93020       -7.37532       -2.64962
|  4> C          3.84189       -6.95161       -3.63283
|  5> H          3.45814       -5.95442       -3.40712
|  6> H          2.98848       -7.64361       -3.56708
|  7> S          4.31812       -6.91593       -5.36869
|  8> O          5.40615       -5.89948       -5.51297
|  9> O          3.11191       -6.44508       -6.04379
| 10> C          6.17399       -6.48552       -2.60631
| 11> H          4.46961       -7.40617       -1.65588
| 12> H          5.23013       -8.39868       -2.88591
| 13> O          4.76340       -8.23942       -5.69863
| 14> H          6.62449       -6.45478       -3.57637
| 15> H          6.87304       -6.88376       -1.90088
| 16> H          5.89434       -5.49571       -2.31140
| 17> *
| 18>
| 19> %MaxCore 64000
| 20>
| 21> %pal nprocs 8
| 22> end
| 23>
| 24> %scf
| 25>   MaxIter 150
| 26> end
| 27>
| 28>
| 29>                          ****END OF INPUT****

CARTESIAN COORDINATES (ANGSTROEM)
---------------------------------
  C      4.930200   -7.375320   -2.649620
  C      3.841890   -6.951610   -3.632830
  H      3.458140   -5.954420   -3.407120
  H      2.988480   -7.643610   -3.567080
  S      4.318120   -6.915930   -5.368690
  O      5.406150   -5.899480   -5.512970
  O      3.111910   -6.445080   -6.043790
  C      6.173990   -6.485520   -2.606310
  H      4.469610   -7.406170   -1.655880
  H      5.230130   -8.398680   -2.885910
  O      4.763400   -8.239420   -5.698630
  H      6.624490   -6.454780   -3.576370
  H      6.873040   -6.883760   -1.900880
  H      5.894340   -5.495710   -2.311400

 Total Charge           Charge          ....   -1
 Multiplicity           Mult            ....    1
 Number of Electrons    NEL             ....   66
 Basis Dimension        Dim             ....  212

ORBITAL ENERGIES
----------------

  NO   OCC          E(Eh)            E(eV)
   0   2.0000     -88.368632     -2404.6327
   1   2.0000     -18.686072      -508.4739
   2   2.0000     -18.676874      -508.2236
   3   2.0000     -18.670413      -508.0478
   4   2.0000      -9.872256      -268.6377
   5   2.0000      -9.865812      -268.4624
   6   2.0000      -9.853636      -268.1311
   7   2.0000      -7.728275      -210.2971
   8   2.0000      -5.714384      -155.4963
   9   2.0000      -5.714132      -155.4894
  10   2.0000      -5.713338      -155.4678
  11   2.0000      -0.853566       -23.2267
  12   2.0000      -0.723525       -19.6881
  13   2.0000      -0.695502       -18.9256
  14   2.0000      -0.593627       -16.1534
  15   2.0000      -0.508108       -13.8263
  16   2.0000      -0.418711       -11.3937
  17   2.0000      -0.334323        -9.0974
  18   2.0000      -0.287084        -7.8120
  19   2.0000      -0.277203        -7.5431
  20   2.0000      -0.249159        -6.7800
  21   2.0000      -0.238055        -6.4778
  22   2.0000      -0.216421        -5.8891
  23   2.0000      -0.209164        -5.6916
  24   2.0000      -0.186446        -5.0735
  25   2.0000      -0.178292        -4.8516
  26   2.0000      -0.169116        -4.6019
  27   2.0000      -0.107301        -2.9198
  28   2.0000      -0.106049        -2.8858
  29   2.0000      -0.076108        -2.0710
  30   2.0000      -0.067948        -1.8490
  31   2.0000      -0.058129        -1.5818
  32   2.0000      -0.022745        -0.6189
  33   0.0000       0.125698         3.4204
  34   0.0000       0.151628         4.1260
  35   0.0000       0.158170         4.3040
  36   0.0000       0.166409         4.5282
  37   0.0000       0.184969         5.0332

MULLIKEN ATOMIC CHARGES
-----------------------
   0 C :   -0.303833
   1 C :   -0.058302
   2 H :    0.028166
   3 H :    0.038855
   4 S :    1.259634
   5 O :   -0.823695
   6 O :   -0.812164
   7 C :    0.717961
   8 H :   -0.093185
   9 H :   -0.015323
  10 O :   -0.762132
  11 H :   -0.090459
  12 H :   -0.069865
  13 H :   -0.015658
Sum of atomic charges:   -1.0000000

LOEWDIN ATOMIC CHARGES
----------------------
   0 C :   -0.088050
   1 C :   -0.095910
   2 H :    0.001461
   3 H :    0.005005
   4 S :    0.849169
   5 O :   -0.574802
   6 O :   -0.574603
   7 C :    0.126954
   8 H :    0.000774
   9 H :    0.011680
  10 O :   -0.557193
  11 H :   -0.043565
  12 H :   -0.037840
  13 H :   -0.023077

  Mayer bond orders larger than 0.100000
B(  0-C ,  1-C ) :   1.2460 B(  0-C ,  2-H ) :   0.1344 B(  0-C ,  3-H ) :   0.1279
B(  0-C ,  7-C ) :   1.2646 B(  0-C ,  8-H ) :   0.8848 B(  0-C ,  9-H ) :   0.9169
B(  0-C , 11-H ) :   0.2312 B(  0-C , 12-H ) :   0.2022 B(  0-C , 13-H ) :   0.2146
B(  1-C ,  2-H ) :   0.9429 B(  1-C ,  3-H ) :   0.9072 B(  1-C ,  4-S ) :   0.9009
B(  1-C ,  8-H ) :   0.1513 B(  1-C ,  9-H ) :   0.1384 B(  4-S ,  5-O ) :   1.2710
B(  4-S ,  6-O ) :   1.3459 B(  4-S , 10-O ) :   1.3095 B(  7-C , 11-H ) :   0.8300
B(  7-C , 12-H ) :   0.7703 B(  7-C , 13-H ) :   0.7583 B( 11-H , 13-H ) :   0.1193

Dispersion correction           -0.016667453
FINAL SINGLE POINT ENERGY      -742.149618090111

DIPOLE MOMENT
-------------
                                X             Y             Z
Electronic contribution:     -3.07380      -0.29328     -10.23536
Nuclear contribution   :      3.14317       0.05805      12.49367
                        -----------------------------------------
Total Dipole Moment    :      0.06938      -0.23523       2.25832
                        -----------------------------------------
Magnitude (a.u.)       :      2.27159
Magnitude (Debye)      :      5.77393

Rotational constants in cm-1:     0.133431     0.055055     0.052069
Rotational constants in MHz :  4000.170974  1650.506165  1561.001383

                             ****ORCA TERMINATED NORMALLY****
TOTAL RUN TIME: 0 days 0 hours 0 minutes 8 seconds 878 msec
