                         Program Version 5.0.0 -  RELEASE  -
|  1> !TPSS D3BJ RIJCOSX def2-SVPD def2/J TightSCF
|  2> *xyz 1 1
|  3> C          5.55821       -1.99291       -6.21505
|  4> C          4.18188       -2.58967       -6.29891
|  5> N          3.14587       -1.76843       -6.48675
|  6> N          4.01910       -3.86431       -6.22743
|  7> H          4.76849       -4.59115       -5.99077
|  8> H          3.12241       -4.33339       -6.31462
|  9> H          3.28164       -0.77779       -6.56655
| 10> H          2.21255       -2.13419       -6.56225
| 11> C          6.41926       -2.54294       -5.07763
| 12> C          5.89651       -2.16931       -3.69455
| 13> H          7.42888       -2.14367       -5.20808
| 14> H          6.50589       -3.62754       -5.17550
| 15> H          6.03683       -2.19819       -7.17685
| 16> H          5.46761       -0.90737       -6.12797
| 17> H          5.81870       -1.10488       -3.61824
| 18> H          6.57185       -2.53200       -2.94804
| 19> H          4.93221       -2.60892       -3.54698
| 20> *
| 21>
| 22> %MaxCore 64000
| 23>
| 24> %pal nprocs 8
| 25> end
| 26>
| 27> %scf
| 28>   MaxIter 150
| 29> end
| 30>
| 31>
| 32>                          ****END OF INPUT****

CARTESIAN COORDINATES (ANGSTROEM)
---------------------------------
  C      5.558210   -1.992910   -6.215050
  C      4.181880   -2.589670   -6.298910
  N      3.145870   -1.768430   -6.486750
  N      4.019100   -3.864310   -6.227430
  H      4.768490   -4.591150   -5.990770
  H      3.122410   -4.333390   -6.314620
  H      3.281640   -0.777790   -6.566550
  H      2.212550   -2.134190   -6.562250
  C      6.419260   -2.542940   -5.077630
  C      5.896510   -2.169310   -3.694550
  H      7.428880   -2.143670   -5.208080
  H      6.505890   -3.627540   -5.175500
  H      6.036830   -2.198190   -7.176850
  H      5.467610   -0.907370   -6.127970
  H      5.818700   -1.104880   -3.618240
  H      6.571850   -2.532000   -2.948040
  H      4.932210   -2.608920   -3.546980

 Total Charge           Charge          ....    1
 Multiplicity           Mult            ....    1
 Number of Electrons    NEL             ....   48
 Basis Dimension        Dim             ....  208

ORBITAL ENERGIES
----------------

  NO   OCC          E(Eh)            E(eV)
   0   2.0000     -14.366877      -390.9426
   1   2.0000     -14.356721      -390.6662
   2   2.0000     -10.310889      -280.5736
   3   2.0000     -10.193677      -277.3840
   4   2.0000     -10.161644      -276.5124
   5   2.0000     -10.126999      -275.5696
   6   2.0000      -1.126507       -30.6538
   7   2.0000      -1.035184       -28.1688
   8   2.0000      -0.909011       -24.7354
   9   2.0000      -0.829708       -22.5775
  10   2.0000      -0.783092       -21.3090
  11   2.0000      -0.731377       -19.9018
  12   2.0000      -0.720721       -19.6118
  13   2.0000      -0.681995       -18.5580
  14   2.0000      -0.653858       -17.7924
  15   2.0000      -0.608583       -16.5604
  16   2.0000      -0.586244       -15.9525
  17   2.0000      -0.547745       -14.9049
  18   2.0000      -0.534635       -14.5482
  19   2.0000      -0.522940       -14.2299
  20   2.0000      -0.465243       -12.6599
  21   2.0000      -0.463062       -12.6006
  22   2.0000      -0.458979       -12.4894
  23   2.0000      -0.453199       -12.3322
  24   0.0000      -0.233740        -6.3604
  25   0.0000      -0.170373        -4.6361
  26   0.0000      -0.138448        -3.7673
  27   0.0000      -0.126372        -3.4388
  28   0.0000      -0.106984        -2.9112

MULLIKEN ATOMIC CHARGES
-----------------------
   0 C :    0.016907
   1 C :    0.968763
   2 N :   -0.014769
   3 N :   -0.021065
   4 H :    0.097753
   5 H :   -0.147464
   6 H :    0.006734
   7 H :   -0.134857
   8 C :   -0.341013
   9 C :    0.650217
  10 H :   -0.084098
  11 H :   -0.077605
  12 H :   -0.028365
  13 H :    0.157288
  14 H :    0.042545
  15 H :   -0.046115
  16 H :   -0.044856
Sum of atomic charges:    1.0000000

LOEWDIN ATOMIC CHARGES
----------------------
   0 C :    0.051962
   1 C :   -0.046832
   2 N :    0.291503
   3 N :    0.266850
   4 H :    0.096484
   5 H :    0.049144
   6 H :    0.039966
   7 H :    0.038444
   8 C :   -0.046649
   9 C :    0.155908
  10 H :    0.038509
  11 H :    0.009863
  12 H :    0.051936
  13 H :    0.036296
  14 H :   -0.007788
  15 H :   -0.003065
  16 H :   -0.022533

  Mayer bond orders larger than 0.100000
B(  0-C ,  1-C ) :   1.0146 B(  0-C ,  2-N ) :   0.1037 B(  0-C ,  8-C ) :   1.2413
B(  0-C , 10-H ) :   0.1226 B(  0-C , 11-H ) :   0.1362 B(  0-C , 12-H ) :   0.8778
B(  0-C , 13-H ) :   0.8106 B(  1-C ,  2-N ) :   0.8936 B(  1-C ,  3-N ) :   1.0576
B(  1-C ,  5-H ) :  -0.2580 B(  1-C ,  7-H ) :  -0.2407 B(  1-C , 12-H ) :   0.1451
B(  2-N ,  3-N ) :   0.1917 B(  2-N ,  6-H ) :   1.1317 B(  2-N ,  7-H ) :   1.3572
B(  3-N ,  4-H ) :   1.0972 B(  3-N ,  5-H ) :   1.3534 B(  4-H ,  5-H ) :  -0.1834
B(  6-H ,  7-H ) :  -0.1832 B(  8-C ,  9-C ) :   1.3452 B(  8-C , 10-H ) :   0.9726
B(  8-C , 11-H ) :   0.9106 B(  8-C , 12-H ) :   0.1077 B(  8-C , 13-H ) :   0.1330
B(  8-C , 14-H ) :   0.2076 B(  8-C , 15-H ) :   0.2035 B(  8-C , 16-H ) :   0.2033
B(  9-C , 14-H ) :   0.7760 B(  9-C , 15-H ) :   0.7891 B(  9-C , 16-H ) :   0.8439

Dispersion correction           -0.016719234
FINAL SINGLE POINT ENERGY      -268.224217641030

DIPOLE MOMENT
-------------
                                X             Y             Z
Electronic contribution:     -4.03113      -0.93361      -3.71990
Nuclear contribution   :      2.70373       0.48594       2.85544
                        -----------------------------------------
Total Dipole Moment    :     -1.32740      -0.44767      -0.86446
                        -----------------------------------------
Magnitude (a.u.)       :      1.64611
Magnitude (Debye)      :      4.18409

Rotational constants in cm-1:     0.185545     0.074107     0.068805
Rotational constants in MHz :  5562.487769  2221.680591  2062.713441

                             ****ORCA TERMINATED NORMALLY****
TOTAL RUN TIME: 0 days 0 hours 0 minutes 7 seconds 914 msec
