                         Program Version 5.0.0 -  RELEASE  -
|  1> !TPSS D3BJ RIJCOSX def2-SVPD def2/J TightSCF
|  2> *xyz 0 1
|  3> C          5.55821       -1.99291       -6.21505
|  4> C          4.18188       -2.58967       -6.29891
|  5> C          3.14587       -1.76843       -6.48675
|  6> N          4.01910       -3.86431       -6.22743
|  7> H          4.76849       -4.59115       -5.99077
|  8> H          3.12241       -4.33339       -6.31462
|  9> H          3.28164       -0.77779       -6.56655
| 10> H          2.21255       -2.13419       -6.56225
| 11> C          6.41926       -2.54294       -5.07763
| 12> C          5.89651       -2.16931       -3.69455
| 13> H          7.42888       -2.14367       -5.20808
| 14> H          6.50589       -3.62754       -5.17550
| 15> H          6.03683       -2.19819       -7.17685
| 16> H          5.46761       -0.90737       -6.12797
| 17> H          5.81870       -1.10488       -3.61824
| 18> H          6.57185       -2.53200       -2.94804
| 19> H          4.93221       -2.60892       -3.54698
| 20> *
| 21>
| 22> %MaxCore 64000
| 23>
| 24> %pal nprocs 8
| 25> end
| 26>
| 27> %scf
| 28>   MaxIter 150
| 29> end
| 30>
| 31>
| 32>                          ****END OF INPUT****

CARTESIAN COORDINATES (ANGSTROEM)
---------------------------------
  C      5.558210   -1.992910   -6.215050
  C      4.181880   -2.589670   -6.298910
  C      3.145870   -1.768430   -6.486750
  N      4.019100   -3.864310   -6.227430
  H      4.768490   -4.591150   -5.990770
  H      3.122410   -4.333390   -6.314620
  H      3.281640   -0.777790   -6.566550
  H      2.212550   -2.134190   -6.562250
  C      6.419260   -2.542940   -5.077630
  C      5.896510   -2.169310   -3.694550
  H      7.428880   -2.143670   -5.208080
  H      6.505890   -3.627540   -5.175500
  H      6.036830   -2.198190   -7.176850
  H      5.467610   -0.907370   -6.127970
  H      5.818700   -1.104880   -3.618240
  H      6.571850   -2.532000   -2.948040
  H      4.932210   -2.608920   -3.546980

 Total Charge           Charge          ....    0
 Multiplicity           Mult            ....    1
 Number of Electrons    NEL             ....   48
 Basis Dimension        Dim             ....  208

ORBITAL ENERGIES
----------------

  NO   OCC          E(Eh)            E(eV)
   0   2.0000     -14.128000      -384.4424
   1   2.0000     -10.015240      -272.5285
   2   2.0000      -9.999342      -272.0959
   3   2.0000      -9.997504      -272.0459
   4   2.0000      -9.982885      -271.6481
   5   2.0000      -9.929755      -270.2024
   6   2.0000      -0.862109       -23.4592
   7   2.0000      -0.728841       -19.8328
   8   2.0000      -0.671163       -18.2633
   9   2.0000      -0.620766       -16.8919
  10   2.0000      -0.548690       -14.9306
  11   2.0000      -0.528269       -14.3749
  12   2.0000      -0.474098       -12.9009
  13   2.0000      -0.422042       -11.4843
  14   2.0000      -0.411722       -11.2035
  15   2.0000      -0.405133       -11.0242
  16   2.0000      -0.356012        -9.6876
  17   2.0000      -0.351131        -9.5548
  18   2.0000      -0.335732        -9.1357
  19   2.0000      -0.326809        -8.8929
  20   2.0000      -0.303701        -8.2641
  21   2.0000      -0.287983        -7.8364
  22   2.0000      -0.285619        -7.7721
  23   2.0000      -0.155202        -4.2233
  24   0.0000      -0.000210        -0.0057
  25   0.0000       0.019303         0.5253
  26   0.0000       0.032684         0.8894
  27   0.0000       0.037349         1.0163
  28   0.0000       0.052940         1.4406

MULLIKEN ATOMIC CHARGES
-----------------------
   0 C :    0.227840
   1 C :   -0.011628
   2 C :    0.456576
   3 N :    0.065352
   4 H :   -0.041271
   5 H :   -0.237285
   6 H :   -0.156002
   7 H :   -0.424813
   8 C :   -0.367208
   9 C :    0.645605
  10 H :   -0.104063
  11 H :   -0.091974
  12 H :   -0.102660
  13 H :    0.214300
  14 H :    0.025258
  15 H :   -0.053933
  16 H :   -0.044094
Sum of atomic charges:   -0.0000000

LOEWDIN ATOMIC CHARGES
----------------------
   0 C :    0.012592
   1 C :   -0.266225
   2 C :    0.185125
   3 N :    0.152952
   4 H :    0.039539
   5 H :    0.009111
   6 H :   -0.094906
   7 H :   -0.094479
   8 C :   -0.071339
   9 C :    0.136451
  10 H :    0.015079
  11 H :   -0.003315
  12 H :    0.022546
  13 H :    0.022938
  14 H :   -0.018095
  15 H :   -0.024214
  16 H :   -0.023760

  Mayer bond orders larger than 0.100000
B(  0-C ,  1-C ) :   1.0710 B(  0-C ,  2-C ) :   0.1261 B(  0-C ,  6-H ) :  -0.1022
B(  0-C ,  8-C ) :   1.2019 B(  0-C , 10-H ) :   0.1542 B(  0-C , 11-H ) :   0.1540
B(  0-C , 12-H ) :   0.8392 B(  0-C , 13-H ) :   0.7724 B(  1-C ,  2-C ) :   1.5377
B(  1-C ,  3-N ) :   1.2279 B(  1-C ,  5-H ) :  -0.1389 B(  1-C ,  7-H ) :   0.2493
B(  1-C , 12-H ) :   0.2370 B(  2-C ,  3-N ) :   0.2989 B(  2-C ,  6-H ) :   1.0744
B(  2-C ,  7-H ) :   0.6541 B(  3-N ,  4-H ) :   1.1749 B(  3-N ,  5-H ) :   1.3077
B(  4-H ,  5-H ) :  -0.1634 B(  8-C ,  9-C ) :   1.3151 B(  8-C , 10-H ) :   0.9475
B(  8-C , 11-H ) :   0.9124 B(  8-C , 13-H ) :   0.1578 B(  8-C , 14-H ) :   0.2211
B(  8-C , 15-H ) :   0.2086 B(  8-C , 16-H ) :   0.2162 B(  9-C , 14-H ) :   0.7823
B(  9-C , 15-H ) :   0.7759 B(  9-C , 16-H ) :   0.8427

Dispersion correction           -0.017256380
FINAL SINGLE POINT ENERGY      -251.757881877187

DIPOLE MOMENT
-------------
                                X             Y             Z
Electronic contribution:     -1.95851      -1.40381      -2.52525
Nuclear contribution   :      2.30279       0.65856       2.66048
                        -----------------------------------------
Total Dipole Moment    :      0.34428      -0.74525       0.13523
                        -----------------------------------------
Magnitude (a.u.)       :      0.83199
Magnitude (Debye)      :      2.11476

Rotational constants in cm-1:     0.189707     0.076319     0.071159
Rotational constants in MHz :  5687.269526  2287.988194  2133.283230

                             ****ORCA TERMINATED NORMALLY****
TOTAL RUN TIME: 0 days 0 hours 0 minutes 9 seconds 310 msec
