                         Program Version 5.0.0 -  RELEASE  -
|  1> !TPSS D3BJ RIJCOSX def2-SVPD def2/J TightSCF
|  2> *xyz 0 1
|  3> C          4.93020       -7.37532       -2.64962
|  4> C          3.84189       -6.95161       -3.63283
|  5> H          3.45814       -5.95442       -3.40712
|  6> H          2.98848       -7.64361       -3.56708
|  7> S          4.31812       -6.91593       -5.36869
|  8> O          5.40615       -5.89948       -5.51297
|  9> F          3.11191       -6.44508       -6.04379
| 10> C          6.17399       -6.48552       -2.60631
| 11> H          4.46961       -7.40617       -1.65588
| 12> H          5.23013       -8.39868       -2.88591
| 13> O          4.76340       -8.23942       -5.69863
| 14> H          6.62449       -6.45478       -3.57637
| 15> H          6.87304       -6.88376       -1.90088
| 16> H          5.89434       -5.49571       -2.31140
| 17> *
| 18>
| 19> %MaxCore 64000
| 20>
| 21> %pal nprocs 8
| 22> end
| 23>
| 24> %scf
| 25>   MaxIter 150
| 26> end
| 27>
| 28>
| 29>                          ****END OF INPUT****

CARTESIAN COORDINATES (ANGSTROEM)
---------------------------------
  C      4.930200   -7.375320   -2.649620
  C      3.841890   -6.951610   -3.632830
  H      3.458140   -5.954420   -3.407120
  H      2.988480   -7.643610   -3.567080
  S      4.318120   -6.915930   -5.368690
  O      5.406150   -5.899480   -5.512970
  F      3.111910   -6.445080   -6.043790
  C      6.173990   -6.485520   -2.606310
  H      4.469610   -7.406170   -1.655880
  H      5.230130   -8.398680   -2.885910
  O      4.763400   -8.239420   -5.698630
  H      6.624490   -6.454780   -3.576370
  H      6.873040   -6.883760   -1.900880
  H      5.894340   -5.495710   -2.311400

 Total Charge           Charge          ....    0
 Multiplicity           Mult            ....    1
 Number of Electrons    NEL             ....   66
 Basis Dimension        Dim             ....  212

ORBITAL ENERGIES
----------------

  NO   OCC          E(Eh)            E(eV)
   0   2.0000     -88.620529     -2411.4872
   1   2.0000     -24.532286      -667.5574
   2   2.0000     -18.915734      -514.7233
   3   2.0000     -18.899664      -514.2860
   4   2.0000     -10.064078      -273.8575
   5   2.0000     -10.031506      -272.9712
   6   2.0000      -9.994387      -271.9611
   7   2.0000      -7.981415      -217.1853
   8   2.0000      -5.971613      -162.4959
   9   2.0000      -5.965302      -162.3241
  10   2.0000      -5.963413      -162.2727
  11   2.0000      -1.277032       -34.7498
  12   2.0000      -1.035030       -28.1646
  13   2.0000      -0.931531       -25.3482
  14   2.0000      -0.768830       -20.9209
  15   2.0000      -0.695651       -18.9296
  16   2.0000      -0.643699       -17.5159
  17   2.0000      -0.581560       -15.8251
  18   2.0000      -0.520804       -14.1718
  19   2.0000      -0.518773       -14.1165
  20   2.0000      -0.503497       -13.7008
  21   2.0000      -0.449897       -12.2423
  22   2.0000      -0.441267       -12.0075
  23   2.0000      -0.409362       -11.1393
  24   2.0000      -0.403051       -10.9676
  25   2.0000      -0.390437       -10.6243
  26   2.0000      -0.347110        -9.4453
  27   2.0000      -0.338241        -9.2040
  28   2.0000      -0.336015        -9.1434
  29   2.0000      -0.325123        -8.8471
  30   2.0000      -0.297147        -8.0858
  31   2.0000      -0.277319        -7.5462
  32   2.0000      -0.263734        -7.1766
  33   0.0000      -0.017715        -0.4821
  34   0.0000      -0.003679        -0.1001
  35   0.0000       0.023102         0.6286
  36   0.0000       0.026320         0.7162
  37   0.0000       0.032412         0.8820

MULLIKEN ATOMIC CHARGES
-----------------------
   0 C :   -0.316414
   1 C :   -0.083426
   2 H :    0.079880
   3 H :    0.097943
   4 S :    1.464687
   5 O :   -0.704748
   6 F :   -0.422485
   7 C :    0.736111
   8 H :   -0.063348
   9 H :    0.001683
  10 O :   -0.637650
  11 H :   -0.104621
  12 H :   -0.047831
  13 H :    0.000218
Sum of atomic charges:   -0.0000000

LOEWDIN ATOMIC CHARGES
----------------------
   0 C :   -0.056483
   1 C :   -0.061067
   2 H :    0.018971
   3 H :    0.023367
   4 S :    1.110623
   5 O :   -0.468849
   6 F :   -0.261882
   7 C :    0.150377
   8 H :    0.028937
   9 H :    0.026256
  10 O :   -0.446551
  11 H :   -0.036895
  12 H :   -0.015688
  13 H :   -0.011115

  Mayer bond orders larger than 0.100000
B(  0-C ,  1-C ) :   1.3104 B(  0-C ,  2-H ) :   0.1309 B(  0-C ,  3-H ) :   0.1393
B(  0-C ,  7-C ) :   1.2873 B(  0-C ,  8-H ) :   0.8843 B(  0-C ,  9-H ) :   0.9140
B(  0-C , 11-H ) :   0.2155 B(  0-C , 12-H ) :   0.1922 B(  0-C , 13-H ) :   0.2098
B(  1-C ,  2-H ) :   0.9230 B(  1-C ,  3-H ) :   0.8608 B(  1-C ,  4-S ) :   0.9347
B(  1-C ,  8-H ) :   0.1356 B(  1-C ,  9-H ) :   0.1326 B(  4-S ,  5-O ) :   1.4526
B(  4-S ,  6-F ) :   0.6626 B(  4-S , 10-O ) :   1.5107 B(  7-C , 11-H ) :   0.8419
B(  7-C , 12-H ) :   0.7678 B(  7-C , 13-H ) :   0.7532 B( 11-H , 13-H ) :   0.1148

Dispersion correction           -0.016121327
FINAL SINGLE POINT ENERGY      -766.646263458944

DIPOLE MOMENT
-------------
                                X             Y             Z
Electronic contribution:     -5.79640       0.46721     -12.76186
Nuclear contribution   :      4.74176      -0.43068      13.97705
                        -----------------------------------------
Total Dipole Moment    :     -1.05464       0.03653       1.21519
                        -----------------------------------------
Magnitude (a.u.)       :      1.60944
Magnitude (Debye)      :      4.09087

Rotational constants in cm-1:     0.131248     0.052952     0.050354
Rotational constants in MHz :  3934.713341  1587.473971  1509.583923

                             ****ORCA TERMINATED NORMALLY****
TOTAL RUN TIME: 0 days 0 hours 0 minutes 8 seconds 433 msec
