                         Program Version 5.0.0 -  RELEASE  -
|  1> !TPSS D3BJ RIJCOSX def2-SVPD def2/J TightSCF
|  2> *xyz 0 1
|  3> C          5.55821       -1.99291       -6.21505
|  4> C          4.18188       -2.58967       -6.29891
|  5> N          3.14587       -1.76843       -6.48675
|  6> C          4.01910       -3.86431       -6.22743
|  7> H          4.76849       -4.59115       -5.99077
|  8> H          3.12241       -4.33339       -6.31462
|  9> H          3.28164       -0.77779       -6.56655
| 10> H          2.21255       -2.13419       -6.56225
| 11> C          6.41926       -2.54294       -5.07763
| 12> C          5.89651       -2.16931       -3.69455
| 13> H          7.42888       -2.14367       -5.20808
| 14> H          6.50589       -3.62754       -5.17550
| 15> H          6.03683       -2.19819       -7.17685
| 16> H          5.46761       -0.90737       -6.12797
| 17> H          5.81870       -1.10488       -3.61824
| 18> H          6.57185       -2.53200       -2.94804
| 19> H          4.93221       -2.60892       -3.54698
| 20> *
| 21>
| 22> %MaxCore 64000
| 23>
| 24> %pal nprocs 8
| 25> end
| 26>
| 27> %scf
| 28>   MaxIter 150
| 29> end
| 30>
| 31>
| 32>                          ****END OF INPUT****

CARTESIAN COORDINATES (ANGSTROEM)
---------------------------------
  C      5.558210   -1.992910   -6.215050
  C      4.181880   -2.589670   -6.298910
  N      3.145870   -1.768430   -6.486750
  C      4.019100   -3.864310   -6.227430
  H      4.768490   -4.591150   -5.990770
  H      3.122410   -4.333390   -6.314620
  H      3.281640   -0.777790   -6.566550
  H      2.212550   -2.134190   -6.562250
  C      6.419260   -2.542940   -5.077630
  C      5.896510   -2.169310   -3.694550
  H      7.428880   -2.143670   -5.208080
  H      6.505890   -3.627540   -5.175500
  H      6.036830   -2.198190   -7.176850
  H      5.467610   -0.907370   -6.127970
  H      5.818700   -1.104880   -3.618240
  H      6.571850   -2.532000   -2.948040
  H      4.932210   -2.608920   -3.546980

 Total Charge           Charge          ....    0
 Multiplicity           Mult            ....    1
 Number of Electrons    NEL             ....   48
 Basis Dimension        Dim             ....  208

ORBITAL ENERGIES
----------------

  NO   OCC          E(Eh)            E(eV)
   0   2.0000     -14.117823      -384.1655
   1   2.0000     -10.013486      -272.4808
   2   2.0000      -9.998810      -272.0814
   3   2.0000      -9.993928      -271.9486
   4   2.0000      -9.979088      -271.5448
   5   2.0000      -9.936445      -270.3844
   6   2.0000      -0.852803       -23.2060
   7   2.0000      -0.729771       -19.8581
   8   2.0000      -0.669123       -18.2078
   9   2.0000      -0.624270       -16.9872
  10   2.0000      -0.553410       -15.0591
  11   2.0000      -0.503358       -13.6971
  12   2.0000      -0.477428       -12.9915
  13   2.0000      -0.444851       -12.1050
  14   2.0000      -0.409630       -11.1466
  15   2.0000      -0.394777       -10.7424
  16   2.0000      -0.361075        -9.8253
  17   2.0000      -0.350508        -9.5378
  18   2.0000      -0.324986        -8.8433
  19   2.0000      -0.314699        -8.5634
  20   2.0000      -0.298349        -8.1185
  21   2.0000      -0.291142        -7.9224
  22   2.0000      -0.282676        -7.6920
  23   2.0000      -0.161994        -4.4081
  24   0.0000       0.009642         0.2624
  25   0.0000       0.018904         0.5144
  26   0.0000       0.031615         0.8603
  27   0.0000       0.041823         1.1381
  28   0.0000       0.055606         1.5131

MULLIKEN ATOMIC CHARGES
-----------------------
   0 C :    0.333426
   1 C :    0.401471
   2 N :    0.104063
   3 C :    0.013355
   4 H :    0.097877
   5 H :   -0.544739
   6 H :   -0.158560
   7 H :   -0.197436
   8 C :   -0.393237
   9 C :    0.641314
  10 H :   -0.101467
  11 H :   -0.037846
  12 H :   -0.089640
  13 H :    0.003949
  14 H :    0.029500
  15 H :   -0.087883
  16 H :   -0.014148
Sum of atomic charges:    0.0000000

LOEWDIN ATOMIC CHARGES
----------------------
   0 C :    0.009589
   1 C :   -0.252097
   2 N :    0.180750
   3 C :    0.156989
   4 H :   -0.047579
   5 H :   -0.087486
   6 H :   -0.015184
   7 H :   -0.000450
   8 C :   -0.063735
   9 C :    0.135707
  10 H :    0.014622
  11 H :    0.004761
  12 H :    0.024999
  13 H :    0.009674
  14 H :   -0.022686
  15 H :   -0.023935
  16 H :   -0.023939

  Mayer bond orders larger than 0.100000
B(  0-C ,  1-C ) :   0.8863 B(  0-C ,  2-N ) :   0.1116 B(  0-C ,  8-C ) :   1.2264
B(  0-C , 10-H ) :   0.1243 B(  0-C , 11-H ) :   0.1550 B(  0-C , 12-H ) :   0.8825
B(  0-C , 13-H ) :   0.7425 B(  1-C ,  2-N ) :   0.9712 B(  1-C ,  3-C ) :   1.4930
B(  1-C ,  5-H ) :   0.1055 B(  1-C ,  7-H ) :  -0.1614 B(  1-C , 12-H ) :   0.1384
B(  1-C , 13-H ) :   0.1180 B(  2-N ,  3-C ) :   0.3421 B(  2-N ,  6-H ) :   1.1570
B(  2-N ,  7-H ) :   1.3292 B(  3-C ,  4-H ) :   0.8172 B(  3-C ,  5-H ) :   0.8809
B(  4-H ,  5-H ) :  -0.1089 B(  6-H ,  7-H ) :  -0.1566 B(  8-C ,  9-C ) :   1.3302
B(  8-C , 10-H ) :   0.9491 B(  8-C , 11-H ) :   0.8911 B(  8-C , 12-H ) :   0.1242
B(  8-C , 13-H ) :   0.1566 B(  8-C , 14-H ) :   0.2217 B(  8-C , 15-H ) :   0.2141
B(  8-C , 16-H ) :   0.2169 B(  9-C , 14-H ) :   0.7884 B(  9-C , 15-H ) :   0.7946
B(  9-C , 16-H ) :   0.8402

Dispersion correction           -0.017313136
FINAL SINGLE POINT ENERGY      -251.766801958081

DIPOLE MOMENT
-------------
                                X             Y             Z
Electronic contribution:     -2.71874       0.43046      -2.79202
Nuclear contribution   :      2.50934       0.16282       2.72182
                        -----------------------------------------
Total Dipole Moment    :     -0.20940       0.59328      -0.07021
                        -----------------------------------------
Magnitude (a.u.)       :      0.63305
Magnitude (Debye)      :      1.60909

Rotational constants in cm-1:     0.192764     0.074934     0.070466
Rotational constants in MHz :  5778.908020  2246.454937  2112.518546

                             ****ORCA TERMINATED NORMALLY****
TOTAL RUN TIME: 0 days 0 hours 0 minutes 8 seconds 315 msec
