                         Program Version 5.0.0 -  RELEASE  -
|  1> !TPSS D3BJ RIJCOSX def2-SVPD def2/J TightSCF
|  2> *xyz 0 1
|  3> C          4.93020       -7.37532       -2.64962
|  4> C          3.84189       -6.95161       -3.63283
|  5> H          3.45814       -5.95442       -3.40712
|  6> H          2.98848       -7.64361       -3.56708
|  7> S          4.31812       -6.91593       -5.36869
|  8> O          5.40615       -5.89948       -5.51297
|  9> O          3.11191       -6.44508       -6.04379
| 10> C          6.17399       -6.48552       -2.60631
| 11> H          4.46961       -7.40617       -1.65588
| 12> H          5.23013       -8.39868       -2.88591
| 13> F          4.76340       -8.23942       -5.69863
| 14> H          6.62449       -6.45478       -3.57637
| 15> H          6.87304       -6.88376       -1.90088
| 16> H          5.89434       -5.49571       -2.31140
| 17> *
| 18>
| 19> %MaxCore 64000
| 20>
| 21> %pal nprocs 8
| 22> end
| 23>
| 24> %scf
| 25>   MaxIter 150
| 26> end
| 27>
| 28>
| 29>                          ****END OF INPUT****

CARTESIAN COORDINATES (ANGSTROEM)
---------------------------------
  C      4.930200   -7.375320   -2.649620
  C      3.841890   -6.951610   -3.632830
  H      3.458140   -5.954420   -3.407120
  H      2.988480   -7.643610   -3.567080
  S      4.318120   -6.915930   -5.368690
  O      5.406150   -5.899480   -5.512970
  O      3.111910   -6.445080   -6.043790
  C      6.173990   -6.485520   -2.606310
  H      4.469610   -7.406170   -1.655880
  H      5.230130   -8.398680   -2.885910
  F      4.763400   -8.239420   -5.698630
  H      6.624490   -6.454780   -3.576370
  H      6.873040   -6.883760   -1.900880
  H      5.894340   -5.495710   -2.311400

 Total Charge           Charge          ....    0
 Multiplicity           Mult            ....    1
 Number of Electrons    NEL             ....   66
 Basis Dimension        Dim             ....  212

ORBITAL ENERGIES
----------------

  NO   OCC          E(Eh)            E(eV)
   0   2.0000     -88.622262     -2411.5343
   1   2.0000     -24.545932      -667.9288
   2   2.0000     -18.907015      -514.4860
   3   2.0000     -18.900346      -514.3046
   4   2.0000     -10.064478      -273.8684
   5   2.0000     -10.033267      -273.0191
   6   2.0000      -9.998020      -272.0599
   7   2.0000      -7.983074      -217.2305
   8   2.0000      -5.973611      -162.5502
   9   2.0000      -5.966679      -162.3616
  10   2.0000      -5.964914      -162.3136
  11   2.0000      -1.299505       -35.3613
  12   2.0000      -1.023963       -27.8635
  13   2.0000      -0.924207       -25.1490
  14   2.0000      -0.771723       -20.9996
  15   2.0000      -0.696031       -18.9400
  16   2.0000      -0.655355       -17.8331
  17   2.0000      -0.585682       -15.9372
  18   2.0000      -0.542148       -14.7526
  19   2.0000      -0.532805       -14.4983
  20   2.0000      -0.497444       -13.5361
  21   2.0000      -0.449827       -12.2404
  22   2.0000      -0.442787       -12.0488
  23   2.0000      -0.413735       -11.2583
  24   2.0000      -0.396065       -10.7775
  25   2.0000      -0.393944       -10.7197
  26   2.0000      -0.345082        -9.3902
  27   2.0000      -0.342350        -9.3158
  28   2.0000      -0.340015        -9.2523
  29   2.0000      -0.324919        -8.8415
  30   2.0000      -0.285828        -7.7778
  31   2.0000      -0.278586        -7.5807
  32   2.0000      -0.256766        -6.9870
  33   0.0000      -0.025385        -0.6908
  34   0.0000       0.005227         0.1422
  35   0.0000       0.018133         0.4934
  36   0.0000       0.024211         0.6588
  37   0.0000       0.026380         0.7178

MULLIKEN ATOMIC CHARGES
-----------------------
   0 C :   -0.284297
   1 C :   -0.065085
   2 H :    0.074800
   3 H :    0.084988
   4 S :    1.423486
   5 O :   -0.689958
   6 O :   -0.666170
   7 C :    0.750220
   8 H :   -0.068902
   9 H :   -0.021846
  10 F :   -0.381604
  11 H :   -0.110034
  12 H :   -0.046952
  13 H :    0.001353
Sum of atomic charges:    0.0000000

LOEWDIN ATOMIC CHARGES
----------------------
   0 C :   -0.072368
   1 C :   -0.049638
   2 H :    0.033489
   3 H :    0.024440
   4 S :    1.110572
   5 O :   -0.464052
   6 O :   -0.460163
   7 C :    0.147036
   8 H :    0.026021
   9 H :    0.018942
  10 F :   -0.246501
  11 H :   -0.042261
  12 H :   -0.016521
  13 H :   -0.008998

  Mayer bond orders larger than 0.100000
B(  0-C ,  1-C ) :   1.2578 B(  0-C ,  2-H ) :   0.1277 B(  0-C ,  3-H ) :   0.1265
B(  0-C ,  7-C ) :   1.2955 B(  0-C ,  8-H ) :   0.8843 B(  0-C ,  9-H ) :   0.9113
B(  0-C , 11-H ) :   0.2235 B(  0-C , 12-H ) :   0.1913 B(  0-C , 13-H ) :   0.2133
B(  1-C ,  2-H ) :   0.9343 B(  1-C ,  3-H ) :   0.8917 B(  1-C ,  4-S ) :   0.9629
B(  1-C ,  8-H ) :   0.1339 B(  1-C ,  9-H ) :   0.1269 B(  4-S ,  5-O ) :   1.4829
B(  4-S ,  6-O ) :   1.5572 B(  4-S , 10-F ) :   0.6671 B(  7-C , 11-H ) :   0.8329
B(  7-C , 12-H ) :   0.7718 B(  7-C , 13-H ) :   0.7558 B( 11-H , 13-H ) :   0.1178

Dispersion correction           -0.016032260
FINAL SINGLE POINT ENERGY      -766.634249031160

DIPOLE MOMENT
-------------
                                X             Y             Z
Electronic contribution:     -3.00460      -2.53731     -12.16703
Nuclear contribution   :      2.96568       1.49902      13.60585
                        -----------------------------------------
Total Dipole Moment    :     -0.03892      -1.03828       1.43882
                        -----------------------------------------
Magnitude (a.u.)       :      1.77475
Magnitude (Debye)      :      4.51106

Rotational constants in cm-1:     0.127173     0.053596     0.051689
Rotational constants in MHz :  3812.547794  1606.772866  1549.597841

                             ****ORCA TERMINATED NORMALLY****
TOTAL RUN TIME: 0 days 0 hours 0 minutes 8 seconds 802 msec
