                         Program Version 5.0.0 -  RELEASE  -
|  1> !TPSS D3BJ RIJCOSX def2-SVPD def2/J TightSCF xyzfile
|  2>
|  3> *xyzfile 0 1 D3.xyz
|  4>
|  5> %MaxCore 64000
|  6>
|  7> %pal nprocs 4
|  8> end
|  9>
| 10> %scf
| 11>   MaxIter 150
| 12> end
| 13>
| 14>
| 15>                          ****END OF INPUT****

CARTESIAN COORDINATES (ANGSTROEM)
---------------------------------
  C      5.558206   -1.992914   -6.215054
  C      4.930199   -7.375319   -2.649623
  C      3.841892   -6.951611   -3.632829
  H      3.458144   -5.954425   -3.407121
  H      2.988484   -7.643606   -3.567078
  S      4.318115   -6.915930   -5.368692
  C      4.181880   -2.589671   -6.298911
  C      3.145873   -1.768431   -6.486753
  N      4.019102   -3.864307   -6.227427
  H      4.768490   -4.591153   -5.990773
  H      3.122405   -4.333392   -6.314620
  H      3.281635   -0.777786   -6.566549
  H      2.212549   -2.134193   -6.562246
  O      5.406154   -5.899480   -5.512972
  F      3.111910   -6.445079   -6.043792
  C      6.419260   -2.542944   -5.077630
  C      5.872267   -5.002756   -2.427819
  C      6.173994   -6.485522   -2.606315
  H      6.734852   -6.613767   -3.534015
  H      6.821463   -6.831018   -1.793617
  H      4.469612   -7.406168   -1.655876
  H      5.230134   -8.398678   -2.885906
  C      5.896512   -2.169314   -3.694552
  H      7.428880   -2.143665   -5.208078
  H      6.505894   -3.627541   -5.175502
  C      6.807804   -2.623428   -2.551019
  H      4.894708   -2.589732   -3.557501
  H      5.778823   -1.081255   -3.635790
  C      7.111544   -4.122463   -2.520363
  H      7.751615   -2.071393   -2.614406
  H      6.345837   -2.326401   -1.604086
  H      5.362882   -4.828697   -1.471335
  H      5.174429   -4.702577   -3.211298
  H      7.778329   -4.329347   -1.677651
  H      7.673189   -4.402845   -3.417586
  O      4.763396   -8.239424   -5.698629
  H      6.036826   -2.198189   -7.176852
  H      5.467610   -0.907371   -6.127968

 Total Charge           Charge          ....    0
 Multiplicity           Mult            ....    1
 Number of Electrons    NEL             ....  136
 Basis Dimension        Dim             ....  512

ORBITAL ENERGIES
----------------

  NO   OCC          E(Eh)            E(eV)
   0   2.0000     -88.647816     -2412.2297
   1   2.0000     -24.557338      -668.2391
   2   2.0000     -18.938577      -515.3449
   3   2.0000     -18.931603      -515.1551
   4   2.0000     -14.090479      -383.4214
   5   2.0000     -10.078251      -274.2431
   6   2.0000     -10.040313      -273.2108
   7   2.0000     -10.010541      -272.4007
   8   2.0000     -10.001229      -272.1473
   9   2.0000      -9.997042      -272.0333
  10   2.0000      -9.995071      -271.9797
  11   2.0000      -9.991231      -271.8752
  12   2.0000      -9.985865      -271.7292
  13   2.0000      -9.985630      -271.7228
  14   2.0000      -9.984583      -271.6943
  15   2.0000      -9.913773      -269.7675
  16   2.0000      -8.007575      -217.8972
  17   2.0000      -5.997879      -163.2106
  18   2.0000      -5.991760      -163.0441
  19   2.0000      -5.989347      -162.9784
  20   2.0000      -1.302420       -35.4406
  21   2.0000      -1.061088       -28.8737
  22   2.0000      -0.966485       -26.2994
  23   2.0000      -0.838997       -22.8303
  24   2.0000      -0.787530       -21.4298
  25   2.0000      -0.748282       -20.3618
  26   2.0000      -0.724874       -19.7248
  27   2.0000      -0.697934       -18.9917
  28   2.0000      -0.676828       -18.4174
  29   2.0000      -0.649840       -17.6831
  30   2.0000      -0.631063       -17.1721
  31   2.0000      -0.598760       -16.2931
  32   2.0000      -0.568579       -15.4718
  33   2.0000      -0.552396       -15.0315
  34   2.0000      -0.548139       -14.9156
  35   2.0000      -0.537720       -14.6321
  36   2.0000      -0.526750       -14.3336
  37   2.0000      -0.510372       -13.8879
  38   2.0000      -0.502437       -13.6720
  39   2.0000      -0.474642       -12.9157
  40   2.0000      -0.463443       -12.6109
  41   2.0000      -0.452050       -12.3009
  42   2.0000      -0.437957       -11.9174
  43   2.0000      -0.423573       -11.5260
  44   2.0000      -0.417782       -11.3684
  45   2.0000      -0.413789       -11.2598
  46   2.0000      -0.404200       -10.9988
  47   2.0000      -0.392602       -10.6832
  48   2.0000      -0.382739       -10.4148
  49   2.0000      -0.376658       -10.2494
  50   2.0000      -0.370728       -10.0880
  51   2.0000      -0.365446        -9.9443
  52   2.0000      -0.354051        -9.6342
  53   2.0000      -0.341994        -9.3061
  54   2.0000      -0.334594        -9.1048
  55   2.0000      -0.326268        -8.8782
  56   2.0000      -0.323055        -8.7908
  57   2.0000      -0.316730        -8.6187
  58   2.0000      -0.312679        -8.5084
  59   2.0000      -0.302611        -8.2345
  60   2.0000      -0.297696        -8.1007
  61   2.0000      -0.292525        -7.9600
  62   2.0000      -0.289541        -7.8788
  63   2.0000      -0.279646        -7.6096
  64   2.0000      -0.275677        -7.5016
  65   2.0000      -0.266866        -7.2618
  66   2.0000      -0.264106        -7.1867
  67   2.0000      -0.138183        -3.7602
  68   0.0000      -0.037034        -1.0077
  69   0.0000      -0.014889        -0.4052
  70   0.0000       0.005278         0.1436
  71   0.0000       0.013961         0.3799
  72   0.0000       0.016978         0.4620

MULLIKEN ATOMIC CHARGES
-----------------------
   0 C :    0.688205
   1 C :    0.411332
   2 C :   -0.137493
   3 H :    0.298188
   4 H :   -0.144513
   5 S :    1.527109
   6 C :   -0.351228
   7 C :    0.354734
   8 N :    0.807015
   9 H :   -0.234486
  10 H :   -0.298452
  11 H :   -0.242647
  12 H :   -0.337637
  13 O :   -0.933064
  14 F :   -0.448891
  15 C :    0.301788
  16 C :   -0.060739
  17 C :    0.154178
  18 H :    0.108368
  19 H :   -0.300023
  20 H :    0.100216
  21 H :    0.032137
  22 C :   -0.129943
  23 H :   -0.108589
  24 H :   -0.556099
  25 C :    0.543256
  26 H :    0.173705
  27 H :   -0.293356
  28 C :    0.027085
  29 H :    0.057568
  30 H :   -0.034022
  31 H :    0.030293
  32 H :   -0.263400
  33 H :   -0.299343
  34 H :    0.139940
  35 O :   -0.730477
  36 H :   -0.131767
  37 H :    0.281053
Sum of atomic charges:   -0.0000000

LOEWDIN ATOMIC CHARGES
----------------------
   0 C :    0.025852
   1 C :   -0.007296
   2 C :   -0.041201
   3 H :    0.013844
   4 H :    0.027026
   5 S :    1.158408
   6 C :   -0.255032
   7 C :    0.176780
   8 N :    0.179433
   9 H :   -0.109675
  10 H :   -0.017916
  11 H :   -0.101893
  12 H :   -0.099450
  13 O :   -0.431532
  14 F :   -0.247467
  15 C :   -0.016659
  16 C :   -0.025246
  17 C :   -0.017423
  18 H :    0.013109
  19 H :    0.027590
  20 H :    0.036472
  21 H :    0.028502
  22 C :   -0.022468
  23 H :    0.023151
  24 H :   -0.012986
  25 C :   -0.024139
  26 H :    0.010646
  27 H :    0.021712
  28 C :   -0.023106
  29 H :    0.017806
  30 H :    0.016288
  31 H :    0.033525
  32 H :   -0.019055
  33 H :    0.019448
  34 H :    0.016552
  35 O :   -0.418741
  36 H :    0.024541
  37 H :    0.020602

  Mayer bond orders larger than 0.100000
B(  0-C ,  6-C ) :   0.9606 B(  0-C ,  8-N ) :   0.1706 B(  0-C , 15-C ) :   1.1646
B(  0-C , 23-H ) :   0.1083 B(  0-C , 24-H ) :   0.1686 B(  0-C , 36-H ) :   0.5463
B(  0-C , 37-H ) :   0.6636 B(  1-C ,  2-C ) :   1.3036 B(  1-C ,  4-H ) :   0.1766
B(  1-C , 17-C ) :   1.2303 B(  1-C , 20-H ) :   0.7089 B(  1-C , 21-H ) :   0.6859
B(  2-C ,  3-H ) :   0.7533 B(  2-C ,  4-H ) :   0.8782 B(  2-C ,  5-S ) :   0.9747
B(  2-C , 20-H ) :   0.1753 B(  2-C , 21-H ) :   0.1147 B(  2-C , 35-O ) :   0.1327
B(  5-S , 13-O ) :   1.2562 B(  5-S , 14-F ) :   0.6240 B(  5-S , 35-O ) :   1.4675
B(  6-C ,  7-C ) :   1.5832 B(  6-C ,  8-N ) :   1.4054 B(  6-C , 10-H ) :  -0.1931
B(  6-C , 11-H ) :   0.1374 B(  6-C , 12-H ) :   0.3193 B(  6-C , 15-C ) :   0.1143
B(  6-C , 24-H ) :  -0.1129 B(  6-C , 36-H ) :   0.2795 B(  7-C ,  8-N ) :   0.2060
B(  7-C , 11-H ) :   0.8919 B(  7-C , 12-H ) :   0.6516 B(  8-N ,  9-H ) :   0.6492
B(  8-N , 10-H ) :   0.9972 B(  8-N , 13-O ) :  -0.1285 B(  9-H , 10-H ) :  -0.1858
B(  9-H , 13-O ) :   0.1249 B( 10-H , 14-F ) :   0.1176 B( 13-O , 24-H ) :   0.2008
B( 13-O , 35-O ) :   0.1809 B( 15-C , 22-C ) :   1.2086 B( 15-C , 23-H ) :   0.7805
B( 15-C , 24-H ) :   0.6431 B( 15-C , 26-H ) :   0.1240 B( 15-C , 27-H ) :   0.1886
B( 15-C , 36-H ) :   0.2364 B( 15-C , 37-H ) :   0.1508 B( 16-C , 17-C ) :   1.2075
B( 16-C , 18-H ) :   0.1164 B( 16-C , 19-H ) :   0.1698 B( 16-C , 28-C ) :   1.2390
B( 16-C , 31-H ) :   0.7938 B( 16-C , 32-H ) :   1.0216 B( 16-C , 33-H ) :   0.1921
B( 16-C , 34-H ) :   0.1244 B( 17-C , 18-H ) :   0.8418 B( 17-C , 19-H ) :   0.9027
B( 17-C , 20-H ) :   0.1113 B( 17-C , 21-H ) :   0.2313 B( 17-C , 28-C ) :   0.1346
B( 22-C , 23-H ) :   0.1414 B( 22-C , 24-H ) :   0.2054 B( 22-C , 25-C ) :   1.0882
B( 22-C , 26-H ) :   0.8155 B( 22-C , 27-H ) :   1.0557 B( 22-C , 28-C ) :   0.1137
B( 22-C , 29-H ) :   0.1378 B( 22-C , 30-H ) :   0.2133 B( 25-C , 28-C ) :   1.1397
B( 25-C , 29-H ) :   0.7044 B( 25-C , 30-H ) :   0.7266 B( 26-H , 32-H ) :   0.1294
B( 28-C , 29-H ) :   0.1960 B( 28-C , 30-H ) :   0.1343 B( 28-C , 31-H ) :   0.1042
B( 28-C , 33-H ) :   0.9987 B( 28-C , 34-H ) :   0.8131 B( 31-H , 32-H ) :   0.1010

Dispersion correction           -0.057732533
FINAL SINGLE POINT ENERGY     -1135.101427957697

DIPOLE MOMENT
-------------
                                X             Y             Z
Electronic contribution:    -10.94495     -20.03181     -14.22961
Nuclear contribution   :     10.48431      18.81367      15.71750
                        -----------------------------------------
Total Dipole Moment    :     -0.46064      -1.21814       1.48788
                        -----------------------------------------
Magnitude (a.u.)       :      1.97733
Magnitude (Debye)      :      5.02598

Rotational constants in cm-1:     0.017977     0.012528     0.008321
Rotational constants in MHz :   538.924099   375.570730   249.458530

                             ****ORCA TERMINATED NORMALLY****
TOTAL RUN TIME: 0 days 0 hours 1 minutes 36 seconds 996 msec
