                         Program Version 5.0.0 -  RELEASE  -
|  1> !TPSS D3BJ RIJCOSX def2-SVPD def2/J TightSCF xyzfile
|  2>
|  3> *xyzfile 0 1 D4.xyz
|  4>
|  5> %MaxCore 64000
|  6>
|  7> %pal nprocs 4
|  8> end
|  9>
| 10> %scf
| 11>   MaxIter 150
| 12> end
| 13>
| 14>
| 15>                          ****END OF INPUT****

CARTESIAN COORDINATES (ANGSTROEM)
---------------------------------
  C      5.558206   -1.992914   -6.215054
  C      4.930199   -7.375319   -2.649623
  C      3.841892   -6.951611   -3.632829
  H      3.458144   -5.954425   -3.407121
  H      2.988484   -7.643606   -3.567078
  S      4.318115   -6.915930   -5.368692
  C      4.181880   -2.589671   -6.298911
  N      3.145873   -1.768431   -6.486753
  C      4.019102   -3.864307   -6.227427
  H      4.768490   -4.591153   -5.990773
  H      3.122405   -4.333392   -6.314620
  H      3.281635   -0.777786   -6.566549
  H      2.212549   -2.134193   -6.562246
  O      5.406154   -5.899480   -5.512972
  F      3.111910   -6.445079   -6.043792
  C      6.419260   -2.542944   -5.077630
  C      5.872267   -5.002756   -2.427819
  C      6.173994   -6.485522   -2.606315
  H      6.734852   -6.613767   -3.534015
  H      6.821463   -6.831018   -1.793617
  H      4.469612   -7.406168   -1.655876
  H      5.230134   -8.398678   -2.885906
  C      5.896512   -2.169314   -3.694552
  H      7.428880   -2.143665   -5.208078
  H      6.505894   -3.627541   -5.175502
  C      6.807804   -2.623428   -2.551019
  H      4.894708   -2.589732   -3.557501
  H      5.778823   -1.081255   -3.635790
  C      7.111544   -4.122463   -2.520363
  H      7.751615   -2.071393   -2.614406
  H      6.345837   -2.326401   -1.604086
  H      5.362882   -4.828697   -1.471335
  H      5.174429   -4.702577   -3.211298
  H      7.778329   -4.329347   -1.677651
  H      7.673189   -4.402845   -3.417586
  O      4.763396   -8.239424   -5.698629
  H      6.036826   -2.198189   -7.176852
  H      5.467610   -0.907371   -6.127968

 Total Charge           Charge          ....    0
 Multiplicity           Mult            ....    1
 Number of Electrons    NEL             ....  136
 Basis Dimension        Dim             ....  512

ORBITAL ENERGIES
----------------

  NO   OCC          E(Eh)            E(eV)
   0   2.0000     -88.624724     -2411.6013
   1   2.0000     -24.531872      -667.5462
   2   2.0000     -18.917250      -514.7645
   3   2.0000     -18.901577      -514.3380
   4   2.0000     -14.107223      -383.8770
   5   2.0000     -10.061785      -273.7951
   6   2.0000     -10.027977      -272.8751
   7   2.0000      -9.999986      -272.1135
   8   2.0000      -9.998411      -272.0706
   9   2.0000      -9.992207      -271.9018
  10   2.0000      -9.989076      -271.8166
  11   2.0000      -9.988790      -271.8088
  12   2.0000      -9.987940      -271.7857
  13   2.0000      -9.983627      -271.6683
  14   2.0000      -9.983441      -271.6632
  15   2.0000      -9.905052      -269.5302
  16   2.0000      -7.984135      -217.2593
  17   2.0000      -5.974264      -162.5680
  18   2.0000      -5.968299      -162.4057
  19   2.0000      -5.966198      -162.3485
  20   2.0000      -1.277071       -34.7509
  21   2.0000      -1.037522       -28.2324
  22   2.0000      -0.939922       -25.5766
  23   2.0000      -0.841312       -22.8933
  24   2.0000      -0.772879       -21.0311
  25   2.0000      -0.742755       -20.2114
  26   2.0000      -0.717314       -19.5191
  27   2.0000      -0.694053       -18.8861
  28   2.0000      -0.662652       -18.0317
  29   2.0000      -0.644915       -17.5490
  30   2.0000      -0.622004       -16.9256
  31   2.0000      -0.595534       -16.2053
  32   2.0000      -0.564127       -15.3507
  33   2.0000      -0.546656       -14.8753
  34   2.0000      -0.525128       -14.2894
  35   2.0000      -0.516533       -14.0556
  36   2.0000      -0.510284       -13.8855
  37   2.0000      -0.502434       -13.6719
  38   2.0000      -0.489336       -13.3155
  39   2.0000      -0.469184       -12.7672
  40   2.0000      -0.451904       -12.2969
  41   2.0000      -0.448190       -12.1959
  42   2.0000      -0.434597       -11.8260
  43   2.0000      -0.422903       -11.5078
  44   2.0000      -0.413137       -11.2420
  45   2.0000      -0.405135       -11.0243
  46   2.0000      -0.401918       -10.9368
  47   2.0000      -0.385649       -10.4940
  48   2.0000      -0.375442       -10.2163
  49   2.0000      -0.369526       -10.0553
  50   2.0000      -0.363630        -9.8949
  51   2.0000      -0.355485        -9.6732
  52   2.0000      -0.346597        -9.4314
  53   2.0000      -0.328812        -8.9474
  54   2.0000      -0.325800        -8.8655
  55   2.0000      -0.320641        -8.7251
  56   2.0000      -0.313724        -8.5369
  57   2.0000      -0.304404        -8.2833
  58   2.0000      -0.300005        -8.1635
  59   2.0000      -0.295918        -8.0524
  60   2.0000      -0.288296        -7.8449
  61   2.0000      -0.286021        -7.7830
  62   2.0000      -0.281577        -7.6621
  63   2.0000      -0.272947        -7.4273
  64   2.0000      -0.269344        -7.3292
  65   2.0000      -0.264465        -7.1965
  66   2.0000      -0.230683        -6.2772
  67   2.0000      -0.148356        -4.0370
  68   0.0000      -0.016146        -0.4394
  69   0.0000      -0.002941        -0.0800
  70   0.0000       0.012399         0.3374
  71   0.0000       0.015490         0.4215
  72   0.0000       0.022776         0.6198

MULLIKEN ATOMIC CHARGES
-----------------------
   0 C :    0.756553
   1 C :    0.423050
   2 C :   -0.136174
   3 H :    0.299320
   4 H :   -0.151482
   5 S :    1.537174
   6 C :    0.274201
   7 N :    0.092610
   8 C :    0.827963
   9 H :    0.009928
  10 H :   -1.017054
  11 H :   -0.159836
  12 H :   -0.213559
  13 O :   -0.859086
  14 F :   -0.463447
  15 C :    0.247692
  16 C :   -0.066741
  17 C :    0.157190
  18 H :    0.114862
  19 H :   -0.296679
  20 H :    0.092422
  21 H :    0.032054
  22 C :   -0.158377
  23 H :   -0.090670
  24 H :   -0.525700
  25 C :    0.560425
  26 H :    0.214554
  27 H :   -0.306185
  28 C :    0.031593
  29 H :    0.050767
  30 H :   -0.022250
  31 H :    0.032135
  32 H :   -0.277893
  33 H :   -0.288135
  34 H :    0.123838
  35 O :   -0.780465
  36 H :   -0.110676
  37 H :    0.046078
Sum of atomic charges:    0.0000000

LOEWDIN ATOMIC CHARGES
----------------------
   0 C :    0.023239
   1 C :   -0.009479
   2 C :   -0.043543
   3 H :    0.012360
   4 H :    0.024119
   5 S :    1.149683
   6 C :   -0.232761
   7 N :    0.176899
   8 C :    0.174426
   9 H :   -0.164226
  10 H :   -0.098348
  11 H :   -0.019465
  12 H :   -0.003793
  13 O :   -0.445708
  14 F :   -0.252022
  15 C :   -0.009181
  16 C :   -0.024570
  17 C :   -0.018079
  18 H :    0.013227
  19 H :    0.025684
  20 H :    0.033777
  21 H :    0.027366
  22 C :   -0.024394
  23 H :    0.023618
  24 H :   -0.004816
  25 C :   -0.024914
  26 H :    0.009349
  27 H :    0.017101
  28 C :   -0.023028
  29 H :    0.016735
  30 H :    0.015586
  31 H :    0.032058
  32 H :   -0.016888
  33 H :    0.018744
  34 H :    0.017131
  35 O :   -0.431054
  36 H :    0.027437
  37 H :    0.007729

  Mayer bond orders larger than 0.100000
B(  0-C ,  6-C ) :   0.8896 B(  0-C ,  8-C ) :   0.1727 B(  0-C ,  9-H ) :  -0.1242
B(  0-C , 15-C ) :   1.2291 B(  0-C , 24-H ) :   0.1288 B(  0-C , 36-H ) :   0.5840
B(  0-C , 37-H ) :   0.7101 B(  1-C ,  2-C ) :   1.2842 B(  1-C ,  4-H ) :   0.1680
B(  1-C , 17-C ) :   1.2240 B(  1-C , 20-H ) :   0.7101 B(  1-C , 21-H ) :   0.6832
B(  2-C ,  3-H ) :   0.7564 B(  2-C ,  4-H ) :   0.8893 B(  2-C ,  5-S ) :   0.9771
B(  2-C , 20-H ) :   0.1781 B(  2-C , 21-H ) :   0.1175 B(  2-C , 35-O ) :   0.1479
B(  5-S , 13-O ) :   1.3037 B(  5-S , 14-F ) :   0.6195 B(  5-S , 35-O ) :   1.4304
B(  6-C ,  7-N ) :   0.7911 B(  6-C ,  8-C ) :   1.8367 B(  6-C ,  9-H ) :  -0.1295
B(  6-C , 10-H ) :   0.1398 B(  6-C , 12-H ) :  -0.1718 B(  6-C , 36-H ) :   0.2490
B(  7-N ,  8-C ) :   0.5409 B(  7-N , 11-H ) :   1.1650 B(  7-N , 12-H ) :   1.3544
B(  8-C ,  9-H ) :   0.4493 B(  8-C , 14-F ) :  -0.1509 B(  8-C , 24-H ) :   0.1647
B(  9-H , 10-H ) :  -0.1966 B(  9-H , 14-F ) :   0.1247 B(  9-H , 24-H ) :   0.1319
B( 10-H , 14-F ) :   0.2309 B( 10-H , 24-H ) :  -0.1190 B( 11-H , 12-H ) :  -0.1523
B( 13-O , 24-H ) :   0.1782 B( 13-O , 35-O ) :   0.1840 B( 15-C , 22-C ) :   1.2186
B( 15-C , 23-H ) :   0.7742 B( 15-C , 24-H ) :   0.7103 B( 15-C , 26-H ) :   0.1297
B( 15-C , 27-H ) :   0.1836 B( 15-C , 36-H ) :   0.3022 B( 15-C , 37-H ) :   0.1533
B( 16-C , 17-C ) :   1.2050 B( 16-C , 18-H ) :   0.1171 B( 16-C , 19-H ) :   0.1650
B( 16-C , 28-C ) :   1.2371 B( 16-C , 31-H ) :   0.7838 B( 16-C , 32-H ) :   1.0335
B( 16-C , 33-H ) :   0.1987 B( 16-C , 34-H ) :   0.1361 B( 17-C , 18-H ) :   0.8408
B( 17-C , 19-H ) :   0.8994 B( 17-C , 20-H ) :   0.1092 B( 17-C , 21-H ) :   0.2332
B( 17-C , 28-C ) :   0.1370 B( 22-C , 23-H ) :   0.1514 B( 22-C , 24-H ) :   0.1888
B( 22-C , 25-C ) :   1.0943 B( 22-C , 26-H ) :   0.8014 B( 22-C , 27-H ) :   1.1004
B( 22-C , 28-C ) :   0.1232 B( 22-C , 29-H ) :   0.1570 B( 22-C , 30-H ) :   0.2264
B( 25-C , 28-C ) :   1.1337 B( 25-C , 29-H ) :   0.6787 B( 25-C , 30-H ) :   0.7097
B( 26-H , 32-H ) :   0.1399 B( 28-C , 29-H ) :   0.2001 B( 28-C , 30-H ) :   0.1296
B( 28-C , 31-H ) :   0.1079 B( 28-C , 33-H ) :   0.9913 B( 28-C , 34-H ) :   0.8193
B( 31-H , 32-H ) :   0.1065 B( 36-H , 37-H ) :  -0.1135

Dispersion correction           -0.058105660
FINAL SINGLE POINT ENERGY     -1135.088559619509

DIPOLE MOMENT
-------------
                                X             Y             Z
Electronic contribution:    -11.67387     -18.13526     -14.65845
Nuclear contribution   :     10.61624      18.49702      15.75668
                        -----------------------------------------
Total Dipole Moment    :     -1.05763       0.36176       1.09823
                        -----------------------------------------
Magnitude (a.u.)       :      1.56702
Magnitude (Debye)      :      3.98305

Rotational constants in cm-1:     0.017796     0.012372     0.008231
Rotational constants in MHz :   533.524905   370.895973   246.762347

                             ****ORCA TERMINATED NORMALLY****
TOTAL RUN TIME: 0 days 0 hours 1 minutes 40 seconds 330 msec
