                         Program Version 5.0.0 -  RELEASE  -
|  1> !TPSS D3BJ RIJCOSX def2-SVPD def2/J TightSCF xyzfile
|  2>
|  3> *xyzfile 0 1 D6.xyz
|  4>
|  5> %MaxCore 64000
|  6>
|  7> %pal nprocs 4
|  8> end
|  9>
| 10> %scf
| 11>   MaxIter 150
| 12> end
| 13>
| 14>
| 15>                          ****END OF INPUT****

CARTESIAN COORDINATES (ANGSTROEM)
---------------------------------
  C      5.558206   -1.992914   -6.215054
  C      4.930199   -7.375319   -2.649623
  C      3.841892   -6.951611   -3.632829
  H      3.458144   -5.954425   -3.407121
  H      2.988484   -7.643606   -3.567078
  S      4.318115   -6.915930   -5.368692
  C      4.181880   -2.589671   -6.298911
  N      3.145873   -1.768431   -6.486753
  C      4.019102   -3.864307   -6.227427
  H      4.768490   -4.591153   -5.990773
  H      3.122405   -4.333392   -6.314620
  H      3.281635   -0.777786   -6.566549
  H      2.212549   -2.134193   -6.562246
  O      5.406154   -5.899480   -5.512972
  O      3.111910   -6.445079   -6.043792
  C      6.419260   -2.542944   -5.077630
  C      5.872267   -5.002756   -2.427819
  C      6.173994   -6.485522   -2.606315
  H      6.734852   -6.613767   -3.534015
  H      6.821463   -6.831018   -1.793617
  H      4.469612   -7.406168   -1.655876
  H      5.230134   -8.398678   -2.885906
  C      5.896512   -2.169314   -3.694552
  H      7.428880   -2.143665   -5.208078
  H      6.505894   -3.627541   -5.175502
  C      6.807804   -2.623428   -2.551019
  H      4.894708   -2.589732   -3.557501
  H      5.778823   -1.081255   -3.635790
  C      7.111544   -4.122463   -2.520363
  H      7.751615   -2.071393   -2.614406
  H      6.345837   -2.326401   -1.604086
  H      5.362882   -4.828697   -1.471335
  H      5.174429   -4.702577   -3.211298
  H      7.778329   -4.329347   -1.677651
  H      7.673189   -4.402845   -3.417586
  F      4.763396   -8.239424   -5.698629
  H      6.036826   -2.198189   -7.176852
  H      5.467610   -0.907371   -6.127968

 Total Charge           Charge          ....    0
 Multiplicity           Mult            ....    1
 Number of Electrons    NEL             ....  136
 Basis Dimension        Dim             ....  512

ORBITAL ENERGIES
----------------

  NO   OCC          E(Eh)            E(eV)
   0   2.0000     -88.626849     -2411.6592
   1   2.0000     -24.546872      -667.9543
   2   2.0000     -18.909098      -514.5427
   3   2.0000     -18.905235      -514.4376
   4   2.0000     -14.096073      -383.5736
   5   2.0000     -10.062551      -273.8159
   6   2.0000     -10.029680      -272.9215
   7   2.0000     -10.003213      -272.2013
   8   2.0000      -9.992944      -271.9218
   9   2.0000      -9.988917      -271.8122
  10   2.0000      -9.986155      -271.7371
  11   2.0000      -9.985203      -271.7112
  12   2.0000      -9.981257      -271.6038
  13   2.0000      -9.979710      -271.5617
  14   2.0000      -9.978976      -271.5417
  15   2.0000      -9.890937      -269.1461
  16   2.0000      -7.986217      -217.3160
  17   2.0000      -5.976751      -162.6357
  18   2.0000      -5.970020      -162.4525
  19   2.0000      -5.968171      -162.4022
  20   2.0000      -1.299665       -35.3657
  21   2.0000      -1.030008       -28.0279
  22   2.0000      -0.932307       -25.3694
  23   2.0000      -0.830050       -22.5868
  24   2.0000      -0.775957       -21.1149
  25   2.0000      -0.741091       -20.1661
  26   2.0000      -0.714615       -19.4457
  27   2.0000      -0.692058       -18.8318
  28   2.0000      -0.664921       -18.0934
  29   2.0000      -0.644155       -17.5284
  30   2.0000      -0.620028       -16.8718
  31   2.0000      -0.592278       -16.1167
  32   2.0000      -0.563221       -15.3260
  33   2.0000      -0.549490       -14.9524
  34   2.0000      -0.537293       -14.6205
  35   2.0000      -0.528657       -14.3855
  36   2.0000      -0.507177       -13.8010
  37   2.0000      -0.498445       -13.5634
  38   2.0000      -0.481117       -13.0919
  39   2.0000      -0.460226       -12.5234
  40   2.0000      -0.452525       -12.3138
  41   2.0000      -0.446002       -12.1363
  42   2.0000      -0.429296       -11.6817
  43   2.0000      -0.422049       -11.4845
  44   2.0000      -0.415267       -11.3000
  45   2.0000      -0.405850       -11.0437
  46   2.0000      -0.401617       -10.9286
  47   2.0000      -0.380718       -10.3599
  48   2.0000      -0.376552       -10.2465
  49   2.0000      -0.371639       -10.1128
  50   2.0000      -0.368466       -10.0265
  51   2.0000      -0.353763        -9.6264
  52   2.0000      -0.335746        -9.1361
  53   2.0000      -0.329084        -8.9548
  54   2.0000      -0.319235        -8.6868
  55   2.0000      -0.309947        -8.4341
  56   2.0000      -0.306611        -8.3433
  57   2.0000      -0.303134        -8.2487
  58   2.0000      -0.293644        -7.9905
  59   2.0000      -0.286835        -7.8052
  60   2.0000      -0.282837        -7.6964
  61   2.0000      -0.280666        -7.6373
  62   2.0000      -0.277970        -7.5639
  63   2.0000      -0.270836        -7.3698
  64   2.0000      -0.266622        -7.2551
  65   2.0000      -0.258320        -7.0292
  66   2.0000      -0.230291        -6.2665
  67   2.0000      -0.135560        -3.6888
  68   0.0000      -0.023075        -0.6279
  69   0.0000       0.003970         0.1080
  70   0.0000       0.013325         0.3626
  71   0.0000       0.018083         0.4921
  72   0.0000       0.020357         0.5539

MULLIKEN ATOMIC CHARGES
-----------------------
   0 C :    0.763113
   1 C :    0.451592
   2 C :   -0.112223
   3 H :    0.299038
   4 H :   -0.166482
   5 S :    1.559264
   6 C :    0.264011
   7 N :    0.096269
   8 C :    0.908608
   9 H :   -0.010479
  10 H :   -1.054824
  11 H :   -0.163157
  12 H :   -0.214058
  13 O :   -0.876868
  14 O :   -0.728855
  15 C :    0.242092
  16 C :   -0.065887
  17 C :    0.188262
  18 H :    0.114261
  19 H :   -0.295874
  20 H :    0.078211
  21 H :    0.009741
  22 C :   -0.157807
  23 H :   -0.087262
  24 H :   -0.522428
  25 C :    0.558916
  26 H :    0.215777
  27 H :   -0.302608
  28 C :    0.025979
  29 H :    0.049103
  30 H :   -0.022469
  31 H :    0.038920
  32 H :   -0.294875
  33 H :   -0.285191
  34 H :    0.126062
  35 F :   -0.555667
  36 H :   -0.115785
  37 H :    0.043581
Sum of atomic charges:    0.0000000

LOEWDIN ATOMIC CHARGES
----------------------
   0 C :    0.020958
   1 C :   -0.025662
   2 C :   -0.033540
   3 H :    0.026549
   4 H :    0.024833
   5 S :    1.161326
   6 C :   -0.235491
   7 N :    0.174400
   8 C :    0.186086
   9 H :   -0.157248
  10 H :   -0.098815
  11 H :   -0.022534
  12 H :   -0.003899
  13 O :   -0.450524
  14 O :   -0.440467
  15 C :   -0.011088
  16 C :   -0.022711
  17 C :   -0.023284
  18 H :    0.007483
  19 H :    0.024762
  20 H :    0.030856
  21 H :    0.020079
  22 C :   -0.023950
  23 H :    0.022269
  24 H :   -0.006221
  25 C :   -0.025279
  26 H :    0.009983
  27 H :    0.017263
  28 C :   -0.023531
  29 H :    0.016491
  30 H :    0.015345
  31 H :    0.032814
  32 H :   -0.015136
  33 H :    0.018157
  34 H :    0.016622
  35 F :   -0.238780
  36 H :    0.025531
  37 H :    0.006351

  Mayer bond orders larger than 0.100000
B(  0-C ,  6-C ) :   0.8780 B(  0-C ,  8-C ) :   0.1784 B(  0-C ,  9-H ) :  -0.1176
B(  0-C , 15-C ) :   1.2268 B(  0-C , 24-H ) :   0.1294 B(  0-C , 36-H ) :   0.5821
B(  0-C , 37-H ) :   0.7119 B(  1-C ,  2-C ) :   1.2384 B(  1-C ,  4-H ) :   0.1560
B(  1-C , 17-C ) :   1.2254 B(  1-C , 20-H ) :   0.7187 B(  1-C , 21-H ) :   0.6760
B(  2-C ,  3-H ) :   0.7816 B(  2-C ,  4-H ) :   0.8842 B(  2-C ,  5-S ) :   0.9880
B(  2-C , 20-H ) :   0.1632 B(  2-C , 21-H ) :   0.1087 B(  2-C , 35-F ) :   0.1401
B(  4-H ,  5-S ) :   0.1024 B(  5-S , 13-O ) :   1.2863 B(  5-S , 14-O ) :   1.4839
B(  5-S , 35-F ) :   0.4941 B(  6-C ,  7-N ) :   0.7907 B(  6-C ,  8-C ) :   1.8200
B(  6-C ,  9-H ) :  -0.1474 B(  6-C , 10-H ) :   0.1389 B(  6-C , 12-H ) :  -0.1694
B(  6-C , 36-H ) :   0.2492 B(  7-N ,  8-C ) :   0.5398 B(  7-N , 11-H ) :   1.1629
B(  7-N , 12-H ) :   1.3558 B(  8-C ,  9-H ) :   0.4146 B(  8-C , 13-O ) :   0.1008
B(  8-C , 14-O ) :  -0.1933 B(  8-C , 24-H ) :   0.1612 B(  9-H , 10-H ) :  -0.1706
B(  9-H , 13-O ) :  -0.1074 B(  9-H , 24-H ) :   0.1337 B( 10-H , 14-O ) :   0.3133
B( 10-H , 24-H ) :  -0.1282 B( 11-H , 12-H ) :  -0.1505 B( 13-O , 14-O ) :   0.1472
B( 13-O , 24-H ) :   0.1671 B( 13-O , 35-F ) :   0.1129 B( 15-C , 22-C ) :   1.2195
B( 15-C , 23-H ) :   0.7756 B( 15-C , 24-H ) :   0.7120 B( 15-C , 26-H ) :   0.1291
B( 15-C , 27-H ) :   0.1855 B( 15-C , 36-H ) :   0.3025 B( 15-C , 37-H ) :   0.1549
B( 16-C , 17-C ) :   1.2103 B( 16-C , 18-H ) :   0.1212 B( 16-C , 19-H ) :   0.1565
B( 16-C , 28-C ) :   1.2402 B( 16-C , 31-H ) :   0.7757 B( 16-C , 32-H ) :   1.0329
B( 16-C , 33-H ) :   0.1990 B( 16-C , 34-H ) :   0.1352 B( 17-C , 18-H ) :   0.8354
B( 17-C , 19-H ) :   0.8936 B( 17-C , 20-H ) :   0.1106 B( 17-C , 21-H ) :   0.2346
B( 17-C , 28-C ) :   0.1364 B( 22-C , 23-H ) :   0.1508 B( 22-C , 24-H ) :   0.1878
B( 22-C , 25-C ) :   1.0934 B( 22-C , 26-H ) :   0.8040 B( 22-C , 27-H ) :   1.0968
B( 22-C , 28-C ) :   0.1226 B( 22-C , 29-H ) :   0.1579 B( 22-C , 30-H ) :   0.2266
B( 25-C , 28-C ) :   1.1345 B( 25-C , 29-H ) :   0.6779 B( 25-C , 30-H ) :   0.7106
B( 26-H , 32-H ) :   0.1419 B( 28-C , 29-H ) :   0.1998 B( 28-C , 30-H ) :   0.1285
B( 28-C , 31-H ) :   0.1072 B( 28-C , 33-H ) :   0.9918 B( 28-C , 34-H ) :   0.8183
B( 31-H , 32-H ) :   0.1106 B( 36-H , 37-H ) :  -0.1146

Dispersion correction           -0.058219786
FINAL SINGLE POINT ENERGY     -1135.076299211284

DIPOLE MOMENT
-------------
                                X             Y             Z
Electronic contribution:     -8.85741     -21.41056     -14.08439
Nuclear contribution   :      8.67311      20.60825      15.35056
                        -----------------------------------------
Total Dipole Moment    :     -0.18430      -0.80232       1.26617
                        -----------------------------------------
Magnitude (a.u.)       :      1.51025
Magnitude (Debye)      :      3.83876

Rotational constants in cm-1:     0.017976     0.012151     0.008188
Rotational constants in MHz :   538.898457   364.286417   245.482451

                             ****ORCA TERMINATED NORMALLY****
TOTAL RUN TIME: 0 days 0 hours 1 minutes 40 seconds 169 msec
