                         Program Version 5.0.0 -  RELEASE  -
|  1> !LC-BLYP RIJCOSX def2-SVP def2/J TightSCF
|  2> *xyz -1 1
|  3> C         -0.91495        0.61511        2.50554
|  4> C         -0.05915        1.50352        3.41058
|  5> H          0.36536        2.34431        2.86116
|  6> H         -0.69226        1.92021        4.19898
|  7> C          1.08303        0.74964        4.08571
|  8> O          2.22817        1.26348        4.01983
|  9> O          0.81003       -0.34541        4.63627
| 10> H         -0.30401        0.20228        1.73015
| 11> H         -1.69811        1.19946        2.06954
| 12> H         -1.34124       -0.17772        3.08397
| 13> *
| 14>
| 15> %MaxCore 64000
| 16>
| 17> %pal nprocs 4
| 18> end
| 19>
| 20> %scf
| 21>   MaxIter 150
| 22> end
| 23>
| 24>
| 25>                          ****END OF INPUT****

CARTESIAN COORDINATES (ANGSTROEM)
---------------------------------
  C     -0.914950    0.615110    2.505540
  C     -0.059150    1.503520    3.410580
  H      0.365360    2.344310    2.861160
  H     -0.692260    1.920210    4.198980
  C      1.083030    0.749640    4.085710
  O      2.228170    1.263480    4.019830
  O      0.810030   -0.345410    4.636270
  H     -0.304010    0.202280    1.730150
  H     -1.698110    1.199460    2.069540
  H     -1.341240   -0.177720    3.083970

 Total Charge           Charge          ....   -1
 Multiplicity           Mult            ....    1
 Number of Electrons    NEL             ....   40
 Basis Dimension        Dim             ....   95

ORBITAL ENERGIES
----------------

  NO   OCC          E(Eh)            E(eV)
   0   2.0000     -18.645686      -507.3749
   1   2.0000     -18.643452      -507.3141
   2   2.0000      -9.933938      -270.3162
   3   2.0000      -9.911992      -269.7190
   4   2.0000      -9.891373      -269.1579
   5   2.0000      -0.863065       -23.4852
   6   2.0000      -0.766548       -20.8588
   7   2.0000      -0.693052       -18.8589
   8   2.0000      -0.560001       -15.2384
   9   2.0000      -0.403279       -10.9738
  10   2.0000      -0.384243       -10.4558
  11   2.0000      -0.335469        -9.1286
  12   2.0000      -0.310711        -8.4549
  13   2.0000      -0.294437        -8.0120
  14   2.0000      -0.278538        -7.5794
  15   2.0000      -0.245521        -6.6810
  16   2.0000      -0.235659        -6.4126
  17   2.0000      -0.104901        -2.8545
  18   2.0000      -0.102502        -2.7892
  19   2.0000      -0.085502        -2.3266
  20   0.0000       0.287957         7.8357
  21   0.0000       0.340070         9.2538
  22   0.0000       0.356182         9.6922
  23   0.0000       0.358149         9.7457
  24   0.0000       0.369197        10.0464

MULLIKEN ATOMIC CHARGES
-----------------------
   0 C :    0.029657
   1 C :    0.037928
   2 H :   -0.064438
   3 H :   -0.048648
   4 C :   -0.124140
   5 O :   -0.365420
   6 O :   -0.371770
   7 H :   -0.021072
   8 H :   -0.059916
   9 H :   -0.012181
Sum of atomic charges:   -1.0000000

LOEWDIN ATOMIC CHARGES
----------------------
   0 C :   -0.075589
   1 C :   -0.099548
   2 H :   -0.001782
   3 H :    0.007432
   4 C :   -0.090735
   5 O :   -0.378480
   6 O :   -0.381902
   7 H :    0.012870
   8 H :   -0.005205
   9 H :    0.012938

  Mayer bond orders larger than 0.100000
B(  0-C ,  1-C ) :   1.0928 B(  0-C ,  7-H ) :   0.9724 B(  0-C ,  8-H ) :   0.9594
B(  0-C ,  9-H ) :   0.9571 B(  1-C ,  2-H ) :   0.9310 B(  1-C ,  3-H ) :   0.9311
B(  1-C ,  4-C ) :   0.9169 B(  4-C ,  5-O ) :   1.9428 B(  4-C ,  6-O ) :   1.9020
B(  5-O ,  6-O ) :   0.1209

FINAL SINGLE POINT ENERGY      -267.007182683600

DIPOLE MOMENT
-------------
                                X             Y             Z
Electronic contribution:      4.91464      -1.08870       3.47602
Nuclear contribution   :     -6.38408       1.63097      -4.40540
                        -----------------------------------------
Total Dipole Moment    :     -1.46944       0.54226      -0.92938
                        -----------------------------------------
Magnitude (a.u.)       :      1.82128
Magnitude (Debye)      :      4.62931

Rotational constants in cm-1:     0.319732     0.134414     0.104753
Rotational constants in MHz :  9585.336550  4029.633034  3140.404334

                             ****ORCA TERMINATED NORMALLY****
TOTAL RUN TIME: 0 days 0 hours 0 minutes 13 seconds 492 msec
