                         Program Version 5.0.0 -  RELEASE  -
|  1> !LC-BLYP RIJCOSX def2-SVP def2/J TightSCF
|  2> *xyz 1 1
|  3> C          4.60295       -2.44010        2.63478
|  4> C          3.86085       -1.59157        3.62289
|  5> N          2.75650       -2.04616        4.16633
|  6> N          4.25433       -0.36291        3.86046
|  7> H          3.56526        0.31099        4.16898
|  8> H          5.05429       -0.01606        3.33784
|  9> H          2.43970       -2.97389        3.89740
| 10> H          2.06687       -1.41253        4.54981
| 11> C          3.74469       -2.58056        1.36188
| 12> H          5.56156       -1.97135        2.40708
| 13> H          4.81050       -3.42255        3.06310
| 14> H          4.26314       -3.18477        0.64702
| 15> H          3.56325       -1.61180        0.94535
| 16> H          2.81197       -3.04259        1.60980
| 17> *
| 18>
| 19> %MaxCore 64000
| 20>
| 21> %pal nprocs 4
| 22> end
| 23>
| 24> %scf
| 25>   MaxIter 150
| 26> end
| 27>
| 28>
| 29>                          ****END OF INPUT****

CARTESIAN COORDINATES (ANGSTROEM)
---------------------------------
  C      4.602950   -2.440100    2.634780
  C      3.860850   -1.591570    3.622890
  N      2.756500   -2.046160    4.166330
  N      4.254330   -0.362910    3.860460
  H      3.565260    0.310990    4.168980
  H      5.054290   -0.016060    3.337840
  H      2.439700   -2.973890    3.897400
  H      2.066870   -1.412530    4.549810
  C      3.744690   -2.580560    1.361880
  H      5.561560   -1.971350    2.407080
  H      4.810500   -3.422550    3.063100
  H      4.263140   -3.184770    0.647020
  H      3.563250   -1.611800    0.945350
  H      2.811970   -3.042590    1.609800

 Total Charge           Charge          ....    1
 Multiplicity           Mult            ....    1
 Number of Electrons    NEL             ....   40
 Basis Dimension        Dim             ....  115

ORBITAL ENERGIES
----------------

  NO   OCC          E(Eh)            E(eV)
   0   2.0000     -14.432679      -392.7332
   1   2.0000     -14.432274      -392.7221
   2   2.0000     -10.408499      -283.2297
   3   2.0000     -10.285397      -279.8799
   4   2.0000     -10.246202      -278.8133
   5   2.0000      -1.301274       -35.4095
   6   2.0000      -1.201545       -32.6957
   7   2.0000      -1.074714       -29.2445
   8   2.0000      -0.961775       -26.1712
   9   2.0000      -0.920260       -25.0415
  10   2.0000      -0.876789       -23.8586
  11   2.0000      -0.854404       -23.2495
  12   2.0000      -0.797554       -21.7026
  13   2.0000      -0.772654       -21.0250
  14   2.0000      -0.728604       -19.8263
  15   2.0000      -0.705537       -19.1986
  16   2.0000      -0.648415       -17.6443
  17   2.0000      -0.641418       -17.4539
  18   2.0000      -0.627734       -17.0815
  19   2.0000      -0.592121       -16.1124
  20   0.0000      -0.125831        -3.4240
  21   0.0000      -0.074128        -2.0171
  22   0.0000      -0.028036        -0.7629
  23   0.0000      -0.027074        -0.7367
  24   0.0000       0.007235         0.1969

MULLIKEN ATOMIC CHARGES
-----------------------
   0 C :    0.016476
   1 C :   -0.174607
   2 N :    0.063002
   3 N :    0.067996
   4 H :    0.173522
   5 H :    0.184300
   6 H :    0.181543
   7 H :    0.175288
   8 C :    0.006121
   9 H :    0.055029
  10 H :    0.089260
  11 H :    0.083880
  12 H :    0.045265
  13 H :    0.032925
Sum of atomic charges:    1.0000000

LOEWDIN ATOMIC CHARGES
----------------------
   0 C :   -0.039756
   1 C :    0.140050
   2 N :    0.100033
   3 N :    0.101306
   4 H :    0.115505
   5 H :    0.123744
   6 H :    0.122191
   7 H :    0.116176
   8 C :   -0.036058
   9 H :    0.056754
  10 H :    0.068043
  11 H :    0.059090
  12 H :    0.040752
  13 H :    0.032170

  Mayer bond orders larger than 0.100000
B(  0-C ,  1-C ) :   1.0434 B(  0-C ,  8-C ) :   1.0733 B(  0-C ,  9-H ) :   0.9187
B(  0-C , 10-H ) :   0.9174 B(  1-C ,  2-N ) :   1.5250 B(  1-C ,  3-N ) :   1.5314
B(  2-N ,  6-H ) :   0.9223 B(  2-N ,  7-H ) :   0.9285 B(  3-N ,  4-H ) :   0.9284
B(  3-N ,  5-H ) :   0.9184 B(  8-C , 11-H ) :   0.9598 B(  8-C , 12-H ) :   0.9660
B(  8-C , 13-H ) :   0.9722

FINAL SINGLE POINT ENERGY      -228.241578641653

DIPOLE MOMENT
-------------
                                X             Y             Z
Electronic contribution:     -0.27106       1.84120       3.77790
Nuclear contribution   :     -0.22400      -1.16268      -3.30447
                        -----------------------------------------
Total Dipole Moment    :     -0.49506       0.67852       0.47343
                        -----------------------------------------
Magnitude (a.u.)       :      0.96416
Magnitude (Debye)      :      2.45070

Rotational constants in cm-1:     0.258103     0.130571     0.102508
Rotational constants in MHz :  7737.732062  3914.431392  3073.119154

                             ****ORCA TERMINATED NORMALLY****
TOTAL RUN TIME: 0 days 0 hours 0 minutes 14 seconds 866 msec
