                         Program Version 5.0.0 -  RELEASE  -
|  1> !LC-BLYP RIJCOSX def2-TZVP def2/J TightSCF xyzfile
|  2>
|  3> *xyzfile 0 1 B.xyz
|  4>
|  5> %MaxCore 64000
|  6>
|  7> %pal nprocs 18
|  8> end
|  9>
| 10> %scf
| 11>   MaxIter 150
| 12> end
| 13>
| 14>
| 15>                          ****END OF INPUT****

CARTESIAN COORDINATES (ANGSTROEM)
---------------------------------
  C      4.602954   -2.440100    2.634780
  C     -0.914947    0.615112    2.505538
  C     -0.059146    1.503524    3.410578
  H      0.365364    2.344315    2.861161
  H     -0.692261    1.920207    4.198985
  C      1.083027    0.749640    4.085705
  C      3.860851   -1.591565    3.622893
  N      2.756502   -2.046159    4.166333
  N      4.254325   -0.362905    3.860455
  H      3.565256    0.310994    4.168983
  H      5.054292   -0.016059    3.337838
  H      2.439696   -2.973894    3.897395
  H      2.066869   -1.412532    4.549813
  O      2.228167    1.263475    4.019826
  O      0.810034   -0.345411    4.636269
  C      3.744685   -2.580557    1.361882
  C      0.772139    0.636882    0.562129
  C     -0.130740   -0.193985    1.470763
  H     -0.840563   -0.760165    0.856377
  H      0.466691   -0.938942    2.006959
  H     -1.647961    1.245963    1.991076
  H     -1.478180   -0.081046    3.130424
  C      3.203721   -1.256004    0.826211
  H      2.898939   -3.239289    1.583074
  H      4.334962   -3.095523    0.600188
  C      2.107815   -1.442385   -0.216865
  H      2.786775   -0.672760    1.650711
  H      4.021008   -0.652993    0.414046
  C      1.390662   -0.145912   -0.602422
  H      1.372179   -2.152184    0.176151
  H      2.523302   -1.906787   -1.117115
  H      1.561361    1.100094    1.161831
  H      0.195516    1.468325    0.142758
  H      0.602893   -0.398214   -1.319716
  H      2.087247    0.508272   -1.137335
  H      5.561557   -1.971347    2.407084
  H      4.810498   -3.422552    3.063099

 Total Charge           Charge          ....    0
 Multiplicity           Mult            ....    1
 Number of Electrons    NEL             ....  118
 Basis Dimension        Dim             ....  597

ORBITAL ENERGIES
----------------

  NO   OCC          E(Eh)            E(eV)
   0   2.0000     -18.859985      -513.2063
   1   2.0000     -18.858094      -513.1548
   2   2.0000     -14.210480      -386.6868
   3   2.0000     -14.210219      -386.6797
   4   2.0000     -10.208156      -277.7781
   5   2.0000     -10.133227      -275.7391
   6   2.0000     -10.120300      -275.3874
   7   2.0000     -10.101005      -274.8623
   8   2.0000     -10.076999      -274.2091
   9   2.0000     -10.068072      -273.9662
  10   2.0000     -10.060073      -273.7485
  11   2.0000     -10.049205      -273.4528
  12   2.0000     -10.046003      -273.3656
  13   2.0000     -10.041917      -273.2545
  14   2.0000     -10.033552      -273.0268
  15   2.0000      -1.121658       -30.5219
  16   2.0000      -1.101618       -29.9766
  17   2.0000      -1.023249       -27.8440
  18   2.0000      -1.005097       -27.3501
  19   2.0000      -0.948982       -25.8231
  20   2.0000      -0.914771       -24.8922
  21   2.0000      -0.884103       -24.0577
  22   2.0000      -0.843532       -22.9537
  23   2.0000      -0.804875       -21.9018
  24   2.0000      -0.766476       -20.8569
  25   2.0000      -0.750453       -20.4209
  26   2.0000      -0.728565       -19.8253
  27   2.0000      -0.694771       -18.9057
  28   2.0000      -0.686044       -18.6682
  29   2.0000      -0.676890       -18.4191
  30   2.0000      -0.653866       -17.7926
  31   2.0000      -0.622325       -16.9343
  32   2.0000      -0.609447       -16.5839
  33   2.0000      -0.592315       -16.1177
  34   2.0000      -0.581230       -15.8161
  35   2.0000      -0.569623       -15.5002
  36   2.0000      -0.561271       -15.2730
  37   2.0000      -0.548784       -14.9332
  38   2.0000      -0.537830       -14.6351
  39   2.0000      -0.522584       -14.2202
  40   2.0000      -0.516311       -14.0495
  41   2.0000      -0.510174       -13.8825
  42   2.0000      -0.503265       -13.6945
  43   2.0000      -0.497288       -13.5319
  44   2.0000      -0.477220       -12.9858
  45   2.0000      -0.472503       -12.8575
  46   2.0000      -0.467155       -12.7119
  47   2.0000      -0.461782       -12.5657
  48   2.0000      -0.449745       -12.2382
  49   2.0000      -0.432731       -11.7752
  50   2.0000      -0.428478       -11.6595
  51   2.0000      -0.420747       -11.4491
  52   2.0000      -0.405978       -11.0472
  53   2.0000      -0.400294       -10.8926
  54   2.0000      -0.398522       -10.8443
  55   2.0000      -0.390228       -10.6186
  56   2.0000      -0.334700        -9.1077
  57   2.0000      -0.322973        -8.7885
  58   2.0000      -0.318550        -8.6682
  59   0.0000       0.045299         1.2327
  60   0.0000       0.064421         1.7530
  61   0.0000       0.083610         2.2752
  62   0.0000       0.100067         2.7230
  63   0.0000       0.113415         3.0862

MULLIKEN ATOMIC CHARGES
-----------------------
   0 C :   -0.311821
   1 C :   -0.217637
   2 C :   -0.250105
   3 H :    0.131524
   4 H :    0.127878
   5 C :    0.205443
   6 C :    0.125949
   7 N :   -0.256541
   8 N :   -0.254881
   9 H :    0.273712
  10 H :    0.242220
  11 H :    0.243300
  12 H :    0.275295
  13 O :   -0.471115
  14 O :   -0.454203
  15 C :   -0.303789
  16 C :   -0.327944
  17 C :   -0.276169
  18 H :    0.124189
  19 H :    0.123078
  20 H :    0.116882
  21 H :    0.129212
  22 C :   -0.262871
  23 H :    0.153489
  24 H :    0.148249
  25 C :   -0.287952
  26 H :    0.185225
  27 H :    0.127451
  28 C :   -0.225667
  29 H :    0.144849
  30 H :    0.130286
  31 H :    0.170548
  32 H :    0.130808
  33 H :    0.131839
  34 H :    0.126953
  35 H :    0.152848
  36 H :    0.179469
Sum of atomic charges:   -0.0000000

LOEWDIN ATOMIC CHARGES
----------------------
   0 C :   -0.221416
   1 C :   -0.276466
   2 C :   -0.250387
   3 H :    0.141655
   4 H :    0.149755
   5 C :   -0.651365
   6 C :   -0.342182
   7 N :    0.106641
   8 N :    0.101258
   9 H :    0.154751
  10 H :    0.186871
  11 H :    0.188322
  12 H :    0.155474
  13 O :   -0.046861
  14 O :   -0.040842
  15 C :   -0.261232
  16 C :   -0.280625
  17 C :   -0.281468
  18 H :    0.138644
  19 H :    0.137518
  20 H :    0.136958
  21 H :    0.144239
  22 C :   -0.273274
  23 H :    0.142489
  24 H :    0.146580
  25 C :   -0.278889
  26 H :    0.152001
  27 H :    0.141310
  28 C :   -0.277274
  29 H :    0.141738
  30 H :    0.139470
  31 H :    0.143549
  32 H :    0.142271
  33 H :    0.141483
  34 H :    0.139422
  35 H :    0.152147
  36 H :    0.157734

  Mayer bond orders larger than 0.100000
B(  0-C ,  6-C ) :   0.9403 B(  0-C , 15-C ) :   0.8908 B(  0-C , 35-H ) :   0.9860
B(  0-C , 36-H ) :   0.9837 B(  1-C ,  2-C ) :   0.9105 B(  1-C , 17-C ) :   0.9531
B(  1-C , 20-H ) :   0.9808 B(  1-C , 21-H ) :   0.9789 B(  2-C ,  3-H ) :   0.9813
B(  2-C ,  4-H ) :   0.9653 B(  2-C ,  5-C ) :   0.9242 B(  5-C , 13-O ) :   1.7343
B(  5-C , 14-O ) :   1.7485 B(  6-C ,  7-N ) :   1.4764 B(  6-C ,  8-N ) :   1.4871
B(  7-N , 11-H ) :   0.9188 B(  7-N , 12-H ) :   0.7564 B(  8-N ,  9-H ) :   0.7633
B(  8-N , 10-H ) :   0.9157 B(  9-H , 13-O ) :   0.2133 B( 12-H , 14-O ) :   0.2230
B( 15-C , 22-C ) :   0.8486 B( 15-C , 23-H ) :   0.9949 B( 15-C , 24-H ) :   0.9793
B( 16-C , 17-C ) :   0.8491 B( 16-C , 28-C ) :   0.9269 B( 16-C , 31-H ) :   0.9810
B( 16-C , 32-H ) :   0.9815 B( 17-C , 18-H ) :   0.9831 B( 17-C , 19-H ) :   0.9804
B( 22-C , 25-C ) :   0.9001 B( 22-C , 26-H ) :   0.9631 B( 22-C , 27-H ) :   0.9680
B( 25-C , 28-C ) :   0.9364 B( 25-C , 29-H ) :   0.9864 B( 25-C , 30-H ) :   0.9842
B( 28-C , 33-H ) :   0.9879 B( 28-C , 34-H ) :   0.9951

FINAL SINGLE POINT ENERGY      -690.922630007080

DIPOLE MOMENT
-------------
                                X             Y             Z
Electronic contribution:      3.44732       1.60558      12.99668
Nuclear contribution   :     -1.50655      -3.48027     -14.35034
                        -----------------------------------------
Total Dipole Moment    :      1.94077      -1.87469      -1.35366
                        -----------------------------------------
Magnitude (a.u.)       :      3.01885
Magnitude (Debye)      :      7.67330

Rotational constants in cm-1:     0.021781     0.017296     0.011403
Rotational constants in MHz :   652.971749   518.510612   341.853154

                             ****ORCA TERMINATED NORMALLY****
TOTAL RUN TIME: 0 days 0 hours 1 minutes 23 seconds 923 msec
