                         Program Version 5.0.0 -  RELEASE  -
|  1> !LC-BLYP RIJCOSX def2-SVP def2/J TightSCF
|  2> *xyz 0 1
|  3> C         -0.91495        0.61511        2.50554
|  4> C         -0.05915        1.50352        3.41058
|  5> H          0.36536        2.34431        2.86116
|  6> H         -0.69226        1.92021        4.19898
|  7> C          1.08303        0.74964        4.08571
|  8> F          2.22817        1.26348        4.01983
|  9> O          0.81003       -0.34541        4.63627
| 10> H         -0.30401        0.20228        1.73015
| 11> H         -1.69811        1.19946        2.06954
| 12> H         -1.34124       -0.17772        3.08397
| 13> *
| 14>
| 15> %MaxCore 64000
| 16>
| 17> %pal nprocs 4
| 18> end
| 19>
| 20> %scf
| 21>   MaxIter 150
| 22> end
| 23>
| 24>
| 25>                          ****END OF INPUT****

CARTESIAN COORDINATES (ANGSTROEM)
---------------------------------
  C     -0.914950    0.615110    2.505540
  C     -0.059150    1.503520    3.410580
  H      0.365360    2.344310    2.861160
  H     -0.692260    1.920210    4.198980
  C      1.083030    0.749640    4.085710
  F      2.228170    1.263480    4.019830
  O      0.810030   -0.345410    4.636270
  H     -0.304010    0.202280    1.730150
  H     -1.698110    1.199460    2.069540
  H     -1.341240   -0.177720    3.083970

 Total Charge           Charge          ....    0
 Multiplicity           Mult            ....    1
 Number of Electrons    NEL             ....   40
 Basis Dimension        Dim             ....   95

ORBITAL ENERGIES
----------------

  NO   OCC          E(Eh)            E(eV)
   0   2.0000     -24.524795      -667.3536
   1   2.0000     -18.948694      -515.6202
   2   2.0000     -10.254295      -279.0336
   3   2.0000     -10.111687      -275.1530
   4   2.0000     -10.086652      -274.4718
   5   2.0000      -1.369675       -37.2708
   6   2.0000      -1.104726       -30.0611
   7   2.0000      -0.898827       -24.4583
   8   2.0000      -0.783489       -21.3198
   9   2.0000      -0.728768       -19.8308
  10   2.0000      -0.646046       -17.5798
  11   2.0000      -0.629264       -17.1231
  12   2.0000      -0.598559       -16.2876
  13   2.0000      -0.564313       -15.3557
  14   2.0000      -0.527457       -14.3528
  15   2.0000      -0.493389       -13.4258
  16   2.0000      -0.470700       -12.8084
  17   2.0000      -0.467251       -12.7145
  18   2.0000      -0.439124       -11.9492
  19   2.0000      -0.382410       -10.4059
  20   0.0000       0.067098         1.8258
  21   0.0000       0.133093         3.6216
  22   0.0000       0.178286         4.8514
  23   0.0000       0.185299         5.0422
  24   0.0000       0.203491         5.5373

MULLIKEN ATOMIC CHARGES
-----------------------
   0 C :    0.010347
   1 C :   -0.052965
   2 H :    0.018742
   3 H :    0.055433
   4 C :    0.107483
   5 F :   -0.024204
   6 O :   -0.195830
   7 H :    0.021157
   8 H :    0.019260
   9 H :    0.040578
Sum of atomic charges:    0.0000000

LOEWDIN ATOMIC CHARGES
----------------------
   0 C :   -0.051988
   1 C :   -0.082470
   2 H :    0.031258
   3 H :    0.054661
   4 C :    0.066428
   5 F :    0.062418
   6 O :   -0.176429
   7 H :    0.029945
   8 H :    0.031064
   9 H :    0.035113

  Mayer bond orders larger than 0.100000
B(  0-C ,  1-C ) :   1.1000 B(  0-C ,  7-H ) :   0.9776 B(  0-C ,  8-H ) :   0.9659
B(  0-C ,  9-H ) :   0.9669 B(  1-C ,  2-H ) :   0.9369 B(  1-C ,  3-H ) :   0.9270
B(  1-C ,  4-C ) :   0.9934 B(  4-C ,  5-F ) :   1.2666 B(  4-C ,  6-O ) :   2.1370

FINAL SINGLE POINT ENERGY      -291.552497401891

DIPOLE MOMENT
-------------
                                X             Y             Z
Electronic contribution:      7.79201      -0.22120       4.16054
Nuclear contribution   :     -8.12386       1.06915      -4.71960
                        -----------------------------------------
Total Dipole Moment    :     -0.33186       0.84795      -0.55905
                        -----------------------------------------
Magnitude (a.u.)       :      1.06849
Magnitude (Debye)      :      2.71590

Rotational constants in cm-1:     0.309513     0.127560     0.099675
Rotational constants in MHz :  9278.979128  3824.146597  2988.174827

                             ****ORCA TERMINATED NORMALLY****
TOTAL RUN TIME: 0 days 0 hours 0 minutes 11 seconds 653 msec
