                         Program Version 5.0.0 -  RELEASE  -
|  1> !LC-BLYP RIJCOSX def2-SVP def2/J TightSCF
|  2> *xyz 0 1
|  3> C          4.60295       -2.44010        2.63478
|  4> C          3.86085       -1.59157        3.62289
|  5> C          2.75650       -2.04616        4.16633
|  6> N          4.25433       -0.36291        3.86046
|  7> H          3.56526        0.31099        4.16898
|  8> H          5.05429       -0.01606        3.33784
|  9> H          2.43970       -2.97389        3.89740
| 10> H          2.06687       -1.41253        4.54981
| 11> C          3.74469       -2.58056        1.36188
| 12> H          5.56156       -1.97135        2.40708
| 13> H          4.81050       -3.42255        3.06310
| 14> H          4.26314       -3.18477        0.64702
| 15> H          3.56325       -1.61180        0.94535
| 16> H          2.81197       -3.04259        1.60980
| 17> *
| 18>
| 19> %MaxCore 64000
| 20>
| 21> %pal nprocs 4
| 22> end
| 23>
| 24> %scf
| 25>   MaxIter 150
| 26> end
| 27>
| 28>
| 29>                          ****END OF INPUT****

CARTESIAN COORDINATES (ANGSTROEM)
---------------------------------
  C      4.602950   -2.440100    2.634780
  C      3.860850   -1.591570    3.622890
  C      2.756500   -2.046160    4.166330
  N      4.254330   -0.362910    3.860460
  H      3.565260    0.310990    4.168980
  H      5.054290   -0.016060    3.337840
  H      2.439700   -2.973890    3.897400
  H      2.066870   -1.412530    4.549810
  C      3.744690   -2.580560    1.361880
  H      5.561560   -1.971350    2.407080
  H      4.810500   -3.422550    3.063100
  H      4.263140   -3.184770    0.647020
  H      3.563250   -1.611800    0.945350
  H      2.811970   -3.042590    1.609800

 Total Charge           Charge          ....    0
 Multiplicity           Mult            ....    1
 Number of Electrons    NEL             ....   40
 Basis Dimension        Dim             ....  115

ORBITAL ENERGIES
----------------

  NO   OCC          E(Eh)            E(eV)
   0   2.0000     -14.179727      -385.8500
   1   2.0000     -10.097980      -274.7800
   2   2.0000     -10.083656      -274.3902
   3   2.0000     -10.069453      -274.0037
   4   2.0000     -10.009210      -272.3644
   5   2.0000      -1.018727       -27.7210
   6   2.0000      -0.879908       -23.9435
   7   2.0000      -0.806173       -21.9371
   8   2.0000      -0.738986       -20.1088
   9   2.0000      -0.658243       -17.9117
  10   2.0000      -0.620938       -16.8966
  11   2.0000      -0.581246       -15.8165
  12   2.0000      -0.549482       -14.9522
  13   2.0000      -0.510274       -13.8853
  14   2.0000      -0.485129       -13.2010
  15   2.0000      -0.472575       -12.8594
  16   2.0000      -0.447448       -12.1757
  17   2.0000      -0.436267       -11.8714
  18   2.0000      -0.423103       -11.5132
  19   2.0000      -0.275995        -7.5102
  20   0.0000       0.121458         3.3050
  21   0.0000       0.134661         3.6643
  22   0.0000       0.168910         4.5963
  23   0.0000       0.175709         4.7813
  24   0.0000       0.193106         5.2547

MULLIKEN ATOMIC CHARGES
-----------------------
   0 C :    0.059696
   1 C :   -0.167920
   2 C :   -0.038574
   3 N :   -0.015319
   4 H :    0.110924
   5 H :    0.099632
   6 H :   -0.048623
   7 H :   -0.060879
   8 C :    0.030501
   9 H :   -0.020485
  10 H :    0.022688
  11 H :    0.006545
  12 H :    0.004738
  13 H :    0.017075
Sum of atomic charges:   -0.0000000

LOEWDIN ATOMIC CHARGES
----------------------
   0 C :   -0.037163
   1 C :    0.002509
   2 C :   -0.184783
   3 N :   -0.002285
   4 H :    0.078747
   5 H :    0.069439
   6 H :   -0.000831
   7 H :   -0.005258
   8 C :   -0.053027
   9 H :    0.019281
  10 H :    0.039278
  11 H :    0.022417
  12 H :    0.023957
  13 H :    0.027718

  Mayer bond orders larger than 0.100000
B(  0-C ,  1-C ) :   1.0228 B(  0-C ,  8-C ) :   1.1038 B(  0-C ,  9-H ) :   0.9280
B(  0-C , 10-H ) :   0.9320 B(  1-C ,  2-C ) :   1.8920 B(  1-C ,  3-N ) :   1.2782
B(  2-C ,  6-H ) :   0.9381 B(  2-C ,  7-H ) :   0.9494 B(  3-N ,  4-H ) :   0.9501
B(  3-N ,  5-H ) :   0.9494 B(  8-C , 11-H ) :   0.9651 B(  8-C , 12-H ) :   0.9664
B(  8-C , 13-H ) :   0.9726

FINAL SINGLE POINT ENERGY      -211.783376394923

DIPOLE MOMENT
-------------
                                X             Y             Z
Electronic contribution:      0.85593       1.84129       2.55907
Nuclear contribution   :     -0.47010      -1.22282      -3.06417
                        -----------------------------------------
Total Dipole Moment    :      0.38583       0.61847      -0.50509
                        -----------------------------------------
Magnitude (a.u.)       :      0.88684
Magnitude (Debye)      :      2.25417

Rotational constants in cm-1:     0.271862     0.131962     0.105499
Rotational constants in MHz :  8150.219120  3956.123671  3162.785522

                             ****ORCA TERMINATED NORMALLY****
TOTAL RUN TIME: 0 days 0 hours 0 minutes 14 seconds 890 msec
