                         Program Version 5.0.0 -  RELEASE  -
|  1> !LC-BLYP RIJCOSX def2-SVP def2/J TightSCF
|  2> *xyz 0 1
|  3> C         -0.91495        0.61511        2.50554
|  4> C         -0.05915        1.50352        3.41058
|  5> H          0.36536        2.34431        2.86116
|  6> H         -0.69226        1.92021        4.19898
|  7> C          1.08303        0.74964        4.08571
|  8> O          2.22817        1.26348        4.01983
|  9> F          0.81003       -0.34541        4.63627
| 10> H         -0.30401        0.20228        1.73015
| 11> H         -1.69811        1.19946        2.06954
| 12> H         -1.34124       -0.17772        3.08397
| 13> *
| 14>
| 15> %MaxCore 64000
| 16>
| 17> %pal nprocs 4
| 18> end
| 19>
| 20> %scf
| 21>   MaxIter 150
| 22> end
| 23>
| 24>
| 25>                          ****END OF INPUT****

CARTESIAN COORDINATES (ANGSTROEM)
---------------------------------
  C     -0.914950    0.615110    2.505540
  C     -0.059150    1.503520    3.410580
  H      0.365360    2.344310    2.861160
  H     -0.692260    1.920210    4.198980
  C      1.083030    0.749640    4.085710
  O      2.228170    1.263480    4.019830
  F      0.810030   -0.345410    4.636270
  H     -0.304010    0.202280    1.730150
  H     -1.698110    1.199460    2.069540
  H     -1.341240   -0.177720    3.083970

 Total Charge           Charge          ....    0
 Multiplicity           Mult            ....    1
 Number of Electrons    NEL             ....   40
 Basis Dimension        Dim             ....   95

ORBITAL ENERGIES
----------------

  NO   OCC          E(Eh)            E(eV)
   0   2.0000     -24.526803      -667.4082
   1   2.0000     -18.946592      -515.5630
   2   2.0000     -10.253206      -279.0039
   3   2.0000     -10.110649      -275.1248
   4   2.0000     -10.092111      -274.6203
   5   2.0000      -1.371625       -37.3238
   6   2.0000      -1.101964       -29.9860
   7   2.0000      -0.903148       -24.5759
   8   2.0000      -0.779182       -21.2026
   9   2.0000      -0.735720       -20.0199
  10   2.0000      -0.648905       -17.6576
  11   2.0000      -0.636270       -17.3138
  12   2.0000      -0.589832       -16.0501
  13   2.0000      -0.563642       -15.3375
  14   2.0000      -0.529718       -14.4143
  15   2.0000      -0.497777       -13.5452
  16   2.0000      -0.476965       -12.9789
  17   2.0000      -0.471109       -12.8195
  18   2.0000      -0.440124       -11.9764
  19   2.0000      -0.376460       -10.2440
  20   0.0000       0.070415         1.9161
  21   0.0000       0.128012         3.4834
  22   0.0000       0.175693         4.7808
  23   0.0000       0.186335         5.0704
  24   0.0000       0.204192         5.5564

MULLIKEN ATOMIC CHARGES
-----------------------
   0 C :   -0.013737
   1 C :   -0.045352
   2 H :    0.045725
   3 H :    0.044058
   4 C :    0.104735
   5 O :   -0.189705
   6 F :   -0.026850
   7 H :    0.029394
   8 H :    0.026271
   9 H :    0.025463
Sum of atomic charges:   -0.0000000

LOEWDIN ATOMIC CHARGES
----------------------
   0 C :   -0.062572
   1 C :   -0.078339
   2 H :    0.047509
   3 H :    0.047085
   4 C :    0.064666
   5 O :   -0.174197
   6 F :    0.062640
   7 H :    0.031161
   8 H :    0.034097
   9 H :    0.027950

  Mayer bond orders larger than 0.100000
B(  0-C ,  1-C ) :   1.0780 B(  0-C ,  7-H ) :   0.9778 B(  0-C ,  8-H ) :   0.9655
B(  0-C ,  9-H ) :   0.9711 B(  1-C ,  2-H ) :   0.9471 B(  1-C ,  3-H ) :   0.9290
B(  1-C ,  4-C ) :   1.0032 B(  4-C ,  5-O ) :   2.1583 B(  4-C ,  6-F ) :   1.2532

FINAL SINGLE POINT ENERGY      -291.551019654860

DIPOLE MOMENT
-------------
                                X             Y             Z
Electronic contribution:      5.45043      -2.85839       5.15453
Nuclear contribution   :     -6.57765       2.82334      -5.39171
                        -----------------------------------------
Total Dipole Moment    :     -1.12722      -0.03505      -0.23717
                        -----------------------------------------
Magnitude (a.u.)       :      1.15243
Magnitude (Debye)      :      2.92926

Rotational constants in cm-1:     0.294245     0.132994     0.101060
Rotational constants in MHz :  8821.228602  3987.049251  3029.696815

                             ****ORCA TERMINATED NORMALLY****
TOTAL RUN TIME: 0 days 0 hours 0 minutes 12 seconds 41 msec
