                         Program Version 5.0.0 -  RELEASE  -
|  1> !LC-BLYP RIJCOSX def2-SVP def2/J TightSCF
|  2> *xyz 0 1
|  3> C          4.60295       -2.44010        2.63478
|  4> C          3.86085       -1.59157        3.62289
|  5> N          2.75650       -2.04616        4.16633
|  6> C          4.25433       -0.36291        3.86046
|  7> H          3.56526        0.31099        4.16898
|  8> H          5.05429       -0.01606        3.33784
|  9> H          2.43970       -2.97389        3.89740
| 10> H          2.06687       -1.41253        4.54981
| 11> C          3.74469       -2.58056        1.36188
| 12> H          5.56156       -1.97135        2.40708
| 13> H          4.81050       -3.42255        3.06310
| 14> H          4.26314       -3.18477        0.64702
| 15> H          3.56325       -1.61180        0.94535
| 16> H          2.81197       -3.04259        1.60980
| 17> *
| 18>
| 19> %MaxCore 64000
| 20>
| 21> %pal nprocs 4
| 22> end
| 23>
| 24> %scf
| 25>   MaxIter 150
| 26> end
| 27>
| 28>
| 29>                          ****END OF INPUT****

CARTESIAN COORDINATES (ANGSTROEM)
---------------------------------
  C      4.602950   -2.440100    2.634780
  C      3.860850   -1.591570    3.622890
  N      2.756500   -2.046160    4.166330
  C      4.254330   -0.362910    3.860460
  H      3.565260    0.310990    4.168980
  H      5.054290   -0.016060    3.337840
  H      2.439700   -2.973890    3.897400
  H      2.066870   -1.412530    4.549810
  C      3.744690   -2.580560    1.361880
  H      5.561560   -1.971350    2.407080
  H      4.810500   -3.422550    3.063100
  H      4.263140   -3.184770    0.647020
  H      3.563250   -1.611800    0.945350
  H      2.811970   -3.042590    1.609800

 Total Charge           Charge          ....    0
 Multiplicity           Mult            ....    1
 Number of Electrons    NEL             ....   40
 Basis Dimension        Dim             ....  115

ORBITAL ENERGIES
----------------

  NO   OCC          E(Eh)            E(eV)
   0   2.0000     -14.180666      -385.8755
   1   2.0000     -10.099032      -274.8086
   2   2.0000     -10.083092      -274.3749
   3   2.0000     -10.073871      -274.1240
   4   2.0000     -10.010625      -272.4029
   5   2.0000      -1.018999       -27.7284
   6   2.0000      -0.878042       -23.8927
   7   2.0000      -0.814833       -22.1727
   8   2.0000      -0.733982       -19.9727
   9   2.0000      -0.665909       -18.1203
  10   2.0000      -0.622841       -16.9484
  11   2.0000      -0.577069       -15.7029
  12   2.0000      -0.539124       -14.6703
  13   2.0000      -0.528758       -14.3882
  14   2.0000      -0.482933       -13.1413
  15   2.0000      -0.476736       -12.9726
  16   2.0000      -0.451313       -12.2808
  17   2.0000      -0.434995       -11.8368
  18   2.0000      -0.418874       -11.3981
  19   2.0000      -0.278731        -7.5846
  20   0.0000       0.118179         3.2158
  21   0.0000       0.137732         3.7479
  22   0.0000       0.171882         4.6772
  23   0.0000       0.175268         4.7693
  24   0.0000       0.188311         5.1242

MULLIKEN ATOMIC CHARGES
-----------------------
   0 C :    0.061190
   1 C :   -0.164955
   2 N :   -0.016362
   3 C :   -0.029967
   4 H :   -0.061187
   5 H :   -0.051676
   6 H :    0.099256
   7 H :    0.111846
   8 C :    0.027975
   9 H :    0.005219
  10 H :    0.000251
  11 H :    0.013604
  12 H :    0.013165
  13 H :   -0.008359
Sum of atomic charges:    0.0000000

LOEWDIN ATOMIC CHARGES
----------------------
   0 C :   -0.035391
   1 C :    0.004667
   2 N :   -0.001973
   3 C :   -0.185439
   4 H :   -0.005377
   5 H :   -0.000105
   6 H :    0.069306
   7 H :    0.079065
   8 C :   -0.058313
   9 H :    0.037067
  10 H :    0.024065
  11 H :    0.026615
  12 H :    0.029270
  13 H :    0.016543

  Mayer bond orders larger than 0.100000
B(  0-C ,  1-C ) :   1.0471 B(  0-C ,  8-C ) :   1.0950 B(  0-C ,  9-H ) :   0.9272
B(  0-C , 10-H ) :   0.9271 B(  1-C ,  2-N ) :   1.2780 B(  1-C ,  3-C ) :   1.8949
B(  2-N ,  6-H ) :   0.9535 B(  2-N ,  7-H ) :   0.9497 B(  3-C ,  4-H ) :   0.9483
B(  3-C ,  5-H ) :   0.9317 B(  8-C , 11-H ) :   0.9666 B(  8-C , 12-H ) :   0.9659
B(  8-C , 13-H ) :   0.9691

FINAL SINGLE POINT ENERGY      -211.784338308058

DIPOLE MOMENT
-------------
                                X             Y             Z
Electronic contribution:     -0.54483       0.26746       2.86176
Nuclear contribution   :     -0.12319      -0.83296      -3.13501
                        -----------------------------------------
Total Dipole Moment    :     -0.66802      -0.56551      -0.27325
                        -----------------------------------------
Magnitude (a.u.)       :      0.91691
Magnitude (Debye)      :      2.33059

Rotational constants in cm-1:     0.266453     0.134423     0.106086
Rotational constants in MHz :  7988.053142  4029.892766  3180.375228

                             ****ORCA TERMINATED NORMALLY****
TOTAL RUN TIME: 0 days 0 hours 0 minutes 14 seconds 820 msec
