                         Program Version 5.0.0 -  RELEASE  -
|  1> !wB97X-D3 RIJCOSX def2-SVPD def2/J TightSCF
|  2> *xyz -1 1
|  3> C         -5.57236       -5.80780       -0.81644
|  4> S         -6.90318       -4.61903       -0.52846
|  5> O         -8.11485       -5.25093       -0.95701
|  6> O         -6.53271       -3.42684       -1.31485
|  7> O         -6.86563       -4.29496        0.91412
|  8> H         -5.55376       -6.07856       -1.85145
|  9> H         -5.73990       -6.68165       -0.22212
| 10> H         -4.63562       -5.36690       -0.54622
| 11> *
| 12> %MaxCore 64000
| 13>
| 14> %pal nprocs 18
| 15> end
| 16>
| 17> %scf
| 18>   MaxIter 150
| 19> end
| 20>
| 21>                          ****END OF INPUT****

CARTESIAN COORDINATES (ANGSTROEM)
---------------------------------
  C     -5.572360   -5.807800   -0.816440
  S     -6.903180   -4.619030   -0.528460
  O     -8.114850   -5.250930   -0.957010
  O     -6.532710   -3.426840   -1.314850
  O     -6.865630   -4.294960    0.914120
  H     -5.553760   -6.078560   -1.851450
  H     -5.739900   -6.681650   -0.222120
  H     -4.635620   -5.366900   -0.546220

 Total Charge           Charge          ....   -1
 Multiplicity           Mult            ....    1
 Number of Electrons    NEL             ....   50
 Basis Dimension        Dim             ....  140

ORBITAL ENERGIES
----------------

  NO   OCC          E(Eh)            E(eV)
   0   2.0000     -88.978348     -2421.2239
   1   2.0000     -19.029277      -517.8130
   2   2.0000     -19.016472      -517.4645
   3   2.0000     -19.015479      -517.4375
   4   2.0000     -10.146950      -276.1125
   5   2.0000      -8.051552      -219.0939
   6   2.0000      -6.011047      -163.5689
   7   2.0000      -6.010935      -163.5659
   8   2.0000      -6.010822      -163.5628
   9   2.0000      -1.045148       -28.4399
  10   2.0000      -0.902236       -24.5511
  11   2.0000      -0.878279       -23.8992
  12   2.0000      -0.696836       -18.9619
  13   2.0000      -0.496136       -13.5005
  14   2.0000      -0.406733       -11.0678
  15   2.0000      -0.393852       -10.7172
  16   2.0000      -0.392506       -10.6806
  17   2.0000      -0.349170        -9.5014
  18   2.0000      -0.347744        -9.4626
  19   2.0000      -0.248795        -6.7700
  20   2.0000      -0.248398        -6.7593
  21   2.0000      -0.211383        -5.7520
  22   2.0000      -0.202335        -5.5058
  23   2.0000      -0.196449        -5.3456
  24   2.0000      -0.157383        -4.2826
  25   0.0000       0.213328         5.8049
  26   0.0000       0.237051         6.4505
  27   0.0000       0.237344         6.4585
  28   0.0000       0.241933         6.5833
  29   0.0000       0.273774         7.4498

MULLIKEN ATOMIC CHARGES
-----------------------
   0 C :    0.404972
   1 S :    1.106970
   2 O :   -0.750464
   3 O :   -0.798776
   4 O :   -0.800661
   5 H :   -0.051895
   6 H :   -0.057453
   7 H :   -0.052693
Sum of atomic charges:   -1.0000000

LOEWDIN ATOMIC CHARGES
----------------------
   0 C :    0.055739
   1 S :    0.843921
   2 O :   -0.581405
   3 O :   -0.605177
   4 O :   -0.604468
   5 H :   -0.036381
   6 H :   -0.037108
   7 H :   -0.035120

  Mayer bond orders larger than 0.100000
B(  0-C ,  1-S ) :   0.9372 B(  0-C ,  5-H ) :   0.9269 B(  0-C ,  6-H ) :   0.9293
B(  0-C ,  7-H ) :   0.9320 B(  1-S ,  2-O ) :   1.3615 B(  1-S ,  3-O ) :   1.3238
B(  1-S ,  4-O ) :   1.3186 B(  1-S ,  5-H ) :   0.1092 B(  1-S ,  6-H ) :   0.1085
B(  1-S ,  7-H ) :   0.1172

Dispersion correction           -0.001521546
FINAL SINGLE POINT ENERGY      -663.413915647506

DIPOLE MOMENT
-------------
                                X             Y             Z
Electronic contribution:     -3.20219       2.68734       0.62380
Nuclear contribution   :      4.23639      -3.86101      -0.94151
                        -----------------------------------------
Total Dipole Moment    :      1.03419      -1.17367      -0.31771
                        -----------------------------------------
Magnitude (a.u.)       :      1.59624
Magnitude (Debye)      :      4.05733

Rotational constants in cm-1:     0.172406     0.155169     0.153146
Rotational constants in MHz :  5168.590738  4651.861875  4591.214998

                             ****ORCA TERMINATED NORMALLY****
TOTAL RUN TIME: 0 days 0 hours 0 minutes 6 seconds 610 msec
