                         Program Version 5.0.0 -  RELEASE  -
|  1> !wB97X-D3 RIJCOSX def2-SVPD def2/J TightSCF
|  2> *xyz 1 1
|  3> C         -4.38262       -1.67089        1.21620
|  4> N         -5.76354       -1.91517        0.70501
|  5> H         -5.84081       -2.11520       -0.30065
|  6> H         -6.40882       -1.14866        0.93612
|  7> H         -6.17478       -2.79061        1.05143
|  8> H         -4.01369       -0.74796        0.81997
|  9> H         -3.74223       -2.47168        0.91037
| 10> H         -4.40201       -1.61791        2.28471
| 11> *
| 12> %MaxCore 64000
| 13>
| 14> %pal nprocs 18
| 15> end
| 16>
| 17> %scf
| 18>   MaxIter 150
| 19> end
| 20>
| 21>                          ****END OF INPUT****

CARTESIAN COORDINATES (ANGSTROEM)
---------------------------------
  C     -4.382620   -1.670890    1.216200
  N     -5.763540   -1.915170    0.705010
  H     -5.840810   -2.115200   -0.300650
  H     -6.408820   -1.148660    0.936120
  H     -6.174780   -2.790610    1.051430
  H     -4.013690   -0.747960    0.819970
  H     -3.742230   -2.471680    0.910370
  H     -4.402010   -1.617910    2.284710

 Total Charge           Charge          ....    1
 Multiplicity           Mult            ....    1
 Number of Electrons    NEL             ....   18
 Basis Dimension        Dim             ....   88

ORBITAL ENERGIES
----------------

  NO   OCC          E(Eh)            E(eV)
   0   2.0000     -14.788540      -402.4166
   1   2.0000     -10.549298      -287.0610
   2   2.0000      -1.334699       -36.3190
   3   2.0000      -1.052149       -28.6304
   4   2.0000      -0.918884       -25.0041
   5   2.0000      -0.894564       -24.3423
   6   2.0000      -0.819732       -22.3060
   7   2.0000      -0.726209       -19.7611
   8   2.0000      -0.722860       -19.6700
   9   0.0000      -0.121579        -3.3083
  10   0.0000      -0.056427        -1.5354
  11   0.0000      -0.050756        -1.3811
  12   0.0000      -0.048855        -1.3294
  13   0.0000       0.000454         0.0124

MULLIKEN ATOMIC CHARGES
-----------------------
   0 C :    0.796048
   1 N :   -0.915850
   2 H :    0.369908
   3 H :    0.402545
   4 H :    0.376137
   5 H :   -0.012018
   6 H :   -0.013897
   7 H :   -0.002873
Sum of atomic charges:    1.0000000

LOEWDIN ATOMIC CHARGES
----------------------
   0 C :    0.289963
   1 N :    0.302125
   2 H :    0.110274
   3 H :    0.112640
   4 H :    0.107700
   5 H :    0.025458
   6 H :    0.025492
   7 H :    0.026349

  Mayer bond orders larger than 0.100000
B(  0-C ,  1-N ) :   0.7143 B(  0-C ,  5-H ) :   0.9209 B(  0-C ,  6-H ) :   0.9212
B(  0-C ,  7-H ) :   0.9112 B(  1-N ,  2-H ) :   0.7985 B(  1-N ,  3-H ) :   0.7464
B(  1-N ,  4-H ) :   0.7960

Dispersion correction           -0.000533427
FINAL SINGLE POINT ENERGY       -96.122705067340

DIPOLE MOMENT
-------------
                                X             Y             Z
Electronic contribution:     -0.96486      -0.13482      -0.35552
Nuclear contribution   :      0.12888      -0.05969       0.04130
                        -----------------------------------------
Total Dipole Moment    :     -0.83598      -0.19451      -0.31423
                        -----------------------------------------
Magnitude (a.u.)       :      0.91402
Magnitude (Debye)      :      2.32326

Rotational constants in cm-1:     2.932748     0.676653     0.669753
Rotational constants in MHz : 87921.559023 20285.538082 20078.692306

                             ****ORCA TERMINATED NORMALLY****
TOTAL RUN TIME: 0 days 0 hours 0 minutes 3 seconds 384 msec
