                         Program Version 5.0.0 -  RELEASE  -
|  1> !wB97X-D3 RIJCOSX def2-SVPD def2/J TightSCF
|  2> *xyz 0 1
|  3> C         -5.57236       -5.80780       -0.81644
|  4> S         -6.90318       -4.61903       -0.52846
|  5> F         -8.11485       -5.25093       -0.95701
|  6> O         -6.53271       -3.42684       -1.31485
|  7> O         -6.86563       -4.29496        0.91412
|  8> H         -5.55376       -6.07856       -1.85145
|  9> H         -5.73990       -6.68165       -0.22212
| 10> H         -4.63562       -5.36690       -0.54622
| 11> *
| 12> %MaxCore 64000
| 13>
| 14> %pal nprocs 18
| 15> end
| 16>
| 17> %scf
| 18>   MaxIter 150
| 19> end
| 20>
| 21>                          ****END OF INPUT****

CARTESIAN COORDINATES (ANGSTROEM)
---------------------------------
  C     -5.572360   -5.807800   -0.816440
  S     -6.903180   -4.619030   -0.528460
  F     -8.114850   -5.250930   -0.957010
  O     -6.532710   -3.426840   -1.314850
  O     -6.865630   -4.294960    0.914120
  H     -5.553760   -6.078560   -1.851450
  H     -5.739900   -6.681650   -0.222120
  H     -4.635620   -5.366900   -0.546220

 Total Charge           Charge          ....    0
 Multiplicity           Mult            ....    1
 Number of Electrons    NEL             ....   50
 Basis Dimension        Dim             ....  140

ORBITAL ENERGIES
----------------

  NO   OCC          E(Eh)            E(eV)
   0   2.0000     -89.245614     -2428.4966
   1   2.0000     -24.933329      -678.4704
   2   2.0000     -19.255853      -523.9784
   3   2.0000     -19.254845      -523.9510
   4   2.0000     -10.357249      -281.8351
   5   2.0000      -8.319442      -226.3835
   6   2.0000      -6.283304      -170.9774
   7   2.0000      -6.276429      -170.7903
   8   2.0000      -6.275604      -170.7679
   9   2.0000      -1.510147       -41.0932
  10   2.0000      -1.218998       -33.1706
  11   2.0000      -1.114276       -30.3210
  12   2.0000      -0.920937       -25.0600
  13   2.0000      -0.838732       -22.8231
  14   2.0000      -0.723599       -19.6901
  15   2.0000      -0.708855       -19.2889
  16   2.0000      -0.667569       -18.1655
  17   2.0000      -0.584807       -15.9134
  18   2.0000      -0.580411       -15.7938
  19   2.0000      -0.572415       -15.5762
  20   2.0000      -0.538148       -14.6438
  21   2.0000      -0.485541       -13.2122
  22   2.0000      -0.431885       -11.7522
  23   2.0000      -0.428126       -11.6499
  24   2.0000      -0.402067       -10.9408
  25   0.0000       0.058878         1.6022
  26   0.0000       0.093084         2.5329
  27   0.0000       0.098895         2.6911
  28   0.0000       0.101030         2.7492
  29   0.0000       0.110027         2.9940

MULLIKEN ATOMIC CHARGES
-----------------------
   0 C :    0.323500
   1 S :    1.276688
   2 F :   -0.363363
   3 O :   -0.657368
   4 O :   -0.658639
   5 H :    0.030324
   6 H :    0.026144
   7 H :    0.022714
Sum of atomic charges:   -0.0000000

LOEWDIN ATOMIC CHARGES
----------------------
   0 C :    0.124740
   1 S :    1.119761
   2 F :   -0.253829
   3 O :   -0.486922
   4 O :   -0.485657
   5 H :   -0.010687
   6 H :   -0.011026
   7 H :    0.003621

  Mayer bond orders larger than 0.100000
B(  0-C ,  1-S ) :   0.9923 B(  0-C ,  5-H ) :   0.9238 B(  0-C ,  6-H ) :   0.9276
B(  0-C ,  7-H ) :   0.9343 B(  1-S ,  2-F ) :   0.7151 B(  1-S ,  3-O ) :   1.5307
B(  1-S ,  4-O ) :   1.5247 B(  1-S ,  7-H ) :   0.1124

Dispersion correction           -0.001530103
FINAL SINGLE POINT ENERGY      -687.890661423513

DIPOLE MOMENT
-------------
                                X             Y             Z
Electronic contribution:     -5.20932       1.58102      -0.10431
Nuclear contribution   :      5.53040      -3.27628      -0.52239
                        -----------------------------------------
Total Dipole Moment    :      0.32108      -1.69526      -0.62670
                        -----------------------------------------
Magnitude (a.u.)       :      1.83568
Magnitude (Debye)      :      4.66594

Rotational constants in cm-1:     0.163239     0.153903     0.144751
Rotational constants in MHz :  4893.777363  4613.882823  4339.513182

                             ****ORCA TERMINATED NORMALLY****
TOTAL RUN TIME: 0 days 0 hours 0 minutes 6 seconds 433 msec
