                         Program Version 5.0.0 -  RELEASE  -
|  1> !wB97X-D3 RIJCOSX def2-SVPD def2/J TightSCF
|  2> *xyz 0 1
|  3> C         -4.38262       -1.67089        1.21620
|  4> C         -5.76354       -1.91517        0.70501
|  5> H         -5.84081       -2.11520       -0.30065
|  6> H         -6.40882       -1.14866        0.93612
|  7> H         -6.17478       -2.79061        1.05143
|  8> H         -4.01369       -0.74796        0.81997
|  9> H         -3.74223       -2.47168        0.91037
| 10> H         -4.40201       -1.61791        2.28471
| 11> *
| 12> %MaxCore 64000
| 13>
| 14> %pal nprocs 18
| 15> end
| 16>
| 17> %scf
| 18>   MaxIter 150
| 19> end
| 20>
| 21>                          ****END OF INPUT****

CARTESIAN COORDINATES (ANGSTROEM)
---------------------------------
  C     -4.382620   -1.670890    1.216200
  C     -5.763540   -1.915170    0.705010
  H     -5.840810   -2.115200   -0.300650
  H     -6.408820   -1.148660    0.936120
  H     -6.174780   -2.790610    1.051430
  H     -4.013690   -0.747960    0.819970
  H     -3.742230   -2.471680    0.910370
  H     -4.402010   -1.617910    2.284710

 Total Charge           Charge          ....    0
 Multiplicity           Mult            ....    1
 Number of Electrons    NEL             ....   18
 Basis Dimension        Dim             ....   88

ORBITAL ENERGIES
----------------

  NO   OCC          E(Eh)            E(eV)
   0   2.0000     -10.268094      -279.4091
   1   2.0000     -10.252635      -278.9884
   2   2.0000      -0.876682       -23.8557
   3   2.0000      -0.732987       -19.9456
   4   2.0000      -0.551684       -15.0121
   5   2.0000      -0.538202       -14.6452
   6   2.0000      -0.471782       -12.8378
   7   2.0000      -0.445075       -12.1111
   8   2.0000      -0.431474       -11.7410
   9   0.0000       0.099036         2.6949
  10   0.0000       0.127723         3.4755
  11   0.0000       0.180854         4.9213
  12   0.0000       0.184010         5.0072
  13   0.0000       0.203376         5.5341

MULLIKEN ATOMIC CHARGES
-----------------------
   0 C :    0.202295
   1 C :    0.424374
   2 H :   -0.193023
   3 H :   -0.153846
   4 H :   -0.183117
   5 H :   -0.039702
   6 H :   -0.026280
   7 H :   -0.030702
Sum of atomic charges:    0.0000000

LOEWDIN ATOMIC CHARGES
----------------------
   0 C :    0.082071
   1 C :    0.072845
   2 H :   -0.036610
   3 H :   -0.032013
   4 H :   -0.038123
   5 H :   -0.016720
   6 H :   -0.016045
   7 H :   -0.015405

  Mayer bond orders larger than 0.100000
B(  0-C ,  1-C ) :   1.3973 B(  0-C ,  2-H ) :   0.1178 B(  0-C ,  3-H ) :   0.1418
B(  0-C ,  4-H ) :   0.1281 B(  0-C ,  5-H ) :   0.8818 B(  0-C ,  6-H ) :   0.8888
B(  0-C ,  7-H ) :   0.8678 B(  1-C ,  2-H ) :   0.7949 B(  1-C ,  3-H ) :   0.8237
B(  1-C ,  4-H ) :   0.7871 B(  1-C ,  5-H ) :   0.1339 B(  1-C ,  6-H ) :   0.1321
B(  1-C ,  7-H ) :   0.1390 B(  2-H ,  4-H ) :   0.2259

Dispersion correction           -0.000522348
FINAL SINGLE POINT ENERGY       -79.734865302380

DIPOLE MOMENT
-------------
                                X             Y             Z
Electronic contribution:      0.07708       0.07436       0.03163
Nuclear contribution   :     -0.10782      -0.10031      -0.04623
                        -----------------------------------------
Total Dipole Moment    :     -0.03074      -0.02595      -0.01459
                        -----------------------------------------
Magnitude (a.u.)       :      0.04280
Magnitude (Debye)      :      0.10879

Rotational constants in cm-1:     2.932831     0.705715     0.698218
Rotational constants in MHz : 87924.050302 21156.813368 20932.044240

                             ****ORCA TERMINATED NORMALLY****
TOTAL RUN TIME: 0 days 0 hours 0 minutes 3 seconds 468 msec
