                         Program Version 5.0.0 -  RELEASE  -
|  1> !wB97X-D3 RIJCOSX def2-SVPD def2/J TightSCF
|  2> *xyz 0 1
|  3> C         -5.57236       -5.80780       -0.81644
|  4> S         -6.90318       -4.61903       -0.52846
|  5> O         -8.11485       -5.25093       -0.95701
|  6> F         -6.53271       -3.42684       -1.31485
|  7> O         -6.86563       -4.29496        0.91412
|  8> H         -5.55376       -6.07856       -1.85145
|  9> H         -5.73990       -6.68165       -0.22212
| 10> H         -4.63562       -5.36690       -0.54622
| 11> *
| 12> %MaxCore 64000
| 13>
| 14> %pal nprocs 18
| 15> end
| 16>
| 17> %scf
| 18>   MaxIter 150
| 19> end
| 20>
| 21>                          ****END OF INPUT****

CARTESIAN COORDINATES (ANGSTROEM)
---------------------------------
  C     -5.572360   -5.807800   -0.816440
  S     -6.903180   -4.619030   -0.528460
  O     -8.114850   -5.250930   -0.957010
  F     -6.532710   -3.426840   -1.314850
  O     -6.865630   -4.294960    0.914120
  H     -5.553760   -6.078560   -1.851450
  H     -5.739900   -6.681650   -0.222120
  H     -4.635620   -5.366900   -0.546220

 Total Charge           Charge          ....    0
 Multiplicity           Mult            ....    1
 Number of Electrons    NEL             ....   50
 Basis Dimension        Dim             ....  140

ORBITAL ENERGIES
----------------

  NO   OCC          E(Eh)            E(eV)
   0   2.0000     -89.243315     -2428.4341
   1   2.0000     -24.911896      -677.8872
   2   2.0000     -19.268590      -524.3250
   3   2.0000     -19.255276      -523.9627
   4   2.0000     -10.356381      -281.8114
   5   2.0000      -8.317084      -226.3194
   6   2.0000      -6.280693      -170.9064
   7   2.0000      -6.274320      -170.7329
   8   2.0000      -6.273464      -170.7096
   9   2.0000      -1.473036       -40.0833
  10   2.0000      -1.235406       -33.6171
  11   2.0000      -1.130152       -30.7530
  12   2.0000      -0.918529       -24.9944
  13   2.0000      -0.820578       -22.3291
  14   2.0000      -0.705594       -19.2002
  15   2.0000      -0.683025       -18.5861
  16   2.0000      -0.663830       -18.0637
  17   2.0000      -0.585958       -15.9447
  18   2.0000      -0.584012       -15.8918
  19   2.0000      -0.570849       -15.5336
  20   2.0000      -0.545446       -14.8424
  21   2.0000      -0.494441       -13.4544
  22   2.0000      -0.444984       -12.1086
  23   2.0000      -0.431653       -11.7459
  24   2.0000      -0.414557       -11.2807
  25   0.0000       0.061063         1.6616
  26   0.0000       0.094637         2.5752
  27   0.0000       0.100208         2.7268
  28   0.0000       0.101003         2.7484
  29   0.0000       0.108205         2.9444

MULLIKEN ATOMIC CHARGES
-----------------------
   0 C :    0.321173
   1 S :    1.283444
   2 O :   -0.624218
   3 F :   -0.387668
   4 O :   -0.670245
   5 H :    0.030589
   6 H :    0.020559
   7 H :    0.026366
Sum of atomic charges:   -0.0000000

LOEWDIN ATOMIC CHARGES
----------------------
   0 C :    0.125170
   1 S :    1.117286
   2 O :   -0.465218
   3 F :   -0.272806
   4 O :   -0.486324
   5 H :   -0.010416
   6 H :    0.002234
   7 H :   -0.009927

  Mayer bond orders larger than 0.100000
B(  0-C ,  1-S ) :   0.9926 B(  0-C ,  5-H ) :   0.9259 B(  0-C ,  6-H ) :   0.9306
B(  0-C ,  7-H ) :   0.9305 B(  1-S ,  2-O ) :   1.5641 B(  1-S ,  3-F ) :   0.6698
B(  1-S ,  4-O ) :   1.5222 B(  1-S ,  6-H ) :   0.1065

Dispersion correction           -0.001529238
FINAL SINGLE POINT ENERGY      -687.909179051667

DIPOLE MOMENT
-------------
                                X             Y             Z
Electronic contribution:     -2.56064       4.64121      -0.71875
Nuclear contribution   :      3.94974      -5.09866      -0.16489
                        -----------------------------------------
Total Dipole Moment    :      1.38910      -0.45745      -0.88364
                        -----------------------------------------
Magnitude (a.u.)       :      1.70870
Magnitude (Debye)      :      4.34318

Rotational constants in cm-1:     0.163657     0.151977     0.145976
Rotational constants in MHz :  4906.325390  4556.144033  4376.262759

                             ****ORCA TERMINATED NORMALLY****
TOTAL RUN TIME: 0 days 0 hours 0 minutes 6 seconds 364 msec
