                         Program Version 5.0.0 -  RELEASE  -
|  1> !wB97X-D3 RIJCOSX def2-SVPD def2/J TightSCF
|  2> *xyz 0 1
|  3> C         -5.57236       -5.80780       -0.81644
|  4> S         -6.90318       -4.61903       -0.52846
|  5> O         -8.11485       -5.25093       -0.95701
|  6> O         -6.53271       -3.42684       -1.31485
|  7> F         -6.86563       -4.29496        0.91412
|  8> H         -5.55376       -6.07856       -1.85145
|  9> H         -5.73990       -6.68165       -0.22212
| 10> H         -4.63562       -5.36690       -0.54622
| 11> *
| 12> %MaxCore 64000
| 13>
| 14> %pal nprocs 18
| 15> end
| 16>
| 17> %scf
| 18>   MaxIter 150
| 19> end
| 20>
| 21>                          ****END OF INPUT****

CARTESIAN COORDINATES (ANGSTROEM)
---------------------------------
  C     -5.572360   -5.807800   -0.816440
  S     -6.903180   -4.619030   -0.528460
  O     -8.114850   -5.250930   -0.957010
  O     -6.532710   -3.426840   -1.314850
  F     -6.865630   -4.294960    0.914120
  H     -5.553760   -6.078560   -1.851450
  H     -5.739900   -6.681650   -0.222120
  H     -4.635620   -5.366900   -0.546220

 Total Charge           Charge          ....    0
 Multiplicity           Mult            ....    1
 Number of Electrons    NEL             ....   50
 Basis Dimension        Dim             ....  140

ORBITAL ENERGIES
----------------

  NO   OCC          E(Eh)            E(eV)
   0   2.0000     -89.243024     -2428.4262
   1   2.0000     -24.911812      -677.8849
   2   2.0000     -19.268659      -524.3269
   3   2.0000     -19.254377      -523.9382
   4   2.0000     -10.356376      -281.8113
   5   2.0000      -8.316826      -226.3123
   6   2.0000      -6.280401      -170.8984
   7   2.0000      -6.274057      -170.7258
   8   2.0000      -6.273234      -170.7034
   9   2.0000      -1.471099       -40.0306
  10   2.0000      -1.236171       -33.6379
  11   2.0000      -1.130971       -30.7753
  12   2.0000      -0.917755       -24.9734
  13   2.0000      -0.820261       -22.3204
  14   2.0000      -0.704901       -19.1813
  15   2.0000      -0.681805       -18.5529
  16   2.0000      -0.663284       -18.0489
  17   2.0000      -0.585322       -15.9274
  18   2.0000      -0.584218       -15.8974
  19   2.0000      -0.571709       -15.5570
  20   2.0000      -0.545563       -14.8455
  21   2.0000      -0.494546       -13.4573
  22   2.0000      -0.445030       -12.1099
  23   2.0000      -0.431039       -11.7292
  24   2.0000      -0.414623       -11.2825
  25   0.0000       0.060291         1.6406
  26   0.0000       0.094600         2.5742
  27   0.0000       0.100020         2.7217
  28   0.0000       0.100331         2.7302
  29   0.0000       0.106021         2.8850

MULLIKEN ATOMIC CHARGES
-----------------------
   0 C :    0.322881
   1 S :    1.282661
   2 O :   -0.624088
   3 O :   -0.668858
   4 F :   -0.389949
   5 H :    0.024993
   6 H :    0.024656
   7 H :    0.027705
Sum of atomic charges:    0.0000000

LOEWDIN ATOMIC CHARGES
----------------------
   0 C :    0.125374
   1 S :    1.117556
   2 O :   -0.465035
   3 O :   -0.487178
   4 F :   -0.272475
   5 H :    0.002724
   6 H :   -0.011437
   7 H :   -0.009529

  Mayer bond orders larger than 0.100000
B(  0-C ,  1-S ) :   0.9926 B(  0-C ,  5-H ) :   0.9279 B(  0-C ,  6-H ) :   0.9276
B(  0-C ,  7-H ) :   0.9312 B(  1-S ,  2-O ) :   1.5634 B(  1-S ,  3-O ) :   1.5266
B(  1-S ,  4-F ) :   0.6644 B(  1-S ,  5-H ) :   0.1065

Dispersion correction           -0.001528000
FINAL SINGLE POINT ENERGY      -687.908811852727

DIPOLE MOMENT
-------------
                                X             Y             Z
Electronic contribution:     -3.12126       3.17396       3.03911
Nuclear contribution   :      4.28235      -4.23136      -2.39177
                        -----------------------------------------
Total Dipole Moment    :      1.16109      -1.05739       0.64734
                        -----------------------------------------
Magnitude (a.u.)       :      1.69861
Magnitude (Debye)      :      4.31751

Rotational constants in cm-1:     0.164456     0.151338     0.145749
Rotational constants in MHz :  4930.268698  4537.002642  4369.437533

                             ****ORCA TERMINATED NORMALLY****
TOTAL RUN TIME: 0 days 0 hours 0 minutes 6 seconds 665 msec
