                         Program Version 5.0.0 -  RELEASE  -
|  1> !wB97X-D3 RIJCOSX def2-SVPD def2/J TightSCF xyzfile
|  2>
|  3> *xyzfile 0 1 D1.xyz
|  4>
|  5> %MaxCore 64000
|  6>
|  7> %pal nprocs 18
|  8> end
|  9>
| 10> %scf
| 11>   MaxIter 150
| 12> end
| 13>
| 14>
| 15>                          ****END OF INPUT****

CARTESIAN COORDINATES (ANGSTROEM)
---------------------------------
  C     -4.382623   -1.670889    1.216201
  C     -5.763539   -1.915170    0.705012
  C     -3.281728   -2.191272    0.294361
  C     -5.572364   -5.807798   -0.816445
  S     -6.903179   -4.619033   -0.528458
  H     -5.840812   -2.115205   -0.300646
  H     -6.408823   -1.148656    0.936124
  H     -6.174781   -2.790606    1.051433
  F     -8.114853   -5.250932   -0.957007
  O     -6.532715   -3.426838   -1.314848
  H     -4.328618   -2.139223    2.198103
  H     -4.261583   -0.597399    1.357248
  O     -6.865632   -4.294957    0.914118
  C     -3.474641   -3.605898   -0.259608
  H     -2.354548   -2.127602    0.871433
  H     -3.166611   -1.499693   -0.545037
  C     -3.827078   -4.661097    0.786174
  H     -2.560559   -3.889391   -0.788050
  H     -4.255932   -3.570040   -1.019300
  C     -4.457800   -5.941875    0.229195
  H     -5.177347   -5.542575   -1.797714
  H     -6.074202   -6.768894   -0.921272
  H     -4.530506   -4.253640    1.511979
  H     -2.933400   -4.932302    1.356825
  H     -3.681064   -6.562236   -0.229885
  H     -4.843942   -6.512728    1.075805

 Total Charge           Charge          ....    0
 Multiplicity           Mult            ....    1
 Number of Electrons    NEL             ....   98
 Basis Dimension        Dim             ....  356

ORBITAL ENERGIES
----------------

  NO   OCC          E(Eh)            E(eV)
   0   2.0000     -89.247476     -2428.5473
   1   2.0000     -24.935087      -678.5182
   2   2.0000     -19.259530      -524.0784
   3   2.0000     -19.258630      -524.0540
   4   2.0000     -10.360087      -281.9123
   5   2.0000     -10.321008      -280.8489
   6   2.0000     -10.287037      -279.9245
   7   2.0000     -10.276036      -279.6252
   8   2.0000     -10.267104      -279.3821
   9   2.0000     -10.252492      -278.9845
  10   2.0000     -10.194152      -277.3970
  11   2.0000      -8.320534      -226.4132
  12   2.0000      -6.284306      -171.0047
  13   2.0000      -6.277802      -170.8277
  14   2.0000      -6.276612      -170.7953
  15   2.0000      -1.510935       -41.1146
  16   2.0000      -1.227928       -33.4136
  17   2.0000      -1.123478       -30.5714
  18   2.0000      -0.951787       -25.8995
  19   2.0000      -0.908931       -24.7333
  20   2.0000      -0.867808       -23.6143
  21   2.0000      -0.839977       -22.8569
  22   2.0000      -0.803007       -21.8509
  23   2.0000      -0.755891       -20.5688
  24   2.0000      -0.722199       -19.6520
  25   2.0000      -0.712408       -19.3856
  26   2.0000      -0.694570       -18.9002
  27   2.0000      -0.662857       -18.0373
  28   2.0000      -0.644538       -17.5388
  29   2.0000      -0.602589       -16.3973
  30   2.0000      -0.599746       -16.3199
  31   2.0000      -0.575711       -15.6659
  32   2.0000      -0.572040       -15.5660
  33   2.0000      -0.543502       -14.7894
  34   2.0000      -0.535457       -14.5705
  35   2.0000      -0.517307       -14.0766
  36   2.0000      -0.510380       -13.8881
  37   2.0000      -0.485558       -13.2127
  38   2.0000      -0.477342       -12.9891
  39   2.0000      -0.473403       -12.8819
  40   2.0000      -0.443282       -12.0623
  41   2.0000      -0.437810       -11.9134
  42   2.0000      -0.432206       -11.7609
  43   2.0000      -0.428276       -11.6540
  44   2.0000      -0.418660       -11.3923
  45   2.0000      -0.405180       -11.0255
  46   2.0000      -0.386763       -10.5243
  47   2.0000      -0.380544       -10.3551
  48   2.0000      -0.358510        -9.7556
  49   0.0000       0.060429         1.6443
  50   0.0000       0.078528         2.1369
  51   0.0000       0.087629         2.3845
  52   0.0000       0.097679         2.6580
  53   0.0000       0.104908         2.8547

MULLIKEN ATOMIC CHARGES
-----------------------
   0 C :   -0.095073
   1 C :    1.774830
   2 C :    0.419645
   3 C :    0.109871
   4 S :    1.675039
   5 H :   -0.410059
   6 H :   -0.361405
   7 H :   -0.819867
   8 F :   -0.548787
   9 O :   -0.674438
  10 H :    0.132520
  11 H :   -0.361470
  12 O :   -0.754835
  13 C :    0.091077
  14 H :   -0.042388
  15 H :    0.063542
  16 C :   -0.006597
  17 H :   -0.310008
  18 H :   -0.055971
  19 C :    0.406331
  20 H :    0.171968
  21 H :   -0.196323
  22 H :    0.005895
  23 H :   -0.231128
  24 H :   -0.000897
  25 H :    0.018528
Sum of atomic charges:    0.0000000

LOEWDIN ATOMIC CHARGES
----------------------
   0 C :   -0.047021
   1 C :    0.136110
   2 C :   -0.025756
   3 C :   -0.034601
   4 S :    1.209322
   5 H :   -0.094932
   6 H :   -0.018199
   7 H :   -0.134454
   8 F :   -0.246028
   9 O :   -0.467210
  10 H :    0.015230
  11 H :    0.015506
  12 O :   -0.456628
  13 C :   -0.011050
  14 H :    0.016238
  15 H :    0.026165
  16 C :   -0.009226
  17 H :    0.023884
  18 H :   -0.016427
  19 C :   -0.014450
  20 H :    0.024182
  21 H :    0.012490
  22 H :   -0.002557
  23 H :    0.031825
  24 H :    0.035744
  25 H :    0.031843

  Mayer bond orders larger than 0.100000
B(  0-C ,  1-C ) :   1.0887 B(  0-C ,  2-C ) :   1.1406 B(  0-C ,  5-H ) :   0.3266
B(  0-C ,  7-H ) :   0.3395 B(  0-C , 10-H ) :   0.6988 B(  0-C , 11-H ) :   1.0514
B(  0-C , 14-H ) :   0.1689 B(  0-C , 15-H ) :   0.1517 B(  1-C ,  2-C ) :   0.1312
B(  1-C ,  6-H ) :   0.5843 B(  1-C ,  7-H ) :  -0.3262 B(  1-C , 10-H ) :   0.1918
B(  1-C , 17-H ) :   0.1084 B(  2-C , 10-H ) :   0.1174 B(  2-C , 13-C ) :   1.2676
B(  2-C , 14-H ) :   0.7823 B(  2-C , 15-H ) :   0.6774 B(  3-C ,  4-S ) :   0.9634
B(  3-C ,  8-F ) :   0.1160 B(  3-C , 19-C ) :   1.2393 B(  3-C , 20-H ) :   0.8687
B(  3-C , 21-H ) :   0.8865 B(  3-C , 24-H ) :   0.1237 B(  3-C , 25-H ) :   0.1156
B(  4-S ,  8-F ) :   0.5717 B(  4-S ,  9-O ) :   1.3631 B(  4-S , 12-O ) :   1.3569
B(  5-H ,  7-H ) :   0.9270 B(  5-H ,  9-O ) :   0.1931 B(  5-H , 11-H ) :   0.1553
B(  5-H , 18-H ) :   0.1476 B(  6-H ,  7-H ) :   0.1119 B(  6-H , 11-H ) :  -0.1319
B(  6-H , 18-H ) :  -0.1286 B(  7-H , 10-H ) :  -0.1155 B(  7-H , 11-H ) :   0.1022
B(  7-H , 12-O ) :   0.1176 B(  7-H , 17-H ) :  -0.1106 B(  9-O , 12-O ) :   0.1657
B( 10-H , 11-H ) :  -0.1953 B( 10-H , 22-H ) :   0.1347 B( 13-C , 14-H ) :   0.1665
B( 13-C , 15-H ) :   0.2368 B( 13-C , 16-C ) :   1.1765 B( 13-C , 17-H ) :   0.8735
B( 13-C , 18-H ) :   0.8191 B( 13-C , 22-H ) :   0.1004 B( 13-C , 23-H ) :   0.1752
B( 16-C , 17-H ) :   0.1930 B( 16-C , 18-H ) :   0.1572 B( 16-C , 19-C ) :   1.2594
B( 16-C , 22-H ) :   0.8741 B( 16-C , 23-H ) :   0.8791 B( 16-C , 24-H ) :   0.1275
B( 16-C , 25-H ) :   0.2421 B( 19-C , 21-H ) :   0.2074 B( 19-C , 24-H ) :   0.7849
B( 19-C , 25-H ) :   0.6987

Dispersion correction           -0.012979686
FINAL SINGLE POINT ENERGY      -923.507532515369

DIPOLE MOMENT
-------------
                                X             Y             Z
Electronic contribution:    -18.92907      -8.72134      -6.74377
Nuclear contribution   :     19.08524       6.89775       6.14221
                        -----------------------------------------
Total Dipole Moment    :      0.15617      -1.82359      -0.60155
                        -----------------------------------------
Magnitude (a.u.)       :      1.92659
Magnitude (Debye)      :      4.89700

Rotational constants in cm-1:     0.049343     0.024787     0.019726
Rotational constants in MHz :  1479.262779   743.087234   591.370705

                             ****ORCA TERMINATED NORMALLY****
TOTAL RUN TIME: 0 days 0 hours 0 minutes 54 seconds 968 msec
