                         Program Version 5.0.0 -  RELEASE  -
|  1> !wB97X-D3 RIJCOSX def2-SVPD def2/J TightSCF xyzfile
|  2>
|  3> *xyzfile 0 1 D2.xyz
|  4>
|  5> %MaxCore 64000
|  6>
|  7> %pal nprocs 18
|  8> end
|  9>
| 10> %scf
| 11>   MaxIter 150
| 12> end
| 13>
| 14>
| 15>                          ****END OF INPUT****

CARTESIAN COORDINATES (ANGSTROEM)
---------------------------------
  C     -4.382623   -1.670889    1.216201
  C     -5.763539   -1.915170    0.705012
  C     -3.281728   -2.191272    0.294361
  C     -5.572364   -5.807798   -0.816445
  S     -6.903179   -4.619033   -0.528458
  H     -5.840812   -2.115205   -0.300646
  H     -6.408823   -1.148656    0.936124
  H     -6.174781   -2.790606    1.051433
  O     -8.114853   -5.250932   -0.957007
  F     -6.532715   -3.426838   -1.314848
  H     -4.328618   -2.139223    2.198103
  H     -4.261583   -0.597399    1.357248
  O     -6.865632   -4.294957    0.914118
  C     -3.474641   -3.605898   -0.259608
  H     -2.354548   -2.127602    0.871433
  H     -3.166611   -1.499693   -0.545037
  C     -3.827078   -4.661097    0.786174
  H     -2.560559   -3.889391   -0.788050
  H     -4.255932   -3.570040   -1.019300
  C     -4.457800   -5.941875    0.229195
  H     -5.177347   -5.542575   -1.797714
  H     -6.074202   -6.768894   -0.921272
  H     -4.530506   -4.253640    1.511979
  H     -2.933400   -4.932302    1.356825
  H     -3.681064   -6.562236   -0.229885
  H     -4.843942   -6.512728    1.075805

 Total Charge           Charge          ....    0
 Multiplicity           Mult            ....    1
 Number of Electrons    NEL             ....   98
 Basis Dimension        Dim             ....  356

ORBITAL ENERGIES
----------------

  NO   OCC          E(Eh)            E(eV)
   0   2.0000     -89.242595     -2428.4145
   1   2.0000     -24.911826      -677.8852
   2   2.0000     -19.270175      -524.3681
   3   2.0000     -19.254837      -523.9508
   4   2.0000     -10.358050      -281.8569
   5   2.0000     -10.320730      -280.8413
   6   2.0000     -10.294304      -280.1222
   7   2.0000     -10.292723      -280.0792
   8   2.0000     -10.281321      -279.7690
   9   2.0000     -10.267950      -279.4051
  10   2.0000     -10.217583      -278.0346
  11   2.0000      -8.315635      -226.2799
  12   2.0000      -6.279291      -170.8682
  13   2.0000      -6.273086      -170.6993
  14   2.0000      -6.271757      -170.6632
  15   2.0000      -1.476263       -40.1711
  16   2.0000      -1.237502       -33.6741
  17   2.0000      -1.136042       -30.9133
  18   2.0000      -0.954005       -25.9598
  19   2.0000      -0.917842       -24.9758
  20   2.0000      -0.868987       -23.6463
  21   2.0000      -0.842341       -22.9213
  22   2.0000      -0.805849       -21.9283
  23   2.0000      -0.766375       -20.8541
  24   2.0000      -0.727500       -19.7963
  25   2.0000      -0.693643       -18.8750
  26   2.0000      -0.680507       -18.5175
  27   2.0000      -0.663582       -18.0570
  28   2.0000      -0.660376       -17.9697
  29   2.0000      -0.605015       -16.4633
  30   2.0000      -0.595533       -16.2053
  31   2.0000      -0.576636       -15.6911
  32   2.0000      -0.568954       -15.4820
  33   2.0000      -0.559075       -15.2132
  34   2.0000      -0.540467       -14.7069
  35   2.0000      -0.525700       -14.3050
  36   2.0000      -0.505886       -13.7659
  37   2.0000      -0.496569       -13.5123
  38   2.0000      -0.490117       -13.3368
  39   2.0000      -0.485949       -13.2234
  40   2.0000      -0.457102       -12.4384
  41   2.0000      -0.451302       -12.2805
  42   2.0000      -0.449677       -12.2363
  43   2.0000      -0.433734       -11.8025
  44   2.0000      -0.422834       -11.5059
  45   2.0000      -0.416162       -11.3243
  46   2.0000      -0.405121       -11.0239
  47   2.0000      -0.403699       -10.9852
  48   2.0000      -0.369752       -10.0615
  49   0.0000       0.068086         1.8527
  50   0.0000       0.082589         2.2474
  51   0.0000       0.088969         2.4210
  52   0.0000       0.096728         2.6321
  53   0.0000       0.108847         2.9619

MULLIKEN ATOMIC CHARGES
-----------------------
   0 C :   -0.096345
   1 C :    1.777433
   2 C :    0.404984
   3 C :    0.125989
   4 S :    1.535349
   5 H :   -0.417210
   6 H :   -0.359710
   7 H :   -0.791241
   8 O :   -0.722147
   9 F :   -0.426982
  10 H :    0.143751
  11 H :   -0.353437
  12 O :   -0.751823
  13 C :    0.072367
  14 H :   -0.035592
  15 H :    0.064821
  16 C :    0.003384
  17 H :   -0.296655
  18 H :   -0.070007
  19 C :    0.424818
  20 H :    0.173389
  21 H :   -0.224673
  22 H :   -0.004181
  23 H :   -0.196633
  24 H :    0.001097
  25 H :    0.019254
Sum of atomic charges:    0.0000000

LOEWDIN ATOMIC CHARGES
----------------------
   0 C :   -0.043255
   1 C :    0.135224
   2 C :   -0.026165
   3 C :   -0.029885
   4 S :    1.178896
   5 H :   -0.076970
   6 H :   -0.015631
   7 H :   -0.137015
   8 O :   -0.446937
   9 F :   -0.277335
  10 H :    0.019266
  11 H :    0.017820
  12 O :   -0.451428
  13 C :   -0.014749
  14 H :    0.019602
  15 H :    0.025887
  16 C :   -0.011150
  17 H :    0.026748
  18 H :   -0.016637
  19 C :   -0.018228
  20 H :    0.019339
  21 H :    0.024239
  22 H :   -0.002899
  23 H :    0.033252
  24 H :    0.033854
  25 H :    0.034158

  Mayer bond orders larger than 0.100000
B(  0-C ,  1-C ) :   1.0809 B(  0-C ,  2-C ) :   1.1492 B(  0-C ,  5-H ) :   0.3393
B(  0-C ,  7-H ) :   0.3471 B(  0-C , 10-H ) :   0.6960 B(  0-C , 11-H ) :   1.0561
B(  0-C , 14-H ) :   0.1626 B(  0-C , 15-H ) :   0.1497 B(  1-C ,  2-C ) :   0.1265
B(  1-C ,  6-H ) :   0.6123 B(  1-C ,  7-H ) :  -0.3229 B(  1-C , 10-H ) :   0.1919
B(  1-C , 17-H ) :   0.1074 B(  2-C , 10-H ) :   0.1211 B(  2-C , 13-C ) :   1.2599
B(  2-C , 14-H ) :   0.7837 B(  2-C , 15-H ) :   0.6783 B(  3-C ,  4-S ) :   0.9382
B(  3-C ,  8-O ) :   0.1017 B(  3-C , 19-C ) :   1.2170 B(  3-C , 20-H ) :   0.8493
B(  3-C , 21-H ) :   0.9383 B(  3-C , 24-H ) :   0.1222 B(  3-C , 25-H ) :   0.1211
B(  4-S ,  8-O ) :   1.5957 B(  4-S ,  9-F ) :   0.5831 B(  4-S , 12-O ) :   1.4239
B(  5-H ,  6-H ) :  -0.1105 B(  5-H ,  7-H ) :   0.9055 B(  5-H ,  9-F ) :   0.1553
B(  5-H , 11-H ) :   0.1430 B(  5-H , 18-H ) :   0.1412 B(  6-H ,  7-H ) :   0.1161
B(  6-H , 11-H ) :  -0.1312 B(  6-H , 17-H ) :   0.1002 B(  6-H , 18-H ) :  -0.1247
B(  7-H , 10-H ) :  -0.1163 B(  7-H , 12-O ) :   0.1056 B(  7-H , 17-H ) :  -0.1177
B(  9-F , 12-O ) :   0.1047 B( 10-H , 11-H ) :  -0.1927 B( 10-H , 22-H ) :   0.1323
B( 13-C , 14-H ) :   0.1650 B( 13-C , 15-H ) :   0.2376 B( 13-C , 16-C ) :   1.1772
B( 13-C , 17-H ) :   0.9073 B( 13-C , 18-H ) :   0.8107 B( 13-C , 22-H ) :   0.1011
B( 13-C , 23-H ) :   0.1684 B( 16-C , 17-H ) :   0.1869 B( 16-C , 18-H ) :   0.1536
B( 16-C , 19-C ) :   1.2619 B( 16-C , 22-H ) :   0.8930 B( 16-C , 23-H ) :   0.8605
B( 16-C , 24-H ) :   0.1283 B( 16-C , 25-H ) :   0.2369 B( 19-C , 21-H ) :   0.1802
B( 19-C , 24-H ) :   0.7852 B( 19-C , 25-H ) :   0.6999

Dispersion correction           -0.012960698
FINAL SINGLE POINT ENERGY      -923.525974995258

DIPOLE MOMENT
-------------
                                X             Y             Z
Electronic contribution:    -15.92690      -5.39377      -7.23147
Nuclear contribution   :     17.25367       4.78608       6.55647
                        -----------------------------------------
Total Dipole Moment    :      1.32677      -0.60769      -0.67500
                        -----------------------------------------
Magnitude (a.u.)       :      1.60787
Magnitude (Debye)      :      4.08688

Rotational constants in cm-1:     0.048508     0.025517     0.020225
Rotational constants in MHz :  1454.219007   764.979652   606.316599

                             ****ORCA TERMINATED NORMALLY****
TOTAL RUN TIME: 0 days 0 hours 0 minutes 57 seconds 406 msec
