                         Program Version 5.0.0 -  RELEASE  -
|  1> !wB97X-D3 RIJCOSX def2-SVPD def2/J TightSCF xyzfile
|  2>
|  3> *xyzfile 0 1 D3.xyz
|  4>
|  5> %MaxCore 64000
|  6>
|  7> %pal nprocs 18
|  8> end
|  9>
| 10> %scf
| 11>   MaxIter 150
| 12> end
| 13>
| 14>
| 15>                          ****END OF INPUT****

CARTESIAN COORDINATES (ANGSTROEM)
---------------------------------
  C     -4.382623   -1.670889    1.216201
  C     -5.763539   -1.915170    0.705012
  C     -3.281728   -2.191272    0.294361
  C     -5.572364   -5.807798   -0.816445
  S     -6.903179   -4.619033   -0.528458
  H     -5.840812   -2.115205   -0.300646
  H     -6.408823   -1.148656    0.936124
  H     -6.174781   -2.790606    1.051433
  O     -8.114853   -5.250932   -0.957007
  O     -6.532715   -3.426838   -1.314848
  H     -4.328618   -2.139223    2.198103
  H     -4.261583   -0.597399    1.357248
  F     -6.865632   -4.294957    0.914118
  C     -3.474641   -3.605898   -0.259608
  H     -2.354548   -2.127602    0.871433
  H     -3.166611   -1.499693   -0.545037
  C     -3.827078   -4.661097    0.786174
  H     -2.560559   -3.889391   -0.788050
  H     -4.255932   -3.570040   -1.019300
  C     -4.457800   -5.941875    0.229195
  H     -5.177347   -5.542575   -1.797714
  H     -6.074202   -6.768894   -0.921272
  H     -4.530506   -4.253640    1.511979
  H     -2.933400   -4.932302    1.356825
  H     -3.681064   -6.562236   -0.229885
  H     -4.843942   -6.512728    1.075805

 Total Charge           Charge          ....    0
 Multiplicity           Mult            ....    1
 Number of Electrons    NEL             ....   98
 Basis Dimension        Dim             ....  356

ORBITAL ENERGIES
----------------

  NO   OCC          E(Eh)            E(eV)
   0   2.0000     -89.241824     -2428.3935
   1   2.0000     -24.911779      -677.8840
   2   2.0000     -19.269775      -524.3572
   3   2.0000     -19.253233      -523.9071
   4   2.0000     -10.357223      -281.8344
   5   2.0000     -10.325698      -280.9765
   6   2.0000     -10.301318      -280.3131
   7   2.0000     -10.285784      -279.8904
   8   2.0000     -10.278463      -279.6912
   9   2.0000     -10.268453      -279.4188
  10   2.0000     -10.219582      -278.0890
  11   2.0000      -8.314884      -226.2595
  12   2.0000      -6.278678      -170.8515
  13   2.0000      -6.272299      -170.6779
  14   2.0000      -6.270920      -170.6404
  15   2.0000      -1.475458       -40.1493
  16   2.0000      -1.237726       -33.6802
  17   2.0000      -1.134982       -30.8844
  18   2.0000      -0.956904       -26.0387
  19   2.0000      -0.916637       -24.9430
  20   2.0000      -0.868654       -23.6373
  21   2.0000      -0.841909       -22.9095
  22   2.0000      -0.806859       -21.9557
  23   2.0000      -0.766360       -20.8537
  24   2.0000      -0.731474       -19.9044
  25   2.0000      -0.695795       -18.9335
  26   2.0000      -0.689600       -18.7650
  27   2.0000      -0.658572       -17.9207
  28   2.0000      -0.651455       -17.7270
  29   2.0000      -0.602468       -16.3940
  30   2.0000      -0.596033       -16.2189
  31   2.0000      -0.581975       -15.8363
  32   2.0000      -0.563708       -15.3393
  33   2.0000      -0.555003       -15.1024
  34   2.0000      -0.549324       -14.9479
  35   2.0000      -0.528140       -14.3714
  36   2.0000      -0.506131       -13.7725
  37   2.0000      -0.494211       -13.4482
  38   2.0000      -0.489103       -13.3092
  39   2.0000      -0.488923       -13.3043
  40   2.0000      -0.458877       -12.4867
  41   2.0000      -0.452223       -12.3056
  42   2.0000      -0.443908       -12.0793
  43   2.0000      -0.428499       -11.6601
  44   2.0000      -0.428114       -11.6496
  45   2.0000      -0.418439       -11.3863
  46   2.0000      -0.400282       -10.8922
  47   2.0000      -0.397175       -10.8077
  48   2.0000      -0.381231       -10.3738
  49   0.0000       0.062986         1.7139
  50   0.0000       0.087189         2.3725
  51   0.0000       0.089799         2.4435
  52   0.0000       0.096258         2.6193
  53   0.0000       0.106130         2.8880

MULLIKEN ATOMIC CHARGES
-----------------------
   0 C :   -0.082727
   1 C :    1.827796
   2 C :    0.408983
   3 C :    0.104287
   4 S :    1.497500
   5 H :   -0.381627
   6 H :   -0.353921
   7 H :   -0.884251
   8 O :   -0.723653
   9 O :   -0.648198
  10 H :    0.124382
  11 H :   -0.353298
  12 F :   -0.500957
  13 C :    0.094591
  14 H :   -0.043347
  15 H :    0.071988
  16 C :    0.028348
  17 H :   -0.303931
  18 H :   -0.038608
  19 C :    0.420069
  20 H :    0.190204
  21 H :   -0.198909
  22 H :   -0.042948
  23 H :   -0.205836
  24 H :    0.006179
  25 H :   -0.012115
Sum of atomic charges:    0.0000000

LOEWDIN ATOMIC CHARGES
----------------------
   0 C :   -0.045989
   1 C :    0.137477
   2 C :   -0.023626
   3 C :   -0.023137
   4 S :    1.176901
   5 H :   -0.095287
   6 H :   -0.015361
   7 H :   -0.108733
   8 O :   -0.446835
   9 O :   -0.464288
  10 H :    0.014843
  11 H :    0.018838
  12 F :   -0.272971
  13 C :   -0.010519
  14 H :    0.017895
  15 H :    0.028346
  16 C :   -0.014555
  17 H :    0.026756
  18 H :   -0.015975
  19 C :   -0.027100
  20 H :    0.031995
  21 H :    0.019196
  22 H :   -0.004797
  23 H :    0.033386
  24 H :    0.034736
  25 H :    0.028803

  Mayer bond orders larger than 0.100000
B(  0-C ,  1-C ) :   1.0861 B(  0-C ,  2-C ) :   1.1492 B(  0-C ,  5-H ) :   0.3243
B(  0-C ,  7-H ) :   0.3367 B(  0-C , 10-H ) :   0.7037 B(  0-C , 11-H ) :   1.0492
B(  0-C , 14-H ) :   0.1648 B(  0-C , 15-H ) :   0.1512 B(  1-C ,  2-C ) :   0.1361
B(  1-C ,  6-H ) :   0.6124 B(  1-C ,  7-H ) :  -0.5204 B(  1-C , 10-H ) :   0.1989
B(  1-C , 17-H ) :   0.1026 B(  2-C , 10-H ) :   0.1173 B(  2-C , 13-C ) :   1.2759
B(  2-C , 14-H ) :   0.7865 B(  2-C , 15-H ) :   0.6820 B(  3-C ,  4-S ) :   0.9518
B(  3-C ,  8-O ) :   0.1010 B(  3-C , 19-C ) :   1.2047 B(  3-C , 20-H ) :   0.8551
B(  3-C , 21-H ) :   0.9520 B(  3-C , 24-H ) :   0.1201 B(  3-C , 25-H ) :   0.1126
B(  4-S ,  8-O ) :   1.5935 B(  4-S ,  9-O ) :   1.4259 B(  4-S , 12-F ) :   0.6016
B(  5-H ,  7-H ) :   0.9626 B(  5-H ,  9-O ) :   0.1743 B(  5-H , 11-H ) :   0.1499
B(  5-H , 18-H ) :   0.1475 B(  6-H , 11-H ) :  -0.1323 B(  6-H , 17-H ) :   0.1020
B(  6-H , 18-H ) :  -0.1333 B(  7-H , 10-H ) :  -0.1146 B(  7-H , 12-F ) :   0.1499
B(  7-H , 17-H ) :  -0.1042 B(  9-O , 12-F ) :   0.1094 B( 10-H , 11-H ) :  -0.1912
B( 10-H , 22-H ) :   0.1313 B( 13-C , 14-H ) :   0.1639 B( 13-C , 15-H ) :   0.2349
B( 13-C , 16-C ) :   1.1662 B( 13-C , 17-H ) :   0.8751 B( 13-C , 18-H ) :   0.8365
B( 13-C , 22-H ) :   0.1013 B( 13-C , 23-H ) :   0.1733 B( 16-C , 17-H ) :   0.1850
B( 16-C , 18-H ) :   0.1560 B( 16-C , 19-C ) :   1.2520 B( 16-C , 22-H ) :   0.8700
B( 16-C , 23-H ) :   0.8715 B( 16-C , 24-H ) :   0.1369 B( 16-C , 25-H ) :   0.2377
B( 19-C , 21-H ) :   0.1962 B( 19-C , 24-H ) :   0.7789 B( 19-C , 25-H ) :   0.7114

Dispersion correction           -0.012917554
FINAL SINGLE POINT ENERGY      -923.525568315959

DIPOLE MOMENT
-------------
                                X             Y             Z
Electronic contribution:    -16.48881      -6.88564      -3.43676
Nuclear contribution   :     17.63907       5.79106       3.97609
                        -----------------------------------------
Total Dipole Moment    :      1.15026      -1.09457       0.53934
                        -----------------------------------------
Magnitude (a.u.)       :      1.67692
Magnitude (Debye)      :      4.26240

Rotational constants in cm-1:     0.048663     0.025472     0.020259
Rotational constants in MHz :  1458.892793   763.621130   607.350055

                             ****ORCA TERMINATED NORMALLY****
TOTAL RUN TIME: 0 days 0 hours 0 minutes 50 seconds 810 msec
