                         Program Version 5.0.0 -  RELEASE  -
|  1> !wB97X-D3 RIJCOSX def2-SVPD def2/J TightSCF
|  2> *xyz -1 1
|  3> C          0.13297        2.38587       -4.02462
|  4> C         -1.36646        2.47911       -4.31393
|  5> C         -2.35773        2.30686       -3.13675
|  6> H         -1.63680        1.72709       -5.06399
|  7> H         -1.58235        3.44561       -4.76869
|  8> O         -3.44376        2.84652       -3.25274
|  9> O         -1.97092        1.58304       -2.15123
| 10> H          0.68084        2.52514       -4.93310
| 11> H          0.35823        1.42282       -3.61633
| 12> H          0.40851        3.14443       -3.32208
| 13> *
| 14> %MaxCore 64000
| 15>
| 16> %pal nprocs 18
| 17> end
| 18>
| 19> %scf
| 20>   MaxIter 150
| 21> end
| 22>
| 23>
| 24>                          ****END OF INPUT****

CARTESIAN COORDINATES (ANGSTROEM)
---------------------------------
  C      0.132970    2.385870   -4.024620
  C     -1.366460    2.479110   -4.313930
  C     -2.357730    2.306860   -3.136750
  H     -1.636800    1.727090   -5.063990
  H     -1.582350    3.445610   -4.768690
  O     -3.443760    2.846520   -3.252740
  O     -1.970920    1.583040   -2.151230
  H      0.680840    2.525140   -4.933100
  H      0.358230    1.422820   -3.616330
  H      0.408510    3.144430   -3.322080

 Total Charge           Charge          ....   -1
 Multiplicity           Mult            ....    1
 Number of Electrons    NEL             ....   40
 Basis Dimension        Dim             ....  146

ORBITAL ENERGIES
----------------

  NO   OCC          E(Eh)            E(eV)
   0   2.0000     -18.987825      -516.6850
   1   2.0000     -18.977272      -516.3978
   2   2.0000     -10.177986      -276.9571
   3   2.0000     -10.125793      -275.5368
   4   2.0000     -10.116558      -275.2855
   5   2.0000      -0.935613       -25.4593
   6   2.0000      -0.832111       -22.6429
   7   2.0000      -0.713973       -19.4282
   8   2.0000      -0.580255       -15.7895
   9   2.0000      -0.418371       -11.3844
  10   2.0000      -0.396543       -10.7905
  11   2.0000      -0.361369        -9.8334
  12   2.0000      -0.330735        -8.9997
  13   2.0000      -0.315932        -8.5970
  14   2.0000      -0.309039        -8.4094
  15   2.0000      -0.277411        -7.5487
  16   2.0000      -0.259858        -7.0711
  17   2.0000      -0.144487        -3.9317
  18   2.0000      -0.137921        -3.7530
  19   2.0000      -0.126338        -3.4378
  20   0.0000       0.222045         6.0421
  21   0.0000       0.258272         7.0279
  22   0.0000       0.266967         7.2645
  23   0.0000       0.287229         7.8159
  24   0.0000       0.312486         8.5032

MULLIKEN ATOMIC CHARGES
-----------------------
   0 C :    0.611164
   1 C :   -0.424404
   2 C :    0.436167
   3 H :   -0.014217
   4 H :   -0.030828
   5 O :   -0.635009
   6 O :   -0.763071
   7 H :   -0.068781
   8 H :   -0.048666
   9 H :   -0.062354
Sum of atomic charges:   -1.0000000

LOEWDIN ATOMIC CHARGES
----------------------
   0 C :    0.088031
   1 C :   -0.041955
   2 C :   -0.302663
   3 H :    0.012005
   4 H :   -0.001870
   5 O :   -0.308705
   6 O :   -0.349391
   7 H :   -0.042602
   8 H :   -0.028558
   9 H :   -0.024293

  Mayer bond orders larger than 0.100000
B(  0-C ,  1-C ) :   1.2573 B(  0-C ,  7-H ) :   0.7817 B(  0-C ,  8-H ) :   0.8339
B(  0-C ,  9-H ) :   0.8453 B(  1-C ,  2-C ) :   1.0225 B(  1-C ,  3-H ) :   0.9262
B(  1-C ,  4-H ) :   0.9453 B(  1-C ,  7-H ) :   0.2135 B(  1-C ,  8-H ) :   0.2031
B(  1-C ,  9-H ) :   0.1785 B(  2-C ,  4-H ) :   0.1546 B(  2-C ,  5-O ) :   1.5736
B(  2-C ,  6-O ) :   1.4880

Dispersion correction           -0.001941517
FINAL SINGLE POINT ENERGY      -267.582830005541

DIPOLE MOMENT
-------------
                                X             Y             Z
Electronic contribution:     -5.21140      -0.35846       3.15064
Nuclear contribution   :      6.75610       0.63068      -4.53972
                        -----------------------------------------
Total Dipole Moment    :      1.54470       0.27221      -1.38908
                        -----------------------------------------
Magnitude (a.u.)       :      2.09517
Magnitude (Debye)      :      5.32551

Rotational constants in cm-1:     0.335096     0.130241     0.099025
Rotational constants in MHz : 10045.924902  3904.536250  2968.708333

                             ****ORCA TERMINATED NORMALLY****
TOTAL RUN TIME: 0 days 0 hours 0 minutes 7 seconds 2 msec
