                         Program Version 5.0.0 -  RELEASE  -
|  1> !wB97X-D3 RIJCOSX def2-SVPD def2/J TightSCF
|  2> *xyz 1 1
|  3> C          0.64866        1.00359       -3.64560
|  4> N          0.28128        0.67645       -2.24018
|  5> C          0.13297        2.38587       -4.02462
|  6> H          0.39079       -0.31925       -2.02649
|  7> H         -0.69269        0.99010       -2.13812
|  8> H          0.85421        1.21221       -1.57528
|  9> H          0.19099        0.23965       -4.27575
| 10> H          1.73157        0.93173       -3.75075
| 11> H          0.40589        2.60338       -5.03610
| 12> H          0.56342        3.11797       -3.37374
| 13> H         -0.93265        2.40724       -3.93025
| 14> *
| 15> %MaxCore 64000
| 16>
| 17> %pal nprocs 18
| 18> end
| 19>
| 20> %scf
| 21>   MaxIter 150
| 22> end
| 23>
| 24>
| 25>                          ****END OF INPUT****

CARTESIAN COORDINATES (ANGSTROEM)
---------------------------------
  C      0.648660    1.003590   -3.645600
  N      0.281280    0.676450   -2.240180
  C      0.132970    2.385870   -4.024620
  H      0.390790   -0.319250   -2.026490
  H     -0.692690    0.990100   -2.138120
  H      0.854210    1.212210   -1.575280
  H      0.190990    0.239650   -4.275750
  H      1.731570    0.931730   -3.750750
  H      0.405890    2.603380   -5.036100
  H      0.563420    3.117970   -3.373740
  H     -0.932650    2.407240   -3.930250

 Total Charge           Charge          ....    1
 Multiplicity           Mult            ....    1
 Number of Electrons    NEL             ....   26
 Basis Dimension        Dim             ....  124

ORBITAL ENERGIES
----------------

  NO   OCC          E(Eh)            E(eV)
   0   2.0000     -14.774832      -402.0436
   1   2.0000     -10.545150      -286.9481
   2   2.0000     -10.467715      -284.8410
   3   2.0000      -1.327066       -36.1113
   4   2.0000      -1.076558       -29.2946
   5   2.0000      -0.952755       -25.9258
   6   2.0000      -0.905710       -24.6456
   7   2.0000      -0.898070       -24.4377
   8   2.0000      -0.796289       -21.6681
   9   2.0000      -0.743429       -20.2297
  10   2.0000      -0.682523       -18.5724
  11   2.0000      -0.667993       -18.1770
  12   2.0000      -0.649194       -17.6655
  13   0.0000      -0.111886        -3.0446
  14   0.0000      -0.051370        -1.3979
  15   0.0000      -0.048547        -1.3210
  16   0.0000      -0.045495        -1.2380
  17   0.0000      -0.012657        -0.3444

MULLIKEN ATOMIC CHARGES
-----------------------
   0 C :    0.134741
   1 N :   -0.845399
   2 C :    0.461343
   3 H :    0.367202
   4 H :    0.461245
   5 H :    0.408732
   6 H :   -0.014328
   7 H :   -0.044258
   8 H :    0.021140
   9 H :    0.042707
  10 H :    0.006874
Sum of atomic charges:    1.0000000

LOEWDIN ATOMIC CHARGES
----------------------
   0 C :    0.052471
   1 N :    0.326562
   2 C :    0.167055
   3 H :    0.109454
   4 H :    0.102019
   5 H :    0.111798
   6 H :    0.054400
   7 H :    0.053844
   8 H :    0.017465
   9 H :    0.003643
  10 H :    0.001288

  Mayer bond orders larger than 0.100000
B(  0-C ,  1-N ) :   0.7597 B(  0-C ,  2-C ) :   1.2817 B(  0-C ,  6-H ) :   0.9538
B(  0-C ,  7-H ) :   0.9741 B(  0-C ,  8-H ) :   0.1628 B(  0-C ,  9-H ) :   0.1173
B(  0-C , 10-H ) :   0.1285 B(  1-N ,  3-H ) :   0.7683 B(  1-N ,  4-H ) :   0.6441
B(  1-N ,  5-H ) :   0.7450 B(  2-C ,  8-H ) :   0.8645 B(  2-C ,  9-H ) :   0.8499
B(  2-C , 10-H ) :   0.8662

Dispersion correction           -0.001486574
FINAL SINGLE POINT ENERGY      -135.408891290548

DIPOLE MOMENT
-------------
                                X             Y             Z
Electronic contribution:      0.16921      -1.30893       1.33182
Nuclear contribution   :     -0.22655       0.48066      -0.09136
                        -----------------------------------------
Total Dipole Moment    :     -0.05733      -0.82827       1.24046
                        -----------------------------------------
Magnitude (a.u.)       :      1.49267
Magnitude (Debye)      :      3.79406

Rotational constants in cm-1:     0.998155     0.284845     0.251232
Rotational constants in MHz : 29923.943568  8539.431565  7531.732866

                             ****ORCA TERMINATED NORMALLY****
TOTAL RUN TIME: 0 days 0 hours 0 minutes 5 seconds 551 msec
