                         Program Version 5.0.0 -  RELEASE  -
|  1> !wB97X-D3 RIJCOSX def2-SVPD def2/J TightSCF
|  2> *xyz 0 1
|  3> C          0.13297        2.38587       -4.02462
|  4> C         -1.36646        2.47911       -4.31393
|  5> C         -2.35773        2.30686       -3.13675
|  6> H         -1.63680        1.72709       -5.06399
|  7> H         -1.58235        3.44561       -4.76869
|  8> F         -3.44376        2.84652       -3.25274
|  9> O         -1.97092        1.58304       -2.15123
| 10> H          0.68084        2.52514       -4.93310
| 11> H          0.35823        1.42282       -3.61633
| 12> H          0.40851        3.14443       -3.32208
| 13> *
| 14> %MaxCore 64000
| 15>
| 16> %pal nprocs 18
| 17> end
| 18>
| 19> %scf
| 20>   MaxIter 150
| 21> end
| 22>
| 23>
| 24>                          ****END OF INPUT****

CARTESIAN COORDINATES (ANGSTROEM)
---------------------------------
  C      0.132970    2.385870   -4.024620
  C     -1.366460    2.479110   -4.313930
  C     -2.357730    2.306860   -3.136750
  H     -1.636800    1.727090   -5.063990
  H     -1.582350    3.445610   -4.768690
  F     -3.443760    2.846520   -3.252740
  O     -1.970920    1.583040   -2.151230
  H      0.680840    2.525140   -4.933100
  H      0.358230    1.422820   -3.616330
  H      0.408510    3.144430   -3.322080

 Total Charge           Charge          ....    0
 Multiplicity           Mult            ....    1
 Number of Electrons    NEL             ....   40
 Basis Dimension        Dim             ....  146

ORBITAL ENERGIES
----------------

  NO   OCC          E(Eh)            E(eV)
   0   2.0000     -24.890256      -677.2983
   1   2.0000     -19.251614      -523.8630
   2   2.0000     -10.479960      -285.1742
   3   2.0000     -10.325837      -280.9803
   4   2.0000     -10.292178      -280.0644
   5   2.0000      -1.455359       -39.6023
   6   2.0000      -1.125715       -30.6323
   7   2.0000      -0.909523       -24.7494
   8   2.0000      -0.809328       -22.0229
   9   2.0000      -0.756162       -20.5762
  10   2.0000      -0.676929       -18.4202
  11   2.0000      -0.657219       -17.8838
  12   2.0000      -0.611801       -16.6480
  13   2.0000      -0.570291       -15.5184
  14   2.0000      -0.532646       -14.4940
  15   2.0000      -0.492296       -13.3961
  16   2.0000      -0.472585       -12.8597
  17   2.0000      -0.470057       -12.7909
  18   2.0000      -0.441283       -12.0079
  19   2.0000      -0.387372       -10.5409
  20   0.0000       0.051733         1.4077
  21   0.0000       0.084495         2.2992
  22   0.0000       0.111547         3.0354
  23   0.0000       0.127386         3.4664
  24   0.0000       0.147115         4.0032

MULLIKEN ATOMIC CHARGES
-----------------------
   0 C :    0.565801
   1 C :   -0.527605
   2 C :    0.772200
   3 H :    0.080609
   4 H :    0.042879
   5 F :   -0.333670
   6 O :   -0.536785
   7 H :   -0.020571
   8 H :   -0.017849
   9 H :   -0.025009
Sum of atomic charges:    0.0000000

LOEWDIN ATOMIC CHARGES
----------------------
   0 C :    0.133525
   1 C :   -0.001801
   2 C :    0.000497
   3 H :    0.040923
   4 H :    0.022321
   5 F :   -0.011329
   6 O :   -0.156494
   7 H :   -0.011795
   8 H :   -0.009075
   9 H :   -0.006772

  Mayer bond orders larger than 0.100000
B(  0-C ,  1-C ) :   1.3317 B(  0-C ,  7-H ) :   0.8006 B(  0-C ,  8-H ) :   0.8369
B(  0-C ,  9-H ) :   0.8524 B(  1-C ,  2-C ) :   1.0878 B(  1-C ,  3-H ) :   0.8999
B(  1-C ,  4-H ) :   0.9238 B(  1-C ,  7-H ) :   0.1957 B(  1-C ,  8-H ) :   0.1875
B(  1-C ,  9-H ) :   0.1712 B(  2-C ,  5-F ) :   0.7966 B(  2-C ,  6-O ) :   1.8232

Dispersion correction           -0.001917193
FINAL SINGLE POINT ENERGY      -292.104378146734

DIPOLE MOMENT
-------------
                                X             Y             Z
Electronic contribution:     -8.37237       0.49150       3.54559
Nuclear contribution   :      8.54799       0.05434      -4.66633
                        -----------------------------------------
Total Dipole Moment    :      0.17561       0.54584      -1.12074
                        -----------------------------------------
Magnitude (a.u.)       :      1.25890
Magnitude (Debye)      :      3.19988

Rotational constants in cm-1:     0.325803     0.123345     0.094275
Rotational constants in MHz :  9767.324172  3697.779805  2826.305733

                             ****ORCA TERMINATED NORMALLY****
TOTAL RUN TIME: 0 days 0 hours 0 minutes 7 seconds 489 msec
