                         Program Version 5.0.0 -  RELEASE  -
|  1> !wB97X-D3 RIJCOSX def2-SVPD def2/J TightSCF
|  2> *xyz 0 1
|  3> C          0.64866        1.00359       -3.64560
|  4> C          0.28128        0.67645       -2.24018
|  5> C          0.13297        2.38587       -4.02462
|  6> H          0.39079       -0.31925       -2.02649
|  7> H         -0.69269        0.99010       -2.13812
|  8> H          0.85421        1.21221       -1.57528
|  9> H          0.19099        0.23965       -4.27575
| 10> H          1.73157        0.93173       -3.75075
| 11> H          0.40589        2.60338       -5.03610
| 12> H          0.56342        3.11797       -3.37374
| 13> H         -0.93265        2.40724       -3.93025
| 14> *
| 15> %MaxCore 64000
| 16>
| 17> %pal nprocs 18
| 18> end
| 19>
| 20> %scf
| 21>   MaxIter 150
| 22> end
| 23>
| 24>
| 25>                          ****END OF INPUT****

CARTESIAN COORDINATES (ANGSTROEM)
---------------------------------
  C      0.648660    1.003590   -3.645600
  C      0.281280    0.676450   -2.240180
  C      0.132970    2.385870   -4.024620
  H      0.390790   -0.319250   -2.026490
  H     -0.692690    0.990100   -2.138120
  H      0.854210    1.212210   -1.575280
  H      0.190990    0.239650   -4.275750
  H      1.731570    0.931730   -3.750750
  H      0.405890    2.603380   -5.036100
  H      0.563420    3.117970   -3.373740
  H     -0.932650    2.407240   -3.930250

 Total Charge           Charge          ....    0
 Multiplicity           Mult            ....    1
 Number of Electrons    NEL             ....   26
 Basis Dimension        Dim             ....  124

ORBITAL ENERGIES
----------------

  NO   OCC          E(Eh)            E(eV)
   0   2.0000     -10.275981      -279.6237
   1   2.0000     -10.268351      -279.4160
   2   2.0000     -10.249540      -278.9042
   3   2.0000      -0.904234       -24.6055
   4   2.0000      -0.796371       -21.6704
   5   2.0000      -0.690144       -18.7798
   6   2.0000      -0.571058       -15.5393
   7   2.0000      -0.551368       -15.0035
   8   2.0000      -0.500878       -13.6296
   9   2.0000      -0.483837       -13.1659
  10   2.0000      -0.432746       -11.7756
  11   2.0000      -0.428769       -11.6674
  12   2.0000      -0.420558       -11.4440
  13   0.0000       0.098261         2.6738
  14   0.0000       0.124374         3.3844
  15   0.0000       0.131778         3.5859
  16   0.0000       0.163031         4.4363
  17   0.0000       0.180884         4.9221

MULLIKEN ATOMIC CHARGES
-----------------------
   0 C :   -0.621767
   1 C :    0.880456
   2 C :    0.534983
   3 H :   -0.203315
   4 H :   -0.158989
   5 H :   -0.145512
   6 H :   -0.054483
   7 H :   -0.101164
   8 H :   -0.080268
   9 H :   -0.028146
  10 H :   -0.021793
Sum of atomic charges:   -0.0000000

LOEWDIN ATOMIC CHARGES
----------------------
   0 C :   -0.122610
   1 C :    0.110608
   2 C :    0.110384
   3 H :   -0.031622
   4 H :   -0.032832
   5 H :   -0.026979
   6 H :    0.021693
   7 H :    0.020471
   8 H :   -0.020355
   9 H :   -0.012899
  10 H :   -0.015860

  Mayer bond orders larger than 0.100000
B(  0-C ,  1-C ) :   1.2257 B(  0-C ,  2-C ) :   1.2248 B(  0-C ,  3-H ) :   0.1794
B(  0-C ,  4-H ) :   0.2286 B(  0-C ,  5-H ) :   0.2087 B(  0-C ,  6-H ) :   0.9543
B(  0-C ,  7-H ) :   0.9958 B(  0-C ,  8-H ) :   0.1630 B(  0-C ,  9-H ) :   0.1595
B(  0-C , 10-H ) :   0.1450 B(  1-C ,  3-H ) :   0.7848 B(  1-C ,  4-H ) :   0.7554
B(  1-C ,  5-H ) :   0.7350 B(  2-C ,  8-H ) :   0.8683 B(  2-C ,  9-H ) :   0.8515
B(  2-C , 10-H ) :   0.8584 B(  4-H ,  5-H ) :   0.1157

Dispersion correction           -0.001434332
FINAL SINGLE POINT ENERGY      -119.012504434727

DIPOLE MOMENT
-------------
                                X             Y             Z
Electronic contribution:      0.25856      -0.28004      -0.24302
Nuclear contribution   :     -0.24754       0.26111       0.24628
                        -----------------------------------------
Total Dipole Moment    :      0.01102      -0.01892       0.00326
                        -----------------------------------------
Magnitude (a.u.)       :      0.02214
Magnitude (Debye)      :      0.05628

Rotational constants in cm-1:     1.006509     0.299509     0.263145
Rotational constants in MHz : 30174.379724  8979.049324  7888.875355

                             ****ORCA TERMINATED NORMALLY****
TOTAL RUN TIME: 0 days 0 hours 0 minutes 5 seconds 727 msec
