                         Program Version 5.0.0 -  RELEASE  -
|  1> !wB97X-D3 RIJCOSX def2-SVPD def2/J TightSCF
|  2> *xyz 0 1
|  3> C          0.13297        2.38587       -4.02462
|  4> C         -1.36646        2.47911       -4.31393
|  5> C         -2.35773        2.30686       -3.13675
|  6> H         -1.63680        1.72709       -5.06399
|  7> H         -1.58235        3.44561       -4.76869
|  8> O         -3.44376        2.84652       -3.25274
|  9> F         -1.97092        1.58304       -2.15123
| 10> H          0.68084        2.52514       -4.93310
| 11> H          0.35823        1.42282       -3.61633
| 12> H          0.40851        3.14443       -3.32208
| 13> *
| 14> %MaxCore 64000
| 15>
| 16> %pal nprocs 18
| 17> end
| 18>
| 19> %scf
| 20>   MaxIter 150
| 21> end
| 22>
| 23>
| 24>                          ****END OF INPUT****

CARTESIAN COORDINATES (ANGSTROEM)
---------------------------------
  C      0.132970    2.385870   -4.024620
  C     -1.366460    2.479110   -4.313930
  C     -2.357730    2.306860   -3.136750
  H     -1.636800    1.727090   -5.063990
  H     -1.582350    3.445610   -4.768690
  O     -3.443760    2.846520   -3.252740
  F     -1.970920    1.583040   -2.151230
  H      0.680840    2.525140   -4.933100
  H      0.358230    1.422820   -3.616330
  H      0.408510    3.144430   -3.322080

 Total Charge           Charge          ....    0
 Multiplicity           Mult            ....    1
 Number of Electrons    NEL             ....   40
 Basis Dimension        Dim             ....  146

ORBITAL ENERGIES
----------------

  NO   OCC          E(Eh)            E(eV)
   0   2.0000     -24.866394      -676.6490
   1   2.0000     -19.260952      -524.1172
   2   2.0000     -10.474651      -285.0297
   3   2.0000     -10.324166      -280.9348
   4   2.0000     -10.297315      -280.2042
   5   2.0000      -1.406215       -38.2651
   6   2.0000      -1.166210       -31.7342
   7   2.0000      -0.911967       -24.8159
   8   2.0000      -0.790080       -21.4992
   9   2.0000      -0.747188       -20.3320
  10   2.0000      -0.650596       -17.7036
  11   2.0000      -0.644944       -17.5498
  12   2.0000      -0.601455       -16.3664
  13   2.0000      -0.570059       -15.5121
  14   2.0000      -0.535744       -14.5783
  15   2.0000      -0.508546       -13.8382
  16   2.0000      -0.491467       -13.3735
  17   2.0000      -0.473217       -12.8769
  18   2.0000      -0.452964       -12.3258
  19   2.0000      -0.397587       -10.8189
  20   0.0000       0.056975         1.5504
  21   0.0000       0.082380         2.2417
  22   0.0000       0.116238         3.1630
  23   0.0000       0.124790         3.3957
  24   0.0000       0.147210         4.0058

MULLIKEN ATOMIC CHARGES
-----------------------
   0 C :    0.582606
   1 C :   -0.529472
   2 C :    0.765301
   3 H :    0.079617
   4 H :    0.033076
   5 O :   -0.441844
   6 F :   -0.422458
   7 H :   -0.021130
   8 H :   -0.023573
   9 H :   -0.022122
Sum of atomic charges:   -0.0000000

LOEWDIN ATOMIC CHARGES
----------------------
   0 C :    0.122393
   1 C :    0.008714
   2 C :    0.004793
   3 H :    0.041958
   4 H :    0.032328
   5 O :   -0.120771
   6 F :   -0.053930
   7 H :   -0.011753
   8 H :   -0.013872
   9 H :   -0.009861

  Mayer bond orders larger than 0.100000
B(  0-C ,  1-C ) :   1.2970 B(  0-C ,  7-H ) :   0.7982 B(  0-C ,  8-H ) :   0.8391
B(  0-C ,  9-H ) :   0.8542 B(  1-C ,  2-C ) :   1.0501 B(  1-C ,  3-H ) :   0.9026
B(  1-C ,  4-H ) :   0.9634 B(  1-C ,  7-H ) :   0.2066 B(  1-C ,  8-H ) :   0.1725
B(  1-C ,  9-H ) :   0.1612 B(  2-C ,  4-H ) :   0.1142 B(  2-C ,  5-O ) :   1.8779
B(  2-C ,  6-F ) :   0.7285

Dispersion correction           -0.001886654
FINAL SINGLE POINT ENERGY      -292.121922019395

DIPOLE MOMENT
-------------
                                X             Y             Z
Electronic contribution:     -5.87204      -1.63168       5.38321
Nuclear contribution   :      6.94213       1.43193      -5.86732
                        -----------------------------------------
Total Dipole Moment    :      1.07009      -0.19975      -0.48411
                        -----------------------------------------
Magnitude (a.u.)       :      1.19137
Magnitude (Debye)      :      3.02822

Rotational constants in cm-1:     0.306336     0.129048     0.095707
Rotational constants in MHz :  9183.725605  3868.769583  2869.236577

                             ****ORCA TERMINATED NORMALLY****
TOTAL RUN TIME: 0 days 0 hours 0 minutes 7 seconds 146 msec
