                         Program Version 5.0.0 -  RELEASE  -
|  1> !LC-BLYP RIJCOSX def2-SVPD def2/J TightSCF
|  2> *xyz -1 1
|  3> C         -0.77894        0.17197        1.80496
|  4> C         -0.60249       -0.63071        0.49224
|  5> H          0.31389       -1.24035        0.60350
|  6> H         -0.36383        0.11332       -0.30117
|  7> O         -1.71206       -1.37684        0.20253
|  8> H         -1.65864        0.77733        1.73736
|  9> H          0.07466        0.79896        1.95712
| 10> H         -0.87474       -0.50584        2.62734
| 11> *
| 12> %MaxCore 64000
| 13>
| 14> %pal nprocs 4
| 15> end
| 16>
| 17> %scf
| 18>   MaxIter 150
| 19> end
| 20>
| 21>
| 22>                          ****END OF INPUT****

CARTESIAN COORDINATES (ANGSTROEM)
---------------------------------
  C     -0.778940    0.171970    1.804960
  C     -0.602490   -0.630710    0.492240
  H      0.313890   -1.240350    0.603500
  H     -0.363830    0.113320   -0.301170
  O     -1.712060   -1.376840    0.202530
  H     -1.658640    0.777330    1.737360
  H      0.074660    0.798960    1.957120
  H     -0.874740   -0.505840    2.627340

 Total Charge           Charge          ....   -1
 Multiplicity           Mult            ....    1
 Number of Electrons    NEL             ....   26
 Basis Dimension        Dim             ....  103

ORBITAL ENERGIES
----------------

  NO   OCC          E(Eh)            E(eV)
   0   2.0000     -18.622942      -506.7560
   1   2.0000      -9.901526      -269.4342
   2   2.0000      -9.877258      -268.7739
   3   2.0000      -0.767276       -20.8786
   4   2.0000      -0.625829       -17.0297
   5   2.0000      -0.475053       -12.9268
   6   2.0000      -0.357398        -9.7253
   7   2.0000      -0.330540        -8.9945
   8   2.0000      -0.275630        -7.5003
   9   2.0000      -0.258308        -7.0289
  10   2.0000      -0.212116        -5.7720
  11   2.0000      -0.065577        -1.7845
  12   2.0000      -0.064388        -1.7521
  13   0.0000       0.229840         6.2543
  14   0.0000       0.261119         7.1054
  15   0.0000       0.300097         8.1661
  16   0.0000       0.312823         8.5124
  17   0.0000       0.328572         8.9409

MULLIKEN ATOMIC CHARGES
-----------------------
   0 C :    0.527969
   1 C :    0.167488
   2 H :   -0.222893
   3 H :   -0.195389
   4 O :   -0.808474
   5 H :   -0.166447
   6 H :   -0.137649
   7 H :   -0.164606
Sum of atomic charges:   -1.0000000

LOEWDIN ATOMIC CHARGES
----------------------
   0 C :    0.052666
   1 C :   -0.282476
   2 H :   -0.028473
   3 H :   -0.026391
   4 O :   -0.577322
   5 H :   -0.039558
   6 H :   -0.057268
   7 H :   -0.041177

  Mayer bond orders larger than 0.100000
B(  0-C ,  1-C ) :   1.1537 B(  0-C ,  2-H ) :   0.1319 B(  0-C ,  3-H ) :   0.1358
B(  0-C ,  4-O ) :   0.1122 B(  0-C ,  5-H ) :   0.8659 B(  0-C ,  6-H ) :   0.8608
B(  0-C ,  7-H ) :   0.8678 B(  1-C ,  2-H ) :   0.9635 B(  1-C ,  3-H ) :   0.9536
B(  1-C ,  4-O ) :   1.2653 B(  1-C ,  5-H ) :   0.1984 B(  1-C ,  6-H ) :   0.1450
B(  1-C ,  7-H ) :   0.1870

FINAL SINGLE POINT ENERGY      -153.940870454576

DIPOLE MOMENT
-------------
                                X             Y             Z
Electronic contribution:     -1.49357      -1.74114      -1.44121
Nuclear contribution   :      2.47835       2.80827       2.30058
                        -----------------------------------------
Total Dipole Moment    :      0.98478       1.06713       0.85937
                        -----------------------------------------
Magnitude (a.u.)       :      1.68733
Magnitude (Debye)      :      4.28886

Rotational constants in cm-1:     1.255775     0.327783     0.287473
Rotational constants in MHz : 37647.186859  9826.677683  8618.224821

                             ****ORCA TERMINATED NORMALLY****
TOTAL RUN TIME: 0 days 0 hours 0 minutes 11 seconds 884 msec
