                         Program Version 5.0.0 -  RELEASE  -
|  1> !LC-BLYP RIJCOSX def2-SVPD def2/J TightSCF
|  2> *xyz 1 1
|  3> C         -2.12050        0.88520        1.78951
|  4> C         -0.77894        0.17197        1.80496
|  5> H         -2.32419        1.47265        2.68608
|  6> H         -2.18770        1.54127        0.91948
|  7> N         -3.17690       -0.15948        1.61070
|  8> H         -4.06474        0.23127        1.28675
|  9> H         -3.34407       -0.67151        2.48493
| 10> H         -2.71686       -0.78189        0.93588
| 11> H         -0.65708       -0.37837        0.89547
| 12> H         -0.74207       -0.50050        2.63642
| 13> H          0.00707        0.89251        1.89389
| 14> *
| 15> %MaxCore 64000
| 16>
| 17> %pal nprocs 4
| 18> end
| 19>
| 20> %scf
| 21>   MaxIter 150
| 22> end
| 23>
| 24>
| 25>                          ****END OF INPUT****

CARTESIAN COORDINATES (ANGSTROEM)
---------------------------------
  C     -2.120500    0.885200    1.789510
  C     -0.778940    0.171970    1.804960
  H     -2.324190    1.472650    2.686080
  H     -2.187700    1.541270    0.919480
  N     -3.176900   -0.159480    1.610700
  H     -4.064740    0.231270    1.286750
  H     -3.344070   -0.671510    2.484930
  H     -2.716860   -0.781890    0.935880
  H     -0.657080   -0.378370    0.895470
  H     -0.742070   -0.500500    2.636420
  H      0.007070    0.892510    1.893890

 Total Charge           Charge          ....    1
 Multiplicity           Mult            ....    1
 Number of Electrons    NEL             ....   26
 Basis Dimension        Dim             ....  124

ORBITAL ENERGIES
----------------

  NO   OCC          E(Eh)            E(eV)
   0   2.0000     -14.519716      -395.1016
   1   2.0000     -10.341231      -281.3992
   2   2.0000     -10.266223      -279.3581
   3   2.0000      -1.310369       -35.6569
   4   2.0000      -1.071510       -29.1573
   5   2.0000      -0.950934       -25.8762
   6   2.0000      -0.909556       -24.7503
   7   2.0000      -0.898050       -24.4372
   8   2.0000      -0.795715       -21.6525
   9   2.0000      -0.748283       -20.3618
  10   2.0000      -0.686521       -18.6812
  11   2.0000      -0.678371       -18.4594
  12   2.0000      -0.654848       -17.8193
  13   0.0000      -0.130443        -3.5495
  14   0.0000      -0.071111        -1.9350
  15   0.0000      -0.068048        -1.8517
  16   0.0000      -0.064200        -1.7470
  17   0.0000      -0.031383        -0.8540

MULLIKEN ATOMIC CHARGES
-----------------------
   0 C :    0.362089
   1 C :    0.819655
   2 H :   -0.208592
   3 H :   -0.110537
   4 N :   -0.620113
   5 H :    0.290158
   6 H :    0.337777
   7 H :    0.411271
   8 H :   -0.093777
   9 H :   -0.033756
  10 H :   -0.154174
Sum of atomic charges:    1.0000000

LOEWDIN ATOMIC CHARGES
----------------------
   0 C :    0.041181
   1 C :    0.157601
   2 H :    0.059141
   3 H :    0.059771
   4 N :    0.333360
   5 H :    0.109635
   6 H :    0.112805
   7 H :    0.090302
   8 H :    0.005033
   9 H :    0.009682
  10 H :    0.021489

  Mayer bond orders larger than 0.100000
B(  0-C ,  1-C ) :   1.2796 B(  0-C ,  2-H ) :   0.9252 B(  0-C ,  3-H ) :   0.8667
B(  0-C ,  4-N ) :   0.8892 B(  0-C ,  8-H ) :   0.1634 B(  0-C ,  9-H ) :   0.1430
B(  0-C , 10-H ) :   0.2049 B(  1-C ,  8-H ) :   0.8047 B(  1-C ,  9-H ) :   0.7855
B(  1-C , 10-H ) :   0.8160 B(  2-H ,  4-N ) :   0.1050 B(  4-N ,  5-H ) :   0.8411
B(  4-N ,  6-H ) :   0.8348 B(  4-N ,  7-H ) :   0.6889

FINAL SINGLE POINT ENERGY      -135.042299976150

DIPOLE MOMENT
-------------
                                X             Y             Z
Electronic contribution:     -1.82958      -0.15518      -0.05873
Nuclear contribution   :      0.50278      -0.30871      -0.06979
                        -----------------------------------------
Total Dipole Moment    :     -1.32679      -0.46389      -0.12851
                        -----------------------------------------
Magnitude (a.u.)       :      1.41142
Magnitude (Debye)      :      3.58753

Rotational constants in cm-1:     0.963746     0.295157     0.256910
Rotational constants in MHz : 28892.375247  8848.576767  7701.963879

                             ****ORCA TERMINATED NORMALLY****
TOTAL RUN TIME: 0 days 0 hours 0 minutes 12 seconds 545 msec
