                         Program Version 5.0.0 -  RELEASE  -
|  1> !LC-BLYP RIJCOSX def2-SVPD def2/J TightSCF
|  2> *xyz 0 1
|  3> C         -0.77894        0.17197        1.80496
|  4> C         -0.60249       -0.63071        0.49224
|  5> H          0.31389       -1.24035        0.60350
|  6> H         -0.36383        0.11332       -0.30117
|  7> F         -1.71206       -1.37684        0.20253
|  8> H         -1.65864        0.77733        1.73736
|  9> H          0.07466        0.79896        1.95712
| 10> H         -0.87474       -0.50584        2.62734
| 11> *
| 12> %MaxCore 64000
| 13>
| 14> %pal nprocs 4
| 15> end
| 16>
| 17> %scf
| 18>   MaxIter 150
| 19> end
| 20>
| 21>
| 22>                          ****END OF INPUT****

CARTESIAN COORDINATES (ANGSTROEM)
---------------------------------
  C     -0.778940    0.171970    1.804960
  C     -0.602490   -0.630710    0.492240
  H      0.313890   -1.240350    0.603500
  H     -0.363830    0.113320   -0.301170
  F     -1.712060   -1.376840    0.202530
  H     -1.658640    0.777330    1.737360
  H      0.074660    0.798960    1.957120
  H     -0.874740   -0.505840    2.627340

 Total Charge           Charge          ....    0
 Multiplicity           Mult            ....    1
 Number of Electrons    NEL             ....   26
 Basis Dimension        Dim             ....  103

ORBITAL ENERGIES
----------------

  NO   OCC          E(Eh)            E(eV)
   0   2.0000     -24.465081      -665.7287
   1   2.0000     -10.167744      -276.6784
   2   2.0000     -10.083026      -274.3731
   3   2.0000      -1.266852       -34.4728
   4   2.0000      -0.867209       -23.5979
   5   2.0000      -0.735652       -20.0181
   6   2.0000      -0.617023       -16.7900
   7   2.0000      -0.605517       -16.4770
   8   2.0000      -0.564610       -15.3638
   9   2.0000      -0.507737       -13.8162
  10   2.0000      -0.502785       -13.6815
  11   2.0000      -0.436424       -11.8757
  12   2.0000      -0.431590       -11.7442
  13   0.0000       0.073987         2.0133
  14   0.0000       0.104467         2.8427
  15   0.0000       0.134180         3.6512
  16   0.0000       0.139665         3.8005
  17   0.0000       0.168796         4.5932

MULLIKEN ATOMIC CHARGES
-----------------------
   0 C :    0.587286
   1 C :    0.467507
   2 H :   -0.146408
   3 H :   -0.119738
   4 F :   -0.370490
   5 H :   -0.150111
   6 H :   -0.122848
   7 H :   -0.145198
Sum of atomic charges:   -0.0000000

LOEWDIN ATOMIC CHARGES
----------------------
   0 C :    0.126471
   1 C :    0.036307
   2 H :    0.033799
   3 H :    0.036923
   4 F :   -0.198156
   5 H :   -0.011403
   6 H :   -0.011222
   7 H :   -0.012718

  Mayer bond orders larger than 0.100000
B(  0-C ,  1-C ) :   1.3082 B(  0-C ,  5-H ) :   0.8478 B(  0-C ,  6-H ) :   0.8202
B(  0-C ,  7-H ) :   0.8527 B(  1-C ,  2-H ) :   0.9218 B(  1-C ,  3-H ) :   0.9164
B(  1-C ,  4-F ) :   0.8660 B(  1-C ,  5-H ) :   0.1641 B(  1-C ,  6-H ) :   0.1351
B(  1-C ,  7-H ) :   0.1538

FINAL SINGLE POINT ENERGY      -178.539394194795

DIPOLE MOMENT
-------------
                                X             Y             Z
Electronic contribution:     -2.69832      -3.26431      -2.81390
Nuclear contribution   :      3.27800       3.70743       3.04146
                        -----------------------------------------
Total Dipole Moment    :      0.57968       0.44312       0.22756
                        -----------------------------------------
Magnitude (a.u.)       :      0.76431
Magnitude (Debye)      :      1.94272

Rotational constants in cm-1:     1.234437     0.305084     0.268865
Rotational constants in MHz : 37007.496448  9146.194083  8060.380630

                             ****ORCA TERMINATED NORMALLY****
TOTAL RUN TIME: 0 days 0 hours 0 minutes 5 seconds 888 msec
