                         Program Version 5.0.0 -  RELEASE  -
|  1> !LC-BLYP RIJCOSX def2-SVPD def2/J TightSCF
|  2> *xyz 0 1
|  3> C         -2.12050        0.88520        1.78951
|  4> C         -0.77894        0.17197        1.80496
|  5> H         -2.32419        1.47265        2.68608
|  6> H         -2.18770        1.54127        0.91948
|  7> C         -3.17690       -0.15948        1.61070
|  8> H         -4.06474        0.23127        1.28675
|  9> H         -3.34407       -0.67151        2.48493
| 10> H         -2.71686       -0.78189        0.93588
| 11> H         -0.65708       -0.37837        0.89547
| 12> H         -0.74207       -0.50050        2.63642
| 13> H          0.00707        0.89251        1.89389
| 14> *
| 15> %MaxCore 64000
| 16>
| 17> %pal nprocs 4
| 18> end
| 19>
| 20> %scf
| 21>   MaxIter 150
| 22> end
| 23>
| 24>
| 25>                          ****END OF INPUT****

CARTESIAN COORDINATES (ANGSTROEM)
---------------------------------
  C     -2.120500    0.885200    1.789510
  C     -0.778940    0.171970    1.804960
  H     -2.324190    1.472650    2.686080
  H     -2.187700    1.541270    0.919480
  C     -3.176900   -0.159480    1.610700
  H     -4.064740    0.231270    1.286750
  H     -3.344070   -0.671510    2.484930
  H     -2.716860   -0.781890    0.935880
  H     -0.657080   -0.378370    0.895470
  H     -0.742070   -0.500500    2.636420
  H      0.007070    0.892510    1.893890

 Total Charge           Charge          ....    0
 Multiplicity           Mult            ....    1
 Number of Electrons    NEL             ....   26
 Basis Dimension        Dim             ....  124

ORBITAL ENERGIES
----------------

  NO   OCC          E(Eh)            E(eV)
   0   2.0000     -10.072424      -274.0846
   1   2.0000     -10.064539      -273.8700
   2   2.0000     -10.046478      -273.3786
   3   2.0000      -0.900804       -24.5121
   4   2.0000      -0.788791       -21.4641
   5   2.0000      -0.689014       -18.7490
   6   2.0000      -0.579847       -15.7784
   7   2.0000      -0.559510       -15.2250
   8   2.0000      -0.502155       -13.6643
   9   2.0000      -0.485452       -13.2098
  10   2.0000      -0.439756       -11.9664
  11   2.0000      -0.431373       -11.7383
  12   2.0000      -0.425036       -11.5658
  13   0.0000       0.079761         2.1704
  14   0.0000       0.105137         2.8609
  15   0.0000       0.111795         3.0421
  16   0.0000       0.143497         3.9048
  17   0.0000       0.161382         4.3914

MULLIKEN ATOMIC CHARGES
-----------------------
   0 C :   -0.320074
   1 C :    0.783431
   2 H :   -0.244136
   3 H :   -0.121701
   4 C :    1.212933
   5 H :   -0.374366
   6 H :   -0.249416
   7 H :   -0.264851
   8 H :   -0.087558
   9 H :   -0.099884
  10 H :   -0.234378
Sum of atomic charges:   -0.0000000

LOEWDIN ATOMIC CHARGES
----------------------
   0 C :   -0.126647
   1 C :    0.097674
   2 H :    0.025012
   3 H :    0.027190
   4 C :    0.107522
   5 H :   -0.030281
   6 H :   -0.023831
   7 H :   -0.038890
   8 H :   -0.012764
   9 H :   -0.007259
  10 H :   -0.017728

  Mayer bond orders larger than 0.100000
B(  0-C ,  1-C ) :   1.2511 B(  0-C ,  2-H ) :   0.9531 B(  0-C ,  3-H ) :   0.8705
B(  0-C ,  4-C ) :   1.2256 B(  0-C ,  5-H ) :   0.2092 B(  0-C ,  6-H ) :   0.2339
B(  0-C ,  7-H ) :   0.2800 B(  0-C ,  8-H ) :   0.1606 B(  0-C ,  9-H ) :   0.1727
B(  0-C , 10-H ) :   0.2031 B(  1-C ,  8-H ) :   0.8136 B(  1-C ,  9-H ) :   0.7846
B(  1-C , 10-H ) :   0.8009 B(  4-C ,  5-H ) :   0.6582 B(  4-C ,  6-H ) :   0.6229
B(  4-C ,  7-H ) :   0.6537 B(  6-H ,  7-H ) :   0.1034

FINAL SINGLE POINT ENERGY      -118.647884669181

DIPOLE MOMENT
-------------
                                X             Y             Z
Electronic contribution:     -0.14095       0.47648       0.11329
Nuclear contribution   :      0.13334      -0.45108      -0.10852
                        -----------------------------------------
Total Dipole Moment    :     -0.00761       0.02540       0.00478
                        -----------------------------------------
Magnitude (a.u.)       :      0.02694
Magnitude (Debye)      :      0.06848

Rotational constants in cm-1:     0.972269     0.310387     0.269029
Rotational constants in MHz : 29147.878530  9305.178981  8065.286472

                             ****ORCA TERMINATED NORMALLY****
TOTAL RUN TIME: 0 days 0 hours 0 minutes 12 seconds 266 msec
