                         Program Version 5.0.0 -  RELEASE  -
|  1> !LC-BLYP RIJCOSX def2-SVPD def2/J TightSCF xyzfile
|  2>
|  3> *xyzfile 0 1 D.xyz
|  4>
|  5> %MaxCore 64000
|  6>
|  7> %pal nprocs 4
|  8> end
|  9>
| 10> %scf
| 11>   MaxIter 150
| 12> end
| 13>
| 14>
| 15>                          ****END OF INPUT****

CARTESIAN COORDINATES (ANGSTROEM)
---------------------------------
  C     -2.120502    0.885196    1.789506
  C     -0.778939    0.171966    1.804965
  H     -2.324193    1.472649    2.686078
  H     -2.187698    1.541272    0.919482
  C     -3.176900   -0.159484    1.610700
  H      0.015695    0.910767    1.939153
  H     -0.743553   -0.506827    2.665420
  C     -0.602493   -0.630712    0.492240
  H      0.313894   -1.240346    0.603498
  H     -0.363829    0.113322   -0.301169
  F     -1.712061   -1.376836    0.202535
  H     -4.064736    0.231272    1.286754
  H     -3.344073   -0.671511    2.484928
  H     -2.716861   -0.781886    0.935880

 Total Charge           Charge          ....    0
 Multiplicity           Mult            ....    1
 Number of Electrons    NEL             ....   42
 Basis Dimension        Dim             ....  175

ORBITAL ENERGIES
----------------

  NO   OCC          E(Eh)            E(eV)
   0   2.0000     -24.482125      -666.1925
   1   2.0000     -10.174381      -276.8590
   2   2.0000     -10.090964      -274.5891
   3   2.0000     -10.070677      -274.0370
   4   2.0000     -10.010297      -272.3940
   5   2.0000      -1.298810       -35.3424
   6   2.0000      -0.911688       -24.8083
   7   2.0000      -0.838996       -22.8302
   8   2.0000      -0.740135       -20.1401
   9   2.0000      -0.698469       -19.0063
  10   2.0000      -0.638668       -17.3790
  11   2.0000      -0.635755       -17.2998
  12   2.0000      -0.593820       -16.1587
  13   2.0000      -0.545288       -14.8380
  14   2.0000      -0.516840       -14.0639
  15   2.0000      -0.507598       -13.8124
  16   2.0000      -0.481532       -13.1031
  17   2.0000      -0.445090       -12.1115
  18   2.0000      -0.428395       -11.6572
  19   2.0000      -0.421433       -11.4678
  20   2.0000      -0.372882       -10.1466
  21   0.0000       0.072702         1.9783
  22   0.0000       0.098872         2.6904
  23   0.0000       0.101575         2.7640
  24   0.0000       0.107569         2.9271
  25   0.0000       0.139708         3.8016

MULLIKEN ATOMIC CHARGES
-----------------------
   0 C :   -0.049092
   1 C :    0.203142
   2 H :   -0.372559
   3 H :   -0.072814
   4 C :    2.226701
   5 H :   -0.254656
   6 H :   -0.043405
   7 C :    0.849536
   8 H :   -0.159219
   9 H :   -0.060379
  10 F :   -0.530561
  11 H :   -0.253429
  12 H :   -0.166356
  13 H :   -1.316909
Sum of atomic charges:    0.0000000

LOEWDIN ATOMIC CHARGES
----------------------
   0 C :   -0.070825
   1 C :   -0.029491
   2 H :    0.022806
   3 H :    0.030905
   4 C :    0.135754
   5 H :    0.030498
   6 H :    0.036540
   7 C :    0.129912
   8 H :    0.039647
   9 H :    0.048743
  10 F :   -0.165780
  11 H :   -0.025829
  12 H :   -0.018397
  13 H :   -0.164483

  Mayer bond orders larger than 0.100000
B(  0-C ,  1-C ) :   1.1469 B(  0-C ,  2-H ) :   0.9782 B(  0-C ,  3-H ) :   0.8222
B(  0-C ,  4-C ) :   0.9869 B(  0-C ,  5-H ) :   0.1010 B(  0-C , 11-H ) :   0.2118
B(  0-C , 12-H ) :   0.2728 B(  0-C , 13-H ) :   0.4649 B(  1-C ,  4-C ) :   0.1085
B(  1-C ,  5-H ) :   0.9074 B(  1-C ,  6-H ) :   0.8333 B(  1-C ,  7-C ) :   1.2115
B(  1-C ,  8-H ) :   0.1308 B(  1-C ,  9-H ) :   0.1258 B(  2-H ,  3-H ) :  -0.1162
B(  3-H ,  4-C ) :   0.1139 B(  4-C , 10-F ) :  -0.1769 B(  4-C , 11-H ) :   0.3533
B(  4-C , 12-H ) :   0.1595 B(  4-C , 13-H ) :  -0.9529 B(  5-H ,  7-C ) :   0.1165
B(  7-C ,  8-H ) :   0.8355 B(  7-C ,  9-H ) :   0.8473 B(  7-C , 10-F ) :   0.7411
B( 10-F , 13-H ) :   0.4134 B( 11-H , 12-H ) :  -0.1519 B( 11-H , 13-H ) :   0.3018
B( 12-H , 13-H ) :   0.5540

FINAL SINGLE POINT ENERGY      -256.816118998082

DIPOLE MOMENT
-------------
                                X             Y             Z
Electronic contribution:      0.92390      -4.17413      -3.72566
Nuclear contribution   :     -0.20666       4.43855       3.76066
                        -----------------------------------------
Total Dipole Moment    :      0.71723       0.26442       0.03500
                        -----------------------------------------
Magnitude (a.u.)       :      0.76522
Magnitude (Debye)      :      1.94504

Rotational constants in cm-1:     0.236353     0.155239     0.105045
Rotational constants in MHz :  7085.692869  4653.957069  3149.180346

                             ****ORCA TERMINATED NORMALLY****
TOTAL RUN TIME: 0 days 0 hours 0 minutes 24 seconds 624 msec
