                         Program Version 5.0.0 -  RELEASE  -
|  1> !M062X D3Zero RIJCOSX def2-SVPD def2/J TightSCF
|  2> *xyz -1 1
|  3> C          0.13297        2.38587       -4.02462
|  4> C         -1.36646        2.47911       -4.31393
|  5> C         -2.35773        2.30686       -3.13675
|  6> H         -1.63680        1.72709       -5.06399
|  7> H         -1.58235        3.44561       -4.76869
|  8> O         -3.44376        2.84652       -3.25274
|  9> O         -1.97092        1.58304       -2.15123
| 10> H          0.68084        2.52514       -4.93310
| 11> H          0.35823        1.42282       -3.61633
| 12> H          0.40851        3.14443       -3.32208
| 13> *
| 14> %MaxCore 64000
| 15>
| 16> %pal nprocs 4
| 17> end
| 18>
| 19> %scf
| 20>   MaxIter 150
| 21> end
| 22>
| 23>
| 24>                          ****END OF INPUT****

CARTESIAN COORDINATES (ANGSTROEM)
---------------------------------
  C      0.132970    2.385870   -4.024620
  C     -1.366460    2.479110   -4.313930
  C     -2.357730    2.306860   -3.136750
  H     -1.636800    1.727090   -5.063990
  H     -1.582350    3.445610   -4.768690
  O     -3.443760    2.846520   -3.252740
  O     -1.970920    1.583040   -2.151230
  H      0.680840    2.525140   -4.933100
  H      0.358230    1.422820   -3.616330
  H      0.408510    3.144430   -3.322080

 Total Charge           Charge          ....   -1
 Multiplicity           Mult            ....    1
 Number of Electrons    NEL             ....   40
 Basis Dimension        Dim             ....  146

ORBITAL ENERGIES
----------------

  NO   OCC          E(Eh)            E(eV)
   0   2.0000     -19.378062      -527.3039
   1   2.0000     -19.367471      -527.0157
   2   2.0000     -10.439043      -284.0608
   3   2.0000     -10.386149      -282.6215
   4   2.0000     -10.375801      -282.3399
   5   2.0000      -0.937086       -25.4994
   6   2.0000      -0.828944       -22.5567
   7   2.0000      -0.691603       -18.8195
   8   2.0000      -0.553411       -15.0591
   9   2.0000      -0.389665       -10.6033
  10   2.0000      -0.363883        -9.9018
  11   2.0000      -0.335357        -9.1255
  12   2.0000      -0.301980        -8.2173
  13   2.0000      -0.285732        -7.7752
  14   2.0000      -0.281745        -7.6667
  15   2.0000      -0.246717        -6.7135
  16   2.0000      -0.229192        -6.2366
  17   2.0000      -0.112483        -3.0608
  18   2.0000      -0.110602        -3.0096
  19   2.0000      -0.103229        -2.8090
  20   0.0000       0.172029         4.6812
  21   0.0000       0.209047         5.6885
  22   0.0000       0.216134         5.8813
  23   0.0000       0.239455         6.5159
  24   0.0000       0.260183         7.0799

MULLIKEN ATOMIC CHARGES
-----------------------
   0 C :    0.649170
   1 C :   -0.411342
   2 C :    0.554721
   3 H :   -0.028033
   4 H :   -0.053551
   5 O :   -0.695811
   6 O :   -0.812782
   7 H :   -0.078818
   8 H :   -0.060319
   9 H :   -0.063235
Sum of atomic charges:   -1.0000000

LOEWDIN ATOMIC CHARGES
----------------------
   0 C :    0.091695
   1 C :   -0.039209
   2 C :   -0.292544
   3 H :    0.011176
   4 H :   -0.002357
   5 O :   -0.314311
   6 O :   -0.355933
   7 H :   -0.044262
   8 H :   -0.029010
   9 H :   -0.025245

  Mayer bond orders larger than 0.100000
B(  0-C ,  1-C ) :   1.2881 B(  0-C ,  7-H ) :   0.7704 B(  0-C ,  8-H ) :   0.8202
B(  0-C ,  9-H ) :   0.8318 B(  1-C ,  2-C ) :   0.9939 B(  1-C ,  3-H ) :   0.9255
B(  1-C ,  4-H ) :   0.9469 B(  1-C ,  7-H ) :   0.2315 B(  1-C ,  8-H ) :   0.2205
B(  1-C ,  9-H ) :   0.1905 B(  2-C ,  4-H ) :   0.1546 B(  2-C ,  5-O ) :   1.4578
B(  2-C ,  6-O ) :   1.3764

Dispersion correction           -0.000092436
FINAL SINGLE POINT ENERGY      -267.532245609316

DIPOLE MOMENT
-------------
                                X             Y             Z
Electronic contribution:     -5.23690      -0.36052       3.17306
Nuclear contribution   :      6.75610       0.63068      -4.53972
                        -----------------------------------------
Total Dipole Moment    :      1.51920       0.27016      -1.36667
                        -----------------------------------------
Magnitude (a.u.)       :      2.06124
Magnitude (Debye)      :      5.23926

Rotational constants in cm-1:     0.335096     0.130241     0.099025
Rotational constants in MHz : 10045.924902  3904.536250  2968.708333

                             ****ORCA TERMINATED NORMALLY****
TOTAL RUN TIME: 0 days 0 hours 0 minutes 17 seconds 82 msec
