                         Program Version 5.0.0 -  RELEASE  -
|  1> !M062X D3Zero RIJCOSX def2-SVPD def2/J TightSCF
|  2> *xyz 1 1
|  3> C          0.64866        1.00359       -3.64560
|  4> N          0.28128        0.67645       -2.24018
|  5> C          0.13297        2.38587       -4.02462
|  6> H          0.39079       -0.31925       -2.02649
|  7> H         -0.69269        0.99010       -2.13812
|  8> H          0.85421        1.21221       -1.57528
|  9> H          0.19099        0.23965       -4.27575
| 10> H          1.73157        0.93173       -3.75075
| 11> H          0.40589        2.60338       -5.03610
| 12> H          0.56342        3.11797       -3.37374
| 13> H         -0.93265        2.40724       -3.93025
| 14> *
| 15> %MaxCore 64000
| 16>
| 17> %pal nprocs 4
| 18> end
| 19>
| 20> %scf
| 21>   MaxIter 150
| 22> end
| 23>
| 24>
| 25>                          ****END OF INPUT****

CARTESIAN COORDINATES (ANGSTROEM)
---------------------------------
  C      0.648660    1.003590   -3.645600
  N      0.281280    0.676450   -2.240180
  C      0.132970    2.385870   -4.024620
  H      0.390790   -0.319250   -2.026490
  H     -0.692690    0.990100   -2.138120
  H      0.854210    1.212210   -1.575280
  H      0.190990    0.239650   -4.275750
  H      1.731570    0.931730   -3.750750
  H      0.405890    2.603380   -5.036100
  H      0.563420    3.117970   -3.373740
  H     -0.932650    2.407240   -3.930250

 Total Charge           Charge          ....    1
 Multiplicity           Mult            ....    1
 Number of Electrons    NEL             ....   26
 Basis Dimension        Dim             ....  124

ORBITAL ENERGIES
----------------

  NO   OCC          E(Eh)            E(eV)
   0   2.0000     -15.096867      -410.8066
   1   2.0000     -10.806689      -294.0650
   2   2.0000     -10.729324      -291.9598
   3   2.0000      -1.314653       -35.7735
   4   2.0000      -1.054718       -28.7003
   5   2.0000      -0.926123       -25.2011
   6   2.0000      -0.876446       -23.8493
   7   2.0000      -0.868827       -23.6420
   8   2.0000      -0.764490       -20.8028
   9   2.0000      -0.711668       -19.3655
  10   2.0000      -0.649319       -17.6689
  11   2.0000      -0.634744       -17.2723
  12   2.0000      -0.616857       -16.7855
  13   0.0000      -0.167472        -4.5571
  14   0.0000      -0.107540        -2.9263
  15   0.0000      -0.103463        -2.8154
  16   0.0000      -0.101726        -2.7681
  17   0.0000      -0.067259        -1.8302

MULLIKEN ATOMIC CHARGES
-----------------------
   0 C :    0.152411
   1 N :   -0.886647
   2 C :    0.528626
   3 H :    0.360014
   4 H :    0.468252
   5 H :    0.411245
   6 H :   -0.030175
   7 H :   -0.062993
   8 H :    0.002576
   9 H :    0.046191
  10 H :    0.010499
Sum of atomic charges:    1.0000000

LOEWDIN ATOMIC CHARGES
----------------------
   0 C :    0.053874
   1 N :    0.322237
   2 C :    0.174079
   3 H :    0.108885
   4 H :    0.101548
   5 H :    0.111448
   6 H :    0.054059
   7 H :    0.053508
   8 H :    0.016740
   9 H :    0.002981
  10 H :    0.000642

  Mayer bond orders larger than 0.100000
B(  0-C ,  1-N ) :   0.7617 B(  0-C ,  2-C ) :   1.3059 B(  0-C ,  6-H ) :   0.9458
B(  0-C ,  7-H ) :   0.9683 B(  0-C ,  8-H ) :   0.1765 B(  0-C ,  9-H ) :   0.1316
B(  0-C , 10-H ) :   0.1452 B(  1-N ,  3-H ) :   0.7575 B(  1-N ,  4-H ) :   0.6160
B(  1-N ,  5-H ) :   0.7267 B(  2-C ,  8-H ) :   0.8569 B(  2-C ,  9-H ) :   0.8354
B(  2-C , 10-H ) :   0.8509

Dispersion correction           -0.000050982
FINAL SINGLE POINT ENERGY      -135.358952075464

DIPOLE MOMENT
-------------
                                X             Y             Z
Electronic contribution:      0.17166      -1.29923       1.31302
Nuclear contribution   :     -0.22655       0.48066      -0.09136
                        -----------------------------------------
Total Dipole Moment    :     -0.05489      -0.81857       1.22166
                        -----------------------------------------
Magnitude (a.u.)       :      1.47157
Magnitude (Debye)      :      3.74044

Rotational constants in cm-1:     0.998155     0.284845     0.251232
Rotational constants in MHz : 29923.943568  8539.431565  7531.732866

                             ****ORCA TERMINATED NORMALLY****
TOTAL RUN TIME: 0 days 0 hours 0 minutes 14 seconds 606 msec
