                         Program Version 5.0.0 -  RELEASE  -
|  1> !M062X D3Zero RIJCOSX def2-SVPD def2/J TightSCF xyzfile
|  2>
|  3> *xyzfile 0 1 B.xyz
|  4>
|  5> %MaxCore 64000
|  6>
|  7> %pal nprocs 4
|  8> end
|  9>
| 10> %scf
| 11>   MaxIter 150
| 12> end
| 13>
| 14>
| 15>                          ****END OF INPUT****

CARTESIAN COORDINATES (ANGSTROEM)
---------------------------------
  C      0.648656    1.003595   -3.645601
  N      0.281280    0.676454   -2.240179
  C      0.132968    2.385869   -4.024618
  C     -1.366462    2.479106   -4.313932
  C     -2.357732    2.306858   -3.136753
  H     -1.636802    1.727095   -5.063993
  H     -1.582347    3.445605   -4.768687
  H      0.390790   -0.319253   -2.026495
  H     -0.692686    0.990104   -2.138123
  H      0.854206    1.212214   -1.575279
  O     -3.443763    2.846518   -3.252744
  O     -1.970922    1.583042   -2.151229
  H      0.190993    0.239655   -4.275752
  H      1.731572    0.931729   -3.750751
  H      0.414839    3.102847   -3.245165
  H      0.683167    2.687560   -4.919721

 Total Charge           Charge          ....    0
 Multiplicity           Mult            ....    1
 Number of Electrons    NEL             ....   56
 Basis Dimension        Dim             ....  218

ORBITAL ENERGIES
----------------

  NO   OCC          E(Eh)            E(eV)
   0   2.0000     -19.565504      -532.4044
   1   2.0000     -19.546382      -531.8841
   2   2.0000     -14.871242      -404.6671
   3   2.0000     -10.642136      -289.5872
   4   2.0000     -10.619132      -288.9613
   5   2.0000     -10.581145      -287.9276
   6   2.0000     -10.542673      -286.8807
   7   2.0000      -1.127353       -30.6768
   8   2.0000      -1.105534       -30.0831
   9   2.0000      -1.023502       -27.8509
  10   2.0000      -0.903325       -24.5807
  11   2.0000      -0.802615       -21.8403
  12   2.0000      -0.718848       -19.5608
  13   2.0000      -0.684282       -18.6203
  14   2.0000      -0.669931       -18.2297
  15   2.0000      -0.596491       -16.2313
  16   2.0000      -0.557820       -15.1790
  17   2.0000      -0.552541       -15.0354
  18   2.0000      -0.506720       -13.7886
  19   2.0000      -0.497121       -13.5274
  20   2.0000      -0.462457       -12.5841
  21   2.0000      -0.458441       -12.4748
  22   2.0000      -0.449323       -12.2267
  23   2.0000      -0.427091       -11.6217
  24   2.0000      -0.404258       -11.0004
  25   2.0000      -0.306503        -8.3404
  26   2.0000      -0.300527        -8.1778
  27   2.0000      -0.277654        -7.5554
  28   0.0000      -0.009502        -0.2586
  29   0.0000       0.028993         0.7890
  30   0.0000       0.033390         0.9086
  31   0.0000       0.056034         1.5248
  32   0.0000       0.074678         2.0321

MULLIKEN ATOMIC CHARGES
-----------------------
   0 C :    0.659733
   1 N :   -0.394210
   2 C :    0.077326
   3 C :    0.036330
   4 C :    0.576250
   5 H :    0.118695
   6 H :    0.004347
   7 H :    0.290680
   8 H :   -0.179376
   9 H :    0.438779
  10 O :   -0.619019
  11 O :   -0.699591
  12 H :   -0.006452
  13 H :   -0.202298
  14 H :   -0.061242
  15 H :   -0.039952
Sum of atomic charges:    0.0000000

LOEWDIN ATOMIC CHARGES
----------------------
   0 C :    0.087985
   1 N :    0.308285
   2 C :   -0.017654
   3 C :    0.044359
   4 C :   -0.187539
   5 H :    0.033211
   6 H :    0.025635
   7 H :    0.089417
   8 H :   -0.153212
   9 H :    0.095433
  10 O :   -0.216418
  11 O :   -0.242825
  12 H :    0.043928
  13 H :    0.028874
  14 H :    0.034095
  15 H :    0.026427

  Mayer bond orders larger than 0.100000
B(  0-C ,  1-N ) :   0.8110 B(  0-C ,  2-C ) :   1.1600 B(  0-C , 12-H ) :   0.8642
B(  0-C , 13-H ) :   0.8844 B(  1-N ,  7-H ) :   0.8393 B(  1-N ,  8-H ) :   1.2075
B(  1-N ,  9-H ) :   0.7500 B(  1-N , 13-H ) :   0.1513 B(  2-C ,  3-C ) :   1.1860
B(  2-C ,  5-H ) :   0.1101 B(  2-C ,  6-H ) :   0.1264 B(  2-C , 13-H ) :   0.1167
B(  2-C , 14-H ) :   0.9128 B(  2-C , 15-H ) :   0.8649 B(  3-C ,  4-C ) :   0.9979
B(  3-C ,  5-H ) :   0.8066 B(  3-C ,  6-H ) :   0.9277 B(  3-C , 14-H ) :   0.1007
B(  4-C ,  6-H ) :   0.1186 B(  4-C , 10-O ) :   1.5362 B(  4-C , 11-O ) :   1.1625
B(  8-H , 11-O ) :   0.3835 B( 12-H , 13-H ) :  -0.1262

Dispersion correction           -0.000327361
FINAL SINGLE POINT ENERGY      -362.627235010964

DIPOLE MOMENT
-------------
                                X             Y             Z
Electronic contribution:     -5.77733       0.93407       2.50929
Nuclear contribution   :      9.92875      -2.62114      -2.63866
                        -----------------------------------------
Total Dipole Moment    :      4.15142      -1.68707      -0.12937
                        -----------------------------------------
Magnitude (a.u.)       :      4.48299
Magnitude (Debye)      :     11.39486

Rotational constants in cm-1:     0.159108     0.062474     0.047603
Rotational constants in MHz :  4769.938632  1872.932224  1427.103830

                             ****ORCA TERMINATED NORMALLY****
TOTAL RUN TIME: 0 days 0 hours 0 minutes 36 seconds 786 msec
