                         Program Version 5.0.0 -  RELEASE  -
|  1> !M062X D3Zero RIJCOSX def2-SVPD def2/J TightSCF
|  2> *xyz 0 1
|  3> C          0.13297        2.38587       -4.02462
|  4> C         -1.36646        2.47911       -4.31393
|  5> C         -2.35773        2.30686       -3.13675
|  6> H         -1.63680        1.72709       -5.06399
|  7> H         -1.58235        3.44561       -4.76869
|  8> F         -3.44376        2.84652       -3.25274
|  9> O         -1.97092        1.58304       -2.15123
| 10> H          0.68084        2.52514       -4.93310
| 11> H          0.35823        1.42282       -3.61633
| 12> H          0.40851        3.14443       -3.32208
| 13> *
| 14> %MaxCore 64000
| 15>
| 16> %pal nprocs 4
| 17> end
| 18>
| 19> %scf
| 20>   MaxIter 150
| 21> end
| 22>
| 23>
| 24>                          ****END OF INPUT****

CARTESIAN COORDINATES (ANGSTROEM)
---------------------------------
  C      0.132970    2.385870   -4.024620
  C     -1.366460    2.479110   -4.313930
  C     -2.357730    2.306860   -3.136750
  H     -1.636800    1.727090   -5.063990
  H     -1.582350    3.445610   -4.768690
  F     -3.443760    2.846520   -3.252740
  O     -1.970920    1.583040   -2.151230
  H      0.680840    2.525140   -4.933100
  H      0.358230    1.422820   -3.616330
  H      0.408510    3.144430   -3.322080

 Total Charge           Charge          ....    0
 Multiplicity           Mult            ....    1
 Number of Electrons    NEL             ....   40
 Basis Dimension        Dim             ....  146

ORBITAL ENERGIES
----------------

  NO   OCC          E(Eh)            E(eV)
   0   2.0000     -25.344579      -689.6611
   1   2.0000     -19.645499      -534.5812
   2   2.0000     -10.743686      -292.3506
   3   2.0000     -10.586314      -288.0682
   4   2.0000     -10.553786      -287.1831
   5   2.0000      -1.476768       -40.1849
   6   2.0000      -1.126966       -30.6663
   7   2.0000      -0.889453       -24.2032
   8   2.0000      -0.795239       -21.6396
   9   2.0000      -0.736631       -20.0448
  10   2.0000      -0.664450       -18.0806
  11   2.0000      -0.644818       -17.5464
  12   2.0000      -0.589147       -16.0315
  13   2.0000      -0.539582       -14.6828
  14   2.0000      -0.506045       -13.7702
  15   2.0000      -0.460370       -12.5273
  16   2.0000      -0.443375       -12.0649
  17   2.0000      -0.438924       -11.9437
  18   2.0000      -0.410867       -11.1803
  19   2.0000      -0.366001        -9.9594
  20   0.0000       0.011411         0.3105
  21   0.0000       0.030014         0.8167
  22   0.0000       0.055349         1.5061
  23   0.0000       0.071735         1.9520
  24   0.0000       0.089899         2.4463

MULLIKEN ATOMIC CHARGES
-----------------------
   0 C :    0.612525
   1 C :   -0.525694
   2 C :    0.824235
   3 H :    0.070147
   4 H :    0.028488
   5 F :   -0.359952
   6 O :   -0.575924
   7 H :   -0.028754
   8 H :   -0.021715
   9 H :   -0.023357
Sum of atomic charges:    0.0000000

LOEWDIN ATOMIC CHARGES
----------------------
   0 C :    0.139282
   1 C :    0.000809
   2 C :    0.009698
   3 H :    0.040522
   4 H :    0.022038
   5 F :   -0.022727
   6 O :   -0.160159
   7 H :   -0.012629
   8 H :   -0.009498
   9 H :   -0.007336

  Mayer bond orders larger than 0.100000
B(  0-C ,  1-C ) :   1.3671 B(  0-C ,  7-H ) :   0.7856 B(  0-C ,  8-H ) :   0.8239
B(  0-C ,  9-H ) :   0.8389 B(  1-C ,  2-C ) :   1.0835 B(  1-C ,  3-H ) :   0.9012
B(  1-C ,  4-H ) :   0.9260 B(  1-C ,  7-H ) :   0.2149 B(  1-C ,  8-H ) :   0.2042
B(  1-C ,  9-H ) :   0.1842 B(  2-C ,  4-H ) :   0.1026 B(  2-C ,  5-F ) :   0.7380
B(  2-C ,  6-O ) :   1.7640

Dispersion correction           -0.000090785
FINAL SINGLE POINT ENERGY      -292.053010398517

DIPOLE MOMENT
-------------
                                X             Y             Z
Electronic contribution:     -8.34848       0.48136       3.54964
Nuclear contribution   :      8.54799       0.05434      -4.66633
                        -----------------------------------------
Total Dipole Moment    :      0.19951       0.53570      -1.11668
                        -----------------------------------------
Magnitude (a.u.)       :      1.25450
Magnitude (Debye)      :      3.18868

Rotational constants in cm-1:     0.325803     0.123345     0.094275
Rotational constants in MHz :  9767.324172  3697.779805  2826.305733

                             ****ORCA TERMINATED NORMALLY****
TOTAL RUN TIME: 0 days 0 hours 0 minutes 19 seconds 915 msec
