                         Program Version 5.0.0 -  RELEASE  -
|  1> !M062X D3Zero RIJCOSX def2-SVPD def2/J TightSCF
|  2> *xyz 0 1
|  3> C          0.64866        1.00359       -3.64560
|  4> C          0.28128        0.67645       -2.24018
|  5> C          0.13297        2.38587       -4.02462
|  6> H          0.39079       -0.31925       -2.02649
|  7> H         -0.69269        0.99010       -2.13812
|  8> H          0.85421        1.21221       -1.57528
|  9> H          0.19099        0.23965       -4.27575
| 10> H          1.73157        0.93173       -3.75075
| 11> H          0.40589        2.60338       -5.03610
| 12> H          0.56342        3.11797       -3.37374
| 13> H         -0.93265        2.40724       -3.93025
| 14> *
| 15> %MaxCore 64000
| 16>
| 17> %pal nprocs 4
| 18> end
| 19>
| 20> %scf
| 21>   MaxIter 150
| 22> end
| 23>
| 24>
| 25>                          ****END OF INPUT****

CARTESIAN COORDINATES (ANGSTROEM)
---------------------------------
  C      0.648660    1.003590   -3.645600
  C      0.281280    0.676450   -2.240180
  C      0.132970    2.385870   -4.024620
  H      0.390790   -0.319250   -2.026490
  H     -0.692690    0.990100   -2.138120
  H      0.854210    1.212210   -1.575280
  H      0.190990    0.239650   -4.275750
  H      1.731570    0.931730   -3.750750
  H      0.405890    2.603380   -5.036100
  H      0.563420    3.117970   -3.373740
  H     -0.932650    2.407240   -3.930250

 Total Charge           Charge          ....    0
 Multiplicity           Mult            ....    1
 Number of Electrons    NEL             ....   26
 Basis Dimension        Dim             ....  124

ORBITAL ENERGIES
----------------

  NO   OCC          E(Eh)            E(eV)
   0   2.0000     -10.536367      -286.7091
   1   2.0000     -10.529470      -286.5215
   2   2.0000     -10.511572      -286.0344
   3   2.0000      -0.884479       -24.0679
   4   2.0000      -0.773005       -21.0345
   5   2.0000      -0.662478       -18.0269
   6   2.0000      -0.539564       -14.6823
   7   2.0000      -0.519506       -14.1365
   8   2.0000      -0.468457       -12.7474
   9   2.0000      -0.451924       -12.2975
  10   2.0000      -0.398448       -10.8423
  11   2.0000      -0.394813       -10.7434
  12   2.0000      -0.387713       -10.5502
  13   0.0000       0.045582         1.2403
  14   0.0000       0.070314         1.9133
  15   0.0000       0.078776         2.1436
  16   0.0000       0.111889         3.0447
  17   0.0000       0.128113         3.4861

MULLIKEN ATOMIC CHARGES
-----------------------
   0 C :   -0.635051
   1 C :    0.914662
   2 C :    0.567249
   3 H :   -0.221281
   4 H :   -0.158177
   5 H :   -0.149175
   6 H :   -0.065254
   7 H :   -0.114495
   8 H :   -0.095775
   9 H :   -0.025621
  10 H :   -0.017082
Sum of atomic charges:   -0.0000000

LOEWDIN ATOMIC CHARGES
----------------------
   0 C :   -0.124073
   1 C :    0.115088
   2 C :    0.114851
   3 H :   -0.033140
   4 H :   -0.034075
   5 H :   -0.028179
   6 H :    0.021421
   7 H :    0.020160
   8 H :   -0.021495
   9 H :   -0.013797
  10 H :   -0.016761

  Mayer bond orders larger than 0.100000
B(  0-C ,  1-C ) :   1.2529 B(  0-C ,  2-C ) :   1.2527 B(  0-C ,  3-H ) :   0.1876
B(  0-C ,  4-H ) :   0.2419 B(  0-C ,  5-H ) :   0.2267 B(  0-C ,  6-H ) :   0.9498
B(  0-C ,  7-H ) :   0.9948 B(  0-C ,  8-H ) :   0.1727 B(  0-C ,  9-H ) :   0.1680
B(  0-C , 10-H ) :   0.1551 B(  1-C ,  3-H ) :   0.7781 B(  1-C ,  4-H ) :   0.7385
B(  1-C ,  5-H ) :   0.7171 B(  2-C ,  8-H ) :   0.8632 B(  2-C ,  9-H ) :   0.8401
B(  2-C , 10-H ) :   0.8459 B(  4-H ,  5-H ) :   0.1108

Dispersion correction           -0.000049624
FINAL SINGLE POINT ENERGY      -118.963638084927

DIPOLE MOMENT
-------------
                                X             Y             Z
Electronic contribution:      0.25880      -0.28071      -0.24472
Nuclear contribution   :     -0.24754       0.26111       0.24628
                        -----------------------------------------
Total Dipole Moment    :      0.01127      -0.01960       0.00156
                        -----------------------------------------
Magnitude (a.u.)       :      0.02266
Magnitude (Debye)      :      0.05760

Rotational constants in cm-1:     1.006509     0.299509     0.263145
Rotational constants in MHz : 30174.379724  8979.049324  7888.875355

                             ****ORCA TERMINATED NORMALLY****
TOTAL RUN TIME: 0 days 0 hours 0 minutes 14 seconds 994 msec
