                         Program Version 5.0.0 -  RELEASE  -
|  1> !M062X D3Zero RIJCOSX def2-SVPD def2/J TightSCF
|  2> *xyz 0 1
|  3> C          0.13297        2.38587       -4.02462
|  4> C         -1.36646        2.47911       -4.31393
|  5> C         -2.35773        2.30686       -3.13675
|  6> H         -1.63680        1.72709       -5.06399
|  7> H         -1.58235        3.44561       -4.76869
|  8> O         -3.44376        2.84652       -3.25274
|  9> F         -1.97092        1.58304       -2.15123
| 10> H          0.68084        2.52514       -4.93310
| 11> H          0.35823        1.42282       -3.61633
| 12> H          0.40851        3.14443       -3.32208
| 13> *
| 14> %MaxCore 64000
| 15>
| 16> %pal nprocs 4
| 17> end
| 18>
| 19> %scf
| 20>   MaxIter 150
| 21> end
| 22>
| 23>
| 24>                          ****END OF INPUT****

CARTESIAN COORDINATES (ANGSTROEM)
---------------------------------
  C      0.132970    2.385870   -4.024620
  C     -1.366460    2.479110   -4.313930
  C     -2.357730    2.306860   -3.136750
  H     -1.636800    1.727090   -5.063990
  H     -1.582350    3.445610   -4.768690
  O     -3.443760    2.846520   -3.252740
  F     -1.970920    1.583040   -2.151230
  H      0.680840    2.525140   -4.933100
  H      0.358230    1.422820   -3.616330
  H      0.408510    3.144430   -3.322080

 Total Charge           Charge          ....    0
 Multiplicity           Mult            ....    1
 Number of Electrons    NEL             ....   40
 Basis Dimension        Dim             ....  146

ORBITAL ENERGIES
----------------

  NO   OCC          E(Eh)            E(eV)
   0   2.0000     -25.320560      -689.0075
   1   2.0000     -19.654745      -534.8328
   2   2.0000     -10.738003      -292.1959
   3   2.0000     -10.584531      -288.0197
   4   2.0000     -10.558614      -287.3145
   5   2.0000      -1.426761       -38.8241
   6   2.0000      -1.169237       -31.8166
   7   2.0000      -0.891358       -24.2551
   8   2.0000      -0.771252       -20.9868
   9   2.0000      -0.728744       -19.8301
  10   2.0000      -0.635598       -17.2955
  11   2.0000      -0.630713       -17.1626
  12   2.0000      -0.582383       -15.8475
  13   2.0000      -0.540527       -14.7085
  14   2.0000      -0.509777       -13.8717
  15   2.0000      -0.481278       -13.0962
  16   2.0000      -0.462922       -12.5967
  17   2.0000      -0.441089       -12.0026
  18   2.0000      -0.421950       -11.4818
  19   2.0000      -0.374468       -10.1898
  20   0.0000       0.015615         0.4249
  21   0.0000       0.029193         0.7944
  22   0.0000       0.060121         1.6360
  23   0.0000       0.068161         1.8547
  24   0.0000       0.089276         2.4293

MULLIKEN ATOMIC CHARGES
-----------------------
   0 C :    0.625272
   1 C :   -0.525859
   2 C :    0.812868
   3 H :    0.069889
   4 H :    0.018174
   5 O :   -0.483808
   6 F :   -0.443955
   7 H :   -0.027900
   8 H :   -0.024279
   9 H :   -0.020402
Sum of atomic charges:    0.0000000

LOEWDIN ATOMIC CHARGES
----------------------
   0 C :    0.127793
   1 C :    0.011669
   2 C :    0.013842
   3 H :    0.041413
   4 H :    0.032022
   5 O :   -0.123649
   6 F :   -0.065388
   7 H :   -0.012680
   8 H :   -0.014431
   9 H :   -0.010591

  Mayer bond orders larger than 0.100000
B(  0-C ,  1-C ) :   1.3358 B(  0-C ,  7-H ) :   0.7825 B(  0-C ,  8-H ) :   0.8253
B(  0-C ,  9-H ) :   0.8402 B(  1-C ,  2-C ) :   1.0402 B(  1-C ,  3-H ) :   0.9028
B(  1-C ,  4-H ) :   0.9657 B(  1-C ,  7-H ) :   0.2265 B(  1-C ,  8-H ) :   0.1882
B(  1-C ,  9-H ) :   0.1751 B(  2-C ,  4-H ) :   0.1159 B(  2-C ,  5-O ) :   1.8213
B(  2-C ,  6-F ) :   0.6716

Dispersion correction           -0.000098456
FINAL SINGLE POINT ENERGY      -292.070944000352

DIPOLE MOMENT
-------------
                                X             Y             Z
Electronic contribution:     -5.87783      -1.61846       5.36865
Nuclear contribution   :      6.94213       1.43193      -5.86732
                        -----------------------------------------
Total Dipole Moment    :      1.06430      -0.18653      -0.49866
                        -----------------------------------------
Magnitude (a.u.)       :      1.19004
Magnitude (Debye)      :      3.02484

Rotational constants in cm-1:     0.306336     0.129048     0.095707
Rotational constants in MHz :  9183.725605  3868.769583  2869.236577

                             ****ORCA TERMINATED NORMALLY****
TOTAL RUN TIME: 0 days 0 hours 0 minutes 19 seconds 376 msec
