                         Program Version 5.0.0 -  RELEASE  -
|  1> !M062X D3Zero RIJCOSX def2-SVPD def2/J TightSCF xyzfile
|  2>
|  3> *xyzfile 0 1 D2.xyz
|  4>
|  5> %MaxCore 64000
|  6>
|  7> %pal nprocs 4
|  8> end
|  9>
| 10> %scf
| 11>   MaxIter 150
| 12> end
| 13>
| 14>
| 15>                          ****END OF INPUT****

CARTESIAN COORDINATES (ANGSTROEM)
---------------------------------
  C      0.648656    1.003595   -3.645601
  C      0.281280    0.676454   -2.240179
  C      0.132968    2.385869   -4.024618
  C     -1.366462    2.479106   -4.313932
  C     -2.357732    2.306858   -3.136753
  H     -1.636802    1.727095   -5.063993
  H     -1.582347    3.445605   -4.768687
  H      0.390790   -0.319253   -2.026495
  H     -0.692686    0.990104   -2.138123
  H      0.854206    1.212214   -1.575279
  O     -3.443763    2.846518   -3.252744
  F     -1.970922    1.583042   -2.151229
  H      0.190993    0.239655   -4.275752
  H      1.731572    0.931729   -3.750751
  H      0.414839    3.102847   -3.245165
  H      0.683167    2.687560   -4.919721

 Total Charge           Charge          ....    0
 Multiplicity           Mult            ....    1
 Number of Electrons    NEL             ....   56
 Basis Dimension        Dim             ....  218

ORBITAL ENERGIES
----------------

  NO   OCC          E(Eh)            E(eV)
   0   2.0000     -25.332089      -689.3212
   1   2.0000     -19.662417      -535.0416
   2   2.0000     -10.745820      -292.4086
   3   2.0000     -10.586998      -288.0869
   4   2.0000     -10.563666      -287.4520
   5   2.0000     -10.544661      -286.9348
   6   2.0000     -10.492812      -285.5239
   7   2.0000      -1.449373       -39.4394
   8   2.0000      -1.177123       -32.0311
   9   2.0000      -0.918042       -24.9812
  10   2.0000      -0.855630       -23.2829
  11   2.0000      -0.774707       -21.0808
  12   2.0000      -0.763382       -20.7727
  13   2.0000      -0.667006       -18.1502
  14   2.0000      -0.655642       -17.8409
  15   2.0000      -0.646411       -17.5897
  16   2.0000      -0.591315       -16.0905
  17   2.0000      -0.548257       -14.9188
  18   2.0000      -0.528866       -14.3912
  19   2.0000      -0.519585       -14.1386
  20   2.0000      -0.494238       -13.4489
  21   2.0000      -0.462333       -12.5807
  22   2.0000      -0.454412       -12.3652
  23   2.0000      -0.432315       -11.7639
  24   2.0000      -0.403299       -10.9743
  25   2.0000      -0.395405       -10.7595
  26   2.0000      -0.388961       -10.5842
  27   2.0000      -0.363111        -9.8807
  28   0.0000       0.009548         0.2598
  29   0.0000       0.030717         0.8358
  30   0.0000       0.052265         1.4222
  31   0.0000       0.059182         1.6104
  32   0.0000       0.061544         1.6747

MULLIKEN ATOMIC CHARGES
-----------------------
   0 C :   -0.236373
   1 C :    2.326838
   2 C :    0.137195
   3 C :   -0.054769
   4 C :    0.790501
   5 H :    0.202456
   6 H :    0.019180
   7 H :   -0.050073
   8 H :   -1.703454
   9 H :    0.015181
  10 O :   -0.483960
  11 F :   -0.600130
  12 H :   -0.008967
  13 H :   -0.220882
  14 H :   -0.023939
  15 H :   -0.108802
Sum of atomic charges:    0.0000000

LOEWDIN ATOMIC CHARGES
----------------------
   0 C :   -0.058910
   1 C :    0.146913
   2 C :   -0.032755
   3 C :    0.071275
   4 C :    0.053604
   5 H :    0.046586
   6 H :    0.034982
   7 H :   -0.024212
   8 H :   -0.148069
   9 H :   -0.017982
  10 O :   -0.108288
  11 F :   -0.065510
  12 H :    0.025404
  13 H :    0.021095
  14 H :    0.033775
  15 H :    0.022092

  Mayer bond orders larger than 0.100000
B(  0-C ,  1-C ) :   0.8619 B(  0-C ,  2-C ) :   1.1489 B(  0-C ,  7-H ) :   0.2062
B(  0-C ,  8-H ) :   0.6372 B(  0-C ,  9-H ) :   0.2643 B(  0-C , 12-H ) :   0.8617
B(  0-C , 13-H ) :   0.9722 B(  1-C ,  7-H ) :   0.5567 B(  1-C ,  8-H ) :  -2.1065
B(  1-C ,  9-H ) :   0.2342 B(  1-C , 11-F ) :  -0.2752 B(  1-C , 12-H ) :   0.1109
B(  2-C ,  3-C ) :   1.2135 B(  2-C ,  5-H ) :   0.1208 B(  2-C ,  6-H ) :   0.1264
B(  2-C ,  8-H ) :  -0.1018 B(  2-C , 13-H ) :   0.1092 B(  2-C , 14-H ) :   0.8739
B(  2-C , 15-H ) :   0.8948 B(  3-C ,  4-C ) :   1.0463 B(  3-C ,  5-H ) :   0.7758
B(  3-C ,  6-H ) :   0.9214 B(  3-C , 14-H ) :   0.1206 B(  4-C ,  6-H ) :   0.1144
B(  4-C , 10-O ) :   1.7990 B(  4-C , 11-F ) :   0.5899 B(  7-H ,  8-H ) :   0.1542
B(  7-H ,  9-H ) :  -0.1483 B(  8-H ,  9-H ) :   0.5208 B(  8-H , 11-F ) :   0.3559
B(  8-H , 13-H ) :   0.1363 B( 12-H , 13-H ) :  -0.1348

Dispersion correction           -0.000327543
FINAL SINGLE POINT ENERGY      -370.544516533299

DIPOLE MOMENT
-------------
                                X             Y             Z
Electronic contribution:    -10.25460       2.33848       3.28505
Nuclear contribution   :     11.08738      -2.45618      -3.73478
                        -----------------------------------------
Total Dipole Moment    :      0.83278      -0.11770      -0.44973
                        -----------------------------------------
Magnitude (a.u.)       :      0.95375
Magnitude (Debye)      :      2.42423

Rotational constants in cm-1:     0.156244     0.063730     0.048063
Rotational constants in MHz :  4684.071402  1910.571278  1440.877811

                             ****ORCA TERMINATED NORMALLY****
TOTAL RUN TIME: 0 days 0 hours 0 minutes 39 seconds 369 msec
