                         Program Version 5.0.0 -  RELEASE  -
|  1> !PBE0 D3BJ RIJCOSX def2-SVPD def2/J TightSCF
|  2> *xyz -1 1
|  3> C          0.64866        1.00359       -3.64560
|  4> C          0.13297        2.38587       -4.02462
|  5> C         -1.36646        2.47911       -4.31393
|  6> C         -2.35773        2.30686       -3.13675
|  7> H         -1.63680        1.72709       -5.06399
|  8> H         -1.58235        3.44561       -4.76869
|  9> O         -3.44376        2.84652       -3.25274
| 10> O         -1.97092        1.58304       -2.15123
| 11> H          0.41484        3.10285       -3.24517
| 12> H          0.68317        2.68756       -4.91972
| 13> H          0.37534        0.30051       -4.40446
| 14> H          0.21856        0.70606       -2.71212
| 15> H          1.71431        1.03324       -3.55398
| 16> *
| 17> %MaxCore 64000
| 18>
| 19> %pal nprocs 4
| 20> end
| 21>
| 22> %scf
| 23>   MaxIter 150
| 24> end
| 25>
| 26>
| 27>                          ****END OF INPUT****

CARTESIAN COORDINATES (ANGSTROEM)
---------------------------------
  C      0.648660    1.003590   -3.645600
  C      0.132970    2.385870   -4.024620
  C     -1.366460    2.479110   -4.313930
  C     -2.357730    2.306860   -3.136750
  H     -1.636800    1.727090   -5.063990
  H     -1.582350    3.445610   -4.768690
  O     -3.443760    2.846520   -3.252740
  O     -1.970920    1.583040   -2.151230
  H      0.414840    3.102850   -3.245170
  H      0.683170    2.687560   -4.919720
  H      0.375340    0.300510   -4.404460
  H      0.218560    0.706060   -2.712120
  H      1.714310    1.033240   -3.553980

 Total Charge           Charge          ....   -1
 Multiplicity           Mult            ....    1
 Number of Electrons    NEL             ....   48
 Basis Dimension        Dim             ....  182

ORBITAL ENERGIES
----------------

  NO   OCC          E(Eh)            E(eV)
   0   2.0000     -18.962680      -516.0007
   1   2.0000     -18.952511      -515.7241
   2   2.0000     -10.120416      -275.3905
   3   2.0000     -10.083889      -274.3966
   4   2.0000     -10.069846      -274.0144
   5   2.0000     -10.060900      -273.7710
   6   2.0000      -0.850621       -23.1466
   7   2.0000      -0.748913       -20.3790
   8   2.0000      -0.651532       -17.7291
   9   2.0000      -0.554891       -15.0994
  10   2.0000      -0.457638       -12.4530
  11   2.0000      -0.341027        -9.2798
  12   2.0000      -0.309443        -8.4204
  13   2.0000      -0.303471        -8.2579
  14   2.0000      -0.273713        -7.4481
  15   2.0000      -0.245499        -6.6804
  16   2.0000      -0.233499        -6.3538
  17   2.0000      -0.219569        -5.9748
  18   2.0000      -0.203818        -5.5462
  19   2.0000      -0.191782        -5.2187
  20   2.0000      -0.177520        -4.8306
  21   2.0000      -0.067107        -1.8261
  22   2.0000      -0.058067        -1.5801
  23   2.0000      -0.046176        -1.2565
  24   0.0000       0.153587         4.1793
  25   0.0000       0.180645         4.9156
  26   0.0000       0.190303         5.1784
  27   0.0000       0.204525         5.5654
  28   0.0000       0.226542         6.1645

MULLIKEN ATOMIC CHARGES
-----------------------
   0 C :    0.558893
   1 C :   -0.454479
   2 C :   -0.151916
   3 C :    0.609489
   4 H :    0.103458
   5 H :    0.045792
   6 O :   -0.724756
   7 O :   -0.819451
   8 H :   -0.040444
   9 H :   -0.004483
  10 H :   -0.028949
  11 H :   -0.084571
  12 H :   -0.008581
Sum of atomic charges:   -1.0000000

LOEWDIN ATOMIC CHARGES
----------------------
   0 C :    0.096237
   1 C :   -0.100302
   2 C :    0.000090
   3 C :   -0.284090
   4 H :    0.015729
   5 H :    0.000286
   6 O :   -0.305824
   7 O :   -0.334532
   8 H :    0.018677
   9 H :   -0.002797
  10 H :   -0.026440
  11 H :   -0.039171
  12 H :   -0.037863

  Mayer bond orders larger than 0.100000
B(  0-C ,  1-C ) :   1.2933 B(  0-C , 10-H ) :   0.8245 B(  0-C , 11-H ) :   0.8833
B(  0-C , 12-H ) :   0.7857 B(  1-C ,  2-C ) :   1.1778 B(  1-C ,  4-H ) :   0.1113
B(  1-C ,  5-H ) :   0.1091 B(  1-C ,  8-H ) :   0.9732 B(  1-C ,  9-H ) :   0.8945
B(  1-C , 10-H ) :   0.1838 B(  1-C , 11-H ) :   0.2020 B(  1-C , 12-H ) :   0.1887
B(  2-C ,  3-C ) :   1.0139 B(  2-C ,  4-H ) :   0.8577 B(  2-C ,  5-H ) :   0.9372
B(  2-C ,  8-H ) :   0.1274 B(  2-C ,  9-H ) :   0.1042 B(  3-C ,  5-H ) :   0.1388
B(  3-C ,  6-O ) :   1.4016 B(  3-C ,  7-O ) :   1.3318

Dispersion correction           -0.008169665
FINAL SINGLE POINT ENERGY      -306.603394550994

DIPOLE MOMENT
-------------
                                X             Y             Z
Electronic contribution:     -7.21918       1.46689       3.12833
Nuclear contribution   :      9.31936      -1.53308      -4.48293
                        -----------------------------------------
Total Dipole Moment    :      2.10018      -0.06619      -1.35460
                        -----------------------------------------
Magnitude (a.u.)       :      2.50002
Magnitude (Debye)      :      6.35454

Rotational constants in cm-1:     0.250458     0.077448     0.063252
Rotational constants in MHz :  7508.538874  2321.842942  1896.252250

                             ****ORCA TERMINATED NORMALLY****
TOTAL RUN TIME: 0 days 0 hours 0 minutes 17 seconds 372 msec
