                         Program Version 5.0.0 -  RELEASE  -
|  1> !PBE0 D3BJ RIJCOSX def2-SVPD def2/J TightSCF
|  2> *xyz 1 1
|  3> C          0.64866        1.00359       -3.64560
|  4> N          0.28128        0.67645       -2.24018
|  5> C          0.13297        2.38587       -4.02462
|  6> C         -1.36646        2.47911       -4.31393
|  7> H          0.39079       -0.31925       -2.02649
|  8> H         -0.69269        0.99010       -2.13812
|  9> H          0.85421        1.21221       -1.57528
| 10> H          0.19099        0.23965       -4.27575
| 11> H          1.73157        0.93173       -3.75075
| 12> H          0.41484        3.10285       -3.24517
| 13> H          0.68317        2.68756       -4.91972
| 14> H         -1.62719        1.77449       -5.07580
| 15> H         -1.60483        3.46796       -4.64597
| 16> H         -1.91603        2.26007       -3.42236
| 17> *
| 18> %MaxCore 64000
| 19>
| 20> %pal nprocs 4
| 21> end
| 22>
| 23> %scf
| 24>   MaxIter 150
| 25> end
| 26>
| 27>
| 28>                          ****END OF INPUT****

CARTESIAN COORDINATES (ANGSTROEM)
---------------------------------
  C      0.648660    1.003590   -3.645600
  N      0.281280    0.676450   -2.240180
  C      0.132970    2.385870   -4.024620
  C     -1.366460    2.479110   -4.313930
  H      0.390790   -0.319250   -2.026490
  H     -0.692690    0.990100   -2.138120
  H      0.854210    1.212210   -1.575280
  H      0.190990    0.239650   -4.275750
  H      1.731570    0.931730   -3.750750
  H      0.414840    3.102850   -3.245170
  H      0.683170    2.687560   -4.919720
  H     -1.627190    1.774490   -5.075800
  H     -1.604830    3.467960   -4.645970
  H     -1.916030    2.260070   -3.422360

 Total Charge           Charge          ....    1
 Multiplicity           Mult            ....    1
 Number of Electrons    NEL             ....   34
 Basis Dimension        Dim             ....  160

ORBITAL ENERGIES
----------------

  NO   OCC          E(Eh)            E(eV)
   0   2.0000     -14.726313      -400.7233
   1   2.0000     -10.480716      -285.1948
   2   2.0000     -10.414086      -283.3817
   3   2.0000     -10.379714      -282.4464
   4   2.0000      -1.229893       -33.4671
   5   2.0000      -0.991099       -26.9692
   6   2.0000      -0.898728       -24.4556
   7   2.0000      -0.821204       -22.3461
   8   2.0000      -0.812958       -22.1217
   9   2.0000      -0.783319       -21.3152
  10   2.0000      -0.705476       -19.1970
  11   2.0000      -0.643554       -17.5120
  12   2.0000      -0.623534       -16.9672
  13   2.0000      -0.600489       -16.3401
  14   2.0000      -0.543064       -14.7775
  15   2.0000      -0.531349       -14.4587
  16   2.0000      -0.527367       -14.3504
  17   0.0000      -0.179735        -4.8908
  18   0.0000      -0.122973        -3.3463
  19   0.0000      -0.119258        -3.2452
  20   0.0000      -0.109068        -2.9679
  21   0.0000      -0.084416        -2.2971

MULLIKEN ATOMIC CHARGES
-----------------------
   0 C :    0.555313
   1 N :   -0.856293
   2 C :   -0.491886
   3 C :    0.615570
   4 H :    0.336414
   5 H :    0.418052
   6 H :    0.414338
   7 H :    0.028675
   8 H :   -0.036613
   9 H :    0.019856
  10 H :    0.041180
  11 H :    0.058198
  12 H :    0.028368
  13 H :   -0.131171
Sum of atomic charges:    1.0000000

LOEWDIN ATOMIC CHARGES
----------------------
   0 C :    0.086561
   1 N :    0.332870
   2 C :   -0.054537
   3 C :    0.149534
   4 H :    0.108257
   5 H :    0.085650
   6 H :    0.110496
   7 H :    0.055675
   8 H :    0.054234
   9 H :    0.036830
  10 H :    0.046374
  11 H :    0.001174
  12 H :    0.009310
  13 H :   -0.022427

  Mayer bond orders larger than 0.100000
B(  0-C ,  1-N ) :   0.7178 B(  0-C ,  2-C ) :   1.1793 B(  0-C ,  7-H ) :   0.9131
B(  0-C ,  8-H ) :   0.9129 B(  1-N ,  4-H ) :   0.7945 B(  1-N ,  5-H ) :   0.6661
B(  1-N ,  6-H ) :   0.7416 B(  1-N ,  8-H ) :   0.1148 B(  2-C ,  3-C ) :   1.2812
B(  2-C ,  9-H ) :   0.9688 B(  2-C , 10-H ) :   0.9287 B(  2-C , 11-H ) :   0.1592
B(  2-C , 12-H ) :   0.1905 B(  2-C , 13-H ) :   0.1653 B(  3-C , 11-H ) :   0.8130
B(  3-C , 12-H ) :   0.8108 B(  3-C , 13-H ) :   0.8613

Dispersion correction           -0.007740443
FINAL SINGLE POINT ENERGY      -174.526603087897

DIPOLE MOMENT
-------------
                                X             Y             Z
Electronic contribution:      1.31274      -1.46753       1.58450
Nuclear contribution   :     -0.74670       0.28200      -0.02386
                        -----------------------------------------
Total Dipole Moment    :      0.56605      -1.18553       1.56064
                        -----------------------------------------
Magnitude (a.u.)       :      2.03997
Magnitude (Debye)      :      5.18519

Rotational constants in cm-1:     0.472563     0.149855     0.132807
Rotational constants in MHz : 14167.078489  4492.544970  3981.441276

                             ****ORCA TERMINATED NORMALLY****
TOTAL RUN TIME: 0 days 0 hours 0 minutes 11 seconds 237 msec
