                         Program Version 5.0.0 -  RELEASE  -
|  1> !PBE0 D3BJ RIJCOSX def2-SVPD def2/J TightSCF
|  2> *xyz 0 1
|  3> C          0.64866        1.00359       -3.64560
|  4> C          0.13297        2.38587       -4.02462
|  5> C         -1.36646        2.47911       -4.31393
|  6> C         -2.35773        2.30686       -3.13675
|  7> H         -1.63680        1.72709       -5.06399
|  8> H         -1.58235        3.44561       -4.76869
|  9> F         -3.44376        2.84652       -3.25274
| 10> O         -1.97092        1.58304       -2.15123
| 11> H          0.41484        3.10285       -3.24517
| 12> H          0.68317        2.68756       -4.91972
| 13> H          0.37534        0.30051       -4.40446
| 14> H          0.21856        0.70606       -2.71212
| 15> H          1.71431        1.03324       -3.55398
| 16> *
| 17> %MaxCore 64000
| 18>
| 19> %pal nprocs 4
| 20> end
| 21>
| 22> %scf
| 23>   MaxIter 150
| 24> end
| 25>
| 26>
| 27>                          ****END OF INPUT****

CARTESIAN COORDINATES (ANGSTROEM)
---------------------------------
  C      0.648660    1.003590   -3.645600
  C      0.132970    2.385870   -4.024620
  C     -1.366460    2.479110   -4.313930
  C     -2.357730    2.306860   -3.136750
  H     -1.636800    1.727090   -5.063990
  H     -1.582350    3.445610   -4.768690
  F     -3.443760    2.846520   -3.252740
  O     -1.970920    1.583040   -2.151230
  H      0.414840    3.102850   -3.245170
  H      0.683170    2.687560   -4.919720
  H      0.375340    0.300510   -4.404460
  H      0.218560    0.706060   -2.712120
  H      1.714310    1.033240   -3.553980

 Total Charge           Charge          ....    0
 Multiplicity           Mult            ....    1
 Number of Electrons    NEL             ....   48
 Basis Dimension        Dim             ....  182

ORBITAL ENERGIES
----------------

  NO   OCC          E(Eh)            E(eV)
   0   2.0000     -24.872032      -676.8024
   1   2.0000     -19.223409      -523.0955
   2   2.0000     -10.420606      -283.5591
   3   2.0000     -10.267188      -279.3844
   4   2.0000     -10.245182      -278.7856
   5   2.0000     -10.212560      -277.8979
   6   2.0000      -1.370831       -37.3022
   7   2.0000      -1.038946       -28.2711
   8   2.0000      -0.826600       -22.4929
   9   2.0000      -0.748859       -20.3775
  10   2.0000      -0.693476       -18.8705
  11   2.0000      -0.629195       -17.1213
  12   2.0000      -0.588427       -16.0119
  13   2.0000      -0.564717       -15.3667
  14   2.0000      -0.524409       -14.2699
  15   2.0000      -0.477319       -12.9885
  16   2.0000      -0.467849       -12.7308
  17   2.0000      -0.436057       -11.8657
  18   2.0000      -0.405147       -11.0246
  19   2.0000      -0.374166       -10.1816
  20   2.0000      -0.370540       -10.0829
  21   2.0000      -0.358754        -9.7622
  22   2.0000      -0.353923        -9.6307
  23   2.0000      -0.300459        -8.1759
  24   0.0000      -0.028672        -0.7802
  25   0.0000       0.021595         0.5876
  26   0.0000       0.046278         1.2593
  27   0.0000       0.060228         1.6389
  28   0.0000       0.062426         1.6987

MULLIKEN ATOMIC CHARGES
-----------------------
   0 C :    0.579150
   1 C :   -0.459775
   2 C :   -0.199012
   3 C :    0.887730
   4 H :    0.180497
   5 H :    0.094140
   6 F :   -0.379297
   7 O :   -0.595861
   8 H :   -0.022328
   9 H :    0.015892
  10 H :   -0.015261
  11 H :   -0.099465
  12 H :    0.013590
Sum of atomic charges:    0.0000000

LOEWDIN ATOMIC CHARGES
----------------------
   0 C :    0.121252
   1 C :   -0.071708
   2 C :    0.038130
   3 C :    0.011362
   4 H :    0.044020
   5 H :    0.023657
   6 F :   -0.010954
   7 O :   -0.151720
   8 H :    0.031766
   9 H :    0.023235
  10 H :   -0.013627
  11 H :   -0.030480
  12 H :   -0.014931

  Mayer bond orders larger than 0.100000
B(  0-C ,  1-C ) :   1.3184 B(  0-C , 10-H ) :   0.8150 B(  0-C , 11-H ) :   0.8877
B(  0-C , 12-H ) :   0.7869 B(  1-C ,  2-C ) :   1.2388 B(  1-C ,  4-H ) :   0.1097
B(  1-C ,  5-H ) :   0.1184 B(  1-C ,  8-H ) :   0.9702 B(  1-C ,  9-H ) :   0.8976
B(  1-C , 10-H ) :   0.1779 B(  1-C , 11-H ) :   0.1904 B(  1-C , 12-H ) :   0.1811
B(  2-C ,  3-C ) :   1.0932 B(  2-C ,  4-H ) :   0.8236 B(  2-C ,  5-H ) :   0.8840
B(  2-C ,  6-F ) :   0.1095 B(  2-C ,  8-H ) :   0.1160 B(  3-C ,  6-F ) :   0.7020
B(  3-C ,  7-O ) :   1.6745

Dispersion correction           -0.007877957
FINAL SINGLE POINT ENERGY      -331.111685037774

DIPOLE MOMENT
-------------
                                X             Y             Z
Electronic contribution:    -11.45805       2.90645       3.61636
Nuclear contribution   :     11.62992      -2.38586      -4.66016
                        -----------------------------------------
Total Dipole Moment    :      0.17188       0.52058      -1.04380
                        -----------------------------------------
Magnitude (a.u.)       :      1.17901
Magnitude (Debye)      :      2.99681

Rotational constants in cm-1:     0.249088     0.072929     0.060128
Rotational constants in MHz :  7467.482637  2186.350475  1802.579568

                             ****ORCA TERMINATED NORMALLY****
TOTAL RUN TIME: 0 days 0 hours 0 minutes 16 seconds 238 msec
