                         Program Version 5.0.0 -  RELEASE  -
|  1> !PBE0 D3BJ RIJCOSX def2-SVPD def2/J TightSCF
|  2> *xyz 0 1
|  3> C          0.64866        1.00359       -3.64560
|  4> C          0.28128        0.67645       -2.24018
|  5> C          0.13297        2.38587       -4.02462
|  6> C         -1.36646        2.47911       -4.31393
|  7> H          0.39079       -0.31925       -2.02649
|  8> H         -0.69269        0.99010       -2.13812
|  9> H          0.85421        1.21221       -1.57528
| 10> H          0.19099        0.23965       -4.27575
| 11> H          1.73157        0.93173       -3.75075
| 12> H          0.41484        3.10285       -3.24517
| 13> H          0.68317        2.68756       -4.91972
| 14> H         -1.62719        1.77449       -5.07580
| 15> H         -1.60483        3.46796       -4.64597
| 16> H         -1.91603        2.26007       -3.42236
| 17> *
| 18> %MaxCore 64000
| 19>
| 20> %pal nprocs 4
| 21> end
| 22>
| 23> %scf
| 24>   MaxIter 150
| 25> end
| 26>
| 27>
| 28>                          ****END OF INPUT****

CARTESIAN COORDINATES (ANGSTROEM)
---------------------------------
  C      0.648660    1.003590   -3.645600
  C      0.281280    0.676450   -2.240180
  C      0.132970    2.385870   -4.024620
  C     -1.366460    2.479110   -4.313930
  H      0.390790   -0.319250   -2.026490
  H     -0.692690    0.990100   -2.138120
  H      0.854210    1.212210   -1.575280
  H      0.190990    0.239650   -4.275750
  H      1.731570    0.931730   -3.750750
  H      0.414840    3.102850   -3.245170
  H      0.683170    2.687560   -4.919720
  H     -1.627190    1.774490   -5.075800
  H     -1.604830    3.467960   -4.645970
  H     -1.916030    2.260070   -3.422360

 Total Charge           Charge          ....    0
 Multiplicity           Mult            ....    1
 Number of Electrons    NEL             ....   34
 Basis Dimension        Dim             ....  160

ORBITAL ENERGIES
----------------

  NO   OCC          E(Eh)            E(eV)
   0   2.0000     -10.222928      -278.1800
   1   2.0000     -10.218049      -278.0472
   2   2.0000     -10.213839      -277.9327
   3   2.0000     -10.192243      -277.3450
   4   2.0000      -0.820807       -22.3353
   5   2.0000      -0.745461       -20.2850
   6   2.0000      -0.656364       -17.8606
   7   2.0000      -0.581106       -15.8127
   8   2.0000      -0.483965       -13.1694
   9   2.0000      -0.471894       -12.8409
  10   2.0000      -0.440949       -11.9988
  11   2.0000      -0.407856       -11.0983
  12   2.0000      -0.390458       -10.6249
  13   2.0000      -0.375539       -10.2189
  14   2.0000      -0.338435        -9.2093
  15   2.0000      -0.335568        -9.1313
  16   2.0000      -0.325145        -8.8477
  17   0.0000       0.033808         0.9200
  18   0.0000       0.058954         1.6042
  19   0.0000       0.061789         1.6814
  20   0.0000       0.067093         1.8257
  21   0.0000       0.107063         2.9133

MULLIKEN ATOMIC CHARGES
-----------------------
   0 C :   -0.382019
   1 C :    0.988097
   2 C :   -0.457659
   3 C :    0.583461
   4 H :   -0.167888
   5 H :   -0.356133
   6 H :   -0.035257
   7 H :    0.026319
   8 H :   -0.089497
   9 H :    0.002101
  10 H :   -0.034453
  11 H :    0.046111
  12 H :    0.002754
  13 H :   -0.125937
Sum of atomic charges:   -0.0000000

LOEWDIN ATOMIC CHARGES
----------------------
   0 C :   -0.084835
   1 C :    0.121140
   2 C :   -0.088834
   3 C :    0.121840
   4 H :   -0.030031
   5 H :   -0.043463
   6 H :   -0.025328
   7 H :    0.024984
   8 H :    0.022404
   9 H :    0.026112
  10 H :    0.015210
  11 H :   -0.014883
  12 H :   -0.016786
  13 H :   -0.027529

  Mayer bond orders larger than 0.100000
B(  0-C ,  1-C ) :   1.2246 B(  0-C ,  2-C ) :   1.1722 B(  0-C ,  4-H ) :   0.1911
B(  0-C ,  5-H ) :   0.2822 B(  0-C ,  6-H ) :   0.1948 B(  0-C ,  7-H ) :   0.9135
B(  0-C ,  8-H ) :   0.9736 B(  0-C ,  9-H ) :   0.1115 B(  1-C ,  4-H ) :   0.7257
B(  1-C ,  5-H ) :   0.6955 B(  1-C ,  6-H ) :   0.6955 B(  2-C ,  3-C ) :   1.2711
B(  2-C ,  8-H ) :   0.1011 B(  2-C ,  9-H ) :   0.9495 B(  2-C , 10-H ) :   0.9695
B(  2-C , 11-H ) :   0.1801 B(  2-C , 12-H ) :   0.1917 B(  2-C , 13-H ) :   0.1831
B(  3-C , 11-H ) :   0.8052 B(  3-C , 12-H ) :   0.7936 B(  3-C , 13-H ) :   0.8763
B(  5-H ,  6-H ) :   0.1553

Dispersion correction           -0.007773471
FINAL SINGLE POINT ENERGY      -158.135454915429

DIPOLE MOMENT
-------------
                                X             Y             Z
Electronic contribution:      0.65159       0.02148      -0.38758
Nuclear contribution   :     -0.63302      -0.01177       0.37643
                        -----------------------------------------
Total Dipole Moment    :      0.01857       0.00971      -0.01115
                        -----------------------------------------
Magnitude (a.u.)       :      0.02374
Magnitude (Debye)      :      0.06035

Rotational constants in cm-1:     0.480601     0.156500     0.138605
Rotational constants in MHz : 14408.061205  4691.756081  4155.280646

                             ****ORCA TERMINATED NORMALLY****
TOTAL RUN TIME: 0 days 0 hours 0 minutes 11 seconds 777 msec
