                         Program Version 5.0.0 -  RELEASE  -
|  1> !PBE0 D3BJ RIJCOSX def2-SVPD def2/J TightSCF
|  2> *xyz 0 1
|  3> C          0.64866        1.00359       -3.64560
|  4> C          0.13297        2.38587       -4.02462
|  5> C         -1.36646        2.47911       -4.31393
|  6> C         -2.35773        2.30686       -3.13675
|  7> H         -1.63680        1.72709       -5.06399
|  8> H         -1.58235        3.44561       -4.76869
|  9> O         -3.44376        2.84652       -3.25274
| 10> F         -1.97092        1.58304       -2.15123
| 11> H          0.41484        3.10285       -3.24517
| 12> H          0.68317        2.68756       -4.91972
| 13> H          0.37534        0.30051       -4.40446
| 14> H          0.21856        0.70606       -2.71212
| 15> H          1.71431        1.03324       -3.55398
| 16> *
| 17> %MaxCore 64000
| 18>
| 19> %pal nprocs 4
| 20> end
| 21>
| 22> %scf
| 23>   MaxIter 150
| 24> end
| 25>
| 26>
| 27>                          ****END OF INPUT****

CARTESIAN COORDINATES (ANGSTROEM)
---------------------------------
  C      0.648660    1.003590   -3.645600
  C      0.132970    2.385870   -4.024620
  C     -1.366460    2.479110   -4.313930
  C     -2.357730    2.306860   -3.136750
  H     -1.636800    1.727090   -5.063990
  H     -1.582350    3.445610   -4.768690
  O     -3.443760    2.846520   -3.252740
  F     -1.970920    1.583040   -2.151230
  H      0.414840    3.102850   -3.245170
  H      0.683170    2.687560   -4.919720
  H      0.375340    0.300510   -4.404460
  H      0.218560    0.706060   -2.712120
  H      1.714310    1.033240   -3.553980

 Total Charge           Charge          ....    0
 Multiplicity           Mult            ....    1
 Number of Electrons    NEL             ....   48
 Basis Dimension        Dim             ....  182

ORBITAL ENERGIES
----------------

  NO   OCC          E(Eh)            E(eV)
   0   2.0000     -24.847891      -676.1455
   1   2.0000     -19.232337      -523.3385
   2   2.0000     -10.414362      -283.3892
   3   2.0000     -10.265338      -279.3340
   4   2.0000     -10.249739      -278.9096
   5   2.0000     -10.226431      -278.2753
   6   2.0000      -1.321644       -35.9637
   7   2.0000      -1.078842       -29.3568
   8   2.0000      -0.832193       -22.6451
   9   2.0000      -0.745399       -20.2833
  10   2.0000      -0.673477       -18.3262
  11   2.0000      -0.632097       -17.2002
  12   2.0000      -0.562794       -15.3144
  13   2.0000      -0.551829       -15.0160
  14   2.0000      -0.517878       -14.0922
  15   2.0000      -0.476283       -12.9603
  16   2.0000      -0.472212       -12.8495
  17   2.0000      -0.444025       -12.0825
  18   2.0000      -0.425945       -11.5905
  19   2.0000      -0.391275       -10.6471
  20   2.0000      -0.383719       -10.4415
  21   2.0000      -0.362784        -9.8718
  22   2.0000      -0.361422        -9.8348
  23   2.0000      -0.313135        -8.5208
  24   0.0000      -0.022738        -0.6187
  25   0.0000       0.019505         0.5308
  26   0.0000       0.049885         1.3574
  27   0.0000       0.053366         1.4522
  28   0.0000       0.059187         1.6106

MULLIKEN ATOMIC CHARGES
-----------------------
   0 C :    0.585299
   1 C :   -0.425330
   2 C :   -0.199787
   3 C :    0.881960
   4 H :    0.170502
   5 H :    0.084936
   6 O :   -0.514027
   7 F :   -0.461720
   8 H :   -0.030369
   9 H :    0.018952
  10 H :   -0.010639
  11 H :   -0.114171
  12 H :    0.014393
Sum of atomic charges:    0.0000000

LOEWDIN ATOMIC CHARGES
----------------------
   0 C :    0.117376
   1 C :   -0.081911
   2 C :    0.048585
   3 C :    0.011431
   4 H :    0.045285
   5 H :    0.034286
   6 O :   -0.118401
   7 F :   -0.054393
   8 H :    0.029105
   9 H :    0.023770
  10 H :   -0.012548
  11 H :   -0.029470
  12 H :   -0.013115

  Mayer bond orders larger than 0.100000
B(  0-C ,  1-C ) :   1.3060 B(  0-C , 10-H ) :   0.8198 B(  0-C , 11-H ) :   0.8853
B(  0-C , 12-H ) :   0.7945 B(  1-C ,  2-C ) :   1.2083 B(  1-C ,  4-H ) :   0.1142
B(  1-C ,  5-H ) :   0.1066 B(  1-C ,  8-H ) :   0.9725 B(  1-C ,  9-H ) :   0.8879
B(  1-C , 10-H ) :   0.1786 B(  1-C , 11-H ) :   0.1847 B(  1-C , 12-H ) :   0.1819
B(  2-C ,  3-C ) :   1.0587 B(  2-C ,  4-H ) :   0.8212 B(  2-C ,  5-H ) :   0.9249
B(  2-C ,  8-H ) :   0.1175 B(  2-C ,  9-H ) :   0.1024 B(  3-C ,  5-H ) :   0.1163
B(  3-C ,  6-O ) :   1.7500 B(  3-C ,  7-F ) :   0.6375

Dispersion correction           -0.007781878
FINAL SINGLE POINT ENERGY      -331.129047691386

DIPOLE MOMENT
-------------
                                X             Y             Z
Electronic contribution:     -8.88242       0.75408       5.44442
Nuclear contribution   :      9.96624      -0.95867      -5.90440
                        -----------------------------------------
Total Dipole Moment    :      1.08382      -0.20459      -0.45998
                        -----------------------------------------
Magnitude (a.u.)       :      1.19504
Magnitude (Debye)      :      3.03754

Rotational constants in cm-1:     0.233484     0.076940     0.061803
Rotational constants in MHz :  6999.682494  2306.588565  1852.797552

                             ****ORCA TERMINATED NORMALLY****
TOTAL RUN TIME: 0 days 0 hours 0 minutes 17 seconds 177 msec
