                         Program Version 5.0.0 -  RELEASE  -
|  1> !PBE0 D3BJ RIJCOSX def2-SVPD def2/J TightSCF xyzfile
|  2>
|  3> *xyzfile 0 1 D2.xyz
|  4>
|  5> %MaxCore 64000
|  6>
|  7> %pal nprocs 4
|  8> end
|  9>
| 10> %scf
| 11>   MaxIter 150
| 12> end
| 13>
| 14>
| 15>                          ****END OF INPUT****

CARTESIAN COORDINATES (ANGSTROEM)
---------------------------------
  C      0.648656    1.003595   -3.645601
  C      0.281280    0.676454   -2.240179
  C      0.132968    2.385869   -4.024618
  C     -1.366462    2.479106   -4.313932
  C     -2.357732    2.306858   -3.136753
  H     -1.636802    1.727095   -5.063993
  H     -1.582347    3.445605   -4.768687
  H      0.390790   -0.319253   -2.026495
  H     -0.692686    0.990104   -2.138123
  H      0.854206    1.212214   -1.575279
  O     -3.443763    2.846518   -3.252744
  F     -1.970922    1.583042   -2.151229
  H      0.190993    0.239655   -4.275752
  H      1.731572    0.931729   -3.750751
  H      0.414839    3.102847   -3.245165
  H      0.683167    2.687560   -4.919721

 Total Charge           Charge          ....    0
 Multiplicity           Mult            ....    1
 Number of Electrons    NEL             ....   56
 Basis Dimension        Dim             ....  218

ORBITAL ENERGIES
----------------

  NO   OCC          E(Eh)            E(eV)
   0   2.0000     -24.859763      -676.4685
   1   2.0000     -19.240026      -523.5477
   2   2.0000     -10.422424      -283.6086
   3   2.0000     -10.269567      -279.4491
   4   2.0000     -10.246396      -278.8186
   5   2.0000     -10.227660      -278.3088
   6   2.0000     -10.174217      -276.8545
   7   2.0000      -1.343615       -36.5616
   8   2.0000      -1.086785       -29.5729
   9   2.0000      -0.843211       -22.9449
  10   2.0000      -0.782435       -21.2911
  11   2.0000      -0.701185       -19.0802
  12   2.0000      -0.693551       -18.8725
  13   2.0000      -0.600414       -16.3381
  14   2.0000      -0.582366       -15.8470
  15   2.0000      -0.572613       -15.5816
  16   2.0000      -0.525761       -14.3067
  17   2.0000      -0.488642       -13.2966
  18   2.0000      -0.469846       -12.7852
  19   2.0000      -0.464311       -12.6346
  20   2.0000      -0.437962       -11.9175
  21   2.0000      -0.407810       -11.0971
  22   2.0000      -0.400735       -10.9046
  23   2.0000      -0.380964       -10.3665
  24   2.0000      -0.351211        -9.5569
  25   2.0000      -0.345435        -9.3998
  26   2.0000      -0.337970        -9.1966
  27   2.0000      -0.308170        -8.3857
  28   0.0000      -0.030729        -0.8362
  29   0.0000       0.020265         0.5514
  30   0.0000       0.045497         1.2380
  31   0.0000       0.051643         1.4053
  32   0.0000       0.052735         1.4350

MULLIKEN ATOMIC CHARGES
-----------------------
   0 C :   -0.345220
   1 C :    1.915431
   2 C :    0.001829
   3 C :   -0.170472
   4 C :    0.854486
   5 H :    0.232118
   6 H :    0.078062
   7 H :   -0.025529
   8 H :   -1.328460
   9 H :    0.032789
  10 O :   -0.514250
  11 F :   -0.622311
  12 H :    0.043284
  13 H :   -0.142968
  14 H :    0.028575
  15 H :   -0.037361
Sum of atomic charges:    0.0000000

LOEWDIN ATOMIC CHARGES
----------------------
   0 C :   -0.062213
   1 C :    0.139412
   2 C :   -0.036462
   3 C :    0.066042
   4 C :    0.044995
   5 H :    0.048117
   6 H :    0.036210
   7 H :   -0.023241
   8 H :   -0.145305
   9 H :   -0.017271
  10 O :   -0.105028
  11 F :   -0.052863
  12 H :    0.026778
  13 H :    0.022402
  14 H :    0.035113
  15 H :    0.023312

  Mayer bond orders larger than 0.100000
B(  0-C ,  1-C ) :   0.9889 B(  0-C ,  2-C ) :   1.1715 B(  0-C ,  7-H ) :   0.1881
B(  0-C ,  8-H ) :   0.5042 B(  0-C ,  9-H ) :   0.2243 B(  0-C , 12-H ) :   0.8804
B(  0-C , 13-H ) :   0.9751 B(  0-C , 14-H ) :   0.1048 B(  1-C ,  7-H ) :   0.5759
B(  1-C ,  8-H ) :  -1.1086 B(  1-C ,  9-H ) :   0.3744 B(  1-C , 11-F ) :  -0.2107
B(  1-C , 12-H ) :   0.1015 B(  2-C ,  3-C ) :   1.2177 B(  2-C ,  5-H ) :   0.1128
B(  2-C ,  6-H ) :   0.1235 B(  2-C , 13-H ) :   0.1047 B(  2-C , 14-H ) :   0.8942
B(  2-C , 15-H ) :   0.8973 B(  3-C ,  4-C ) :   1.0633 B(  3-C ,  5-H ) :   0.7773
B(  3-C ,  6-H ) :   0.9080 B(  3-C , 11-F ) :   0.1109 B(  3-C , 14-H ) :   0.1095
B(  4-C ,  6-H ) :   0.1156 B(  4-C , 10-O ) :   1.7301 B(  4-C , 11-F ) :   0.5854
B(  7-H ,  8-H ) :   0.2020 B(  8-H ,  9-H ) :   0.4372 B(  8-H , 11-F ) :   0.3035
B(  8-H , 13-H ) :   0.1111 B( 10-O , 11-F ) :   0.1193

Dispersion correction           -0.011170234
FINAL SINGLE POINT ENERGY      -370.316490003333

DIPOLE MOMENT
-------------
                                X             Y             Z
Electronic contribution:    -10.26891       2.33705       3.29599
Nuclear contribution   :     11.08738      -2.45618      -3.73478
                        -----------------------------------------
Total Dipole Moment    :      0.81847      -0.11913      -0.43879
                        -----------------------------------------
Magnitude (a.u.)       :      0.93628
Magnitude (Debye)      :      2.37983

Rotational constants in cm-1:     0.156244     0.063730     0.048063
Rotational constants in MHz :  4684.071402  1910.571278  1440.877811

                             ****ORCA TERMINATED NORMALLY****
TOTAL RUN TIME: 0 days 0 hours 0 minutes 30 seconds 596 msec
