                         Program Version 5.0.0 -  RELEASE  -
|  1> !PBE0 D3BJ RIJCOSX def2-TZVPD def2/J TightSCF
|  2> *xyz -1 1
|  3> C          3.76678       -2.26611       -6.51175
|  4> C          2.49670       -1.84416       -5.73570
|  5> H          1.62642       -2.21743       -6.30895
|  6> H          2.48182       -2.45607       -4.79341
|  7> O          2.45973       -0.50920       -5.50576
|  8> H          3.82914       -1.70941       -7.42340
|  9> H          3.71764       -3.31144       -6.73483
| 10> H          4.63199       -2.06931       -5.91377
| 11> *
| 12>
| 13> %MaxCore 64000
| 14>
| 15> %pal nprocs 4
| 16> end
| 17>
| 18> %scf
| 19>   MaxIter 150
| 20> end
| 21>
| 22>
| 23>                          ****END OF INPUT****

CARTESIAN COORDINATES (ANGSTROEM)
---------------------------------
  C      3.766780   -2.266110   -6.511750
  C      2.496700   -1.844160   -5.735700
  H      1.626420   -2.217430   -6.308950
  H      2.481820   -2.456070   -4.793410
  O      2.459730   -0.509200   -5.505760
  H      3.829140   -1.709410   -7.423400
  H      3.717640   -3.311440   -6.734830
  H      4.631990   -2.069310   -5.913770

 Total Charge           Charge          ....   -1
 Multiplicity           Mult            ....    1
 Number of Electrons    NEL             ....   26
 Basis Dimension        Dim             ....  159

ORBITAL ENERGIES
----------------

  NO   OCC          E(Eh)            E(eV)
   0   2.0000     -18.874885      -513.6117
   1   2.0000     -10.034449      -273.0512
   2   2.0000     -10.008545      -272.3464
   3   2.0000      -0.713879       -19.4256
   4   2.0000      -0.545624       -14.8472
   5   2.0000      -0.389714       -10.6047
   6   2.0000      -0.261415        -7.1135
   7   2.0000      -0.239143        -6.5074
   8   2.0000      -0.184832        -5.0295
   9   2.0000      -0.167655        -4.5621
  10   2.0000      -0.130554        -3.5525
  11   2.0000       0.017053         0.4640
  12   2.0000       0.018622         0.5067
  13   0.0000       0.160878         4.3777
  14   0.0000       0.183419         4.9911
  15   0.0000       0.209939         5.7127
  16   0.0000       0.212421         5.7803
  17   0.0000       0.234392         6.3781

MULLIKEN ATOMIC CHARGES
-----------------------
   0 C :   -0.717622
   1 C :   -0.130836
   2 H :    0.086874
   3 H :    0.081560
   4 O :   -0.887839
   5 H :    0.152750
   6 H :    0.260764
   7 H :    0.154349
Sum of atomic charges:   -1.0000000

LOEWDIN ATOMIC CHARGES
----------------------
   0 C :   -0.173028
   1 C :   -0.633044
   2 H :    0.051885
   3 H :    0.057743
   4 O :   -0.401787
   5 H :    0.037690
   6 H :    0.023985
   7 H :    0.036556

  Mayer bond orders larger than 0.100000
B(  0-C ,  1-C ) :   0.9006 B(  0-C ,  4-O ) :   0.3644 B(  0-C ,  5-H ) :   1.0210
B(  0-C ,  6-H ) :   0.9853 B(  0-C ,  7-H ) :   1.0143 B(  1-C ,  2-H ) :   1.0789
B(  1-C ,  3-H ) :   1.0690 B(  1-C ,  4-O ) :   0.9900 B(  2-H ,  3-H ) :   0.1029

Dispersion correction           -0.003050644
FINAL SINGLE POINT ENERGY      -154.306750832719

DIPOLE MOMENT
-------------
                                X             Y             Z
Electronic contribution:     -1.10382       2.58951       0.98109
Nuclear contribution   :      1.63615      -3.79938      -1.48621
                        -----------------------------------------
Total Dipole Moment    :      0.53234      -1.20987      -0.50512
                        -----------------------------------------
Magnitude (a.u.)       :      1.41504
Magnitude (Debye)      :      3.59674

Rotational constants in cm-1:     1.265582     0.329289     0.289024
Rotational constants in MHz : 37941.194363  9871.829581  8664.719106

                             ****ORCA TERMINATED NORMALLY****
TOTAL RUN TIME: 0 days 0 hours 0 minutes 20 seconds 276 msec
