                         Program Version 5.0.0 -  RELEASE  -
|  1> !PBE0 D3BJ RIJCOSX def2-TZVPD def2/J TightSCF
|  2> *xyz 1 1
|  3> C          4.99986       -1.59613       -5.92488
|  4> N          5.28156       -1.97413       -4.53576
|  5> C          3.76678       -2.26611       -6.51175
|  6> C          4.79250       -1.36132       -3.45730
|  7> N          3.93990       -0.37492       -3.55736
|  8> N          5.25986       -1.75422       -2.23913
|  9> H          5.92282       -2.52145       -2.18672
| 10> H          4.65468       -1.64040       -1.44202
| 11> H          5.70914       -2.87560       -4.38702
| 12> H          3.33010       -0.31764       -4.36125
| 13> H          3.69849        0.11447       -2.70833
| 14> H          4.84333       -0.51793       -5.94302
| 15> H          5.90170       -1.82250       -6.49647
| 16> H          3.63046       -1.94025       -7.52177
| 17> H          2.90710       -2.00116       -5.93240
| 18> H          3.89538       -3.32820       -6.49392
| 19> *
| 20>
| 21> %MaxCore 64000
| 22>
| 23> %pal nprocs 4
| 24> end
| 25>
| 26> %scf
| 27>   MaxIter 150
| 28> end
| 29>
| 30>
| 31>                          ****END OF INPUT****

CARTESIAN COORDINATES (ANGSTROEM)
---------------------------------
  C      4.999860   -1.596130   -5.924880
  N      5.281560   -1.974130   -4.535760
  C      3.766780   -2.266110   -6.511750
  C      4.792500   -1.361320   -3.457300
  N      3.939900   -0.374920   -3.557360
  N      5.259860   -1.754220   -2.239130
  H      5.922820   -2.521450   -2.186720
  H      4.654680   -1.640400   -1.442020
  H      5.709140   -2.875600   -4.387020
  H      3.330100   -0.317640   -4.361250
  H      3.698490    0.114470   -2.708330
  H      4.843330   -0.517930   -5.943020
  H      5.901700   -1.822500   -6.496470
  H      3.630460   -1.940250   -7.521770
  H      2.907100   -2.001160   -5.932400
  H      3.895380   -3.328200   -6.493920

 Total Charge           Charge          ....    1
 Multiplicity           Mult            ....    1
 Number of Electrons    NEL             ....   48
 Basis Dimension        Dim             ....  312

ORBITAL ENERGIES
----------------

  NO   OCC          E(Eh)            E(eV)
   0   2.0000     -14.611433      -397.5973
   1   2.0000     -14.609230      -397.5374
   2   2.0000     -14.602131      -397.3442
   3   2.0000     -10.555644      -287.2337
   4   2.0000     -10.427622      -283.7500
   5   2.0000     -10.358908      -281.8802
   6   2.0000      -1.243127       -33.8272
   7   2.0000      -1.132285       -30.8111
   8   2.0000      -1.116476       -30.3809
   9   2.0000      -0.954700       -25.9787
  10   2.0000      -0.862038       -23.4573
  11   2.0000      -0.822035       -22.3687
  12   2.0000      -0.804809       -21.9000
  13   2.0000      -0.755665       -20.5627
  14   2.0000      -0.710650       -19.3378
  15   2.0000      -0.706581       -19.2271
  16   2.0000      -0.656279       -17.8582
  17   2.0000      -0.644667       -17.5423
  18   2.0000      -0.620643       -16.8886
  19   2.0000      -0.575314       -15.6551
  20   2.0000      -0.546812       -14.8795
  21   2.0000      -0.527101       -14.3431
  22   2.0000      -0.493232       -13.4215
  23   2.0000      -0.463899       -12.6233
  24   0.0000      -0.173346        -4.7170
  25   0.0000      -0.151282        -4.1166
  26   0.0000      -0.121745        -3.3128
  27   0.0000      -0.111271        -3.0278
  28   0.0000      -0.091444        -2.4883

MULLIKEN ATOMIC CHARGES
-----------------------
   0 C :   -0.471773
   1 N :   -0.010806
   2 C :   -0.630520
   3 C :    0.392436
   4 N :   -0.193205
   5 N :   -0.276393
   6 H :    0.204146
   7 H :    0.219140
   8 H :    0.238557
   9 H :    0.205066
  10 H :    0.198140
  11 H :    0.288844
  12 H :    0.158920
  13 H :    0.233940
  14 H :    0.224029
  15 H :    0.219479
Sum of atomic charges:    1.0000000

LOEWDIN ATOMIC CHARGES
----------------------
   0 C :   -0.204546
   1 N :    0.088936
   2 C :   -0.062824
   3 C :   -0.437261
   4 N :    0.228472
   5 N :    0.195560
   6 H :    0.134276
   7 H :    0.128283
   8 H :    0.163944
   9 H :    0.133900
  10 H :    0.145841
  11 H :    0.120834
  12 H :    0.132434
  13 H :    0.085691
  14 H :    0.066992
  15 H :    0.079469

  Mayer bond orders larger than 0.100000
B(  0-C ,  1-N ) :   0.9991 B(  0-C ,  2-C ) :   0.8662 B(  0-C ,  4-N ) :   0.1239
B(  0-C , 11-H ) :   0.8983 B(  0-C , 12-H ) :   0.9983 B(  1-N ,  3-C ) :   1.2554
B(  1-N ,  8-H ) :   0.9259 B(  2-C , 13-H ) :   0.9886 B(  2-C , 14-H ) :   0.9586
B(  2-C , 15-H ) :   0.9868 B(  3-C ,  4-N ) :   1.2989 B(  3-C ,  5-N ) :   1.1889
B(  4-N ,  9-H ) :   0.9344 B(  4-N , 10-H ) :   0.9768 B(  5-N ,  6-H ) :   0.9537
B(  5-N ,  7-H ) :   0.9595

Dispersion correction           -0.010411658
FINAL SINGLE POINT ENERGY      -284.182298903239

DIPOLE MOMENT
-------------
                                X             Y             Z
Electronic contribution:      1.74946       1.09582       4.71748
Nuclear contribution   :     -1.95709      -1.20097      -3.70214
                        -----------------------------------------
Total Dipole Moment    :     -0.20763      -0.10515       1.01534
                        -----------------------------------------
Magnitude (a.u.)       :      1.04168
Magnitude (Debye)      :      2.64773

Rotational constants in cm-1:     0.241661     0.071598     0.061743
Rotational constants in MHz :  7244.800091  2146.442409  1851.001864

                             ****ORCA TERMINATED NORMALLY****
TOTAL RUN TIME: 0 days 0 hours 0 minutes 58 seconds 593 msec
