                         Program Version 5.0.0 -  RELEASE  -
|  1> !PBE0 D3BJ RIJCOSX def2-TZVPD def2/J TightSCF xyzfile
|  2>
|  3> *xyzfile 0 1 B.xyz
|  4>
|  5> %MaxCore 64000
|  6>
|  7> %pal nprocs 4
|  8> end
|  9>
| 10> %scf
| 11>   MaxIter 150
| 12> end
| 13>
| 14>
| 15>                          ****END OF INPUT****

CARTESIAN COORDINATES (ANGSTROEM)
---------------------------------
  C      4.999862   -1.596133   -5.924876
  N      5.281560   -1.974132   -4.535764
  C      3.766779   -2.266110   -6.511752
  C      2.496702   -1.844161   -5.735704
  H      1.626416   -2.217434   -6.308950
  H      2.481824   -2.456069   -4.793414
  O      2.459729   -0.509204   -5.505757
  C      4.792500   -1.361316   -3.457295
  N      3.939898   -0.374925   -3.557359
  N      5.259860   -1.754224   -2.239133
  H      5.922824   -2.521451   -2.186720
  H      4.654678   -1.640404   -1.442016
  H      5.709139   -2.875599   -4.387021
  H      3.330101   -0.317639   -4.361247
  H      3.698494    0.114468   -2.708333
  H      4.843333   -0.517930   -5.943019
  H      5.901695   -1.822503   -6.496467
  H      3.886191   -3.357076   -6.533604
  H      3.685602   -1.922168   -7.547128

 Total Charge           Charge          ....    0
 Multiplicity           Mult            ....    1
 Number of Electrons    NEL             ....   64
 Basis Dimension        Dim             ....  398

ORBITAL ENERGIES
----------------

  NO   OCC          E(Eh)            E(eV)
   0   2.0000     -19.061819      -518.6985
   1   2.0000     -14.447452      -393.1352
   2   2.0000     -14.441638      -392.9769
   3   2.0000     -14.397795      -391.7839
   4   2.0000     -10.378837      -282.4225
   5   2.0000     -10.254811      -279.0476
   6   2.0000     -10.203139      -277.6415
   7   2.0000     -10.190412      -277.2952
   8   2.0000      -1.069132       -29.0926
   9   2.0000      -0.961336       -26.1593
  10   2.0000      -0.944896       -25.7119
  11   2.0000      -0.909192       -24.7404
  12   2.0000      -0.779783       -21.2190
  13   2.0000      -0.697441       -18.9783
  14   2.0000      -0.651695       -17.7335
  15   2.0000      -0.628243       -17.0954
  16   2.0000      -0.602012       -16.3816
  17   2.0000      -0.559308       -15.2195
  18   2.0000      -0.535892       -14.5824
  19   2.0000      -0.519034       -14.1236
  20   2.0000      -0.484135       -13.1740
  21   2.0000      -0.473626       -12.8880
  22   2.0000      -0.448478       -12.2037
  23   2.0000      -0.418497       -11.3879
  24   2.0000      -0.375138       -10.2080
  25   2.0000      -0.354675        -9.6512
  26   2.0000      -0.343028        -9.3343
  27   2.0000      -0.321901        -8.7594
  28   2.0000      -0.311853        -8.4859
  29   2.0000      -0.289303        -7.8723
  30   2.0000      -0.179332        -4.8799
  31   2.0000      -0.174146        -4.7387
  32   0.0000      -0.025687        -0.6990
  33   0.0000       0.000433         0.0118
  34   0.0000       0.010702         0.2912
  35   0.0000       0.026049         0.7088
  36   0.0000       0.044583         1.2132

MULLIKEN ATOMIC CHARGES
-----------------------
   0 C :   -0.457805
   1 N :   -0.038063
   2 C :   -0.029358
   3 C :   -0.254708
   4 H :    0.101956
   5 H :    0.134418
   6 O :   -0.861146
   7 C :    0.270632
   8 N :   -0.098707
   9 N :   -0.306006
  10 H :    0.170339
  11 H :    0.190856
  12 H :    0.231949
  13 H :    0.148443
  14 H :    0.160256
  15 H :    0.268496
  16 H :    0.111434
  17 H :    0.118372
  18 H :    0.138639
Sum of atomic charges:   -0.0000000

LOEWDIN ATOMIC CHARGES
----------------------
   0 C :   -0.181167
   1 N :    0.082005
   2 C :   -0.186481
   3 C :   -0.453969
   4 H :    0.096405
   5 H :    0.092401
   6 O :   -0.292498
   7 C :   -0.460822
   8 N :    0.218824
   9 N :    0.153887
  10 H :    0.111651
  11 H :    0.110887
  12 H :    0.148625
  13 H :   -0.018187
  14 H :    0.130083
  15 H :    0.122459
  16 H :    0.115617
  17 H :    0.101131
  18 H :    0.109149

  Mayer bond orders larger than 0.100000
B(  0-C ,  1-N ) :   1.0473 B(  0-C ,  2-C ) :   1.0161 B(  0-C ,  6-O ) :   0.1468
B(  0-C , 15-H ) :   0.8515 B(  0-C , 16-H ) :   0.9953 B(  1-N ,  7-C ) :   1.2180
B(  1-N , 12-H ) :   0.9125 B(  2-C ,  3-C ) :   0.9862 B(  2-C , 17-H ) :   0.9947
B(  2-C , 18-H ) :   0.8902 B(  3-C ,  4-H ) :   1.0735 B(  3-C ,  5-H ) :   0.9545
B(  3-C ,  6-O ) :   1.0995 B(  6-O ,  8-N ) :  -0.1027 B(  6-O , 13-H ) :   0.2800
B(  7-C ,  8-N ) :   1.3780 B(  7-C ,  9-N ) :   1.1074 B(  8-N , 13-H ) :   0.7659
B(  8-N , 14-H ) :   0.9941 B(  9-N , 10-H ) :   0.9754 B(  9-N , 11-H ) :   0.9750

Dispersion correction           -0.014983158
FINAL SINGLE POINT ENERGY      -398.207948878587

DIPOLE MOMENT
-------------
                                X             Y             Z
Electronic contribution:      1.87136       1.98683       3.66231
Nuclear contribution   :      0.51577      -3.31768      -1.36804
                        -----------------------------------------
Total Dipole Moment    :      2.38712      -1.33085       2.29427
                        -----------------------------------------
Magnitude (a.u.)       :      3.56836
Magnitude (Debye)      :      9.07006

Rotational constants in cm-1:     0.111492     0.050787     0.040163
Rotational constants in MHz :  3342.457536  1522.560798  1204.057148

                             ****ORCA TERMINATED NORMALLY****
TOTAL RUN TIME: 0 days 0 hours 1 minutes 45 seconds 636 msec
