                         Program Version 5.0.0 -  RELEASE  -
|  1> !PBE0 D3BJ RIJCOSX def2-TZVPD def2/J TightSCF
|  2> *xyz 0 1
|  3> C          3.76678       -2.26611       -6.51175
|  4> C          2.49670       -1.84416       -5.73570
|  5> H          1.62642       -2.21743       -6.30895
|  6> H          2.48182       -2.45607       -4.79341
|  7> F          2.45973       -0.50920       -5.50576
|  8> H          3.82914       -1.70941       -7.42340
|  9> H          3.71764       -3.31144       -6.73483
| 10> H          4.63199       -2.06931       -5.91377
| 11> *
| 12>
| 13> %MaxCore 64000
| 14>
| 15> %pal nprocs 4
| 16> end
| 17>
| 18> %scf
| 19>   MaxIter 150
| 20> end
| 21>
| 22>
| 23>                          ****END OF INPUT****

CARTESIAN COORDINATES (ANGSTROEM)
---------------------------------
  C      3.766780   -2.266110   -6.511750
  C      2.496700   -1.844160   -5.735700
  H      1.626420   -2.217430   -6.308950
  H      2.481820   -2.456070   -4.793410
  F      2.459730   -0.509200   -5.505760
  H      3.829140   -1.709410   -7.423400
  H      3.717640   -3.311440   -6.734830
  H      4.631990   -2.069310   -5.913770

 Total Charge           Charge          ....    0
 Multiplicity           Mult            ....    1
 Number of Electrons    NEL             ....   26
 Basis Dimension        Dim             ....  159

ORBITAL ENERGIES
----------------

  NO   OCC          E(Eh)            E(eV)
   0   2.0000     -24.762173      -673.8130
   1   2.0000     -10.299908      -280.2747
   2   2.0000     -10.213609      -277.9264
   3   2.0000      -1.238841       -33.7106
   4   2.0000      -0.784965       -21.3600
   5   2.0000      -0.652175       -17.7466
   6   2.0000      -0.528917       -14.3926
   7   2.0000      -0.512360       -13.9420
   8   2.0000      -0.477720       -12.9994
   9   2.0000      -0.420103       -11.4316
  10   2.0000      -0.413650       -11.2560
  11   2.0000      -0.347320        -9.4510
  12   2.0000      -0.341908        -9.3038
  13   0.0000       0.016933         0.4608
  14   0.0000       0.043368         1.1801
  15   0.0000       0.060869         1.6563
  16   0.0000       0.064370         1.7516
  17   0.0000       0.092049         2.5048

MULLIKEN ATOMIC CHARGES
-----------------------
   0 C :   -0.626294
   1 C :    0.027363
   2 H :    0.134807
   3 H :    0.127796
   4 F :   -0.253342
   5 H :    0.180108
   6 H :    0.230032
   7 H :    0.179530
Sum of atomic charges:   -0.0000000

LOEWDIN ATOMIC CHARGES
----------------------
   0 C :   -0.083924
   1 C :   -0.301245
   2 H :    0.109444
   3 H :    0.117289
   4 F :   -0.034172
   5 H :    0.063959
   6 H :    0.065625
   7 H :    0.063025

  Mayer bond orders larger than 0.100000
B(  0-C ,  1-C ) :   0.9353 B(  0-C ,  5-H ) :   0.9779 B(  0-C ,  6-H ) :   0.9523
B(  0-C ,  7-H ) :   0.9769 B(  1-C ,  2-H ) :   0.9926 B(  1-C ,  3-H ) :   0.9893
B(  1-C ,  4-F ) :   0.8654

Dispersion correction           -0.002811007
FINAL SINGLE POINT ENERGY      -178.937904943889

DIPOLE MOMENT
-------------
                                X             Y             Z
Electronic contribution:     -2.07976       4.34702       1.81373
Nuclear contribution   :      2.16248      -5.01128      -1.96962
                        -----------------------------------------
Total Dipole Moment    :      0.08271      -0.66427      -0.15589
                        -----------------------------------------
Magnitude (a.u.)       :      0.68731
Magnitude (Debye)      :      1.74699

Rotational constants in cm-1:     1.244010     0.306580     0.270375
Rotational constants in MHz : 37294.476802  9191.037795  8105.639967

                             ****ORCA TERMINATED NORMALLY****
TOTAL RUN TIME: 0 days 0 hours 0 minutes 14 seconds 131 msec
