                         Program Version 5.0.0 -  RELEASE  -
|  1> !PBE0 D3BJ RIJCOSX def2-TZVPD def2/J TightSCF
|  2> *xyz 0 1
|  3> C          4.99986       -1.59613       -5.92488
|  4> C          5.28156       -1.97413       -4.53576
|  5> C          3.76678       -2.26611       -6.51175
|  6> C          4.79250       -1.36132       -3.45730
|  7> N          3.93990       -0.37492       -3.55736
|  8> N          5.25986       -1.75422       -2.23913
|  9> H          5.92282       -2.52145       -2.18672
| 10> H          4.65468       -1.64040       -1.44202
| 11> H          5.70914       -2.87560       -4.38702
| 12> H          3.33010       -0.31764       -4.36125
| 13> H          3.69849        0.11447       -2.70833
| 14> H          4.84333       -0.51793       -5.94302
| 15> H          5.90170       -1.82250       -6.49647
| 16> H          3.63046       -1.94025       -7.52177
| 17> H          2.90710       -2.00116       -5.93240
| 18> H          3.89538       -3.32820       -6.49392
| 19> *
| 20>
| 21> %MaxCore 64000
| 22>
| 23> %pal nprocs 4
| 24> end
| 25>
| 26> %scf
| 27>   MaxIter 150
| 28> end
| 29>
| 30>
| 31>                          ****END OF INPUT****

CARTESIAN COORDINATES (ANGSTROEM)
---------------------------------
  C      4.999860   -1.596130   -5.924880
  C      5.281560   -1.974130   -4.535760
  C      3.766780   -2.266110   -6.511750
  C      4.792500   -1.361320   -3.457300
  N      3.939900   -0.374920   -3.557360
  N      5.259860   -1.754220   -2.239130
  H      5.922820   -2.521450   -2.186720
  H      4.654680   -1.640400   -1.442020
  H      5.709140   -2.875600   -4.387020
  H      3.330100   -0.317640   -4.361250
  H      3.698490    0.114470   -2.708330
  H      4.843330   -0.517930   -5.943020
  H      5.901700   -1.822500   -6.496470
  H      3.630460   -1.940250   -7.521770
  H      2.907100   -2.001160   -5.932400
  H      3.895380   -3.328200   -6.493920

 Total Charge           Charge          ....    0
 Multiplicity           Mult            ....    1
 Number of Electrons    NEL             ....   48
 Basis Dimension        Dim             ....  312

ORBITAL ENERGIES
----------------

  NO   OCC          E(Eh)            E(eV)
   0   2.0000     -14.388432      -391.5291
   1   2.0000     -14.380387      -391.3102
   2   2.0000     -10.263244      -279.2771
   3   2.0000     -10.194100      -277.3956
   4   2.0000     -10.187227      -277.2086
   5   2.0000     -10.146071      -276.0886
   6   2.0000      -0.990268       -26.9466
   7   2.0000      -0.896932       -24.4068
   8   2.0000      -0.797052       -21.6889
   9   2.0000      -0.716688       -19.5021
  10   2.0000      -0.634806       -17.2739
  11   2.0000      -0.594783       -16.1849
  12   2.0000      -0.561825       -15.2880
  13   2.0000      -0.519768       -14.1436
  14   2.0000      -0.492407       -13.3991
  15   2.0000      -0.457377       -12.4459
  16   2.0000      -0.428852       -11.6696
  17   2.0000      -0.408623       -11.1192
  18   2.0000      -0.396773       -10.7968
  19   2.0000      -0.364745        -9.9252
  20   2.0000      -0.338549        -9.2124
  21   2.0000      -0.330516        -8.9938
  22   2.0000      -0.278730        -7.5846
  23   2.0000      -0.173365        -4.7175
  24   0.0000       0.003670         0.0999
  25   0.0000       0.029879         0.8130
  26   0.0000       0.039395         1.0720
  27   0.0000       0.049494         1.3468
  28   0.0000       0.063558         1.7295

MULLIKEN ATOMIC CHARGES
-----------------------
   0 C :   -0.363081
   1 C :   -0.678929
   2 C :   -0.688158
   3 C :    0.528429
   4 N :   -0.258296
   5 N :   -0.363321
   6 H :    0.167442
   7 H :    0.161059
   8 H :    0.254942
   9 H :    0.167998
  10 H :    0.158801
  11 H :    0.206219
  12 H :    0.099195
  13 H :    0.177381
  14 H :    0.217137
  15 H :    0.213182
Sum of atomic charges:   -0.0000000

LOEWDIN ATOMIC CHARGES
----------------------
   0 C :   -0.287101
   1 C :   -0.137102
   2 C :   -0.112077
   3 C :   -0.551058
   4 N :    0.134293
   5 N :    0.099174
   6 H :    0.104646
   7 H :    0.085883
   8 H :    0.062618
   9 H :    0.107337
  10 H :    0.106784
  11 H :    0.098441
  12 H :    0.103684
  13 H :    0.059607
  14 H :    0.058119
  15 H :    0.066753

  Mayer bond orders larger than 0.100000
B(  0-C ,  1-C ) :   1.0219 B(  0-C ,  2-C ) :   0.6972 B(  0-C ,  4-N ) :   0.1043
B(  0-C , 11-H ) :   0.9879 B(  0-C , 12-H ) :   1.0667 B(  1-C ,  2-C ) :   0.1359
B(  1-C ,  3-C ) :   1.3730 B(  1-C ,  4-N ) :   0.1018 B(  1-C ,  5-N ) :   0.1511
B(  1-C ,  8-H ) :   0.9621 B(  2-C , 13-H ) :   0.9963 B(  2-C , 14-H ) :   0.9859
B(  2-C , 15-H ) :   1.0053 B(  3-C ,  4-N ) :   1.1108 B(  3-C ,  5-N ) :   0.9742
B(  3-C ,  8-H ) :  -0.1045 B(  4-N ,  9-H ) :   0.9617 B(  4-N , 10-H ) :   1.0027
B(  5-N ,  6-H ) :   0.9823 B(  5-N ,  7-H ) :   1.0162

Dispersion correction           -0.010836642
FINAL SINGLE POINT ENERGY      -267.709843494168

DIPOLE MOMENT
-------------
                                X             Y             Z
Electronic contribution:      1.23248       1.38795       4.50342
Nuclear contribution   :     -1.82485      -1.28952      -3.74132
                        -----------------------------------------
Total Dipole Moment    :     -0.59237       0.09843       0.76210
                        -----------------------------------------
Magnitude (a.u.)       :      0.97026
Magnitude (Debye)      :      2.46619

Rotational constants in cm-1:     0.245790     0.071632     0.062004
Rotational constants in MHz :  7368.599517  2147.482078  1858.844841

                             ****ORCA TERMINATED NORMALLY****
TOTAL RUN TIME: 0 days 0 hours 1 minutes 0 seconds 864 msec
