                         Program Version 5.0.0 -  RELEASE  -
|  1> !PBE0 D3BJ RIJCOSX def2-TZVPD def2/J TightSCF
|  2> *xyz 0 1
|  3> C          4.99986       -1.59613       -5.92488
|  4> N          5.28156       -1.97413       -4.53576
|  5> C          3.76678       -2.26611       -6.51175
|  6> C          4.79250       -1.36132       -3.45730
|  7> C          3.93990       -0.37492       -3.55736
|  8> N          5.25986       -1.75422       -2.23913
|  9> H          5.92282       -2.52145       -2.18672
| 10> H          4.65468       -1.64040       -1.44202
| 11> H          5.70914       -2.87560       -4.38702
| 12> H          3.33010       -0.31764       -4.36125
| 13> H          3.69849        0.11447       -2.70833
| 14> H          4.84333       -0.51793       -5.94302
| 15> H          5.90170       -1.82250       -6.49647
| 16> H          3.63046       -1.94025       -7.52177
| 17> H          2.90710       -2.00116       -5.93240
| 18> H          3.89538       -3.32820       -6.49392
| 19> *
| 20>
| 21> %MaxCore 64000
| 22>
| 23> %pal nprocs 4
| 24> end
| 25>
| 26> %scf
| 27>   MaxIter 150
| 28> end
| 29>
| 30>
| 31>                          ****END OF INPUT****

CARTESIAN COORDINATES (ANGSTROEM)
---------------------------------
  C      4.999860   -1.596130   -5.924880
  N      5.281560   -1.974130   -4.535760
  C      3.766780   -2.266110   -6.511750
  C      4.792500   -1.361320   -3.457300
  C      3.939900   -0.374920   -3.557360
  N      5.259860   -1.754220   -2.239130
  H      5.922820   -2.521450   -2.186720
  H      4.654680   -1.640400   -1.442020
  H      5.709140   -2.875600   -4.387020
  H      3.330100   -0.317640   -4.361250
  H      3.698490    0.114470   -2.708330
  H      4.843330   -0.517930   -5.943020
  H      5.901700   -1.822500   -6.496470
  H      3.630460   -1.940250   -7.521770
  H      2.907100   -2.001160   -5.932400
  H      3.895380   -3.328200   -6.493920

 Total Charge           Charge          ....    0
 Multiplicity           Mult            ....    1
 Number of Electrons    NEL             ....   48
 Basis Dimension        Dim             ....  312

ORBITAL ENERGIES
----------------

  NO   OCC          E(Eh)            E(eV)
   0   2.0000     -14.387113      -391.4932
   1   2.0000     -14.381380      -391.3372
   2   2.0000     -10.264880      -279.3216
   3   2.0000     -10.251988      -278.9708
   4   2.0000     -10.203623      -277.6547
   5   2.0000     -10.133679      -275.7514
   6   2.0000      -0.989634       -26.9293
   7   2.0000      -0.904824       -24.6215
   8   2.0000      -0.779163       -21.2021
   9   2.0000      -0.739328       -20.1181
  10   2.0000      -0.656919       -17.8757
  11   2.0000      -0.581539       -15.8245
  12   2.0000      -0.558961       -15.2101
  13   2.0000      -0.527032       -14.3413
  14   2.0000      -0.470917       -12.8143
  15   2.0000      -0.459527       -12.5044
  16   2.0000      -0.439295       -11.9538
  17   2.0000      -0.412936       -11.2366
  18   2.0000      -0.397067       -10.8047
  19   2.0000      -0.384222       -10.4552
  20   2.0000      -0.365953        -9.9581
  21   2.0000      -0.358388        -9.7522
  22   2.0000      -0.262690        -7.1482
  23   2.0000      -0.184656        -5.0247
  24   0.0000       0.006104         0.1661
  25   0.0000       0.028727         0.7817
  26   0.0000       0.037875         1.0306
  27   0.0000       0.044829         1.2199
  28   0.0000       0.065562         1.7840

MULLIKEN ATOMIC CHARGES
-----------------------
   0 C :   -0.464890
   1 N :   -0.086548
   2 C :   -0.647287
   3 C :    0.592476
   4 C :   -1.127056
   5 N :   -0.320481
   6 H :    0.148920
   7 H :    0.195762
   8 H :    0.201047
   9 H :    0.228982
  10 H :    0.222237
  11 H :    0.309855
  12 H :    0.135624
  13 H :    0.219761
  14 H :    0.200301
  15 H :    0.191297
Sum of atomic charges:    0.0000000

LOEWDIN ATOMIC CHARGES
----------------------
   0 C :   -0.240580
   1 N :    0.011947
   2 C :   -0.089009
   3 C :   -0.561449
   4 C :    0.004410
   5 N :    0.106037
   6 H :    0.094176
   7 H :    0.099267
   8 H :    0.132481
   9 H :    0.010593
  10 H :    0.016528
  11 H :    0.110246
  12 H :    0.111318
  13 H :    0.066309
  14 H :    0.063382
  15 H :    0.064345

  Mayer bond orders larger than 0.100000
B(  0-C ,  1-N ) :   0.9826 B(  0-C ,  2-C ) :   0.8196 B(  0-C ,  4-C ) :   0.2174
B(  0-C , 11-H ) :   0.9137 B(  0-C , 12-H ) :   0.9850 B(  1-N ,  3-C ) :   1.1141
B(  1-N ,  8-H ) :   0.9449 B(  2-C , 13-H ) :   0.9778 B(  2-C , 14-H ) :   1.0113
B(  2-C , 15-H ) :   0.9876 B(  3-C ,  4-C ) :   1.4194 B(  3-C ,  5-N ) :   1.0333
B(  4-C ,  9-H ) :   0.9432 B(  4-C , 10-H ) :   1.0656 B(  5-N ,  6-H ) :   1.0049
B(  5-N ,  7-H ) :   0.9654

Dispersion correction           -0.010802060
FINAL SINGLE POINT ENERGY      -267.702073783013

DIPOLE MOMENT
-------------
                                X             Y             Z
Electronic contribution:      2.40525      -0.08428       3.49090
Nuclear contribution   :     -2.10948      -0.95026      -3.53375
                        -----------------------------------------
Total Dipole Moment    :      0.29577      -1.03453      -0.04286
                        -----------------------------------------
Magnitude (a.u.)       :      1.07684
Magnitude (Debye)      :      2.73711

Rotational constants in cm-1:     0.255209     0.072067     0.062929
Rotational constants in MHz :  7650.964615  2160.525743  1886.569524

                             ****ORCA TERMINATED NORMALLY****
TOTAL RUN TIME: 0 days 0 hours 0 minutes 58 seconds 152 msec
