                         Program Version 5.0.0 -  RELEASE  -
|  1> !PBE0 D3BJ RIJCOSX def2-TZVPD def2/J TightSCF
|  2> *xyz 0 1
|  3> C          4.99986       -1.59613       -5.92488
|  4> N          5.28156       -1.97413       -4.53576
|  5> C          3.76678       -2.26611       -6.51175
|  6> C          4.79250       -1.36132       -3.45730
|  7> N          3.93990       -0.37492       -3.55736
|  8> C          5.25986       -1.75422       -2.23913
|  9> H          5.92282       -2.52145       -2.18672
| 10> H          4.65468       -1.64040       -1.44202
| 11> H          5.70914       -2.87560       -4.38702
| 12> H          3.33010       -0.31764       -4.36125
| 13> H          3.69849        0.11447       -2.70833
| 14> H          4.84333       -0.51793       -5.94302
| 15> H          5.90170       -1.82250       -6.49647
| 16> H          3.63046       -1.94025       -7.52177
| 17> H          2.90710       -2.00116       -5.93240
| 18> H          3.89538       -3.32820       -6.49392
| 19> *
| 20>
| 21> %MaxCore 64000
| 22>
| 23> %pal nprocs 4
| 24> end
| 25>
| 26> %scf
| 27>   MaxIter 150
| 28> end
| 29>
| 30>
| 31>                          ****END OF INPUT****

CARTESIAN COORDINATES (ANGSTROEM)
---------------------------------
  C      4.999860   -1.596130   -5.924880
  N      5.281560   -1.974130   -4.535760
  C      3.766780   -2.266110   -6.511750
  C      4.792500   -1.361320   -3.457300
  N      3.939900   -0.374920   -3.557360
  C      5.259860   -1.754220   -2.239130
  H      5.922820   -2.521450   -2.186720
  H      4.654680   -1.640400   -1.442020
  H      5.709140   -2.875600   -4.387020
  H      3.330100   -0.317640   -4.361250
  H      3.698490    0.114470   -2.708330
  H      4.843330   -0.517930   -5.943020
  H      5.901700   -1.822500   -6.496470
  H      3.630460   -1.940250   -7.521770
  H      2.907100   -2.001160   -5.932400
  H      3.895380   -3.328200   -6.493920

 Total Charge           Charge          ....    0
 Multiplicity           Mult            ....    1
 Number of Electrons    NEL             ....   48
 Basis Dimension        Dim             ....  312

ORBITAL ENERGIES
----------------

  NO   OCC          E(Eh)            E(eV)
   0   2.0000     -14.388681      -391.5359
   1   2.0000     -14.387311      -391.4986
   2   2.0000     -10.269388      -279.4442
   3   2.0000     -10.260848      -279.2119
   4   2.0000     -10.214565      -277.9525
   5   2.0000     -10.130040      -275.6524
   6   2.0000      -1.000313       -27.2199
   7   2.0000      -0.916190       -24.9308
   8   2.0000      -0.796370       -21.6703
   9   2.0000      -0.719235       -19.5714
  10   2.0000      -0.648509       -17.6468
  11   2.0000      -0.621497       -16.9118
  12   2.0000      -0.562216       -15.2987
  13   2.0000      -0.515417       -14.0252
  14   2.0000      -0.497263       -13.5312
  15   2.0000      -0.459766       -12.5109
  16   2.0000      -0.445302       -12.1173
  17   2.0000      -0.418549       -11.3893
  18   2.0000      -0.400863       -10.9080
  19   2.0000      -0.379888       -10.3373
  20   2.0000      -0.376071       -10.2334
  21   2.0000      -0.360595        -9.8123
  22   2.0000      -0.269625        -7.3369
  23   2.0000      -0.170853        -4.6491
  24   0.0000       0.002693         0.0733
  25   0.0000       0.032047         0.8720
  26   0.0000       0.033862         0.9214
  27   0.0000       0.039319         1.0699
  28   0.0000       0.064354         1.7512

MULLIKEN ATOMIC CHARGES
-----------------------
   0 C :   -0.434922
   1 N :   -0.043293
   2 C :   -0.648990
   3 C :    0.596748
   4 N :   -0.263646
   5 C :   -1.194049
   6 H :    0.197558
   7 H :    0.228672
   8 H :    0.191041
   9 H :    0.153815
  10 H :    0.181667
  11 H :    0.281233
  12 H :    0.136529
  13 H :    0.214307
  14 H :    0.217104
  15 H :    0.186226
Sum of atomic charges:    0.0000000

LOEWDIN ATOMIC CHARGES
----------------------
   0 C :   -0.242810
   1 N :    0.022205
   2 C :   -0.091949
   3 C :   -0.574664
   4 N :    0.130639
   5 C :   -0.007844
   6 H :   -0.000385
   7 H :   -0.006082
   8 H :    0.141700
   9 H :    0.098000
  10 H :    0.117657
  11 H :    0.107676
  12 H :    0.112410
  13 H :    0.065999
  14 H :    0.060169
  15 H :    0.067277

  Mayer bond orders larger than 0.100000
B(  0-C ,  1-N ) :   0.9709 B(  0-C ,  2-C ) :   0.8191 B(  0-C ,  4-N ) :   0.1496
B(  0-C , 11-H ) :   0.9250 B(  0-C , 12-H ) :   1.0186 B(  1-N ,  3-C ) :   1.1492
B(  1-N ,  8-H ) :   0.9353 B(  2-C , 13-H ) :   1.0011 B(  2-C , 14-H ) :   0.9893
B(  2-C , 15-H ) :   1.0021 B(  3-C ,  4-N ) :   1.1777 B(  3-C ,  5-C ) :   1.2123
B(  4-N ,  5-C ) :   0.1014 B(  4-N ,  9-H ) :   0.9737 B(  4-N , 10-H ) :   0.9829
B(  5-C ,  6-H ) :   1.0505 B(  5-C ,  7-H ) :   1.0516

Dispersion correction           -0.010736485
FINAL SINGLE POINT ENERGY      -267.696215436750

DIPOLE MOMENT
-------------
                                X             Y             Z
Electronic contribution:      1.15260       1.24709       2.12996
Nuclear contribution   :     -1.82946      -1.24287      -3.25410
                        -----------------------------------------
Total Dipole Moment    :     -0.67686       0.00422      -1.12414
                        -----------------------------------------
Magnitude (a.u.)       :      1.31219
Magnitude (Debye)      :      3.33532

Rotational constants in cm-1:     0.244672     0.074506     0.064043
Rotational constants in MHz :  7335.067153  2233.624025  1919.970379

                             ****ORCA TERMINATED NORMALLY****
TOTAL RUN TIME: 0 days 0 hours 0 minutes 57 seconds 211 msec
