                         Program Version 5.0.0 -  RELEASE  -
|  1> !PBE0 D3BJ RIJCOSX def2-TZVPD def2/J TightSCF xyzfile
|  2>
|  3> *xyzfile 0 1 D1.xyz
|  4>
|  5> %MaxCore 64000
|  6>
|  7> %pal nprocs 4
|  8> end
|  9>
| 10> %scf
| 11>   MaxIter 150
| 12> end
| 13>
| 14>
| 15>                          ****END OF INPUT****

CARTESIAN COORDINATES (ANGSTROEM)
---------------------------------
  C      4.999862   -1.596133   -5.924876
  C      5.281560   -1.974132   -4.535764
  C      3.766779   -2.266110   -6.511752
  C      2.496702   -1.844161   -5.735704
  H      1.626416   -2.217434   -6.308950
  H      2.481824   -2.456069   -4.793414
  F      2.459729   -0.509204   -5.505757
  C      4.792500   -1.361316   -3.457295
  N      3.939898   -0.374925   -3.557359
  N      5.259860   -1.754224   -2.239133
  H      5.922824   -2.521451   -2.186720
  H      4.654678   -1.640404   -1.442016
  H      5.709139   -2.875599   -4.387021
  H      3.330101   -0.317639   -4.361247
  H      3.698494    0.114468   -2.708333
  H      4.843333   -0.517930   -5.943019
  H      5.901695   -1.822503   -6.496467
  H      3.886191   -3.357076   -6.533604
  H      3.685602   -1.922168   -7.547128

 Total Charge           Charge          ....    0
 Multiplicity           Mult            ....    1
 Number of Electrons    NEL             ....   64
 Basis Dimension        Dim             ....  398

ORBITAL ENERGIES
----------------

  NO   OCC          E(Eh)            E(eV)
   0   2.0000     -24.794778      -674.7002
   1   2.0000     -14.375076      -391.1657
   2   2.0000     -14.360652      -390.7732
   3   2.0000     -10.303128      -280.3624
   4   2.0000     -10.257495      -279.1206
   5   2.0000     -10.216692      -278.0103
   6   2.0000     -10.196557      -277.4624
   7   2.0000     -10.142058      -275.9794
   8   2.0000      -1.279476       -34.8163
   9   2.0000      -0.979007       -26.6401
  10   2.0000      -0.886973       -24.1358
  11   2.0000      -0.819067       -22.2879
  12   2.0000      -0.746953       -20.3256
  13   2.0000      -0.693264       -18.8647
  14   2.0000      -0.620148       -16.8751
  15   2.0000      -0.605779       -16.4841
  16   2.0000      -0.560900       -15.2629
  17   2.0000      -0.544933       -14.8284
  18   2.0000      -0.532087       -14.4788
  19   2.0000      -0.512465       -13.9449
  20   2.0000      -0.506077       -13.7710
  21   2.0000      -0.468619       -12.7518
  22   2.0000      -0.438813       -11.9407
  23   2.0000      -0.420876       -11.4526
  24   2.0000      -0.407623       -11.0920
  25   2.0000      -0.385758       -10.4970
  26   2.0000      -0.364339        -9.9142
  27   2.0000      -0.348933        -9.4950
  28   2.0000      -0.336447        -9.1552
  29   2.0000      -0.327101        -8.9009
  30   2.0000      -0.267323        -7.2742
  31   2.0000      -0.169611        -4.6153
  32   0.0000       0.009460         0.2574
  33   0.0000       0.025807         0.7022
  34   0.0000       0.036765         1.0004
  35   0.0000       0.039401         1.0722
  36   0.0000       0.054818         1.4917

MULLIKEN ATOMIC CHARGES
-----------------------
   0 C :   -0.186217
   1 C :   -1.025769
   2 C :   -0.145537
   3 C :   -0.100246
   4 H :    0.123454
   5 H :    0.201041
   6 F :   -0.316844
   7 C :    0.644296
   8 N :   -0.256869
   9 N :   -0.370793
  10 H :    0.161074
  11 H :    0.159462
  12 H :    0.225407
  13 H :    0.212814
  14 H :    0.135090
  15 H :    0.196631
  16 H :    0.068231
  17 H :    0.176603
  18 H :    0.098174
Sum of atomic charges:    0.0000000

LOEWDIN ATOMIC CHARGES
----------------------
   0 C :   -0.235574
   1 C :   -0.130908
   2 C :   -0.176433
   3 C :   -0.221621
   4 H :    0.119500
   5 H :    0.132164
   6 F :   -0.026384
   7 C :   -0.546615
   8 N :    0.149963
   9 N :    0.101918
  10 H :    0.102596
  11 H :    0.085736
  12 H :    0.062049
  13 H :    0.030499
  14 H :    0.110336
  15 H :    0.109905
  16 H :    0.109323
  17 H :    0.119475
  18 H :    0.104070

  Mayer bond orders larger than 0.100000
B(  0-C ,  1-C ) :   0.9977 B(  0-C ,  2-C ) :   0.8393 B(  0-C , 15-H ) :   0.9099
B(  0-C , 16-H ) :   1.1000 B(  1-C ,  2-C ) :   0.1748 B(  1-C ,  3-C ) :   0.1668
B(  1-C ,  7-C ) :   1.2495 B(  1-C ,  8-N ) :   0.1294 B(  1-C ,  9-N ) :   0.1288
B(  1-C , 12-H ) :   1.0351 B(  2-C ,  3-C ) :   1.0782 B(  2-C , 17-H ) :   0.9560
B(  2-C , 18-H ) :   0.9271 B(  3-C ,  4-H ) :   0.9939 B(  3-C ,  5-H ) :   0.9412
B(  3-C ,  6-F ) :   0.8038 B(  7-C ,  8-N ) :   1.0766 B(  7-C ,  9-N ) :   0.9725
B(  7-C , 12-H ) :  -0.1430 B(  8-N , 13-H ) :   0.8763 B(  8-N , 14-H ) :   1.0145
B(  9-N , 10-H ) :   0.9854 B(  9-N , 11-H ) :   1.0130

Dispersion correction           -0.014962955
FINAL SINGLE POINT ENERGY      -406.167039438718

DIPOLE MOMENT
-------------
                                X             Y             Z
Electronic contribution:     -3.32949       4.00025       0.78600
Nuclear contribution   :      2.63975      -4.51113      -0.34926
                        -----------------------------------------
Total Dipole Moment    :     -0.68975      -0.51088       0.43673
                        -----------------------------------------
Magnitude (a.u.)       :      0.96306
Magnitude (Debye)      :      2.44791

Rotational constants in cm-1:     0.109429     0.049838     0.039337
Rotational constants in MHz :  3280.611039  1494.113088  1179.280063

                             ****ORCA TERMINATED NORMALLY****
TOTAL RUN TIME: 0 days 0 hours 1 minutes 42 seconds 477 msec
