                         Program Version 5.0.0 -  RELEASE  -
|  1> !PBE0 D3BJ RIJCOSX def2-TZVPD def2/J TightSCF xyzfile
|  2>
|  3> *xyzfile 0 1 D2.xyz
|  4>
|  5> %MaxCore 64000
|  6>
|  7> %pal nprocs 4
|  8> end
|  9>
| 10> %scf
| 11>   MaxIter 150
| 12> end
| 13>
| 14>
| 15>                          ****END OF INPUT****

CARTESIAN COORDINATES (ANGSTROEM)
---------------------------------
  C      4.999862   -1.596133   -5.924876
  N      5.281560   -1.974132   -4.535764
  C      3.766779   -2.266110   -6.511752
  C      2.496702   -1.844161   -5.735704
  H      1.626416   -2.217434   -6.308950
  H      2.481824   -2.456069   -4.793414
  F      2.459729   -0.509204   -5.505757
  C      4.792500   -1.361316   -3.457295
  C      3.939898   -0.374925   -3.557359
  N      5.259860   -1.754224   -2.239133
  H      5.922824   -2.521451   -2.186720
  H      4.654678   -1.640404   -1.442016
  H      5.709139   -2.875599   -4.387021
  H      3.330101   -0.317639   -4.361247
  H      3.698494    0.114468   -2.708333
  H      4.843333   -0.517930   -5.943019
  H      5.901695   -1.822503   -6.496467
  H      3.886191   -3.357076   -6.533604
  H      3.685602   -1.922168   -7.547128

 Total Charge           Charge          ....    0
 Multiplicity           Mult            ....    1
 Number of Electrons    NEL             ....   64
 Basis Dimension        Dim             ....  398

ORBITAL ENERGIES
----------------

  NO   OCC          E(Eh)            E(eV)
   0   2.0000     -24.772500      -674.0940
   1   2.0000     -14.384348      -391.4180
   2   2.0000     -14.373552      -391.1242
   3   2.0000     -10.302388      -280.3422
   4   2.0000     -10.254728      -279.0453
   5   2.0000     -10.253758      -279.0189
   6   2.0000     -10.231863      -278.4231
   7   2.0000     -10.108296      -275.0607
   8   2.0000      -1.259606       -34.2756
   9   2.0000      -0.984947       -26.8018
  10   2.0000      -0.901062       -24.5191
  11   2.0000      -0.808297       -21.9949
  12   2.0000      -0.734234       -19.9795
  13   2.0000      -0.714427       -19.4405
  14   2.0000      -0.632864       -17.2211
  15   2.0000      -0.586182       -15.9508
  16   2.0000      -0.564706       -15.3664
  17   2.0000      -0.534805       -14.5528
  18   2.0000      -0.531652       -14.4670
  19   2.0000      -0.512414       -13.9435
  20   2.0000      -0.499390       -13.5891
  21   2.0000      -0.471384       -12.8270
  22   2.0000      -0.441129       -12.0037
  23   2.0000      -0.423266       -11.5176
  24   2.0000      -0.400658       -10.9024
  25   2.0000      -0.391483       -10.6528
  26   2.0000      -0.372070       -10.1245
  27   2.0000      -0.356023        -9.6879
  28   2.0000      -0.347488        -9.4556
  29   2.0000      -0.319103        -8.6832
  30   2.0000      -0.259225        -7.0539
  31   2.0000      -0.173696        -4.7265
  32   0.0000       0.003252         0.0885
  33   0.0000       0.024012         0.6534
  34   0.0000       0.032078         0.8729
  35   0.0000       0.039313         1.0698
  36   0.0000       0.054231         1.4757

MULLIKEN ATOMIC CHARGES
-----------------------
   0 C :   -0.537895
   1 N :   -0.108055
   2 C :   -0.079635
   3 C :   -0.147488
   4 H :    0.117423
   5 H :    0.223871
   6 F :   -0.243664
   7 C :    0.630867
   8 C :   -1.435123
   9 N :   -0.349894
  10 H :    0.141645
  11 H :    0.187925
  12 H :    0.193500
  13 H :    0.497483
  14 H :    0.229662
  15 H :    0.295269
  16 H :    0.118438
  17 H :    0.118001
  18 H :    0.147670
Sum of atomic charges:   -0.0000000

LOEWDIN ATOMIC CHARGES
----------------------
   0 C :   -0.188372
   1 N :    0.023091
   2 C :   -0.159698
   3 C :   -0.224786
   4 H :    0.119257
   5 H :    0.131546
   6 F :   -0.044171
   7 C :   -0.556464
   8 C :    0.022884
   9 N :    0.103259
  10 H :    0.090456
  11 H :    0.097758
  12 H :    0.132177
  13 H :   -0.037332
  14 H :    0.026785
  15 H :    0.122023
  16 H :    0.116920
  17 H :    0.115628
  18 H :    0.109039

  Mayer bond orders larger than 0.100000
B(  0-C ,  1-N ) :   1.0382 B(  0-C ,  2-C ) :   0.9875 B(  0-C ,  8-C ) :   0.1493
B(  0-C , 15-H ) :   0.8540 B(  0-C , 16-H ) :   1.0230 B(  1-N ,  7-C ) :   1.0638
B(  1-N , 12-H ) :   0.9498 B(  2-C ,  3-C ) :   1.1082 B(  2-C , 17-H ) :   0.9677
B(  2-C , 18-H ) :   0.9198 B(  3-C ,  4-H ) :   0.9954 B(  3-C ,  5-H ) :   0.9254
B(  3-C ,  6-F ) :   0.8421 B(  3-C ,  8-C ) :   0.1366 B(  6-F ,  8-C ) :   0.1124
B(  6-F , 13-H ) :  -0.2371 B(  7-C ,  8-C ) :   1.2170 B(  7-C ,  9-N ) :   0.9930
B(  8-C , 13-H ) :   0.8765 B(  8-C , 14-H ) :   1.1037 B(  9-N , 10-H ) :   1.0114
B(  9-N , 11-H ) :   0.9717

Dispersion correction           -0.014931052
FINAL SINGLE POINT ENERGY      -406.134987381318

DIPOLE MOMENT
-------------
                                X             Y             Z
Electronic contribution:     -2.27679       2.71160      -0.14928
Nuclear contribution   :      2.43398      -4.26587      -0.19921
                        -----------------------------------------
Total Dipole Moment    :      0.15720      -1.55427      -0.34849
                        -----------------------------------------
Magnitude (a.u.)       :      1.60060
Magnitude (Debye)      :      4.06840

Rotational constants in cm-1:     0.110089     0.049944     0.039407
Rotational constants in MHz :  3300.378855  1497.273856  1181.385913

                             ****ORCA TERMINATED NORMALLY****
TOTAL RUN TIME: 0 days 0 hours 1 minutes 33 seconds 272 msec
