                         Program Version 5.0.0 -  RELEASE  -
|  1> !PBE0 D3BJ RIJCOSX def2-TZVPD def2/J TightSCF xyzfile
|  2>
|  3> *xyzfile 0 1 D3.xyz
|  4>
|  5> %MaxCore 64000
|  6>
|  7> %pal nprocs 4
|  8> end
|  9>
| 10> %scf
| 11>   MaxIter 150
| 12> end
| 13>
| 14>
| 15>                          ****END OF INPUT****

CARTESIAN COORDINATES (ANGSTROEM)
---------------------------------
  C      4.999862   -1.596133   -5.924876
  N      5.281560   -1.974132   -4.535764
  C      3.766779   -2.266110   -6.511752
  C      2.496702   -1.844161   -5.735704
  H      1.626416   -2.217434   -6.308950
  H      2.481824   -2.456069   -4.793414
  F      2.459729   -0.509204   -5.505757
  C      4.792500   -1.361316   -3.457295
  N      3.939898   -0.374925   -3.557359
  C      5.259860   -1.754224   -2.239133
  H      5.922824   -2.521451   -2.186720
  H      4.654678   -1.640404   -1.442016
  H      5.709139   -2.875599   -4.387021
  H      3.330101   -0.317639   -4.361247
  H      3.698494    0.114468   -2.708333
  H      4.843333   -0.517930   -5.943019
  H      5.901695   -1.822503   -6.496467
  H      3.886191   -3.357076   -6.533604
  H      3.685602   -1.922168   -7.547128

 Total Charge           Charge          ....    0
 Multiplicity           Mult            ....    1
 Number of Electrons    NEL             ....   64
 Basis Dimension        Dim             ....  398

ORBITAL ENERGIES
----------------

  NO   OCC          E(Eh)            E(eV)
   0   2.0000     -24.809245      -675.0939
   1   2.0000     -14.385374      -391.4459
   2   2.0000     -14.359011      -390.7286
   3   2.0000     -10.322392      -280.8866
   4   2.0000     -10.263379      -279.2807
   5   2.0000     -10.260087      -279.1912
   6   2.0000     -10.243802      -278.7480
   7   2.0000     -10.120927      -275.4044
   8   2.0000      -1.294290       -35.2194
   9   2.0000      -0.991816       -26.9887
  10   2.0000      -0.907590       -24.6968
  11   2.0000      -0.824025       -22.4229
  12   2.0000      -0.751443       -20.4478
  13   2.0000      -0.693408       -18.8686
  14   2.0000      -0.640404       -17.4263
  15   2.0000      -0.614938       -16.7333
  16   2.0000      -0.593089       -16.1388
  17   2.0000      -0.562373       -15.3030
  18   2.0000      -0.532535       -14.4910
  19   2.0000      -0.520184       -14.1549
  20   2.0000      -0.489438       -13.3183
  21   2.0000      -0.485335       -13.2066
  22   2.0000      -0.451631       -12.2895
  23   2.0000      -0.440316       -11.9816
  24   2.0000      -0.401930       -10.9371
  25   2.0000      -0.392871       -10.6906
  26   2.0000      -0.384046       -10.4504
  27   2.0000      -0.368929       -10.0391
  28   2.0000      -0.357495        -9.7279
  29   2.0000      -0.353357        -9.6153
  30   2.0000      -0.260560        -7.0902
  31   2.0000      -0.162382        -4.4186
  32   0.0000       0.002266         0.0617
  33   0.0000       0.025213         0.6861
  34   0.0000       0.028352         0.7715
  35   0.0000       0.031245         0.8502
  36   0.0000       0.056678         1.5423

MULLIKEN ATOMIC CHARGES
-----------------------
   0 C :   -0.485127
   1 N :   -0.052798
   2 C :   -0.090120
   3 C :   -0.123684
   4 H :    0.130493
   5 H :    0.203955
   6 F :   -0.315548
   7 C :    0.523710
   8 N :   -0.232917
   9 C :   -1.254102
  10 H :    0.217177
  11 H :    0.237277
  12 H :    0.197319
  13 H :    0.212421
  14 H :    0.158627
  15 H :    0.277185
  16 H :    0.113734
  17 H :    0.127594
  18 H :    0.154805
Sum of atomic charges:   -0.0000000

LOEWDIN ATOMIC CHARGES
----------------------
   0 C :   -0.190670
   1 N :    0.033867
   2 C :   -0.160061
   3 C :   -0.217569
   4 H :    0.122995
   5 H :    0.136515
   6 F :   -0.025680
   7 C :   -0.575805
   8 N :    0.147432
   9 C :   -0.012978
  10 H :   -0.005025
  11 H :   -0.008206
  12 H :    0.142187
  13 H :    0.026195
  14 H :    0.120932
  15 H :    0.118657
  16 H :    0.118076
  17 H :    0.119281
  18 H :    0.109858

  Mayer bond orders larger than 0.100000
B(  0-C ,  1-N ) :   1.0116 B(  0-C ,  2-C ) :   0.9765 B(  0-C , 15-H ) :   0.8677
B(  0-C , 16-H ) :   1.0530 B(  1-N ,  7-C ) :   1.1204 B(  1-N , 12-H ) :   0.9181
B(  2-C ,  3-C ) :   1.1010 B(  2-C , 17-H ) :   0.9595 B(  2-C , 18-H ) :   0.9427
B(  3-C ,  4-H ) :   0.9946 B(  3-C ,  5-H ) :   0.9378 B(  3-C ,  6-F ) :   0.8167
B(  7-C ,  8-N ) :   1.1823 B(  7-C ,  9-C ) :   1.2266 B(  8-N ,  9-C ) :   0.1006
B(  8-N , 13-H ) :   0.8699 B(  8-N , 14-H ) :   0.9829 B(  9-C , 10-H ) :   1.0309
B(  9-C , 11-H ) :   1.0340

Dispersion correction           -0.014829077
FINAL SINGLE POINT ENERGY      -406.149042698613

DIPOLE MOMENT
-------------
                                X             Y             Z
Electronic contribution:     -3.49127       3.87715      -1.51788
Nuclear contribution   :      2.63642      -4.47741       0.00296
                        -----------------------------------------
Total Dipole Moment    :     -0.85485      -0.60025      -1.51492
                        -----------------------------------------
Magnitude (a.u.)       :      1.84012
Magnitude (Debye)      :      4.67723

Rotational constants in cm-1:     0.108041     0.051979     0.040387
Rotational constants in MHz :  3238.993235  1558.297571  1210.782552

                             ****ORCA TERMINATED NORMALLY****
TOTAL RUN TIME: 0 days 0 hours 1 minutes 33 seconds 590 msec
