                         Program Version 5.0.0 -  RELEASE  -
|  1> !B3LYP D3BJ RIJCOSX def2-SVP def2/J TightSCF
|  2> *xyz -1 1
|  3> C         -0.77455        2.78833       -0.54394
|  4> C          0.69721        3.22791       -0.52513
|  5> O          1.48929        2.37470        0.19919
|  6> H          0.71600        4.26403       -0.13077
|  7> H          1.03615        3.33092       -1.58367
|  8> H         -1.34746        3.48478       -1.11982
|  9> H         -1.15078        2.75876        0.45729
| 10> H         -0.85058        1.81526       -0.98241
| 11> *
| 12>
| 13> %MaxCore 64000
| 14> %pal nprocs 4
| 15> end
| 16>
| 17> %scf
| 18>   MaxIter 150
| 19> end
| 20>
| 21>
| 22>                          ****END OF INPUT****

CARTESIAN COORDINATES (ANGSTROEM)
---------------------------------
  C     -0.774550    2.788330   -0.543940
  C      0.697210    3.227910   -0.525130
  O      1.489290    2.374700    0.199190
  H      0.716000    4.264030   -0.130770
  H      1.036150    3.330920   -1.583670
  H     -1.347460    3.484780   -1.119820
  H     -1.150780    2.758760    0.457290
  H     -0.850580    1.815260   -0.982410

 Total Charge           Charge          ....   -1
 Multiplicity           Mult            ....    1
 Number of Electrons    NEL             ....   26
 Basis Dimension        Dim             ....   67

ORBITAL ENERGIES
----------------

  NO   OCC          E(Eh)            E(eV)
   0   2.0000     -18.745915      -510.1023
   1   2.0000      -9.971247      -271.3314
   2   2.0000      -9.958859      -270.9943
   3   2.0000      -0.624638       -16.9973
   4   2.0000      -0.496385       -13.5073
   5   2.0000      -0.342873        -9.3300
   6   2.0000      -0.229938        -6.2569
   7   2.0000      -0.208054        -5.6614
   8   2.0000      -0.151656        -4.1268
   9   2.0000      -0.134080        -3.6485
  10   2.0000      -0.067692        -1.8420
  11   2.0000       0.077875         2.1191
  12   2.0000       0.080494         2.1903
  13   0.0000       0.253381         6.8948
  14   0.0000       0.296156         8.0588
  15   0.0000       0.309897         8.4327
  16   0.0000       0.318022         8.6538
  17   0.0000       0.360597         9.8123

MULLIKEN ATOMIC CHARGES
-----------------------
   0 C :    0.104970
   1 C :    0.271943
   2 O :   -0.695706
   3 H :   -0.188036
   4 H :   -0.188453
   5 H :   -0.141847
   6 H :   -0.080881
   7 H :   -0.081990
Sum of atomic charges:   -1.0000000

LOEWDIN ATOMIC CHARGES
----------------------
   0 C :   -0.100697
   1 C :    0.015542
   2 O :   -0.655514
   3 H :   -0.087537
   4 H :   -0.088422
   5 H :   -0.043457
   6 H :   -0.019628
   7 H :   -0.020287

  Mayer bond orders larger than 0.100000
B(  0-C ,  1-C ) :   1.0080 B(  0-C ,  5-H ) :   0.9011 B(  0-C ,  6-H ) :   0.9507
B(  0-C ,  7-H ) :   0.9499 B(  1-C ,  2-O ) :   1.5155 B(  1-C ,  3-H ) :   0.8538
B(  1-C ,  4-H ) :   0.8530

Dispersion correction           -0.006237633
FINAL SINGLE POINT ENERGY      -154.189507944628

DIPOLE MOMENT
-------------
                                X             Y             Z
Electronic contribution:      2.66278      -1.28253       1.39618
Nuclear contribution   :     -3.69910       1.55962      -1.78699
                        -----------------------------------------
Total Dipole Moment    :     -1.03631       0.27709      -0.39082
                        -----------------------------------------
Magnitude (a.u.)       :      1.14169
Magnitude (Debye)      :      2.90195

Rotational constants in cm-1:     1.268893     0.327436     0.287754
Rotational constants in MHz : 38040.440181  9816.269339  8626.646564

                             ****ORCA TERMINATED NORMALLY****
TOTAL RUN TIME: 0 days 0 hours 0 minutes 8 seconds 459 msec
