                         Program Version 5.0.0 -  RELEASE  -
|  1> !B3LYP D3BJ RIJCOSX def2-SVP def2/J TightSCF
|  2> *xyz 1 1
|  3> C          3.95643        0.50147       -0.37910
|  4> H          3.16840        0.02920        0.20738
|  5> N          3.80389        1.96157       -0.15675
|  6> C          3.84232        0.14849       -1.85406
|  7> H          4.92323        0.17798        0.00937
|  8> H          4.20643        2.24441        0.74536
|  9> H          2.80827        2.21132       -0.09610
| 10> H          4.28076        2.50155       -0.89104
| 11> H          4.62951        0.62800       -2.39748
| 12> H          2.89665        0.48102       -2.22825
| 13> H          3.92053       -0.91187       -1.97413
| 14> *
| 15>
| 16> %MaxCore 64000
| 17> %pal nprocs 4
| 18> end
| 19>
| 20> %scf
| 21>   MaxIter 150
| 22> end
| 23>
| 24>
| 25>                          ****END OF INPUT****

CARTESIAN COORDINATES (ANGSTROEM)
---------------------------------
  C      3.956430    0.501470   -0.379100
  H      3.168400    0.029200    0.207380
  N      3.803890    1.961570   -0.156750
  C      3.842320    0.148490   -1.854060
  H      4.923230    0.177980    0.009370
  H      4.206430    2.244410    0.745360
  H      2.808270    2.211320   -0.096100
  H      4.280760    2.501550   -0.891040
  H      4.629510    0.628000   -2.397480
  H      2.896650    0.481020   -2.228250
  H      3.920530   -0.911870   -1.974130

 Total Charge           Charge          ....    1
 Multiplicity           Mult            ....    1
 Number of Electrons    NEL             ....   26
 Basis Dimension        Dim             ....   82

ORBITAL ENERGIES
----------------

  NO   OCC          E(Eh)            E(eV)
   0   2.0000     -14.668338      -399.1458
   1   2.0000     -10.437026      -284.0059
   2   2.0000     -10.359503      -281.8964
   3   2.0000      -1.210387       -32.9363
   4   2.0000      -0.959735       -26.1157
   5   2.0000      -0.841007       -22.8850
   6   2.0000      -0.805998       -21.9323
   7   2.0000      -0.787617       -21.4321
   8   2.0000      -0.698285       -19.0013
   9   2.0000      -0.642780       -17.4909
  10   2.0000      -0.582784       -15.8584
  11   2.0000      -0.568419       -15.4675
  12   2.0000      -0.551038       -14.9945
  13   0.0000      -0.186221        -5.0673
  14   0.0000      -0.129399        -3.5211
  15   0.0000      -0.123101        -3.3498
  16   0.0000      -0.091750        -2.4966
  17   0.0000      -0.050457        -1.3730

MULLIKEN ATOMIC CHARGES
-----------------------
   0 C :   -0.024158
   1 H :    0.088277
   2 N :    0.027968
   3 C :   -0.002591
   4 H :    0.095273
   5 H :    0.208755
   6 H :    0.211786
   7 H :    0.207043
   8 H :    0.052783
   9 H :    0.048295
  10 H :    0.086567
Sum of atomic charges:    1.0000000

LOEWDIN ATOMIC CHARGES
----------------------
   0 C :    0.054738
   1 H :    0.051630
   2 N :    0.299509
   3 C :   -0.032819
   4 H :    0.053653
   5 H :    0.146967
   6 H :    0.147009
   7 H :    0.142486
   8 H :    0.037739
   9 H :    0.036858
  10 H :    0.062229

  Mayer bond orders larger than 0.100000
B(  0-C ,  1-H ) :   0.9514 B(  0-C ,  2-N ) :   0.9327 B(  0-C ,  3-C ) :   1.1087
B(  0-C ,  4-H ) :   0.9530 B(  2-N ,  5-H ) :   0.9349 B(  2-N ,  6-H ) :   0.9375
B(  2-N ,  7-H ) :   0.9336 B(  3-C ,  8-H ) :   0.9659 B(  3-C ,  9-H ) :   0.9705
B(  3-C , 10-H ) :   0.9562

Dispersion correction           -0.010039132
FINAL SINGLE POINT ENERGY      -135.349060707316

DIPOLE MOMENT
-------------
                                X             Y             Z
Electronic contribution:     -0.01498       1.38996       1.27651
Nuclear contribution   :     -0.06214      -0.04120      -0.39947
                        -----------------------------------------
Total Dipole Moment    :     -0.07712       1.34876       0.87704
                        -----------------------------------------
Magnitude (a.u.)       :      1.61068
Magnitude (Debye)      :      4.09403

Rotational constants in cm-1:     1.011771     0.281435     0.249812
Rotational constants in MHz : 30332.138762  8437.210602  7489.166323

                             ****ORCA TERMINATED NORMALLY****
TOTAL RUN TIME: 0 days 0 hours 0 minutes 9 seconds 219 msec
