                         Program Version 5.0.0 -  RELEASE  -
|  1> !B3LYP D3BJ RIJCOSX def2-TZVP def2/J TightSCF xyzfile
|  2>
|  3> *xyzfile 0 1 B.xyz
|  4>
|  5> %MaxCore 64000
|  6>
|  7> %pal nprocs 18
|  8> end
|  9>
| 10> %scf
| 11>   MaxIter 150
| 12> end
| 13>
| 14>
| 15>                          ****END OF INPUT****

CARTESIAN COORDINATES (ANGSTROEM)
---------------------------------
  C      3.956426    0.501466   -0.379100
  H      3.168398    0.029201    0.207383
  N      3.803893    1.961572   -0.156747
  C      3.842322    0.148490   -1.854058
  H      4.923231    0.177982    0.009371
  H      4.620021    0.694502   -2.402150
  H      4.096015   -0.910930   -1.955103
  C      2.475619    0.412708   -2.485377
  H      2.174689    1.445076   -2.287971
  C      1.383931   -0.532740   -1.995203
  H      2.575613    0.318574   -3.571460
  H      1.264698   -0.412309   -0.915491
  H      1.705223   -1.566885   -2.164984
  C      0.031398   -0.317260   -2.677791
  C     -0.587292    1.060853   -2.436460
  H     -0.662815   -1.089530   -2.329985
  H      0.149465   -0.478040   -3.755648
  H      0.104376    1.828590   -2.793130
  C     -0.951213    1.334978   -0.972500
  H     -1.478832    1.161355   -3.062484
  H     -0.317007    0.741648   -0.311389
  H     -1.980916    1.012842   -0.788958
  C     -0.774550    2.788332   -0.543943
  H     -1.352609    3.459372   -1.192585
  H     -1.171014    2.902331    0.469968
  C      0.697208    3.227911   -0.525126
  O      1.489294    2.374703    0.199189
  H      0.715998    4.264030   -0.130774
  H      1.036148    3.330920   -1.583669
  H      4.206425    2.244406    0.745359
  H      2.808269    2.211323   -0.096097
  H      4.280757    2.501552   -0.891037

 Total Charge           Charge          ....    0
 Multiplicity           Mult            ....    1
 Number of Electrons    NEL             ....   90
 Basis Dimension        Dim             ....  467

ORBITAL ENERGIES
----------------

  NO   OCC          E(Eh)            E(eV)
   0   2.0000     -18.990315      -516.7527
   1   2.0000     -14.395100      -391.7106
   2   2.0000     -10.235452      -278.5208
   3   2.0000     -10.190976      -277.3106
   4   2.0000     -10.164713      -276.5959
   5   2.0000     -10.152324      -276.2588
   6   2.0000     -10.148774      -276.1622
   7   2.0000     -10.146564      -276.1020
   8   2.0000     -10.133827      -275.7555
   9   2.0000     -10.120708      -275.3985
  10   2.0000     -10.113538      -275.2034
  11   2.0000      -0.989394       -26.9228
  12   2.0000      -0.887009       -24.1367
  13   2.0000      -0.816119       -22.2077
  14   2.0000      -0.776830       -21.1386
  15   2.0000      -0.738860       -20.1054
  16   2.0000      -0.696864       -18.9626
  17   2.0000      -0.659117       -17.9355
  18   2.0000      -0.620395       -16.8818
  19   2.0000      -0.592806       -16.1311
  20   2.0000      -0.570981       -15.5372
  21   2.0000      -0.566735       -15.4216
  22   2.0000      -0.545514       -14.8442
  23   2.0000      -0.508218       -13.8293
  24   2.0000      -0.492406       -13.3991
  25   2.0000      -0.466043       -12.6817
  26   2.0000      -0.465090       -12.6557
  27   2.0000      -0.435217       -11.8429
  28   2.0000      -0.421620       -11.4729
  29   2.0000      -0.416129       -11.3234
  30   2.0000      -0.400447       -10.8967
  31   2.0000      -0.389659       -10.6032
  32   2.0000      -0.380293       -10.3483
  33   2.0000      -0.363345        -9.8871
  34   2.0000      -0.354463        -9.6454
  35   2.0000      -0.342661        -9.3243
  36   2.0000      -0.334155        -9.0928
  37   2.0000      -0.325052        -8.8451
  38   2.0000      -0.314227        -8.5506
  39   2.0000      -0.308603        -8.3975
  40   2.0000      -0.288853        -7.8601
  41   2.0000      -0.282812        -7.6957
  42   2.0000      -0.279750        -7.6124
  43   2.0000      -0.179870        -4.8945
  44   2.0000      -0.171776        -4.6743
  45   0.0000      -0.009697        -0.2639
  46   0.0000       0.031970         0.8699
  47   0.0000       0.037705         1.0260
  48   0.0000       0.053151         1.4463
  49   0.0000       0.064581         1.7573

MULLIKEN ATOMIC CHARGES
-----------------------
   0 C :   -0.138561
   1 H :    0.151986
   2 N :   -0.273580
   3 C :   -0.197320
   4 H :    0.123759
   5 H :    0.105168
   6 H :    0.100951
   7 C :   -0.180085
   8 H :    0.099997
   9 C :   -0.181414
  10 H :    0.085252
  11 H :    0.103453
  12 H :    0.073589
  13 C :   -0.130772
  14 C :   -0.205312
  15 H :    0.078437
  16 H :    0.074393
  17 H :    0.088589
  18 C :   -0.107587
  19 H :    0.075715
  20 H :    0.073181
  21 H :    0.066939
  22 C :   -0.080967
  23 H :    0.041567
  24 H :    0.054814
  25 C :    0.010518
  26 O :   -0.723450
  27 H :    0.024792
  28 H :   -0.001970
  29 H :    0.254477
  30 H :    0.289878
  31 H :    0.243566
Sum of atomic charges:    0.0000000

LOEWDIN ATOMIC CHARGES
----------------------
   0 C :   -0.272384
   1 H :    0.145039
   2 N :    0.143783
   3 C :   -0.269631
   4 H :    0.127512
   5 H :    0.132793
   6 H :    0.144279
   7 C :   -0.262374
   8 H :    0.139490
   9 C :   -0.265544
  10 H :    0.135056
  11 H :    0.134518
  12 H :    0.129183
  13 C :   -0.264303
  14 C :   -0.261021
  15 H :    0.133181
  16 H :    0.128986
  17 H :    0.129103
  18 C :   -0.268287
  19 H :    0.128214
  20 H :    0.134918
  21 H :    0.124206
  22 C :   -0.278470
  23 H :    0.121720
  24 H :    0.127001
  25 C :   -0.469698
  26 O :   -0.275986
  27 H :    0.092508
  28 H :    0.077649
  29 H :    0.190449
  30 H :    0.083269
  31 H :    0.184845

  Mayer bond orders larger than 0.100000
B(  0-C ,  1-H ) :   0.9716 B(  0-C ,  2-N ) :   0.8766 B(  0-C ,  3-C ) :   0.9818
B(  0-C ,  4-H ) :   0.9678 B(  2-N , 29-H ) :   0.9150 B(  2-N , 30-H ) :   0.6418
B(  2-N , 31-H ) :   0.9076 B(  3-C ,  5-H ) :   0.9803 B(  3-C ,  6-H ) :   0.9646
B(  3-C ,  7-C ) :   0.9530 B(  7-C ,  8-H ) :   0.9782 B(  7-C ,  9-C ) :   0.9500
B(  7-C , 10-H ) :   0.9638 B(  9-C , 11-H ) :   0.9710 B(  9-C , 12-H ) :   0.9596
B(  9-C , 13-C ) :   0.9919 B( 13-C , 14-C ) :   0.9599 B( 13-C , 15-H ) :   0.9652
B( 13-C , 16-H ) :   0.9719 B( 14-C , 17-H ) :   0.9884 B( 14-C , 18-C ) :   0.9527
B( 14-C , 19-H ) :   0.9624 B( 18-C , 20-H ) :   0.9591 B( 18-C , 21-H ) :   0.9626
B( 18-C , 22-C ) :   0.9908 B( 22-C , 23-H ) :   0.9542 B( 22-C , 24-H ) :   0.9536
B( 22-C , 25-C ) :   0.9640 B( 25-C , 26-O ) :   1.1984 B( 25-C , 27-H ) :   0.9523
B( 25-C , 28-H ) :   0.9489 B( 26-O , 30-H ) :   0.4019

Dispersion correction           -0.053571103
FINAL SINGLE POINT ENERGY      -485.447622624022

DIPOLE MOMENT
-------------
                                X             Y             Z
Electronic contribution:      2.14202       0.89582       2.60990
Nuclear contribution   :      0.61785      -1.47632      -2.91844
                        -----------------------------------------
Total Dipole Moment    :      2.75987      -0.58051      -0.30854
                        -----------------------------------------
Magnitude (a.u.)       :      2.83709
Magnitude (Debye)      :      7.21130

Rotational constants in cm-1:     0.040993     0.027400     0.018162
Rotational constants in MHz :  1228.944366   821.418004   544.476857

                             ****ORCA TERMINATED NORMALLY****
TOTAL RUN TIME: 0 days 0 hours 0 minutes 58 seconds 186 msec
