                         Program Version 5.0.0 -  RELEASE  -
|  1> !B3LYP D3BJ RIJCOSX def2-SVP def2/J TightSCF
|  2> *xyz 0 1
|  3> C         -0.77455        2.78833       -0.54394
|  4> C          0.69721        3.22791       -0.52513
|  5> F          1.48929        2.37470        0.19919
|  6> H          0.71600        4.26403       -0.13077
|  7> H          1.03615        3.33092       -1.58367
|  8> H         -1.34746        3.48478       -1.11982
|  9> H         -1.15078        2.75876        0.45729
| 10> H         -0.85058        1.81526       -0.98241
| 11> *
| 12>
| 13> %MaxCore 64000
| 14> %pal nprocs 4
| 15> end
| 16>
| 17> %scf
| 18>   MaxIter 150
| 19> end
| 20>
| 21>
| 22>                          ****END OF INPUT****

CARTESIAN COORDINATES (ANGSTROEM)
---------------------------------
  C     -0.774550    2.788330   -0.543940
  C      0.697210    3.227910   -0.525130
  F      1.489290    2.374700    0.199190
  H      0.716000    4.264030   -0.130770
  H      1.036150    3.330920   -1.583670
  H     -1.347460    3.484780   -1.119820
  H     -1.150780    2.758760    0.457290
  H     -0.850580    1.815260   -0.982410

 Total Charge           Charge          ....    0
 Multiplicity           Mult            ....    1
 Number of Electrons    NEL             ....   26
 Basis Dimension        Dim             ....   67

ORBITAL ENERGIES
----------------

  NO   OCC          E(Eh)            E(eV)
   0   2.0000     -24.661272      -671.0673
   1   2.0000     -10.257364      -279.1171
   2   2.0000     -10.177535      -276.9448
   3   2.0000      -1.165999       -31.7284
   4   2.0000      -0.752483       -20.4761
   5   2.0000      -0.618961       -16.8428
   6   2.0000      -0.498406       -13.5623
   7   2.0000      -0.486894       -13.2491
   8   2.0000      -0.448291       -12.1986
   9   2.0000      -0.397612       -10.8196
  10   2.0000      -0.397276       -10.8104
  11   2.0000      -0.328303        -8.9336
  12   2.0000      -0.323394        -8.8000
  13   0.0000       0.064097         1.7442
  14   0.0000       0.108899         2.9633
  15   0.0000       0.115821         3.1517
  16   0.0000       0.133243         3.6257
  17   0.0000       0.147810         4.0221

MULLIKEN ATOMIC CHARGES
-----------------------
   0 C :   -0.016593
   1 C :    0.237645
   2 F :   -0.263704
   3 H :   -0.001022
   4 H :    0.000741
   5 H :    0.006262
   6 H :    0.018475
   7 H :    0.018196
Sum of atomic charges:   -0.0000000

LOEWDIN ATOMIC CHARGES
----------------------
   0 C :   -0.065099
   1 C :    0.113946
   2 F :   -0.135846
   3 H :    0.006857
   4 H :    0.007875
   5 H :    0.026866
   6 H :    0.022858
   7 H :    0.022542

  Mayer bond orders larger than 0.100000
B(  0-C ,  1-C ) :   1.1038 B(  0-C ,  5-H ) :   0.9582 B(  0-C ,  6-H ) :   0.9701
B(  0-C ,  7-H ) :   0.9703 B(  1-C ,  2-F ) :   1.0051 B(  1-C ,  3-H ) :   0.9553
B(  1-C ,  4-H ) :   0.9552

Dispersion correction           -0.005743213
FINAL SINGLE POINT ENERGY      -178.830468740997

DIPOLE MOMENT
-------------
                                X             Y             Z
Electronic contribution:      4.45635      -1.68074       2.02732
Nuclear contribution   :     -4.89513       2.05627      -2.36166
                        -----------------------------------------
Total Dipole Moment    :     -0.43878       0.37553      -0.33435
                        -----------------------------------------
Magnitude (a.u.)       :      0.66734
Magnitude (Debye)      :      1.69625

Rotational constants in cm-1:     1.247826     0.304622     0.269019
Rotational constants in MHz : 37408.889506  9132.346906  8064.979146

                             ****ORCA TERMINATED NORMALLY****
TOTAL RUN TIME: 0 days 0 hours 0 minutes 8 seconds 70 msec
