                         Program Version 5.0.0 -  RELEASE  -
|  1> !B3LYP D3BJ RIJCOSX def2-SVP def2/J TightSCF
|  2> *xyz 0 1
|  3> C          3.95643        0.50147       -0.37910
|  4> H          3.16840        0.02920        0.20738
|  5> C          3.80389        1.96157       -0.15675
|  6> C          3.84232        0.14849       -1.85406
|  7> H          4.92323        0.17798        0.00937
|  8> H          4.20643        2.24441        0.74536
|  9> H          2.80827        2.21132       -0.09610
| 10> H          4.28076        2.50155       -0.89104
| 11> H          4.62951        0.62800       -2.39748
| 12> H          2.89665        0.48102       -2.22825
| 13> H          3.92053       -0.91187       -1.97413
| 14> *
| 15>
| 16> %MaxCore 64000
| 17> %pal nprocs 4
| 18> end
| 19>
| 20> %scf
| 21>   MaxIter 150
| 22> end
| 23>
| 24>
| 25>                          ****END OF INPUT****

CARTESIAN COORDINATES (ANGSTROEM)
---------------------------------
  C      3.956430    0.501470   -0.379100
  H      3.168400    0.029200    0.207380
  C      3.803890    1.961570   -0.156750
  C      3.842320    0.148490   -1.854060
  H      4.923230    0.177980    0.009370
  H      4.206430    2.244410    0.745360
  H      2.808270    2.211320   -0.096100
  H      4.280760    2.501550   -0.891040
  H      4.629510    0.628000   -2.397480
  H      2.896650    0.481020   -2.228250
  H      3.920530   -0.911870   -1.974130

 Total Charge           Charge          ....    0
 Multiplicity           Mult            ....    1
 Number of Electrons    NEL             ....   26
 Basis Dimension        Dim             ....   82

ORBITAL ENERGIES
----------------

  NO   OCC          E(Eh)            E(eV)
   0   2.0000     -10.167205      -276.6637
   1   2.0000     -10.161179      -276.4997
   2   2.0000     -10.144716      -276.0518
   3   2.0000      -0.781769       -21.2730
   4   2.0000      -0.680574       -18.5194
   5   2.0000      -0.576721       -15.6934
   6   2.0000      -0.465339       -12.6625
   7   2.0000      -0.442111       -12.0305
   8   2.0000      -0.399264       -10.8645
   9   2.0000      -0.387957       -10.5569
  10   2.0000      -0.335416        -9.1271
  11   2.0000      -0.332849        -9.0573
  12   2.0000      -0.323533        -8.8038
  13   0.0000       0.064649         1.7592
  14   0.0000       0.110836         3.0160
  15   0.0000       0.113564         3.0902
  16   0.0000       0.117961         3.2099
  17   0.0000       0.146579         3.9886

MULLIKEN ATOMIC CHARGES
-----------------------
   0 C :   -0.050890
   1 H :   -0.006536
   2 C :    0.098474
   3 C :    0.035334
   4 H :   -0.005215
   5 H :   -0.026002
   6 H :   -0.018940
   7 H :   -0.022657
   8 H :    0.000190
   9 H :   -0.002334
  10 H :   -0.001423
Sum of atomic charges:    0.0000000

LOEWDIN ATOMIC CHARGES
----------------------
   0 C :   -0.033695
   1 H :    0.016613
   2 C :   -0.038458
   3 C :   -0.044695
   4 H :    0.014834
   5 H :    0.013253
   6 H :    0.012630
   7 H :    0.009480
   8 H :    0.016537
   9 H :    0.016351
  10 H :    0.017150

  Mayer bond orders larger than 0.100000
B(  0-C ,  1-H ) :   0.9521 B(  0-C ,  2-C ) :   1.1173 B(  0-C ,  3-C ) :   1.1130
B(  0-C ,  4-H ) :   0.9539 B(  2-C ,  5-H ) :   0.9553 B(  2-C ,  6-H ) :   0.9658
B(  2-C ,  7-H ) :   0.9674 B(  3-C ,  8-H ) :   0.9705 B(  3-C ,  9-H ) :   0.9735
B(  3-C , 10-H ) :   0.9669

Dispersion correction           -0.010116238
FINAL SINGLE POINT ENERGY      -118.953777011571

DIPOLE MOMENT
-------------
                                X             Y             Z
Electronic contribution:      0.07890      -0.29038       0.22362
Nuclear contribution   :     -0.08172       0.30475      -0.19303
                        -----------------------------------------
Total Dipole Moment    :     -0.00282       0.01437       0.03059
                        -----------------------------------------
Magnitude (a.u.)       :      0.03391
Magnitude (Debye)      :      0.08619

Rotational constants in cm-1:     1.020248     0.295755     0.261591
Rotational constants in MHz : 30586.266829  8866.511639  7842.297953

                             ****ORCA TERMINATED NORMALLY****
TOTAL RUN TIME: 0 days 0 hours 0 minutes 9 seconds 924 msec
