                         Program Version 5.0.0 -  RELEASE  -
|  1> !B3LYP D3BJ RIJCOSX def2-TZVP def2/J TightSCF xyzfile
|  2>
|  3> *xyzfile 0 1 D.xyz
|  4>
|  5> %MaxCore 64000
|  6>
|  7> %pal nprocs 18
|  8> end
|  9>
| 10> %scf
| 11>   MaxIter 150
| 12> end
| 13>
| 14>
| 15>                          ****END OF INPUT****

CARTESIAN COORDINATES (ANGSTROEM)
---------------------------------
  C      3.956426    0.501466   -0.379100
  H      3.168398    0.029201    0.207383
  C      3.803893    1.961572   -0.156747
  C      3.842322    0.148490   -1.854058
  H      4.923231    0.177982    0.009371
  H      4.620021    0.694502   -2.402150
  H      4.096015   -0.910930   -1.955103
  C      2.475619    0.412708   -2.485377
  H      2.174689    1.445076   -2.287971
  C      1.383931   -0.532740   -1.995203
  H      2.575613    0.318574   -3.571460
  H      1.264698   -0.412309   -0.915491
  H      1.705223   -1.566885   -2.164984
  C      0.031398   -0.317260   -2.677791
  C     -0.587292    1.060853   -2.436460
  H     -0.662815   -1.089530   -2.329985
  H      0.149465   -0.478040   -3.755648
  H      0.104376    1.828590   -2.793130
  C     -0.951213    1.334978   -0.972500
  H     -1.478832    1.161355   -3.062484
  H     -0.317007    0.741648   -0.311389
  H     -1.980916    1.012842   -0.788958
  C     -0.774550    2.788332   -0.543943
  H     -1.352609    3.459372   -1.192585
  H     -1.171014    2.902331    0.469968
  C      0.697208    3.227911   -0.525126
  F      1.489294    2.374703    0.199189
  H      0.715998    4.264030   -0.130774
  H      1.036148    3.330920   -1.583669
  H      4.206425    2.244406    0.745359
  H      2.808269    2.211323   -0.096097
  H      4.280757    2.501552   -0.891037

 Total Charge           Charge          ....    0
 Multiplicity           Mult            ....    1
 Number of Electrons    NEL             ....   90
 Basis Dimension        Dim             ....  467

ORBITAL ENERGIES
----------------

  NO   OCC          E(Eh)            E(eV)
   0   2.0000     -24.688870      -671.8183
   1   2.0000     -10.255785      -279.0741
   2   2.0000     -10.178619      -276.9743
   3   2.0000     -10.165040      -276.6048
   4   2.0000     -10.161626      -276.5119
   5   2.0000     -10.158463      -276.4258
   6   2.0000     -10.152577      -276.2657
   7   2.0000     -10.150428      -276.2072
   8   2.0000     -10.144499      -276.0458
   9   2.0000     -10.133637      -275.7503
  10   2.0000     -10.080649      -274.3084
  11   2.0000      -1.232715       -33.5439
  12   2.0000      -0.818889       -22.2831
  13   2.0000      -0.799429       -21.7536
  14   2.0000      -0.766771       -20.8649
  15   2.0000      -0.736345       -20.0370
  16   2.0000      -0.689174       -18.7534
  17   2.0000      -0.663875       -18.0650
  18   2.0000      -0.622170       -16.9301
  19   2.0000      -0.599904       -16.3242
  20   2.0000      -0.563829       -15.3426
  21   2.0000      -0.551525       -15.0078
  22   2.0000      -0.528810       -14.3897
  23   2.0000      -0.513983       -13.9862
  24   2.0000      -0.494334       -13.4515
  25   2.0000      -0.467995       -12.7348
  26   2.0000      -0.456828       -12.4309
  27   2.0000      -0.447842       -12.1864
  28   2.0000      -0.428727       -11.6663
  29   2.0000      -0.425513       -11.5788
  30   2.0000      -0.409754       -11.1500
  31   2.0000      -0.392921       -10.6919
  32   2.0000      -0.385797       -10.4981
  33   2.0000      -0.374124       -10.1804
  34   2.0000      -0.365790        -9.9536
  35   2.0000      -0.355661        -9.6780
  36   2.0000      -0.348691        -9.4884
  37   2.0000      -0.342559        -9.3215
  38   2.0000      -0.324678        -8.8349
  39   2.0000      -0.320144        -8.7116
  40   2.0000      -0.313533        -8.5317
  41   2.0000      -0.312602        -8.5063
  42   2.0000      -0.298025        -8.1097
  43   2.0000      -0.297009        -8.0820
  44   2.0000      -0.274187        -7.4610
  45   0.0000       0.031535         0.8581
  46   0.0000       0.041820         1.1380
  47   0.0000       0.049003         1.3334
  48   0.0000       0.057625         1.5681
  49   0.0000       0.068250         1.8572

MULLIKEN ATOMIC CHARGES
-----------------------
   0 C :   -0.137483
   1 H :    0.070085
   2 C :   -0.409071
   3 C :   -0.133018
   4 H :    0.073367
   5 H :    0.083358
   6 H :    0.068903
   7 C :   -0.162604
   8 H :    0.074073
   9 C :   -0.206049
  10 H :    0.076553
  11 H :    0.091720
  12 H :    0.084041
  13 C :   -0.119711
  14 C :   -0.214084
  15 H :    0.082150
  16 H :    0.083595
  17 H :    0.091834
  18 C :   -0.146644
  19 H :    0.089587
  20 H :    0.096945
  21 H :    0.094428
  22 C :   -0.170841
  23 H :    0.092243
  24 H :    0.096717
  25 C :   -0.004026
  26 F :   -0.198145
  27 H :    0.107445
  28 H :    0.101019
  29 H :    0.087615
  30 H :    0.179218
  31 H :    0.076780
Sum of atomic charges:   -0.0000000

LOEWDIN ATOMIC CHARGES
----------------------
   0 C :   -0.298654
   1 H :    0.128830
   2 C :   -0.318983
   3 C :   -0.264700
   4 H :    0.127194
   5 H :    0.131961
   6 H :    0.130457
   7 C :   -0.261067
   8 H :    0.129527
   9 C :   -0.264053
  10 H :    0.131967
  11 H :    0.129383
  12 H :    0.134124
  13 C :   -0.263475
  14 C :   -0.261086
  15 H :    0.133310
  16 H :    0.133055
  17 H :    0.129901
  18 C :   -0.262507
  19 H :    0.131768
  20 H :    0.137455
  21 H :    0.133796
  22 C :   -0.271707
  23 H :    0.140155
  24 H :    0.136167
  25 C :   -0.338358
  26 F :    0.175137
  27 H :    0.124163
  28 H :    0.120844
  29 H :    0.101518
  30 H :    0.063557
  31 H :    0.100321

  Mayer bond orders larger than 0.100000
B(  0-C ,  1-H ) :   0.9832 B(  0-C ,  2-C ) :   0.9258 B(  0-C ,  3-C ) :   0.9799
B(  0-C ,  4-H ) :   0.9704 B(  2-C , 29-H ) :   0.9836 B(  2-C , 30-H ) :   0.9686
B(  2-C , 31-H ) :   0.9736 B(  3-C ,  5-H ) :   0.9756 B(  3-C ,  6-H ) :   0.9675
B(  3-C ,  7-C ) :   0.9749 B(  7-C ,  8-H ) :   0.9738 B(  7-C ,  9-C ) :   0.9596
B(  7-C , 10-H ) :   0.9630 B(  9-C , 11-H ) :   0.9807 B(  9-C , 12-H ) :   0.9658
B(  9-C , 13-C ) :   0.9771 B( 13-C , 14-C ) :   0.9597 B( 13-C , 15-H ) :   0.9689
B( 13-C , 16-H ) :   0.9685 B( 14-C , 17-H ) :   0.9903 B( 14-C , 18-C ) :   0.9387
B( 14-C , 19-H ) :   0.9631 B( 18-C , 20-H ) :   0.9764 B( 18-C , 21-H ) :   0.9658
B( 18-C , 22-C ) :   0.9689 B( 22-C , 23-H ) :   0.9516 B( 22-C , 24-H ) :   0.9660
B( 22-C , 25-C ) :   0.9928 B( 25-C , 26-F ) :   0.9185 B( 25-C , 27-H ) :   0.9721
B( 25-C , 28-H ) :   0.9723

Dispersion correction           -0.052447077
FINAL SINGLE POINT ENERGY      -493.415162413471

DIPOLE MOMENT
-------------
                                X             Y             Z
Electronic contribution:     -1.96062       3.28480       4.28511
Nuclear contribution   :      1.09293      -2.80761      -4.51228
                        -----------------------------------------
Total Dipole Moment    :     -0.86769       0.47719      -0.22717
                        -----------------------------------------
Magnitude (a.u.)       :      1.01597
Magnitude (Debye)      :      2.58239

Rotational constants in cm-1:     0.040502     0.027818     0.018259
Rotational constants in MHz :  1214.218058   833.972871   547.398614

                             ****ORCA TERMINATED NORMALLY****
TOTAL RUN TIME: 0 days 0 hours 0 minutes 46 seconds 638 msec
