                         Program Version 5.0.0 -  RELEASE  -
|  1> !CAM-B3LYP RIJCOSX def2-TZVP def2/J TightSCF
|  2> *xyz -1 1
|  3> C          3.76678       -2.26611       -6.51175
|  4> C          2.49670       -1.84416       -5.73570
|  5> H          1.62642       -2.21743       -6.30895
|  6> H          2.48182       -2.45607       -4.79341
|  7> O          2.45973       -0.50920       -5.50576
|  8> H          3.82914       -1.70941       -7.42340
|  9> H          3.71764       -3.31144       -6.73483
| 10> H          4.63199       -2.06931       -5.91377
| 11> *
| 12>
| 13> %MaxCore 64000
| 14>
| 15> %pal nprocs 4
| 16> end
| 17>
| 18> %scf
| 19>   MaxIter 150
| 20> end
| 21>
| 22>
| 23>                          ****END OF INPUT****

CARTESIAN COORDINATES (ANGSTROEM)
---------------------------------
  C      3.766780   -2.266110   -6.511750
  C      2.496700   -1.844160   -5.735700
  H      1.626420   -2.217430   -6.308950
  H      2.481820   -2.456070   -4.793410
  O      2.459730   -0.509200   -5.505760
  H      3.829140   -1.709410   -7.423400
  H      3.717640   -3.311440   -6.734830
  H      4.631990   -2.069310   -5.913770

 Total Charge           Charge          ....   -1
 Multiplicity           Mult            ....    1
 Number of Electrons    NEL             ....   26
 Basis Dimension        Dim             ....  123

ORBITAL ENERGIES
----------------

  NO   OCC          E(Eh)            E(eV)
   0   2.0000     -18.840519      -512.6766
   1   2.0000     -10.048399      -273.4308
   2   2.0000     -10.025321      -272.8028
   3   2.0000      -0.750587       -20.4245
   4   2.0000      -0.597460       -16.2577
   5   2.0000      -0.439429       -11.9575
   6   2.0000      -0.312102        -8.4927
   7   2.0000      -0.288601        -7.8532
   8   2.0000      -0.230982        -6.2853
   9   2.0000      -0.214605        -5.8397
  10   2.0000      -0.167589        -4.5603
  11   2.0000      -0.018315        -0.4984
  12   2.0000      -0.016903        -0.4599
  13   0.0000       0.253710         6.9038
  14   0.0000       0.289585         7.8800
  15   0.0000       0.315656         8.5894
  16   0.0000       0.321155         8.7391
  17   0.0000       0.354282         9.6405

MULLIKEN ATOMIC CHARGES
-----------------------
   0 C :   -0.173363
   1 C :    0.069044
   2 H :   -0.070894
   3 H :   -0.083772
   4 O :   -0.769510
   5 H :    0.027146
   6 H :   -0.026683
   7 H :    0.028033
Sum of atomic charges:   -1.0000000

LOEWDIN ATOMIC CHARGES
----------------------
   0 C :   -0.363630
   1 C :   -0.561918
   2 H :    0.050048
   3 H :    0.049145
   4 O :   -0.418805
   5 H :    0.086282
   6 H :    0.072608
   7 H :    0.086270

  Mayer bond orders larger than 0.100000
B(  0-C ,  1-C ) :   0.8797 B(  0-C ,  4-O ) :  -0.2221 B(  0-C ,  5-H ) :   0.9707
B(  0-C ,  6-H ) :   0.9347 B(  0-C ,  7-H ) :   0.9752 B(  1-C ,  2-H ) :   0.9281
B(  1-C ,  3-H ) :   0.9168 B(  1-C ,  4-O ) :   1.6219

FINAL SINGLE POINT ENERGY      -154.407687047427

DIPOLE MOMENT
-------------
                                X             Y             Z
Electronic contribution:     -1.06256       2.65297       0.97001
Nuclear contribution   :      1.63615      -3.79938      -1.48621
                        -----------------------------------------
Total Dipole Moment    :      0.57359      -1.14642      -0.51620
                        -----------------------------------------
Magnitude (a.u.)       :      1.38193
Magnitude (Debye)      :      3.51259

Rotational constants in cm-1:     1.265582     0.329289     0.289024
Rotational constants in MHz : 37941.194363  9871.829581  8664.719106

                             ****ORCA TERMINATED NORMALLY****
TOTAL RUN TIME: 0 days 0 hours 0 minutes 14 seconds 202 msec
