                         Program Version 5.0.0 -  RELEASE  -
|  1> !CAM-B3LYP RIJCOSX def2-TZVP def2/J TightSCF
|  2> *xyz 1 1
|  3> C          4.99986       -1.59613       -5.92488
|  4> N          5.28156       -1.97413       -4.53576
|  5> C          3.76678       -2.26611       -6.51175
|  6> C          4.79250       -1.36132       -3.45730
|  7> N          3.93990       -0.37492       -3.55736
|  8> N          5.25986       -1.75422       -2.23913
|  9> H          5.92282       -2.52145       -2.18672
| 10> H          4.65468       -1.64040       -1.44202
| 11> H          5.70914       -2.87560       -4.38702
| 12> H          3.33010       -0.31764       -4.36125
| 13> H          3.69849        0.11447       -2.70833
| 14> H          4.84333       -0.51793       -5.94302
| 15> H          5.90170       -1.82250       -6.49647
| 16> H          3.63046       -1.94025       -7.52177
| 17> H          2.90710       -2.00116       -5.93240
| 18> H          3.89538       -3.32820       -6.49392
| 19> *
| 20>
| 21> %MaxCore 64000
| 22>
| 23> %pal nprocs 4
| 24> end
| 25>
| 26> %scf
| 27>   MaxIter 150
| 28> end
| 29>
| 30>
| 31>                          ****END OF INPUT****

CARTESIAN COORDINATES (ANGSTROEM)
---------------------------------
  C      4.999860   -1.596130   -5.924880
  N      5.281560   -1.974130   -4.535760
  C      3.766780   -2.266110   -6.511750
  C      4.792500   -1.361320   -3.457300
  N      3.939900   -0.374920   -3.557360
  N      5.259860   -1.754220   -2.239130
  H      5.922820   -2.521450   -2.186720
  H      4.654680   -1.640400   -1.442020
  H      5.709140   -2.875600   -4.387020
  H      3.330100   -0.317640   -4.361250
  H      3.698490    0.114470   -2.708330
  H      4.843330   -0.517930   -5.943020
  H      5.901700   -1.822500   -6.496470
  H      3.630460   -1.940250   -7.521770
  H      2.907100   -2.001160   -5.932400
  H      3.895380   -3.328200   -6.493920

 Total Charge           Charge          ....    1
 Multiplicity           Mult            ....    1
 Number of Electrons    NEL             ....   48
 Basis Dimension        Dim             ....  246

ORBITAL ENERGIES
----------------

  NO   OCC          E(Eh)            E(eV)
   0   2.0000     -14.617419      -397.7602
   1   2.0000     -14.612831      -397.6353
   2   2.0000     -14.607582      -397.4925
   3   2.0000     -10.583959      -288.0042
   4   2.0000     -10.449503      -284.3454
   5   2.0000     -10.381565      -282.4967
   6   2.0000      -1.300563       -35.3901
   7   2.0000      -1.189030       -32.3551
   8   2.0000      -1.173515       -31.9330
   9   2.0000      -1.013447       -27.5773
  10   2.0000      -0.919046       -25.0085
  11   2.0000      -0.880003       -23.9461
  12   2.0000      -0.862231       -23.4625
  13   2.0000      -0.812492       -22.1090
  14   2.0000      -0.766313       -20.8524
  15   2.0000      -0.762449       -20.7473
  16   2.0000      -0.710927       -19.3453
  17   2.0000      -0.702474       -19.1153
  18   2.0000      -0.676781       -18.4161
  19   2.0000      -0.629521       -17.1301
  20   2.0000      -0.600955       -16.3528
  21   2.0000      -0.581251       -15.8166
  22   2.0000      -0.546145       -14.8614
  23   2.0000      -0.515097       -14.0165
  24   0.0000      -0.128589        -3.4991
  25   0.0000      -0.109414        -2.9773
  26   0.0000      -0.081407        -2.2152
  27   0.0000      -0.069885        -1.9017
  28   0.0000      -0.049252        -1.3402

MULLIKEN ATOMIC CHARGES
-----------------------
   0 C :   -0.231080
   1 N :   -0.252033
   2 C :   -0.287209
   3 C :    0.451214
   4 N :   -0.383826
   5 N :   -0.421198
   6 H :    0.276901
   7 H :    0.277047
   8 H :    0.253289
   9 H :    0.291726
  10 H :    0.279574
  11 H :    0.163688
  12 H :    0.175773
  13 H :    0.165886
  14 H :    0.098822
  15 H :    0.141427
Sum of atomic charges:    1.0000000

LOEWDIN ATOMIC CHARGES
----------------------
   0 C :   -0.280157
   1 N :    0.167024
   2 C :   -0.286133
   3 C :   -0.394194
   4 N :    0.087047
   5 N :    0.035927
   6 H :    0.195262
   7 H :    0.190376
   8 H :    0.206038
   9 H :    0.201316
  10 H :    0.203236
  11 H :    0.143580
  12 H :    0.150496
  13 H :    0.138101
  14 H :    0.115039
  15 H :    0.127043

  Mayer bond orders larger than 0.100000
B(  0-C ,  1-N ) :   0.8577 B(  0-C ,  2-C ) :   0.9488 B(  0-C , 11-H ) :   0.9764
B(  0-C , 12-H ) :   0.9621 B(  1-N ,  3-C ) :   1.3765 B(  1-N ,  8-H ) :   0.9069
B(  2-C , 13-H ) :   0.9729 B(  2-C , 14-H ) :   0.9575 B(  2-C , 15-H ) :   0.9717
B(  3-C ,  4-N ) :   1.3438 B(  3-C ,  5-N ) :   1.2783 B(  4-N ,  9-H ) :   0.8877
B(  4-N , 10-H ) :   0.9003 B(  5-N ,  6-H ) :   0.9051 B(  5-N ,  7-H ) :   0.8980

FINAL SINGLE POINT ENERGY      -284.361451591066

DIPOLE MOMENT
-------------
                                X             Y             Z
Electronic contribution:      1.74722       1.08191       4.75086
Nuclear contribution   :     -1.95709      -1.20097      -3.70214
                        -----------------------------------------
Total Dipole Moment    :     -0.20987      -0.11906       1.04872
                        -----------------------------------------
Magnitude (a.u.)       :      1.07612
Magnitude (Debye)      :      2.73529

Rotational constants in cm-1:     0.241661     0.071598     0.061743
Rotational constants in MHz :  7244.800091  2146.442409  1851.001864

                             ****ORCA TERMINATED NORMALLY****
TOTAL RUN TIME: 0 days 0 hours 0 minutes 50 seconds 77 msec
