                         Program Version 5.0.0 -  RELEASE  -
|  1> !CAM-B3LYP RIJCOSX def2-TZVP def2/J TightSCF
|  2> *xyz 0 1
|  3> C          3.76678       -2.26611       -6.51175
|  4> C          2.49670       -1.84416       -5.73570
|  5> H          1.62642       -2.21743       -6.30895
|  6> H          2.48182       -2.45607       -4.79341
|  7> F          2.45973       -0.50920       -5.50576
|  8> H          3.82914       -1.70941       -7.42340
|  9> H          3.71764       -3.31144       -6.73483
| 10> H          4.63199       -2.06931       -5.91377
| 11> *
| 12>
| 13> %MaxCore 64000
| 14>
| 15> %pal nprocs 4
| 16> end
| 17>
| 18> %scf
| 19>   MaxIter 150
| 20> end
| 21>
| 22>
| 23>                          ****END OF INPUT****

CARTESIAN COORDINATES (ANGSTROEM)
---------------------------------
  C      3.766780   -2.266110   -6.511750
  C      2.496700   -1.844160   -5.735700
  H      1.626420   -2.217430   -6.308950
  H      2.481820   -2.456070   -4.793410
  F      2.459730   -0.509200   -5.505760
  H      3.829140   -1.709410   -7.423400
  H      3.717640   -3.311440   -6.734830
  H      4.631990   -2.069310   -5.913770

 Total Charge           Charge          ....    0
 Multiplicity           Mult            ....    1
 Number of Electrons    NEL             ....   26
 Basis Dimension        Dim             ....  123

ORBITAL ENERGIES
----------------

  NO   OCC          E(Eh)            E(eV)
   0   2.0000     -24.743894      -673.3156
   1   2.0000     -10.323846      -280.9261
   2   2.0000     -10.237162      -278.5673
   3   2.0000      -1.286720       -35.0134
   4   2.0000      -0.844544       -22.9812
   5   2.0000      -0.710406       -19.3311
   6   2.0000      -0.584335       -15.9006
   7   2.0000      -0.570663       -15.5285
   8   2.0000      -0.533489       -14.5170
   9   2.0000      -0.475772       -12.9464
  10   2.0000      -0.468998       -12.7621
  11   2.0000      -0.400961       -10.9107
  12   2.0000      -0.396306       -10.7840
  13   0.0000       0.078275         2.1300
  14   0.0000       0.116624         3.1735
  15   0.0000       0.137186         3.7330
  16   0.0000       0.141972         3.8632
  17   0.0000       0.154876         4.2144

MULLIKEN ATOMIC CHARGES
-----------------------
   0 C :   -0.332891
   1 C :    0.043997
   2 H :    0.091056
   3 H :    0.087393
   4 F :   -0.235196
   5 H :    0.118928
   6 H :    0.108470
   7 H :    0.118244
Sum of atomic charges:   -0.0000000

LOEWDIN ATOMIC CHARGES
----------------------
   0 C :   -0.310483
   1 C :   -0.381874
   2 H :    0.114757
   3 H :    0.117834
   4 F :    0.109131
   5 H :    0.115937
   6 H :    0.119463
   7 H :    0.115235

  Mayer bond orders larger than 0.100000
B(  0-C ,  1-C ) :   0.9674 B(  0-C ,  5-H ) :   0.9723 B(  0-C ,  6-H ) :   0.9614
B(  0-C ,  7-H ) :   0.9737 B(  1-C ,  2-H ) :   0.9730 B(  1-C ,  3-H ) :   0.9720
B(  1-C ,  4-F ) :   0.9950

FINAL SINGLE POINT ENERGY      -179.060739985943

DIPOLE MOMENT
-------------
                                X             Y             Z
Electronic contribution:     -2.08165       4.33746       1.81303
Nuclear contribution   :      2.16248      -5.01128      -1.96962
                        -----------------------------------------
Total Dipole Moment    :      0.08082      -0.67383      -0.15659
                        -----------------------------------------
Magnitude (a.u.)       :      0.69649
Magnitude (Debye)      :      1.77033

Rotational constants in cm-1:     1.244010     0.306580     0.270375
Rotational constants in MHz : 37294.476802  9191.037795  8105.639967

                             ****ORCA TERMINATED NORMALLY****
TOTAL RUN TIME: 0 days 0 hours 0 minutes 12 seconds 26 msec
