                         Program Version 5.0.0 -  RELEASE  -
|  1> !CAM-B3LYP RIJCOSX def2-TZVP def2/J TightSCF
|  2> *xyz 0 1
|  3> C          4.99986       -1.59613       -5.92488
|  4> C          5.28156       -1.97413       -4.53576
|  5> C          3.76678       -2.26611       -6.51175
|  6> C          4.79250       -1.36132       -3.45730
|  7> N          3.93990       -0.37492       -3.55736
|  8> N          5.25986       -1.75422       -2.23913
|  9> H          5.92282       -2.52145       -2.18672
| 10> H          4.65468       -1.64040       -1.44202
| 11> H          5.70914       -2.87560       -4.38702
| 12> H          3.33010       -0.31764       -4.36125
| 13> H          3.69849        0.11447       -2.70833
| 14> H          4.84333       -0.51793       -5.94302
| 15> H          5.90170       -1.82250       -6.49647
| 16> H          3.63046       -1.94025       -7.52177
| 17> H          2.90710       -2.00116       -5.93240
| 18> H          3.89538       -3.32820       -6.49392
| 19> *
| 20>
| 21> %MaxCore 64000
| 22>
| 23> %pal nprocs 4
| 24> end
| 25>
| 26> %scf
| 27>   MaxIter 150
| 28> end
| 29>
| 30>
| 31>                          ****END OF INPUT****

CARTESIAN COORDINATES (ANGSTROEM)
---------------------------------
  C      4.999860   -1.596130   -5.924880
  C      5.281560   -1.974130   -4.535760
  C      3.766780   -2.266110   -6.511750
  C      4.792500   -1.361320   -3.457300
  N      3.939900   -0.374920   -3.557360
  N      5.259860   -1.754220   -2.239130
  H      5.922820   -2.521450   -2.186720
  H      4.654680   -1.640400   -1.442020
  H      5.709140   -2.875600   -4.387020
  H      3.330100   -0.317640   -4.361250
  H      3.698490    0.114470   -2.708330
  H      4.843330   -0.517930   -5.943020
  H      5.901700   -1.822500   -6.496470
  H      3.630460   -1.940250   -7.521770
  H      2.907100   -2.001160   -5.932400
  H      3.895380   -3.328200   -6.493920

 Total Charge           Charge          ....    0
 Multiplicity           Mult            ....    1
 Number of Electrons    NEL             ....   48
 Basis Dimension        Dim             ....  246

ORBITAL ENERGIES
----------------

  NO   OCC          E(Eh)            E(eV)
   0   2.0000     -14.390904      -391.5964
   1   2.0000     -14.382187      -391.3592
   2   2.0000     -10.286540      -279.9110
   3   2.0000     -10.213641      -277.9273
   4   2.0000     -10.208919      -277.7988
   5   2.0000     -10.163771      -276.5703
   6   2.0000      -1.045076       -28.4380
   7   2.0000      -0.951368       -25.8880
   8   2.0000      -0.854600       -23.2548
   9   2.0000      -0.773591       -21.0505
  10   2.0000      -0.690937       -18.8013
  11   2.0000      -0.650565       -17.7028
  12   2.0000      -0.616678       -16.7807
  13   2.0000      -0.574428       -15.6310
  14   2.0000      -0.545454       -14.8426
  15   2.0000      -0.512150       -13.9363
  16   2.0000      -0.483495       -13.1566
  17   2.0000      -0.463296       -12.6069
  18   2.0000      -0.450516       -12.2592
  19   2.0000      -0.416872       -11.3437
  20   2.0000      -0.390465       -10.6251
  21   2.0000      -0.382725       -10.4145
  22   2.0000      -0.330242        -8.9863
  23   2.0000      -0.218314        -5.9406
  24   0.0000       0.056311         1.5323
  25   0.0000       0.086055         2.3417
  26   0.0000       0.102092         2.7781
  27   0.0000       0.119096         3.2408
  28   0.0000       0.126297         3.4367

MULLIKEN ATOMIC CHARGES
-----------------------
   0 C :   -0.258084
   1 C :   -0.308716
   2 C :   -0.279535
   3 C :    0.353114
   4 N :   -0.465359
   5 N :   -0.485718
   6 H :    0.235187
   7 H :    0.201959
   8 H :    0.083983
   9 H :    0.246073
  10 H :    0.213037
  11 H :    0.089724
  12 H :    0.095159
  13 H :    0.102014
  14 H :    0.075814
  15 H :    0.101348
Sum of atomic charges:    0.0000000

LOEWDIN ATOMIC CHARGES
----------------------
   0 C :   -0.308456
   1 C :   -0.275141
   2 C :   -0.307136
   3 C :   -0.454713
   4 N :    0.004760
   5 N :   -0.042553
   6 H :    0.174181
   7 H :    0.150087
   8 H :    0.115376
   9 H :    0.178666
  10 H :    0.166849
  11 H :    0.132512
  12 H :    0.136018
  13 H :    0.109588
  14 H :    0.106303
  15 H :    0.113658

  Mayer bond orders larger than 0.100000
B(  0-C ,  1-C ) :   1.0172 B(  0-C ,  2-C ) :   0.9333 B(  0-C , 11-H ) :   0.9896
B(  0-C , 12-H ) :   0.9902 B(  1-C ,  3-C ) :   1.6531 B(  1-C ,  8-H ) :   0.9886
B(  2-C , 13-H ) :   0.9832 B(  2-C , 14-H ) :   0.9775 B(  2-C , 15-H ) :   0.9836
B(  3-C ,  4-N ) :   1.1213 B(  3-C ,  5-N ) :   1.1132 B(  4-N ,  9-H ) :   0.9199
B(  4-N , 10-H ) :   0.9307 B(  5-N ,  6-H ) :   0.9281 B(  5-N ,  7-H ) :   0.9260

FINAL SINGLE POINT ENERGY      -267.876051898236

DIPOLE MOMENT
-------------
                                X             Y             Z
Electronic contribution:      1.19977       1.40402       4.56580
Nuclear contribution   :     -1.82485      -1.28952      -3.74132
                        -----------------------------------------
Total Dipole Moment    :     -0.62508       0.11450       0.82449
                        -----------------------------------------
Magnitude (a.u.)       :      1.04097
Magnitude (Debye)      :      2.64594

Rotational constants in cm-1:     0.245790     0.071632     0.062004
Rotational constants in MHz :  7368.599517  2147.482078  1858.844841

                             ****ORCA TERMINATED NORMALLY****
TOTAL RUN TIME: 0 days 0 hours 0 minutes 51 seconds 98 msec
