                         Program Version 5.0.0 -  RELEASE  -
|  1> !CAM-B3LYP RIJCOSX def2-TZVP def2/J TightSCF
|  2> *xyz 0 1
|  3> C          4.99986       -1.59613       -5.92488
|  4> N          5.28156       -1.97413       -4.53576
|  5> C          3.76678       -2.26611       -6.51175
|  6> C          4.79250       -1.36132       -3.45730
|  7> C          3.93990       -0.37492       -3.55736
|  8> N          5.25986       -1.75422       -2.23913
|  9> H          5.92282       -2.52145       -2.18672
| 10> H          4.65468       -1.64040       -1.44202
| 11> H          5.70914       -2.87560       -4.38702
| 12> H          3.33010       -0.31764       -4.36125
| 13> H          3.69849        0.11447       -2.70833
| 14> H          4.84333       -0.51793       -5.94302
| 15> H          5.90170       -1.82250       -6.49647
| 16> H          3.63046       -1.94025       -7.52177
| 17> H          2.90710       -2.00116       -5.93240
| 18> H          3.89538       -3.32820       -6.49392
| 19> *
| 20>
| 21> %MaxCore 64000
| 22>
| 23> %pal nprocs 4
| 24> end
| 25>
| 26> %scf
| 27>   MaxIter 150
| 28> end
| 29>
| 30>
| 31>                          ****END OF INPUT****

CARTESIAN COORDINATES (ANGSTROEM)
---------------------------------
  C      4.999860   -1.596130   -5.924880
  N      5.281560   -1.974130   -4.535760
  C      3.766780   -2.266110   -6.511750
  C      4.792500   -1.361320   -3.457300
  C      3.939900   -0.374920   -3.557360
  N      5.259860   -1.754220   -2.239130
  H      5.922820   -2.521450   -2.186720
  H      4.654680   -1.640400   -1.442020
  H      5.709140   -2.875600   -4.387020
  H      3.330100   -0.317640   -4.361250
  H      3.698490    0.114470   -2.708330
  H      4.843330   -0.517930   -5.943020
  H      5.901700   -1.822500   -6.496470
  H      3.630460   -1.940250   -7.521770
  H      2.907100   -2.001160   -5.932400
  H      3.895380   -3.328200   -6.493920

 Total Charge           Charge          ....    0
 Multiplicity           Mult            ....    1
 Number of Electrons    NEL             ....   48
 Basis Dimension        Dim             ....  246

ORBITAL ENERGIES
----------------

  NO   OCC          E(Eh)            E(eV)
   0   2.0000     -14.388110      -391.5204
   1   2.0000     -14.383779      -391.4025
   2   2.0000     -10.288721      -279.9703
   3   2.0000     -10.273399      -279.5534
   4   2.0000     -10.226194      -278.2689
   5   2.0000     -10.153369      -276.2872
   6   2.0000      -1.044841       -28.4316
   7   2.0000      -0.960038       -26.1240
   8   2.0000      -0.837187       -22.7810
   9   2.0000      -0.796507       -21.6740
  10   2.0000      -0.714385       -19.4394
  11   2.0000      -0.637241       -17.3402
  12   2.0000      -0.614064       -16.7095
  13   2.0000      -0.581892       -15.8341
  14   2.0000      -0.524833       -14.2814
  15   2.0000      -0.515461       -14.0264
  16   2.0000      -0.494611       -13.4590
  17   2.0000      -0.466899       -12.7050
  18   2.0000      -0.450700       -12.2642
  19   2.0000      -0.437219       -11.8973
  20   2.0000      -0.419776       -11.4227
  21   2.0000      -0.411896       -11.2083
  22   2.0000      -0.313744        -8.5374
  23   2.0000      -0.230661        -6.2766
  24   0.0000       0.058790         1.5998
  25   0.0000       0.087742         2.3876
  26   0.0000       0.101141         2.7522
  27   0.0000       0.119835         3.2609
  28   0.0000       0.128512         3.4970

MULLIKEN ATOMIC CHARGES
-----------------------
   0 C :   -0.138564
   1 N :   -0.324968
   2 C :   -0.298716
   3 C :    0.424040
   4 C :   -0.560199
   5 N :   -0.492884
   6 H :    0.207502
   7 H :    0.236930
   8 H :    0.184388
   9 H :    0.104425
  10 H :    0.078562
  11 H :    0.139358
  12 H :    0.112240
  13 H :    0.109744
  14 H :    0.123294
  15 H :    0.094847
Sum of atomic charges:   -0.0000000

LOEWDIN ATOMIC CHARGES
----------------------
   0 C :   -0.296706
   1 N :    0.109774
   2 C :   -0.307088
   3 C :   -0.450717
   4 C :   -0.332803
   5 N :   -0.037339
   6 H :    0.157696
   7 H :    0.169001
   8 H :    0.171329
   9 H :    0.100930
  10 H :    0.100498
  11 H :    0.140529
  12 H :    0.127049
  13 H :    0.117425
  14 H :    0.119037
  15 H :    0.111384

  Mayer bond orders larger than 0.100000
B(  0-C ,  1-N ) :   0.9129 B(  0-C ,  2-C ) :   0.9374 B(  0-C , 11-H ) :   0.9754
B(  0-C , 12-H ) :   0.9828 B(  1-N ,  3-C ) :   1.1446 B(  1-N ,  8-H ) :   0.9332
B(  2-C , 13-H ) :   0.9782 B(  2-C , 14-H ) :   0.9773 B(  2-C , 15-H ) :   0.9772
B(  3-C ,  4-C ) :   1.6287 B(  3-C ,  5-N ) :   1.0728 B(  4-C ,  9-H ) :   0.9951
B(  4-C , 10-H ) :   1.0147 B(  5-N ,  6-H ) :   0.9369 B(  5-N ,  7-H ) :   0.9257

FINAL SINGLE POINT ENERGY      -267.870453417593

DIPOLE MOMENT
-------------
                                X             Y             Z
Electronic contribution:      2.43723      -0.14140       3.52001
Nuclear contribution   :     -2.10948      -0.95026      -3.53375
                        -----------------------------------------
Total Dipole Moment    :      0.32775      -1.09166      -0.01374
                        -----------------------------------------
Magnitude (a.u.)       :      1.13988
Magnitude (Debye)      :      2.89734

Rotational constants in cm-1:     0.255209     0.072067     0.062929
Rotational constants in MHz :  7650.964615  2160.525743  1886.569524

                             ****ORCA TERMINATED NORMALLY****
TOTAL RUN TIME: 0 days 0 hours 0 minutes 52 seconds 485 msec
