                         Program Version 5.0.0 -  RELEASE  -
|  1> !CAM-B3LYP RIJCOSX def2-TZVP def2/J TightSCF
|  2> *xyz 0 1
|  3> C          4.99986       -1.59613       -5.92488
|  4> N          5.28156       -1.97413       -4.53576
|  5> C          3.76678       -2.26611       -6.51175
|  6> C          4.79250       -1.36132       -3.45730
|  7> N          3.93990       -0.37492       -3.55736
|  8> C          5.25986       -1.75422       -2.23913
|  9> H          5.92282       -2.52145       -2.18672
| 10> H          4.65468       -1.64040       -1.44202
| 11> H          5.70914       -2.87560       -4.38702
| 12> H          3.33010       -0.31764       -4.36125
| 13> H          3.69849        0.11447       -2.70833
| 14> H          4.84333       -0.51793       -5.94302
| 15> H          5.90170       -1.82250       -6.49647
| 16> H          3.63046       -1.94025       -7.52177
| 17> H          2.90710       -2.00116       -5.93240
| 18> H          3.89538       -3.32820       -6.49392
| 19> *
| 20>
| 21> %MaxCore 64000
| 22>
| 23> %pal nprocs 4
| 24> end
| 25>
| 26> %scf
| 27>   MaxIter 150
| 28> end
| 29>
| 30>
| 31>                          ****END OF INPUT****

CARTESIAN COORDINATES (ANGSTROEM)
---------------------------------
  C      4.999860   -1.596130   -5.924880
  N      5.281560   -1.974130   -4.535760
  C      3.766780   -2.266110   -6.511750
  C      4.792500   -1.361320   -3.457300
  N      3.939900   -0.374920   -3.557360
  C      5.259860   -1.754220   -2.239130
  H      5.922820   -2.521450   -2.186720
  H      4.654680   -1.640400   -1.442020
  H      5.709140   -2.875600   -4.387020
  H      3.330100   -0.317640   -4.361250
  H      3.698490    0.114470   -2.708330
  H      4.843330   -0.517930   -5.943020
  H      5.901700   -1.822500   -6.496470
  H      3.630460   -1.940250   -7.521770
  H      2.907100   -2.001160   -5.932400
  H      3.895380   -3.328200   -6.493920

 Total Charge           Charge          ....    0
 Multiplicity           Mult            ....    1
 Number of Electrons    NEL             ....   48
 Basis Dimension        Dim             ....  246

ORBITAL ENERGIES
----------------

  NO   OCC          E(Eh)            E(eV)
   0   2.0000     -14.392309      -391.6346
   1   2.0000     -14.388883      -391.5414
   2   2.0000     -10.293893      -280.1111
   3   2.0000     -10.282959      -279.8135
   4   2.0000     -10.237762      -278.5837
   5   2.0000     -10.149452      -276.1806
   6   2.0000      -1.055941       -28.7336
   7   2.0000      -0.971560       -26.4375
   8   2.0000      -0.855271       -23.2731
   9   2.0000      -0.776768       -21.1369
  10   2.0000      -0.706368       -19.2212
  11   2.0000      -0.677732       -18.4420
  12   2.0000      -0.618166       -16.8211
  13   2.0000      -0.570366       -15.5204
  14   2.0000      -0.552186       -15.0257
  15   2.0000      -0.515193       -14.0191
  16   2.0000      -0.500883       -13.6297
  17   2.0000      -0.473451       -12.8832
  18   2.0000      -0.455054       -12.3826
  19   2.0000      -0.433349       -11.7920
  20   2.0000      -0.430268       -11.7082
  21   2.0000      -0.414099       -11.2682
  22   2.0000      -0.321021        -8.7354
  23   2.0000      -0.216893        -5.9020
  24   0.0000       0.055408         1.5077
  25   0.0000       0.088334         2.4037
  26   0.0000       0.096420         2.6237
  27   0.0000       0.113107         3.0778
  28   0.0000       0.124802         3.3960

MULLIKEN ATOMIC CHARGES
-----------------------
   0 C :   -0.197940
   1 N :   -0.305803
   2 C :   -0.269760
   3 C :    0.392591
   4 N :   -0.461102
   5 C :   -0.544991
   6 H :    0.063925
   7 H :    0.083080
   8 H :    0.217187
   9 H :    0.220515
  10 H :    0.240027
  11 H :    0.128190
  12 H :    0.122192
  13 H :    0.111415
  14 H :    0.092964
  15 H :    0.107511
Sum of atomic charges:    0.0000000

LOEWDIN ATOMIC CHARGES
----------------------
   0 C :   -0.311780
   1 N :    0.117092
   2 C :   -0.309242
   3 C :   -0.458850
   4 N :    0.009408
   5 C :   -0.370790
   6 H :    0.091721
   7 H :    0.090177
   8 H :    0.189609
   9 H :    0.163805
  10 H :    0.182940
  11 H :    0.132446
  12 H :    0.130143
  13 H :    0.117524
  14 H :    0.110540
  15 H :    0.115255

  Mayer bond orders larger than 0.100000
B(  0-C ,  1-N ) :   0.9304 B(  0-C ,  2-C ) :   0.9326 B(  0-C , 11-H ) :   0.9851
B(  0-C , 12-H ) :   0.9829 B(  1-N ,  3-C ) :   1.1645 B(  1-N ,  8-H ) :   0.9310
B(  2-C , 13-H ) :   0.9769 B(  2-C , 14-H ) :   0.9706 B(  2-C , 15-H ) :   0.9778
B(  3-C ,  4-N ) :   1.1417 B(  3-C ,  5-C ) :   1.5646 B(  4-N ,  9-H ) :   0.9209
B(  4-N , 10-H ) :   0.9241 B(  5-C ,  6-H ) :   1.0319 B(  5-C ,  7-H ) :   0.9855

FINAL SINGLE POINT ENERGY      -267.864577308711

DIPOLE MOMENT
-------------
                                X             Y             Z
Electronic contribution:      1.13094       1.25720       2.11200
Nuclear contribution   :     -1.82946      -1.24287      -3.25410
                        -----------------------------------------
Total Dipole Moment    :     -0.69852       0.01433      -1.14210
                        -----------------------------------------
Magnitude (a.u.)       :      1.33885
Magnitude (Debye)      :      3.40310

Rotational constants in cm-1:     0.244672     0.074506     0.064043
Rotational constants in MHz :  7335.067153  2233.624025  1919.970379

                             ****ORCA TERMINATED NORMALLY****
TOTAL RUN TIME: 0 days 0 hours 0 minutes 52 seconds 511 msec
