                         Program Version 5.0.0 -  RELEASE  -
|  1> !CAM-B3LYP RIJCOSX def2-TZVP def2/J TightSCF xyzfile
|  2>
|  3> *xyzfile 0 1 D1.xyz
|  4>
|  5> %MaxCore 64000
|  6>
|  7> %pal nprocs 18
|  8> end
|  9>
| 10> %scf
| 11>   MaxIter 150
| 12> end
| 13>
| 14>
| 15>                          ****END OF INPUT****

CARTESIAN COORDINATES (ANGSTROEM)
---------------------------------
  C      4.999862   -1.596133   -5.924876
  C      5.281560   -1.974132   -4.535764
  C      3.766779   -2.266110   -6.511752
  C      2.496702   -1.844161   -5.735704
  H      1.626416   -2.217434   -6.308950
  H      2.481824   -2.456069   -4.793414
  F      2.459729   -0.509204   -5.505757
  C      4.792500   -1.361316   -3.457295
  N      3.939898   -0.374925   -3.557359
  N      5.259860   -1.754224   -2.239133
  H      5.922824   -2.521451   -2.186720
  H      4.654678   -1.640404   -1.442016
  H      5.709139   -2.875599   -4.387021
  H      3.330101   -0.317639   -4.361247
  H      3.698494    0.114468   -2.708333
  H      4.843333   -0.517930   -5.943019
  H      5.901695   -1.822503   -6.496467
  H      3.886191   -3.357076   -6.533604
  H      3.685602   -1.922168   -7.547128

 Total Charge           Charge          ....    0
 Multiplicity           Mult            ....    1
 Number of Electrons    NEL             ....   64
 Basis Dimension        Dim             ....  314

ORBITAL ENERGIES
----------------

  NO   OCC          E(Eh)            E(eV)
   0   2.0000     -24.777076      -674.2185
   1   2.0000     -14.376868      -391.2145
   2   2.0000     -14.362441      -390.8219
   3   2.0000     -10.326188      -280.9899
   4   2.0000     -10.280634      -279.7503
   5   2.0000     -10.237272      -278.5703
   6   2.0000     -10.215894      -277.9886
   7   2.0000     -10.159358      -276.4502
   8   2.0000      -1.327674       -36.1278
   9   2.0000      -1.033597       -28.1256
  10   2.0000      -0.941261       -25.6130
  11   2.0000      -0.877132       -23.8680
  12   2.0000      -0.803921       -21.8758
  13   2.0000      -0.750111       -20.4116
  14   2.0000      -0.676259       -18.4019
  15   2.0000      -0.662508       -18.0277
  16   2.0000      -0.616742       -16.7824
  17   2.0000      -0.600372       -16.3369
  18   2.0000      -0.586973       -15.9723
  19   2.0000      -0.567428       -15.4405
  20   2.0000      -0.561483       -15.2787
  21   2.0000      -0.522642       -14.2218
  22   2.0000      -0.492667       -13.4062
  23   2.0000      -0.474718       -12.9177
  24   2.0000      -0.461586       -12.5604
  25   2.0000      -0.439087       -11.9482
  26   2.0000      -0.417251       -11.3540
  27   2.0000      -0.401159       -10.9161
  28   2.0000      -0.388796       -10.5797
  29   2.0000      -0.378894       -10.3102
  30   2.0000      -0.318323        -8.6620
  31   2.0000      -0.214266        -5.8305
  32   0.0000       0.066722         1.8156
  33   0.0000       0.087438         2.3793
  34   0.0000       0.106102         2.8872
  35   0.0000       0.110105         2.9961
  36   0.0000       0.119933         3.2636

MULLIKEN ATOMIC CHARGES
-----------------------
   0 C :   -0.274556
   1 C :   -0.350851
   2 C :   -0.127571
   3 C :   -0.049599
   4 H :    0.118532
   5 H :    0.134259
   6 F :   -0.222261
   7 C :    0.332895
   8 N :   -0.482885
   9 N :   -0.486664
  10 H :    0.230936
  11 H :    0.201774
  12 H :    0.082036
  13 H :    0.276846
  14 H :    0.199857
  15 H :    0.124691
  16 H :    0.102404
  17 H :    0.096503
  18 H :    0.093655
Sum of atomic charges:   -0.0000000

LOEWDIN ATOMIC CHARGES
----------------------
   0 C :   -0.288241
   1 C :   -0.286875
   2 C :   -0.271343
   3 C :   -0.356803
   4 H :    0.123933
   5 H :    0.134185
   6 F :    0.159529
   7 C :   -0.460927
   8 N :    0.006576
   9 N :   -0.042467
  10 H :    0.171823
  11 H :    0.149983
  12 H :    0.113726
  13 H :    0.133562
  14 H :    0.161181
  15 H :    0.142306
  16 H :    0.139879
  17 H :    0.138865
  18 H :    0.131107

  Mayer bond orders larger than 0.100000
B(  0-C ,  1-C ) :   1.0037 B(  0-C ,  2-C ) :   0.9212 B(  0-C , 15-H ) :   0.9959
B(  0-C , 16-H ) :   0.9890 B(  1-C ,  7-C ) :   1.6228 B(  1-C , 12-H ) :   0.9862
B(  2-C ,  3-C ) :   0.9643 B(  2-C , 17-H ) :   0.9545 B(  2-C , 18-H ) :   0.9693
B(  3-C ,  4-H ) :   0.9766 B(  3-C ,  5-H ) :   0.9870 B(  3-C ,  6-F ) :   0.9102
B(  6-F , 13-H ) :   0.1136 B(  7-C ,  8-N ) :   1.1688 B(  7-C ,  9-N ) :   1.1209
B(  8-N , 13-H ) :   0.8515 B(  8-N , 14-H ) :   0.9354 B(  9-N , 10-H ) :   0.9278
B(  9-N , 11-H ) :   0.9264

FINAL SINGLE POINT ENERGY      -406.426071008930

DIPOLE MOMENT
-------------
                                X             Y             Z
Electronic contribution:     -3.36407       3.99201       0.84303
Nuclear contribution   :      2.63975      -4.51113      -0.34926
                        -----------------------------------------
Total Dipole Moment    :     -0.72433      -0.51912       0.49377
                        -----------------------------------------
Magnitude (a.u.)       :      1.01880
Magnitude (Debye)      :      2.58957

Rotational constants in cm-1:     0.109429     0.049838     0.039337
Rotational constants in MHz :  3280.611039  1494.113088  1179.280063

                             ****ORCA TERMINATED NORMALLY****
TOTAL RUN TIME: 0 days 0 hours 0 minutes 29 seconds 109 msec
