                         Program Version 5.0.0 -  RELEASE  -
|  1> !CAM-B3LYP RIJCOSX def2-TZVP def2/J TightSCF xyzfile
|  2>
|  3> *xyzfile 0 1 D2.xyz
|  4>
|  5> %MaxCore 64000
|  6>
|  7> %pal nprocs 18
|  8> end
|  9>
| 10> %scf
| 11>   MaxIter 150
| 12> end
| 13>
| 14>
| 15>                          ****END OF INPUT****

CARTESIAN COORDINATES (ANGSTROEM)
---------------------------------
  C      4.999862   -1.596133   -5.924876
  N      5.281560   -1.974132   -4.535764
  C      3.766779   -2.266110   -6.511752
  C      2.496702   -1.844161   -5.735704
  H      1.626416   -2.217434   -6.308950
  H      2.481824   -2.456069   -4.793414
  F      2.459729   -0.509204   -5.505757
  C      4.792500   -1.361316   -3.457295
  C      3.939898   -0.374925   -3.557359
  N      5.259860   -1.754224   -2.239133
  H      5.922824   -2.521451   -2.186720
  H      4.654678   -1.640404   -1.442016
  H      5.709139   -2.875599   -4.387021
  H      3.330101   -0.317639   -4.361247
  H      3.698494    0.114468   -2.708333
  H      4.843333   -0.517930   -5.943019
  H      5.901695   -1.822503   -6.496467
  H      3.886191   -3.357076   -6.533604
  H      3.685602   -1.922168   -7.547128

 Total Charge           Charge          ....    0
 Multiplicity           Mult            ....    1
 Number of Electrons    NEL             ....   64
 Basis Dimension        Dim             ....  314

ORBITAL ENERGIES
----------------

  NO   OCC          E(Eh)            E(eV)
   0   2.0000     -24.754061      -673.5922
   1   2.0000     -14.384869      -391.4322
   2   2.0000     -14.375176      -391.1684
   3   2.0000     -10.325419      -280.9689
   4   2.0000     -10.276504      -279.6379
   5   2.0000     -10.275825      -279.6194
   6   2.0000     -10.253149      -279.0024
   7   2.0000     -10.126888      -275.5666
   8   2.0000      -1.307241       -35.5718
   9   2.0000      -1.039645       -28.2902
  10   2.0000      -0.955927       -26.0121
  11   2.0000      -0.866314       -23.5736
  12   2.0000      -0.790559       -21.5122
  13   2.0000      -0.772009       -21.0074
  14   2.0000      -0.689466       -18.7613
  15   2.0000      -0.642105       -17.4726
  16   2.0000      -0.620643       -16.8885
  17   2.0000      -0.589731       -16.0474
  18   2.0000      -0.586884       -15.9699
  19   2.0000      -0.567500       -15.4424
  20   2.0000      -0.554694       -15.0940
  21   2.0000      -0.525277       -14.2935
  22   2.0000      -0.495483       -13.4828
  23   2.0000      -0.477125       -12.9832
  24   2.0000      -0.454046       -12.3552
  25   2.0000      -0.445117       -12.1122
  26   2.0000      -0.425264       -11.5720
  27   2.0000      -0.409369       -11.1395
  28   2.0000      -0.400295       -10.8926
  29   2.0000      -0.370787       -10.0896
  30   2.0000      -0.309897        -8.4327
  31   2.0000      -0.218757        -5.9527
  32   0.0000       0.057457         1.5635
  33   0.0000       0.083310         2.2670
  34   0.0000       0.100370         2.7312
  35   0.0000       0.109349         2.9755
  36   0.0000       0.122740         3.3399

MULLIKEN ATOMIC CHARGES
-----------------------
   0 C :   -0.164373
   1 N :   -0.337030
   2 C :   -0.169891
   3 C :   -0.021340
   4 H :    0.113457
   5 H :    0.128419
   6 F :   -0.189603
   7 C :    0.397577
   8 C :   -0.586436
   9 N :   -0.498851
  10 H :    0.201638
  11 H :    0.234969
  12 H :    0.180500
  13 H :    0.156674
  14 H :    0.068393
  15 H :    0.165330
  16 H :    0.122480
  17 H :    0.097965
  18 H :    0.100121
Sum of atomic charges:   -0.0000000

LOEWDIN ATOMIC CHARGES
----------------------
   0 C :   -0.276353
   1 N :    0.106909
   2 C :   -0.278493
   3 C :   -0.356293
   4 H :    0.122850
   5 H :    0.134126
   6 F :    0.164887
   7 C :   -0.468747
   8 C :   -0.326260
   9 N :   -0.043058
  10 H :    0.154151
  11 H :    0.167690
  12 H :    0.169353
  13 H :    0.078102
  14 H :    0.097110
  15 H :    0.148714
  16 H :    0.131185
  17 H :    0.136412
  18 H :    0.137714

  Mayer bond orders larger than 0.100000
B(  0-C ,  1-N ) :   0.9041 B(  0-C ,  2-C ) :   0.9404 B(  0-C , 15-H ) :   0.9769
B(  0-C , 16-H ) :   0.9839 B(  1-N ,  7-C ) :   1.1227 B(  1-N , 12-H ) :   0.9310
B(  2-C ,  3-C ) :   0.9700 B(  2-C , 17-H ) :   0.9546 B(  2-C , 18-H ) :   0.9689
B(  3-C ,  4-H ) :   0.9701 B(  3-C ,  5-H ) :   0.9847 B(  3-C ,  6-F ) :   0.9568
B(  7-C ,  8-C ) :   1.6436 B(  7-C ,  9-N ) :   1.0516 B(  8-C , 13-H ) :   0.9819
B(  8-C , 14-H ) :   1.0181 B(  9-N , 10-H ) :   0.9380 B(  9-N , 11-H ) :   0.9258

FINAL SINGLE POINT ENERGY      -406.395638243590

DIPOLE MOMENT
-------------
                                X             Y             Z
Electronic contribution:     -2.25227       2.63931      -0.12923
Nuclear contribution   :      2.43398      -4.26587      -0.19921
                        -----------------------------------------
Total Dipole Moment    :      0.18171      -1.62656      -0.32844
                        -----------------------------------------
Magnitude (a.u.)       :      1.66931
Magnitude (Debye)      :      4.24304

Rotational constants in cm-1:     0.110089     0.049944     0.039407
Rotational constants in MHz :  3300.378855  1497.273856  1181.385913

                             ****ORCA TERMINATED NORMALLY****
TOTAL RUN TIME: 0 days 0 hours 0 minutes 29 seconds 914 msec
