                         Program Version 5.0.0 -  RELEASE  -
|  1> !CAM-B3LYP RIJCOSX def2-TZVP def2/J TightSCF xyzfile
|  2>
|  3> *xyzfile 0 1 D3.xyz
|  4>
|  5> %MaxCore 64000
|  6>
|  7> %pal nprocs 18
|  8> end
|  9>
| 10> %scf
| 11>   MaxIter 150
| 12> end
| 13>
| 14>
| 15>                          ****END OF INPUT****

CARTESIAN COORDINATES (ANGSTROEM)
---------------------------------
  C      4.999862   -1.596133   -5.924876
  N      5.281560   -1.974132   -4.535764
  C      3.766779   -2.266110   -6.511752
  C      2.496702   -1.844161   -5.735704
  H      1.626416   -2.217434   -6.308950
  H      2.481824   -2.456069   -4.793414
  F      2.459729   -0.509204   -5.505757
  C      4.792500   -1.361316   -3.457295
  N      3.939898   -0.374925   -3.557359
  C      5.259860   -1.754224   -2.239133
  H      5.922824   -2.521451   -2.186720
  H      4.654678   -1.640404   -1.442016
  H      5.709139   -2.875599   -4.387021
  H      3.330101   -0.317639   -4.361247
  H      3.698494    0.114468   -2.708333
  H      4.843333   -0.517930   -5.943019
  H      5.901695   -1.822503   -6.496467
  H      3.886191   -3.357076   -6.533604
  H      3.685602   -1.922168   -7.547128

 Total Charge           Charge          ....    0
 Multiplicity           Mult            ....    1
 Number of Electrons    NEL             ....   64
 Basis Dimension        Dim             ....  314

ORBITAL ENERGIES
----------------

  NO   OCC          E(Eh)            E(eV)
   0   2.0000     -24.792194      -674.6299
   1   2.0000     -14.386907      -391.4876
   2   2.0000     -14.361803      -390.8045
   3   2.0000     -10.346150      -281.5330
   4   2.0000     -10.285285      -279.8768
   5   2.0000     -10.284247      -279.8486
   6   2.0000     -10.265721      -279.3445
   7   2.0000     -10.140228      -275.9296
   8   2.0000      -1.343120       -36.5482
   9   2.0000      -1.047243       -28.4969
  10   2.0000      -0.962949       -26.2032
  11   2.0000      -0.882747       -24.0208
  12   2.0000      -0.809615       -22.0307
  13   2.0000      -0.750850       -20.4317
  14   2.0000      -0.697660       -18.9843
  15   2.0000      -0.671133       -18.2624
  16   2.0000      -0.651244       -17.7212
  17   2.0000      -0.618543       -16.8314
  18   2.0000      -0.589628       -16.0446
  19   2.0000      -0.575734       -15.6665
  20   2.0000      -0.543712       -14.7952
  21   2.0000      -0.539766       -14.6878
  22   2.0000      -0.506647       -13.7866
  23   2.0000      -0.495066       -13.4714
  24   2.0000      -0.456629       -12.4255
  25   2.0000      -0.446976       -12.1628
  26   2.0000      -0.437856       -11.9147
  27   2.0000      -0.422548       -11.4981
  28   2.0000      -0.410775       -11.1777
  29   2.0000      -0.406659       -11.0658
  30   2.0000      -0.311490        -8.4761
  31   2.0000      -0.208357        -5.6697
  32   0.0000       0.059542         1.6202
  33   0.0000       0.088794         2.4162
  34   0.0000       0.094595         2.5741
  35   0.0000       0.099591         2.7100
  36   0.0000       0.119626         3.2552

MULLIKEN ATOMIC CHARGES
-----------------------
   0 C :   -0.218985
   1 N :   -0.314436
   2 C :   -0.158303
   3 C :   -0.039983
   4 H :    0.126359
   5 H :    0.142483
   6 F :   -0.212915
   7 C :    0.354367
   8 N :   -0.479912
   9 C :   -0.547087
  10 H :    0.056470
  11 H :    0.078583
  12 H :    0.214863
  13 H :    0.261966
  14 H :    0.227162
  15 H :    0.162366
  16 H :    0.131534
  17 H :    0.110668
  18 H :    0.104802
Sum of atomic charges:   -0.0000000

LOEWDIN ATOMIC CHARGES
----------------------
   0 C :   -0.290331
   1 N :    0.116634
   2 C :   -0.278114
   3 C :   -0.355575
   4 H :    0.127947
   5 H :    0.138329
   6 F :    0.162465
   7 C :   -0.471045
   8 N :    0.007971
   9 C :   -0.382255
  10 H :    0.088863
  11 H :    0.089107
  12 H :    0.188308
  13 H :    0.124868
  14 H :    0.177360
  15 H :    0.141870
  16 H :    0.134130
  17 H :    0.140855
  18 H :    0.138613

  Mayer bond orders larger than 0.100000
B(  0-C ,  1-N ) :   0.9215 B(  0-C ,  2-C ) :   0.9206 B(  0-C , 15-H ) :   0.9865
B(  0-C , 16-H ) :   0.9846 B(  1-N ,  7-C ) :   1.1435 B(  1-N , 12-H ) :   0.9315
B(  2-C ,  3-C ) :   0.9661 B(  2-C , 17-H ) :   0.9530 B(  2-C , 18-H ) :   0.9693
B(  3-C ,  4-H ) :   0.9740 B(  3-C ,  5-H ) :   0.9829 B(  3-C ,  6-F ) :   0.9205
B(  6-F , 13-H ) :   0.1046 B(  7-C ,  8-N ) :   1.1878 B(  7-C ,  9-C ) :   1.5836
B(  8-N , 13-H ) :   0.8629 B(  8-N , 14-H ) :   0.9312 B(  9-C , 10-H ) :   1.0262
B(  9-C , 11-H ) :   0.9911

FINAL SINGLE POINT ENERGY      -406.410519009912

DIPOLE MOMENT
-------------
                                X             Y             Z
Electronic contribution:     -3.50645       3.86081      -1.53547
Nuclear contribution   :      2.63642      -4.47741       0.00296
                        -----------------------------------------
Total Dipole Moment    :     -0.87004      -0.61660      -1.53251
                        -----------------------------------------
Magnitude (a.u.)       :      1.86701
Magnitude (Debye)      :      4.74557

Rotational constants in cm-1:     0.108041     0.051979     0.040387
Rotational constants in MHz :  3238.993235  1558.297571  1210.782552

                             ****ORCA TERMINATED NORMALLY****
TOTAL RUN TIME: 0 days 0 hours 0 minutes 33 seconds 625 msec
