                         Program Version 5.0.0 -  RELEASE  -
|  1> !DLPNO-CCSD(T) aug-cc-pVTZ aug-cc-pVTZ/C TightSCF TightPNO RIJCOSX def2/J
|  2> *xyz -1 1
|  3> C         -0.50835        1.72268       -4.12430
|  4> S         -1.32861        0.14674       -4.43578
|  5> O         -2.57135        0.47573       -5.06834
|  6> O         -1.51496       -0.40051       -3.06342
|  7> O         -0.37793       -0.62756       -5.20114
|  8> H         -0.31967        2.21655       -5.05456
|  9> H          0.41835        1.54859       -3.61852
| 10> H         -1.13714        2.33776       -3.51504
| 11> *
| 12> %MaxCore 64000
| 13>
| 14> %pal nprocs 2
| 15> end
| 16>
| 17> %scf
| 18>   MaxIter 150
| 19> end
| 20>
| 21>
| 22>                          ****END OF INPUT****

CARTESIAN COORDINATES (ANGSTROEM)
---------------------------------
  C     -0.508350    1.722680   -4.124300
  S     -1.328610    0.146740   -4.435780
  O     -2.571350    0.475730   -5.068340
  O     -1.514960   -0.400510   -3.063420
  O     -0.377930   -0.627560   -5.201140
  H     -0.319670    2.216550   -5.054560
  H      0.418350    1.548590   -3.618520
  H     -1.137140    2.337760   -3.515040

 Total Charge           Charge          ....   -1
 Multiplicity           Mult            ....    1
 Number of Electrons    NEL             ....   50
 Basis Dimension        Dim             ....  303

ORBITAL ENERGIES
----------------

  NO   OCC          E(Eh)            E(eV)
   0   2.0000     -91.983821     -2503.0070
   1   2.0000     -20.335802      -553.3653
   2   2.0000     -20.332726      -553.2816
   3   2.0000     -20.316698      -552.8455
   4   2.0000     -11.077809      -301.4425
   5   2.0000      -8.946782      -243.4543
   6   2.0000      -6.633102      -180.4959
   7   2.0000      -6.631673      -180.4570
   8   2.0000      -6.631603      -180.4551
   9   2.0000      -1.274657       -34.6852
  10   2.0000      -1.136163       -30.9166
  11   2.0000      -1.102121       -29.9902
  12   2.0000      -0.839715       -22.8498
  13   2.0000      -0.603556       -16.4236
  14   2.0000      -0.486328       -13.2337
  15   2.0000      -0.468468       -12.7477
  16   2.0000      -0.466654       -12.6983
  17   2.0000      -0.420265       -11.4360
  18   2.0000      -0.417220       -11.3531
  19   2.0000      -0.325227        -8.8499
  20   2.0000      -0.321505        -8.7486
  21   2.0000      -0.282537        -7.6882
  22   2.0000      -0.266023        -7.2389
  23   2.0000      -0.248752        -6.7689
  24   2.0000      -0.229612        -6.2481
  25   0.0000       0.128085         3.4854
  26   0.0000       0.140598         3.8259
  27   0.0000       0.141955         3.8628
  28   0.0000       0.189411         5.1541
  29   0.0000       0.212494         5.7823

MULLIKEN ATOMIC CHARGES
-----------------------
   0 C :   -1.078141
   1 S :    2.194948
   2 O :   -1.001811
   3 O :   -1.014079
   4 O :   -1.001688
   5 H :    0.304490
   6 H :    0.295459
   7 H :    0.300821
Sum of atomic charges:   -1.0000000

LOEWDIN ATOMIC CHARGES
----------------------
   0 C :    0.427802
   1 S :   -0.439447
   2 O :   -0.061578
   3 O :   -0.100841
   4 O :   -0.069197
   5 H :   -0.254159
   6 H :   -0.251072
   7 H :   -0.251508

  Mayer bond orders larger than 0.100000
B(  0-C ,  1-S ) :   0.7613 B(  0-C ,  5-H ) :   0.8970 B(  0-C ,  6-H ) :   0.9130
B(  0-C ,  7-H ) :   0.9103 B(  1-S ,  2-O ) :   1.3875 B(  1-S ,  3-O ) :   1.3112
B(  1-S ,  4-O ) :   1.3736

E(0)                                       ...   -661.877492083
E(0)                                       ...   -661.877492083
E(CORR)(strong-pairs)                      ...     -1.114043849
E(CORR)(weak-pairs)                        ...     -0.000988130
E(CORR)(corrected)                         ...     -1.115031979
E(TOT)                                     ...   -662.992524062
E(CCSD(T))                                 ...   -663.040240067
FINAL SINGLE POINT ENERGY      -663.040240066636

DIPOLE MOMENT
-------------
                                X             Y             Z
Electronic contribution:     -1.93836      -3.63525      -0.90042
Nuclear contribution   :      2.60425       5.03732       0.91691
                        -----------------------------------------
Total Dipole Moment    :      0.66589       1.40207       0.01648
                        -----------------------------------------
Magnitude (a.u.)       :      1.55225
Magnitude (Debye)      :      3.94550

Rotational constants in cm-1:     0.171343     0.157827     0.155747
Rotational constants in MHz :  5136.740483  4731.521814  4669.189064

                             ****ORCA TERMINATED NORMALLY****
TOTAL RUN TIME: 0 days 1 hours 3 minutes 16 seconds 215 msec
