                         Program Version 5.0.0 -  RELEASE  -
|  1> !DLPNO-CCSD(T) aug-cc-pVTZ aug-cc-pVTZ/C TightSCF TightPNO RIJCOSX def2/J
|  2> *xyz 1 1
|  3> C          1.36401        0.46874       -2.81376
|  4> N          0.42884        0.32140       -1.65531
|  5> H          0.74858       -0.40054       -1.00134
|  6> H         -0.46105        0.02333       -2.07773
|  7> H          0.31026        1.20137       -1.13495
|  8> H          0.99872        1.22859       -3.47261
|  9> H          1.42772       -0.46011       -3.34109
| 10> H          2.33442        0.74312       -2.45611
| 11> *
| 12> %MaxCore 64000
| 13>
| 14> %pal nprocs 8
| 15> end
| 16>
| 17> %scf
| 18>   MaxIter 150
| 19> end
| 20>
| 21>
| 22>                          ****END OF INPUT****

CARTESIAN COORDINATES (ANGSTROEM)
---------------------------------
  C      1.364010    0.468740   -2.813760
  N      0.428840    0.321400   -1.655310
  H      0.748580   -0.400540   -1.001340
  H     -0.461050    0.023330   -2.077730
  H      0.310260    1.201370   -1.134950
  H      0.998720    1.228590   -3.472610
  H      1.427720   -0.460110   -3.341090
  H      2.334420    0.743120   -2.456110

 Total Charge           Charge          ....    1
 Multiplicity           Mult            ....    1
 Number of Electrons    NEL             ....   18
 Basis Dimension        Dim             ....  230

ORBITAL ENERGIES
----------------

  NO   OCC          E(Eh)            E(eV)
   0   2.0000     -15.914346      -433.0514
   1   2.0000     -11.484516      -312.5096
   2   2.0000      -1.527900       -41.5763
   3   2.0000      -1.178995       -32.0821
   4   2.0000      -0.992484       -27.0069
   5   2.0000      -0.987400       -26.8685
   6   2.0000      -0.868223       -23.6255
   7   2.0000      -0.785571       -21.3765
   8   2.0000      -0.783407       -21.3176
   9   0.0000      -0.127463        -3.4684
  10   0.0000      -0.086315        -2.3487
  11   0.0000      -0.085840        -2.3358
  12   0.0000      -0.082999        -2.2585
  13   0.0000      -0.047091        -1.2814

MULLIKEN ATOMIC CHARGES
-----------------------
   0 C :   -0.816085
   1 N :    0.086227
   2 H :    0.170138
   3 H :    0.193865
   4 H :    0.181252
   5 H :    0.403078
   6 H :    0.392816
   7 H :    0.388709
Sum of atomic charges:    1.0000000

LOEWDIN ATOMIC CHARGES
----------------------
   0 C :    0.693933
   1 N :    1.100039
   2 H :   -0.127413
   3 H :   -0.133383
   4 H :   -0.119087
   5 H :   -0.137295
   6 H :   -0.137091
   7 H :   -0.139702

  Mayer bond orders larger than 0.100000
B(  0-C ,  1-N ) :   0.8158 B(  0-C ,  5-H ) :   0.8362 B(  0-C ,  6-H ) :   0.8492
B(  0-C ,  7-H ) :   0.8576 B(  1-N ,  2-H ) :   0.9860 B(  1-N ,  3-H ) :   0.9683
B(  1-N ,  4-H ) :   0.9775

E(0)                                       ...    -95.616388574
E(0)                                       ...    -95.616388574
E(CORR)(strong-pairs)                      ...     -0.429438062
E(CORR)(weak-pairs)                        ...     -0.000230134
E(CORR)(corrected)                         ...     -0.429668196
E(TOT)                                     ...    -96.046056771
E(CCSD(T))                                 ...    -96.059564768
FINAL SINGLE POINT ENERGY       -96.059564767753

DIPOLE MOMENT
-------------
                                X             Y             Z
Electronic contribution:     -0.67374      -0.09328       0.87397
Nuclear contribution   :      0.14628      -0.00095      -0.25828
                        -----------------------------------------
Total Dipole Moment    :     -0.52746      -0.09422       0.61570
                        -----------------------------------------
Magnitude (a.u.)       :      0.81620
Magnitude (Debye)      :      2.07460

Rotational constants in cm-1:     2.853706     0.682028     0.680630
Rotational constants in MHz : 85551.942317 20446.672693 20404.761959

                             ****ORCA TERMINATED NORMALLY****
TOTAL RUN TIME: 0 days 0 hours 1 minutes 1 seconds 999 msec
