                         Program Version 5.0.0 -  RELEASE  -
|  1> !DLPNO-CCSD(T) aug-cc-pVTZ aug-cc-pVTZ/C TightSCF TightPNO RIJCOSX def2/J
|  2>
|  3> *xyzfile 0 1 B.xyz
|  4>
|  5> %MaxCore 64000
|  6>
|  7> %pal nprocs 18
|  8> end
|  9>
| 10> %scf
| 11>   MaxIter 150
| 12> end
| 13>
| 14>
| 15>                          ****END OF INPUT****

CARTESIAN COORDINATES (ANGSTROEM)
---------------------------------
  C      1.364014    0.468742   -2.813764
  N      0.428844    0.321402   -1.655312
  C      0.968045    1.630639   -3.715749
  C     -0.508347    1.722679   -4.124300
  S     -1.328608    0.146737   -4.435781
  H     -0.591511    2.294958   -5.047219
  H     -1.114114    2.235610   -3.374362
  H      0.748578   -0.400542   -1.001345
  H     -0.461053    0.023332   -2.077731
  H      0.310258    1.201375   -1.134948
  O     -2.571347    0.475733   -5.068341
  O     -1.514963   -0.400512   -3.063420
  H      1.294847   -0.468742   -3.364684
  H      2.376216    0.597400   -2.431495
  H      1.578688    1.520652   -4.612733
  H      1.266653    2.575988   -3.250448
  O     -0.377928   -0.627558   -5.201141

 Total Charge           Charge          ....    0
 Multiplicity           Mult            ....    1
 Number of Electrons    NEL             ....   74
 Basis Dimension        Dim             ....  579

ORBITAL ENERGIES
----------------

  NO   OCC          E(Eh)            E(eV)
   0   2.0000     -92.150006     -2507.5291
   1   2.0000     -20.507887      -558.0480
   2   2.0000     -20.491487      -557.6017
   3   2.0000     -20.488553      -557.5219
   4   2.0000     -15.703320      -427.3091
   5   2.0000     -11.323629      -308.1316
   6   2.0000     -11.272069      -306.7286
   7   2.0000     -11.253897      -306.2341
   8   2.0000      -9.113445      -247.9895
   9   2.0000      -6.799837      -185.0330
  10   2.0000      -6.798659      -185.0009
  11   2.0000      -6.797731      -184.9757
  12   2.0000      -1.444175       -39.2980
  13   2.0000      -1.342765       -36.5385
  14   2.0000      -1.292114       -35.1602
  15   2.0000      -1.291161       -35.1343
  16   2.0000      -1.101495       -29.9732
  17   2.0000      -0.990884       -26.9633
  18   2.0000      -0.879119       -23.9220
  19   2.0000      -0.822430       -22.3795
  20   2.0000      -0.794907       -21.6305
  21   2.0000      -0.754249       -20.5242
  22   2.0000      -0.698363       -19.0034
  23   2.0000      -0.662051       -18.0153
  24   2.0000      -0.646816       -17.6008
  25   2.0000      -0.639320       -17.3968
  26   2.0000      -0.615198       -16.7404
  27   2.0000      -0.601743       -16.3743
  28   2.0000      -0.556971       -15.1560
  29   2.0000      -0.544607       -14.8195
  30   2.0000      -0.529492       -14.4082
  31   2.0000      -0.496036       -13.4978
  32   2.0000      -0.485909       -13.2222
  33   2.0000      -0.448009       -12.1909
  34   2.0000      -0.438678       -11.9370
  35   2.0000      -0.410362       -11.1665
  36   2.0000      -0.401543       -10.9265
  37   0.0000      -0.003841        -0.1045
  38   0.0000       0.019679         0.5355
  39   0.0000       0.020581         0.5600
  40   0.0000       0.038842         1.0569
  41   0.0000       0.048253         1.3130

MULLIKEN ATOMIC CHARGES
-----------------------
   0 C :   -0.324952
   1 N :    0.051116
   2 C :   -0.517594
   3 C :   -0.463102
   4 S :    2.260248
   5 H :    0.221929
   6 H :    0.240691
   7 H :    0.054589
   8 H :    0.170885
   9 H :    0.093819
  10 O :   -1.034516
  11 O :   -0.971734
  12 H :    0.342703
  13 H :    0.361406
  14 H :    0.277296
  15 H :    0.275297
  16 O :   -1.038081
Sum of atomic charges:   -0.0000000

LOEWDIN ATOMIC CHARGES
----------------------
   0 C :    0.305337
   1 N :    1.062969
   2 C :    0.276241
   3 C :    0.186457
   4 S :   -0.228696
   5 H :   -0.188487
   6 H :   -0.193768
   7 H :   -0.128051
   8 H :   -0.636222
   9 H :   -0.128327
  10 O :    0.011534
  11 O :    0.208926
  12 H :   -0.155440
  13 H :   -0.120689
  14 H :   -0.144386
  15 H :   -0.145263
  16 O :    0.017866

  Mayer bond orders larger than 0.100000
B(  0-C ,  1-N ) :   0.7532 B(  0-C ,  2-C ) :   0.8690 B(  0-C , 12-H ) :   0.9018
B(  0-C , 13-H ) :   0.8926 B(  1-N ,  7-H ) :   1.0963 B(  1-N ,  8-H ) :   0.8855
B(  1-N ,  9-H ) :   1.0234 B(  2-C ,  3-C ) :   0.8980 B(  2-C ,  4-S ) :   0.1107
B(  2-C , 14-H ) :   0.9549 B(  2-C , 15-H ) :   0.9478 B(  3-C ,  4-S ) :   0.7660
B(  3-C ,  5-H ) :   0.9661 B(  3-C ,  6-H ) :   0.9660 B(  4-S , 10-O ) :   1.2489
B(  4-S , 11-O ) :   1.1695 B(  4-S , 16-O ) :   1.3875 B(  8-H , 11-O ) :   0.2709

E(0)                                       ...   -795.535367667
E(0)                                       ...   -795.535367667
E(CORR)(strong-pairs)                      ...     -1.708534052
E(CORR)(weak-pairs)                        ...     -0.002034684
E(CORR)(corrected)                         ...     -1.710568737
E(TOT)                                     ...   -797.245936404
E(CCSD(T))                                 ...   -797.318019786
FINAL SINGLE POINT ENERGY      -797.318019785662

DIPOLE MOMENT
-------------
                                X             Y             Z
Electronic contribution:     -6.73541      -4.01222      -4.14095
Nuclear contribution   :      9.95459       5.57517       7.68169
                        -----------------------------------------
Total Dipole Moment    :      3.21918       1.56295       3.54074
                        -----------------------------------------
Magnitude (a.u.)       :      5.03416
Magnitude (Debye)      :     12.79581

Rotational constants in cm-1:     0.102119     0.045768     0.041299
Rotational constants in MHz :  3061.441288  1372.093000  1238.124534

                             ****ORCA TERMINATED NORMALLY****
TOTAL RUN TIME: 0 days 0 hours 36 minutes 38 seconds 58 msec
