                         Program Version 5.0.0 -  RELEASE  -
|  1> !DLPNO-CCSD(T) aug-cc-pVTZ aug-cc-pVTZ/C TightSCF TightPNO RIJCOSX def2/J
|  2> *xyz 0 1
|  3> C         -0.50835        1.72268       -4.12430
|  4> S         -1.32861        0.14674       -4.43578
|  5> F         -2.57135        0.47573       -5.06834
|  6> O         -1.51496       -0.40051       -3.06342
|  7> O         -0.37793       -0.62756       -5.20114
|  8> H         -0.31967        2.21655       -5.05456
|  9> H          0.41835        1.54859       -3.61852
| 10> H         -1.13714        2.33776       -3.51504
| 11>
| 12> *
| 13> %MaxCore 64000
| 14>
| 15> %pal nprocs 2
| 16> end
| 17>
| 18> %scf
| 19>   MaxIter 150
| 20> end
| 21>
| 22>
| 23>                          ****END OF INPUT****

CARTESIAN COORDINATES (ANGSTROEM)
---------------------------------
  C     -0.508350    1.722680   -4.124300
  S     -1.328610    0.146740   -4.435780
  F     -2.571350    0.475730   -5.068340
  O     -1.514960   -0.400510   -3.063420
  O     -0.377930   -0.627560   -5.201140
  H     -0.319670    2.216550   -5.054560
  H      0.418350    1.548590   -3.618520
  H     -1.137140    2.337760   -3.515040

 Total Charge           Charge          ....    0
 Multiplicity           Mult            ....    1
 Number of Electrons    NEL             ....   50
 Basis Dimension        Dim             ....  303

ORBITAL ENERGIES
----------------

  NO   OCC          E(Eh)            E(eV)
   0   2.0000     -92.259173     -2510.4997
   1   2.0000     -26.444444      -719.5899
   2   2.0000     -20.574771      -559.8680
   3   2.0000     -20.558018      -559.4121
   4   2.0000     -11.289861      -307.2127
   5   2.0000      -9.222101      -250.9461
   6   2.0000      -6.909762      -188.0242
   7   2.0000      -6.905908      -187.9193
   8   2.0000      -6.904810      -187.8894
   9   2.0000      -1.816469       -49.4286
  10   2.0000      -1.454411       -39.5765
  11   2.0000      -1.341652       -36.5082
  12   2.0000      -1.068916       -29.0867
  13   2.0000      -0.974548       -26.5188
  14   2.0000      -0.846645       -23.0384
  15   2.0000      -0.841739       -22.9049
  16   2.0000      -0.770298       -20.9609
  17   2.0000      -0.661657       -18.0046
  18   2.0000      -0.656083       -17.8529
  19   2.0000      -0.635936       -17.3047
  20   2.0000      -0.611886       -16.6503
  21   2.0000      -0.559508       -15.2250
  22   2.0000      -0.503505       -13.7011
  23   2.0000      -0.483482       -13.1562
  24   2.0000      -0.477262       -12.9870
  25   0.0000       0.021912         0.5962
  26   0.0000       0.041212         1.1214
  27   0.0000       0.045094         1.2271
  28   0.0000       0.062241         1.6937
  29   0.0000       0.090792         2.4706

MULLIKEN ATOMIC CHARGES
-----------------------
   0 C :   -0.988741
   1 S :    2.142592
   2 F :   -0.487417
   3 O :   -0.851128
   4 O :   -0.842190
   5 H :    0.343947
   6 H :    0.345687
   7 H :    0.337248
Sum of atomic charges:   -0.0000000

LOEWDIN ATOMIC CHARGES
----------------------
   0 C :    0.511110
   1 S :   -0.140855
   2 F :    0.287207
   3 O :   -0.009510
   4 O :    0.018538
   5 H :   -0.229862
   6 H :   -0.209329
   7 H :   -0.227299

  Mayer bond orders larger than 0.100000
B(  0-C ,  1-S ) :   0.8904 B(  0-C ,  5-H ) :   0.8639 B(  0-C ,  6-H ) :   0.8779
B(  0-C ,  7-H ) :   0.8774 B(  1-S ,  2-F ) :   0.5807 B(  1-S ,  3-O ) :   1.5110
B(  1-S ,  4-O ) :   1.5703

E(0)                                       ...   -686.368469854
E(0)                                       ...   -686.368469854
E(CORR)(strong-pairs)                      ...     -1.119991560
E(CORR)(weak-pairs)                        ...     -0.000972555
E(CORR)(corrected)                         ...     -1.120964116
E(TOT)                                     ...   -687.489433970
E(CCSD(T))                                 ...   -687.534958953
FINAL SINGLE POINT ENERGY      -687.534958952873

DIPOLE MOMENT
-------------
                                X             Y             Z
Electronic contribution:     -4.09130      -3.02470      -2.04229
Nuclear contribution   :      3.90013       4.80063       1.59574
                        -----------------------------------------
Total Dipole Moment    :     -0.19117       1.77594      -0.44655
                        -----------------------------------------
Magnitude (a.u.)       :      1.84117
Magnitude (Debye)      :      4.67988

Rotational constants in cm-1:     0.163395     0.155047     0.147447
Rotational constants in MHz :  4898.460101  4648.206837  4420.340547

                             ****ORCA TERMINATED NORMALLY****
TOTAL RUN TIME: 0 days 1 hours 1 minutes 28 seconds 50 msec
