                         Program Version 5.0.0 -  RELEASE  -
|  1> !DLPNO-CCSD(T) aug-cc-pVTZ aug-cc-pVTZ/C TightSCF TightPNO RIJCOSX def2/J
|  2> *xyz 0 1
|  3> C          1.36401        0.46874       -2.81376
|  4> C          0.42884        0.32140       -1.65531
|  5> H          0.74858       -0.40054       -1.00134
|  6> H         -0.46105        0.02333       -2.07773
|  7> H          0.31026        1.20137       -1.13495
|  8> H          0.99872        1.22859       -3.47261
|  9> H          1.42772       -0.46011       -3.34109
| 10> H          2.33442        0.74312       -2.45611
| 11> *
| 12> %MaxCore 64000
| 13>
| 14> %pal nprocs 8
| 15> end
| 16>
| 17> %scf
| 18>   MaxIter 150
| 19> end
| 20>
| 21>
| 22>                          ****END OF INPUT****

CARTESIAN COORDINATES (ANGSTROEM)
---------------------------------
  C      1.364010    0.468740   -2.813760
  C      0.428840    0.321400   -1.655310
  H      0.748580   -0.400540   -1.001340
  H     -0.461050    0.023330   -2.077730
  H      0.310260    1.201370   -1.134950
  H      0.998720    1.228590   -3.472610
  H      1.427720   -0.460110   -3.341090
  H      2.334420    0.743120   -2.456110

 Total Charge           Charge          ....    0
 Multiplicity           Mult            ....    1
 Number of Electrons    NEL             ....   18
 Basis Dimension        Dim             ....  230

ORBITAL ENERGIES
----------------

  NO   OCC          E(Eh)            E(eV)
   0   2.0000     -11.197428      -304.6975
   1   2.0000     -11.182013      -304.2780
   2   2.0000      -1.038053       -28.2469
   3   2.0000      -0.850450       -23.1419
   4   2.0000      -0.618396       -16.8274
   5   2.0000      -0.613967       -16.7069
   6   2.0000      -0.510370       -13.8879
   7   2.0000      -0.496022       -13.4975
   8   2.0000      -0.489532       -13.3208
   9   0.0000       0.033193         0.9032
  10   0.0000       0.043445         1.1822
  11   0.0000       0.043937         1.1956
  12   0.0000       0.044020         1.1978
  13   0.0000       0.068620         1.8672

MULLIKEN ATOMIC CHARGES
-----------------------
   0 C :   -0.874201
   1 C :   -0.963634
   2 H :    0.325177
   3 H :    0.332100
   4 H :    0.293618
   5 H :    0.300125
   6 H :    0.282436
   7 H :    0.304378
Sum of atomic charges:    0.0000000

LOEWDIN ATOMIC CHARGES
----------------------
   0 C :    0.584086
   1 C :    0.604724
   2 H :   -0.213924
   3 H :   -0.218428
   4 H :   -0.207006
   5 H :   -0.182122
   6 H :   -0.181818
   7 H :   -0.185512

  Mayer bond orders larger than 0.100000
B(  0-C ,  1-C ) :   0.7933 B(  0-C ,  5-H ) :   0.9220 B(  0-C ,  6-H ) :   0.9438
B(  0-C ,  7-H ) :   0.9160 B(  1-C ,  2-H ) :   0.9028 B(  1-C ,  3-H ) :   0.9077
B(  1-C ,  4-H ) :   0.9390

E(0)                                       ...    -79.250536579
E(0)                                       ...    -79.250536579
E(CORR)(strong-pairs)                      ...     -0.403756144
E(CORR)(weak-pairs)                        ...     -0.000233541
E(CORR)(corrected)                         ...     -0.403989685
E(TOT)                                     ...    -79.654526264
E(CCSD(T))                                 ...    -79.667567478
FINAL SINGLE POINT ENERGY       -79.667567478397

DIPOLE MOMENT
-------------
                                X             Y             Z
Electronic contribution:     -0.00268       0.01933       0.07453
Nuclear contribution   :     -0.01491      -0.02598      -0.05743
                        -----------------------------------------
Total Dipole Moment    :     -0.01760      -0.00665       0.01711
                        -----------------------------------------
Magnitude (a.u.)       :      0.02543
Magnitude (Debye)      :      0.06463

Rotational constants in cm-1:     2.853707     0.712330     0.710805
Rotational constants in MHz : 85551.986377 21355.123158 21309.410122

                             ****ORCA TERMINATED NORMALLY****
TOTAL RUN TIME: 0 days 0 hours 1 minutes 16 seconds 644 msec
