                         Program Version 5.0.0 -  RELEASE  -
|  1> !DLPNO-CCSD(T) aug-cc-pVTZ aug-cc-pVTZ/C TightSCF TightPNO RIJCOSX def2/J
|  2> *xyz 0 1
|  3> C         -0.50835        1.72268       -4.12430
|  4> S         -1.32861        0.14674       -4.43578
|  5> O         -2.57135        0.47573       -5.06834
|  6> F         -1.51496       -0.40051       -3.06342
|  7> O         -0.37793       -0.62756       -5.20114
|  8> H         -0.31967        2.21655       -5.05456
|  9> H          0.41835        1.54859       -3.61852
| 10> H         -1.13714        2.33776       -3.51504
| 11> *
| 12> %MaxCore 64000
| 13>
| 14> %pal nprocs 2
| 15> end
| 16>
| 17> %scf
| 18>   MaxIter 150
| 19> end
| 20>
| 21>
| 22>                          ****END OF INPUT****

CARTESIAN COORDINATES (ANGSTROEM)
---------------------------------
  C     -0.508350    1.722680   -4.124300
  S     -1.328610    0.146740   -4.435780
  O     -2.571350    0.475730   -5.068340
  F     -1.514960   -0.400510   -3.063420
  O     -0.377930   -0.627560   -5.201140
  H     -0.319670    2.216550   -5.054560
  H      0.418350    1.548590   -3.618520
  H     -1.137140    2.337760   -3.515040

 Total Charge           Charge          ....    0
 Multiplicity           Mult            ....    1
 Number of Electrons    NEL             ....   50
 Basis Dimension        Dim             ....  303

ORBITAL ENERGIES
----------------

  NO   OCC          E(Eh)            E(eV)
   0   2.0000     -92.257318     -2510.4493
   1   2.0000     -26.414455      -718.7739
   2   2.0000     -20.577177      -559.9334
   3   2.0000     -20.573883      -559.8438
   4   2.0000     -11.288822      -307.1845
   5   2.0000      -9.219913      -250.8866
   6   2.0000      -6.907636      -187.9663
   7   2.0000      -6.903844      -187.8631
   8   2.0000      -6.902747      -187.8333
   9   2.0000      -1.765221       -48.0341
  10   2.0000      -1.472816       -40.0774
  11   2.0000      -1.370986       -37.3064
  12   2.0000      -1.065559       -28.9953
  13   2.0000      -0.945103       -25.7176
  14   2.0000      -0.813945       -22.1486
  15   2.0000      -0.805749       -21.9256
  16   2.0000      -0.769452       -20.9378
  17   2.0000      -0.670654       -18.2494
  18   2.0000      -0.662568       -18.0294
  19   2.0000      -0.633906       -17.2495
  20   2.0000      -0.621582       -16.9141
  21   2.0000      -0.569735       -15.5033
  22   2.0000      -0.517335       -14.0774
  23   2.0000      -0.496600       -13.5132
  24   2.0000      -0.495034       -13.4706
  25   0.0000       0.022882         0.6227
  26   0.0000       0.042047         1.1442
  27   0.0000       0.044054         1.1988
  28   0.0000       0.064821         1.7639
  29   0.0000       0.091522         2.4905

MULLIKEN ATOMIC CHARGES
-----------------------
   0 C :   -0.999110
   1 S :    2.175104
   2 O :   -0.850513
   3 F :   -0.497966
   4 O :   -0.848244
   5 H :    0.355593
   6 H :    0.330643
   7 H :    0.334491
Sum of atomic charges:   -0.0000000

LOEWDIN ATOMIC CHARGES
----------------------
   0 C :    0.514195
   1 S :   -0.136362
   2 O :    0.025585
   3 F :    0.243488
   4 O :    0.019136
   5 H :   -0.211783
   6 H :   -0.226904
   7 H :   -0.227356

  Mayer bond orders larger than 0.100000
B(  0-C ,  1-S ) :   0.8797 B(  0-C ,  5-H ) :   0.8610 B(  0-C ,  6-H ) :   0.8818
B(  0-C ,  7-H ) :   0.8798 B(  1-S ,  2-O ) :   1.5816 B(  1-S ,  3-F ) :   0.5651
B(  1-S ,  4-O ) :   1.5695

E(0)                                       ...   -686.392436916
E(0)                                       ...   -686.392436916
E(CORR)(strong-pairs)                      ...     -1.118774448
E(CORR)(weak-pairs)                        ...     -0.000962025
E(CORR)(corrected)                         ...     -1.119736473
E(TOT)                                     ...   -687.512173389
E(CCSD(T))                                 ...   -687.557339570
FINAL SINGLE POINT ENERGY      -687.557339569871

DIPOLE MOMENT
-------------
                                X             Y             Z
Electronic contribution:     -2.25572      -4.56135       1.47912
Nuclear contribution   :      2.84473       5.67605      -0.40731
                        -----------------------------------------
Total Dipole Moment    :      0.58901       1.11471       1.07181
                        -----------------------------------------
Magnitude (a.u.)       :      1.65477
Magnitude (Debye)      :      4.20610

Rotational constants in cm-1:     0.162669     0.154016     0.148818
Rotational constants in MHz :  4876.699308  4617.284822  4461.441982

                             ****ORCA TERMINATED NORMALLY****
TOTAL RUN TIME: 0 days 0 hours 59 minutes 40 seconds 383 msec
