                         Program Version 5.0.0 -  RELEASE  -
|  1> !DLPNO-CCSD(T) aug-cc-pVTZ aug-cc-pVTZ/C TightSCF TightPNO RIJCOSX def2/J
|  2> *xyz 0 1
|  3> C         -0.50835        1.72268       -4.12430
|  4> S         -1.32861        0.14674       -4.43578
|  5> O         -2.57135        0.47573       -5.06834
|  6> O         -1.51496       -0.40051       -3.06342
|  7> F         -0.37793       -0.62756       -5.20114
|  8> H         -0.31967        2.21655       -5.05456
|  9> H          0.41835        1.54859       -3.61852
| 10> H         -1.13714        2.33776       -3.51504
| 11> *
| 12> %MaxCore 64000
| 13>
| 14> %pal nprocs 2
| 15> end
| 16>
| 17> %scf
| 18>   MaxIter 150
| 19> end
| 20>
| 21>
| 22>                          ****END OF INPUT****

CARTESIAN COORDINATES (ANGSTROEM)
---------------------------------
  C     -0.508350    1.722680   -4.124300
  S     -1.328610    0.146740   -4.435780
  O     -2.571350    0.475730   -5.068340
  O     -1.514960   -0.400510   -3.063420
  F     -0.377930   -0.627560   -5.201140
  H     -0.319670    2.216550   -5.054560
  H      0.418350    1.548590   -3.618520
  H     -1.137140    2.337760   -3.515040

 Total Charge           Charge          ....    0
 Multiplicity           Mult            ....    1
 Number of Electrons    NEL             ....   50
 Basis Dimension        Dim             ....  303

ORBITAL ENERGIES
----------------

  NO   OCC          E(Eh)            E(eV)
   0   2.0000     -92.258547     -2510.4827
   1   2.0000     -26.438541      -719.4293
   2   2.0000     -20.577848      -559.9517
   3   2.0000     -20.557829      -559.4070
   4   2.0000     -11.289757      -307.2099
   5   2.0000      -9.221460      -250.9287
   6   2.0000      -6.909059      -188.0050
   7   2.0000      -6.905279      -187.9022
   8   2.0000      -6.904236      -187.8738
   9   2.0000      -1.805282       -49.1242
  10   2.0000      -1.461412       -39.7670
  11   2.0000      -1.344631       -36.5893
  12   2.0000      -1.068092       -29.0642
  13   2.0000      -0.968424       -26.3522
  14   2.0000      -0.839475       -22.8433
  15   2.0000      -0.834015       -22.6947
  16   2.0000      -0.770258       -20.9598
  17   2.0000      -0.664724       -18.0881
  18   2.0000      -0.657331       -17.8869
  19   2.0000      -0.635706       -17.2984
  20   2.0000      -0.614059       -16.7094
  21   2.0000      -0.562742       -15.3130
  22   2.0000      -0.506687       -13.7877
  23   2.0000      -0.484458       -13.1828
  24   2.0000      -0.479136       -13.0379
  25   0.0000       0.022076         0.6007
  26   0.0000       0.041336         1.1248
  27   0.0000       0.044942         1.2229
  28   0.0000       0.062664         1.7052
  29   0.0000       0.090929         2.4743

MULLIKEN ATOMIC CHARGES
-----------------------
   0 C :   -0.988401
   1 S :    2.145263
   2 O :   -0.842834
   3 O :   -0.850138
   4 F :   -0.488277
   5 H :    0.342616
   6 H :    0.331316
   7 H :    0.350456
Sum of atomic charges:    0.0000000

LOEWDIN ATOMIC CHARGES
----------------------
   0 C :    0.511685
   1 S :   -0.138945
   2 O :    0.025208
   3 O :   -0.009252
   4 F :    0.277649
   5 H :   -0.229803
   6 H :   -0.226881
   7 H :   -0.209662

  Mayer bond orders larger than 0.100000
B(  0-C ,  1-S ) :   0.8906 B(  0-C ,  5-H ) :   0.8643 B(  0-C ,  6-H ) :   0.8811
B(  0-C ,  7-H ) :   0.8743 B(  1-S ,  2-O ) :   1.5832 B(  1-S ,  3-O ) :   1.5105
B(  1-S ,  4-F ) :   0.5846

E(0)                                       ...   -686.372661639
E(0)                                       ...   -686.372661639
E(CORR)(strong-pairs)                      ...     -1.119781085
E(CORR)(weak-pairs)                        ...     -0.000968120
E(CORR)(corrected)                         ...     -1.120749205
E(TOT)                                     ...   -687.493410844
E(CCSD(T))                                 ...   -687.538858987
FINAL SINGLE POINT ENERGY      -687.538858986570

DIPOLE MOMENT
-------------
                                X             Y             Z
Electronic contribution:     -0.27039      -4.94658      -2.27440
Nuclear contribution   :      1.70876       5.90289       1.72841
                        -----------------------------------------
Total Dipole Moment    :      1.43837       0.95632      -0.54599
                        -----------------------------------------
Magnitude (a.u.)       :      1.81151
Magnitude (Debye)      :      4.60449

Rotational constants in cm-1:     0.163253     0.155214     0.147311
Rotational constants in MHz :  4894.200006  4653.189727  4416.272537

                             ****ORCA TERMINATED NORMALLY****
TOTAL RUN TIME: 0 days 1 hours 0 minutes 56 seconds 755 msec
