                         Program Version 5.0.0 -  RELEASE  -
|  1> !DLPNO-CCSD(T) aug-cc-pVTZ aug-cc-pVTZ/C TightSCF TightPNO RIJCOSX def2/J
|  2>
|  3> *xyzfile 0 1 D3.xyz
|  4>
|  5> %MaxCore 64000
|  6>
|  7> %pal nprocs 18
|  8> end
|  9>
| 10> %scf
| 11>   MaxIter 150
| 12> end
| 13>
| 14>
| 15>                          ****END OF INPUT****

CARTESIAN COORDINATES (ANGSTROEM)
---------------------------------
  C      1.364014    0.468742   -2.813764
  C      0.428844    0.321402   -1.655312
  C      0.968045    1.630639   -3.715749
  C     -0.508347    1.722679   -4.124300
  S     -1.328608    0.146737   -4.435781
  H     -0.591511    2.294958   -5.047219
  H     -1.114114    2.235610   -3.374362
  H      0.748578   -0.400542   -1.001345
  H     -0.461053    0.023332   -2.077731
  H      0.310258    1.201375   -1.134948
  O     -2.571347    0.475733   -5.068341
  O     -1.514963   -0.400512   -3.063420
  H      1.294847   -0.468742   -3.364684
  H      2.376216    0.597400   -2.431495
  H      1.578688    1.520652   -4.612733
  H      1.266653    2.575988   -3.250448
  F     -0.377928   -0.627558   -5.201141

 Total Charge           Charge          ....    0
 Multiplicity           Mult            ....    1
 Number of Electrons    NEL             ....   74
 Basis Dimension        Dim             ....  579

ORBITAL ENERGIES
----------------

  NO   OCC          E(Eh)            E(eV)
   0   2.0000     -92.257899     -2510.4651
   1   2.0000     -26.438650      -719.4322
   2   2.0000     -20.578990      -559.9828
   3   2.0000     -20.558018      -559.4121
   4   2.0000     -11.293925      -307.3233
   5   2.0000     -11.252692      -306.2013
   6   2.0000     -11.220556      -305.3268
   7   2.0000     -11.148051      -303.3539
   8   2.0000      -9.221489      -250.9295
   9   2.0000      -6.909082      -188.0057
  10   2.0000      -6.904987      -187.8943
  11   2.0000      -6.904352      -187.8770
  12   2.0000      -1.806414       -49.1550
  13   2.0000      -1.466114       -39.8950
  14   2.0000      -1.357369       -36.9359
  15   2.0000      -1.118633       -30.4395
  16   2.0000      -1.042696       -28.3732
  17   2.0000      -0.976111       -26.5613
  18   2.0000      -0.921079       -25.0638
  19   2.0000      -0.846185       -23.0259
  20   2.0000      -0.835174       -22.7263
  21   2.0000      -0.811282       -22.0761
  22   2.0000      -0.753114       -20.4933
  23   2.0000      -0.689786       -18.7700
  24   2.0000      -0.674339       -18.3497
  25   2.0000      -0.648778       -17.6541
  26   2.0000      -0.637494       -17.3471
  27   2.0000      -0.591956       -16.1079
  28   2.0000      -0.576864       -15.6973
  29   2.0000      -0.557561       -15.1720
  30   2.0000      -0.553532       -15.0624
  31   2.0000      -0.531032       -14.4501
  32   2.0000      -0.498032       -13.5521
  33   2.0000      -0.493188       -13.4203
  34   2.0000      -0.474707       -12.9174
  35   2.0000      -0.464661       -12.6441
  36   2.0000      -0.420429       -11.4405
  37   0.0000       0.023575         0.6415
  38   0.0000       0.034606         0.9417
  39   0.0000       0.035977         0.9790
  40   0.0000       0.043158         1.1744
  41   0.0000       0.054763         1.4902

MULLIKEN ATOMIC CHARGES
-----------------------
   0 C :   -0.357723
   1 C :   -0.995788
   2 C :   -0.484906
   3 C :   -0.441049
   4 S :    2.179773
   5 H :    0.263011
   6 H :    0.257786
   7 H :    0.170873
   8 H :    0.496061
   9 H :    0.244802
  10 O :   -0.960372
  11 O :   -0.850700
  12 H :    0.168090
  13 H :    0.336088
  14 H :    0.225342
  15 H :    0.259041
  16 F :   -0.510331
Sum of atomic charges:   -0.0000000

LOEWDIN ATOMIC CHARGES
----------------------
   0 C :    0.262279
   1 C :    0.588244
   2 C :    0.262388
   3 C :    0.223828
   4 S :    0.023920
   5 H :   -0.191718
   6 H :   -0.164965
   7 H :   -0.189284
   8 H :   -0.647133
   9 H :   -0.188408
  10 O :    0.049795
  11 O :    0.252482
  12 H :   -0.167747
  13 H :   -0.133397
  14 H :   -0.160175
  15 H :   -0.133455
  16 F :    0.313347

  Mayer bond orders larger than 0.100000
B(  0-C ,  1-C ) :   0.7355 B(  0-C ,  2-C ) :   0.8385 B(  0-C , 12-H ) :   1.0605
B(  0-C , 13-H ) :   0.9284 B(  1-C ,  7-H ) :   1.1227 B(  1-C ,  8-H ) :   0.7543
B(  1-C ,  9-H ) :   1.0241 B(  2-C ,  3-C ) :   0.8910 B(  2-C ,  4-S ) :   0.1130
B(  2-C , 14-H ) :   1.0120 B(  2-C , 15-H ) :   0.9590 B(  3-C ,  4-S ) :   0.8440
B(  3-C ,  5-H ) :   0.9497 B(  3-C ,  6-H ) :   0.9466 B(  4-S , 10-O ) :   1.3536
B(  4-S , 11-O ) :   1.4914 B(  4-S , 16-F ) :   0.5781 B(  7-H ,  9-H ) :   0.1120

E(0)                                       ...   -803.461626836
E(0)                                       ...   -803.461626836
E(CORR)(strong-pairs)                      ...     -1.689251637
E(CORR)(weak-pairs)                        ...     -0.001983611
E(CORR)(corrected)                         ...     -1.691235249
E(TOT)                                     ...   -805.152862084
E(CCSD(T))                                 ...   -805.222071296
FINAL SINGLE POINT ENERGY      -805.222071295637

DIPOLE MOMENT
-------------
                                X             Y             Z
Electronic contribution:     -8.52407      -5.88797      -9.94793
Nuclear contribution   :      9.83476       6.70164       9.41257
                        -----------------------------------------
Total Dipole Moment    :      1.31069       0.81366      -0.53535
                        -----------------------------------------
Magnitude (a.u.)       :      1.63296
Magnitude (Debye)      :      4.15066

Rotational constants in cm-1:     0.099832     0.045916     0.042219
Rotational constants in MHz :  2992.874960  1376.530174  1265.693813

                             ****ORCA TERMINATED NORMALLY****
TOTAL RUN TIME: 0 days 0 hours 39 minutes 47 seconds 738 msec
