                         Program Version 5.0.0 -  RELEASE  -
|  1> !BLYP D3BJ RIJCOSX def2-SVPD def2/J TightSCF
|  2> *xyz -1 1
|  3> C         -1.91658       -2.48508       -3.64367
|  4> C         -1.36353       -1.98134       -2.29361
|  5> O         -0.35039       -2.74969       -1.79601
|  6> H         -2.22622       -1.90839       -1.60204
|  7> H         -1.05135       -0.91567       -2.44333
|  8> H         -1.11522       -2.57167       -4.34739
|  9> H         -2.64227       -1.79099       -4.01314
| 10> H         -2.37564       -3.44180       -3.50640
| 11> *
| 12>
| 13> %MaxCore 64000
| 14> %pal nprocs 4
| 15> end
| 16>
| 17> %scf
| 18>   MaxIter 150
| 19> end
| 20>
| 21>
| 22>                          ****END OF INPUT****

CARTESIAN COORDINATES (ANGSTROEM)
---------------------------------
  C     -1.916580   -2.485080   -3.643670
  C     -1.363530   -1.981340   -2.293610
  O     -0.350390   -2.749690   -1.796010
  H     -2.226220   -1.908390   -1.602040
  H     -1.051350   -0.915670   -2.443330
  H     -1.115220   -2.571670   -4.347390
  H     -2.642270   -1.790990   -4.013140
  H     -2.375640   -3.441800   -3.506400

 Total Charge           Charge          ....   -1
 Multiplicity           Mult            ....    1
 Number of Electrons    NEL             ....   26
 Basis Dimension        Dim             ....  103

ORBITAL ENERGIES
----------------

  NO   OCC          E(Eh)            E(eV)
   0   2.0000     -18.471454      -502.6338
   1   2.0000      -9.740683      -265.0575
   2   2.0000      -9.716924      -264.4109
   3   2.0000      -0.588866       -16.0239
   4   2.0000      -0.446252       -12.1431
   5   2.0000      -0.304854        -8.2955
   6   2.0000      -0.199089        -5.4175
   7   2.0000      -0.178672        -4.8619
   8   2.0000      -0.128936        -3.5085
   9   2.0000      -0.112241        -3.0542
  10   2.0000      -0.070715        -1.9242
  11   2.0000       0.066415         1.8072
  12   2.0000       0.070582         1.9206
  13   0.0000       0.162640         4.4257
  14   0.0000       0.191938         5.2229
  15   0.0000       0.222665         6.0590
  16   0.0000       0.235422         6.4062
  17   0.0000       0.254717         6.9312

MULLIKEN ATOMIC CHARGES
-----------------------
   0 C :    0.597752
   1 C :    0.296108
   2 O :   -0.800841
   3 H :   -0.287848
   4 H :   -0.250992
   5 H :   -0.201918
   6 H :   -0.158929
   7 H :   -0.193333
Sum of atomic charges:   -1.0000000

LOEWDIN ATOMIC CHARGES
----------------------
   0 C :    0.074862
   1 C :   -0.264719
   2 O :   -0.539787
   3 H :   -0.047407
   4 H :   -0.043295
   5 H :   -0.052248
   6 H :   -0.073512
   7 H :   -0.053893

  Mayer bond orders larger than 0.100000
B(  0-C ,  1-C ) :   1.1531 B(  0-C ,  2-O ) :   0.2991 B(  0-C ,  3-H ) :   0.1881
B(  0-C ,  4-H ) :   0.1830 B(  0-C ,  5-H ) :   0.8520 B(  0-C ,  6-H ) :   0.8774
B(  0-C ,  7-H ) :   0.8498 B(  1-C ,  2-O ) :   1.1682 B(  1-C ,  3-H ) :   0.9274
B(  1-C ,  4-H ) :   0.9300 B(  1-C ,  5-H ) :   0.2326 B(  1-C ,  6-H ) :   0.1754
B(  1-C ,  7-H ) :   0.2191 B(  3-H ,  4-H ) :   0.1208

Dispersion correction           -0.007732012
FINAL SINGLE POINT ENERGY      -154.268882365521

DIPOLE MOMENT
-------------
                                X             Y             Z
Electronic contribution:      2.13932      -0.90585       1.93045
Nuclear contribution   :     -3.14382       1.30299      -2.83231
                        -----------------------------------------
Total Dipole Moment    :     -1.00451       0.39714      -0.90186
                        -----------------------------------------
Magnitude (a.u.)       :      1.40716
Magnitude (Debye)      :      3.57672

Rotational constants in cm-1:     1.288206     0.322942     0.285188
Rotational constants in MHz : 38619.437223  9681.562038  8549.712012

                             ****ORCA TERMINATED NORMALLY****
TOTAL RUN TIME: 0 days 0 hours 0 minutes 7 seconds 527 msec
