                         Program Version 5.0.0 -  RELEASE  -
|  1> !BLYP D3BJ RIJCOSX def2-SVPD def2/J TightSCF
|  2> *xyz 1 1
|  3> C          1.64703       -2.34528       -5.02041
|  4> C          2.20996       -2.81239       -3.66571
|  5> C          2.48901       -1.66851       -2.73754
|  6> N          3.59631       -0.94761       -2.95225
|  7> N          1.66394       -1.41369       -1.77781
|  8> H          0.81164       -1.96318       -1.70275
|  9> H          1.84550       -0.63508       -1.15875
| 10> H          4.20535       -1.17600       -3.73383
| 11> H          3.81723       -0.12585       -2.40604
| 12> H          3.14311       -3.36280       -3.81152
| 13> H          1.48768       -3.45893       -3.16521
| 14> H          1.46566       -3.19589       -5.64368
| 15> H          2.35406       -1.69850       -5.49654
| 16> H          0.73014       -1.81680       -4.86253
| 17> *
| 18>
| 19> %MaxCore 64000
| 20> %pal nprocs 4
| 21> end
| 22>
| 23> %scf
| 24>   MaxIter 150
| 25> end
| 26>
| 27>
| 28>                          ****END OF INPUT****

CARTESIAN COORDINATES (ANGSTROEM)
---------------------------------
  C      1.647030   -2.345280   -5.020410
  C      2.209960   -2.812390   -3.665710
  C      2.489010   -1.668510   -2.737540
  N      3.596310   -0.947610   -2.952250
  N      1.663940   -1.413690   -1.777810
  H      0.811640   -1.963180   -1.702750
  H      1.845500   -0.635080   -1.158750
  H      4.205350   -1.176000   -3.733830
  H      3.817230   -0.125850   -2.406040
  H      3.143110   -3.362800   -3.811520
  H      1.487680   -3.458930   -3.165210
  H      1.465660   -3.195890   -5.643680
  H      2.354060   -1.698500   -5.496540
  H      0.730140   -1.816800   -4.862530

 Total Charge           Charge          ....    1
 Multiplicity           Mult            ....    1
 Number of Electrons    NEL             ....   40
 Basis Dimension        Dim             ....  172

ORBITAL ENERGIES
----------------

  NO   OCC          E(Eh)            E(eV)
   0   2.0000     -14.275532      -388.4570
   1   2.0000     -14.266961      -388.2237
   2   2.0000     -10.236308      -278.5441
   3   2.0000     -10.120848      -275.4023
   4   2.0000     -10.079717      -274.2831
   5   2.0000      -1.107620       -30.1399
   6   2.0000      -1.018870       -27.7249
   7   2.0000      -0.885005       -24.0822
   8   2.0000      -0.789713       -21.4892
   9   2.0000      -0.752586       -20.4789
  10   2.0000      -0.720096       -19.5948
  11   2.0000      -0.691345       -18.8124
  12   2.0000      -0.654579       -17.8120
  13   2.0000      -0.596687       -16.2367
  14   2.0000      -0.571728       -15.5575
  15   2.0000      -0.563904       -15.3446
  16   2.0000      -0.499941       -13.6041
  17   2.0000      -0.490548       -13.3485
  18   2.0000      -0.485271       -13.2049
  19   2.0000      -0.451794       -12.2939
  20   0.0000      -0.241093        -6.5605
  21   0.0000      -0.186246        -5.0680
  22   0.0000      -0.142478        -3.8770
  23   0.0000      -0.141214        -3.8426
  24   0.0000      -0.111322        -3.0292

MULLIKEN ATOMIC CHARGES
-----------------------
   0 C :    1.029639
   1 C :    0.007592
   2 C :    0.409618
   3 N :    0.321376
   4 N :    0.387076
   5 H :   -0.019365
   6 H :   -0.180684
   7 H :   -0.032774
   8 H :   -0.225468
   9 H :   -0.123822
  10 H :   -0.143356
  11 H :   -0.117655
  12 H :   -0.145435
  13 H :   -0.166742
Sum of atomic charges:    1.0000000

LOEWDIN ATOMIC CHARGES
----------------------
   0 C :    0.187247
   1 C :    0.020339
   2 C :   -0.067919
   3 N :    0.303136
   4 N :    0.305372
   5 H :    0.058033
   6 H :    0.050052
   7 H :    0.047680
   8 H :    0.038052
   9 H :    0.043656
  10 H :    0.031378
  11 H :    0.003597
  12 H :   -0.014090
  13 H :   -0.006533

  Mayer bond orders larger than 0.100000
B(  0-C ,  1-C ) :   1.2709 B(  0-C , 11-H ) :   0.7676 B(  0-C , 12-H ) :   0.7019
B(  0-C , 13-H ) :   0.7531 B(  1-C ,  2-C ) :   1.1475 B(  1-C ,  3-N ) :   0.1198
B(  1-C ,  9-H ) :   0.8156 B(  1-C , 10-H ) :   0.8137 B(  1-C , 11-H ) :   0.2011
B(  1-C , 12-H ) :   0.2422 B(  1-C , 13-H ) :   0.2085 B(  2-C ,  3-N ) :   1.1930
B(  2-C ,  4-N ) :   1.2200 B(  2-C ,  6-H ) :  -0.1540 B(  2-C ,  8-H ) :  -0.1755
B(  2-C ,  9-H ) :   0.1132 B(  2-C , 10-H ) :   0.2067 B(  3-N ,  4-N ) :   0.1734
B(  3-N ,  7-H ) :   1.1082 B(  3-N ,  8-H ) :   1.2725 B(  4-N ,  5-H ) :   1.0964
B(  4-N ,  6-H ) :   1.2668 B(  5-H ,  6-H ) :  -0.1698 B(  7-H ,  8-H ) :  -0.1836
B( 12-H , 13-H ) :   0.1028

Dispersion correction           -0.020565860
FINAL SINGLE POINT ENERGY      -228.788407692072

DIPOLE MOMENT
-------------
                                X             Y             Z
Electronic contribution:      1.20106       1.66108       3.62322
Nuclear contribution   :     -0.98617      -1.03178      -2.77619
                        -----------------------------------------
Total Dipole Moment    :      0.21490       0.62930       0.84703
                        -----------------------------------------
Magnitude (a.u.)       :      1.07688
Magnitude (Debye)      :      2.73720

Rotational constants in cm-1:     0.257311     0.127495     0.099037
Rotational constants in MHz :  7713.982239  3822.189706  2969.039713

                             ****ORCA TERMINATED NORMALLY****
TOTAL RUN TIME: 0 days 0 hours 0 minutes 10 seconds 200 msec
