                         Program Version 5.0.0 -  RELEASE  -
|  1> !BLYP D3BJ RIJCOSX def2-SVPD def2/J TightSCF
|  2> *xyz 0 1
|  3> C         -1.91658       -2.48508       -3.64367
|  4> C         -1.36353       -1.98134       -2.29361
|  5> F         -0.35039       -2.74969       -1.79601
|  6> H         -2.22622       -1.90839       -1.60204
|  7> H         -1.05135       -0.91567       -2.44333
|  8> H         -1.11522       -2.57167       -4.34739
|  9> H         -2.64227       -1.79099       -4.01314
| 10> H         -2.37564       -3.44180       -3.50640
| 11> *
| 12>
| 13> %MaxCore 64000
| 14> %pal nprocs 4
| 15> end
| 16>
| 17> %scf
| 18>   MaxIter 150
| 19> end
| 20>
| 21>
| 22>                          ****END OF INPUT****

CARTESIAN COORDINATES (ANGSTROEM)
---------------------------------
  C     -1.916580   -2.485080   -3.643670
  C     -1.363530   -1.981340   -2.293610
  F     -0.350390   -2.749690   -1.796010
  H     -2.226220   -1.908390   -1.602040
  H     -1.051350   -0.915670   -2.443330
  H     -1.115220   -2.571670   -4.347390
  H     -2.642270   -1.790990   -4.013140
  H     -2.375640   -3.441800   -3.506400

 Total Charge           Charge          ....    0
 Multiplicity           Mult            ....    1
 Number of Electrons    NEL             ....   26
 Basis Dimension        Dim             ....  103

ORBITAL ENERGIES
----------------

  NO   OCC          E(Eh)            E(eV)
   0   2.0000     -24.296488      -661.1410
   1   2.0000     -10.003181      -272.2004
   2   2.0000      -9.921552      -269.9792
   3   2.0000      -1.081221       -29.4215
   4   2.0000      -0.680993       -18.5308
   5   2.0000      -0.560005       -15.2385
   6   2.0000      -0.455202       -12.3867
   7   2.0000      -0.437302       -11.8996
   8   2.0000      -0.402691       -10.9578
   9   2.0000      -0.354893        -9.6571
  10   2.0000      -0.353642        -9.6231
  11   2.0000      -0.287945        -7.8354
  12   2.0000      -0.282269        -7.6809
  13   0.0000       0.003371         0.0917
  14   0.0000       0.034929         0.9505
  15   0.0000       0.049549         1.3483
  16   0.0000       0.058509         1.5921
  17   0.0000       0.082889         2.2555

MULLIKEN ATOMIC CHARGES
-----------------------
   0 C :    0.738067
   1 C :    0.591900
   2 F :   -0.387835
   3 H :   -0.206506
   4 H :   -0.170868
   5 H :   -0.203100
   6 H :   -0.169913
   7 H :   -0.191746
Sum of atomic charges:   -0.0000000

LOEWDIN ATOMIC CHARGES
----------------------
   0 C :    0.152624
   1 C :    0.052284
   2 F :   -0.191754
   3 H :    0.021682
   4 H :    0.027868
   5 H :   -0.021160
   6 H :   -0.019457
   7 H :   -0.022087

  Mayer bond orders larger than 0.100000
B(  0-C ,  1-C ) :   1.3281 B(  0-C ,  3-H ) :   0.1180 B(  0-C ,  4-H ) :   0.1158
B(  0-C ,  5-H ) :   0.8112 B(  0-C ,  6-H ) :   0.7821 B(  0-C ,  7-H ) :   0.8122
B(  1-C ,  2-F ) :   0.8245 B(  1-C ,  3-H ) :   0.8767 B(  1-C ,  4-H ) :   0.8793
B(  1-C ,  5-H ) :   0.1892 B(  1-C ,  6-H ) :   0.1625 B(  1-C ,  7-H ) :   0.1795

Dispersion correction           -0.007125088
FINAL SINGLE POINT ENERGY      -178.879747077199

DIPOLE MOMENT
-------------
                                X             Y             Z
Electronic contribution:      3.62702      -1.36533       3.42924
Nuclear contribution   :     -4.15401       1.70894      -3.75000
                        -----------------------------------------
Total Dipole Moment    :     -0.52699       0.34360      -0.32075
                        -----------------------------------------
Magnitude (a.u.)       :      0.70616
Magnitude (Debye)      :      1.79492

Rotational constants in cm-1:     1.266842     0.300492     0.266603
Rotational constants in MHz : 37978.968232  9008.526876  7992.551454

                             ****ORCA TERMINATED NORMALLY****
TOTAL RUN TIME: 0 days 0 hours 0 minutes 6 seconds 568 msec
