                         Program Version 5.0.0 -  RELEASE  -
|  1> !BLYP D3BJ RIJCOSX def2-SVPD def2/J TightSCF
|  2> *xyz 0 1
|  3> C          1.64703       -2.34528       -5.02041
|  4> C          2.20996       -2.81239       -3.66571
|  5> C          2.48901       -1.66851       -2.73754
|  6> C          3.59631       -0.94761       -2.95225
|  7> N          1.66394       -1.41369       -1.77781
|  8> H          0.81164       -1.96318       -1.70275
|  9> H          1.84550       -0.63508       -1.15875
| 10> H          4.20535       -1.17600       -3.73383
| 11> H          3.81723       -0.12585       -2.40604
| 12> H          3.14311       -3.36280       -3.81152
| 13> H          1.48768       -3.45893       -3.16521
| 14> H          1.46566       -3.19589       -5.64368
| 15> H          2.35406       -1.69850       -5.49654
| 16> H          0.73014       -1.81680       -4.86253
| 17> *
| 18>
| 19> %MaxCore 64000
| 20> %pal nprocs 4
| 21> end
| 22>
| 23> %scf
| 24>   MaxIter 150
| 25> end
| 26>
| 27>
| 28>                          ****END OF INPUT****

CARTESIAN COORDINATES (ANGSTROEM)
---------------------------------
  C      1.647030   -2.345280   -5.020410
  C      2.209960   -2.812390   -3.665710
  C      2.489010   -1.668510   -2.737540
  C      3.596310   -0.947610   -2.952250
  N      1.663940   -1.413690   -1.777810
  H      0.811640   -1.963180   -1.702750
  H      1.845500   -0.635080   -1.158750
  H      4.205350   -1.176000   -3.733830
  H      3.817230   -0.125850   -2.406040
  H      3.143110   -3.362800   -3.811520
  H      1.487680   -3.458930   -3.165210
  H      1.465660   -3.195890   -5.643680
  H      2.354060   -1.698500   -5.496540
  H      0.730140   -1.816800   -4.862530

 Total Charge           Charge          ....    0
 Multiplicity           Mult            ....    1
 Number of Electrons    NEL             ....   40
 Basis Dimension        Dim             ....  172

ORBITAL ENERGIES
----------------

  NO   OCC          E(Eh)            E(eV)
   0   2.0000     -14.031279      -381.8105
   1   2.0000      -9.937086      -270.4019
   2   2.0000      -9.921550      -269.9791
   3   2.0000      -9.907855      -269.6065
   4   2.0000      -9.853199      -268.1192
   5   2.0000      -0.844413       -22.9776
   6   2.0000      -0.693745       -18.8778
   7   2.0000      -0.627404       -17.0725
   8   2.0000      -0.566069       -15.4035
   9   2.0000      -0.506880       -13.7929
  10   2.0000      -0.476528       -12.9670
  11   2.0000      -0.424025       -11.5383
  12   2.0000      -0.390198       -10.6178
  13   2.0000      -0.361297        -9.8314
  14   2.0000      -0.344944        -9.3864
  15   2.0000      -0.332713        -9.0536
  16   2.0000      -0.306293        -8.3347
  17   2.0000      -0.290374        -7.9015
  18   2.0000      -0.288870        -7.8606
  19   2.0000      -0.149698        -4.0735
  20   0.0000      -0.005739        -0.1562
  21   0.0000       0.016030         0.4362
  22   0.0000       0.031304         0.8518
  23   0.0000       0.037240         1.0134
  24   0.0000       0.049158         1.3376

MULLIKEN ATOMIC CHARGES
-----------------------
   0 C :    0.995038
   1 C :    0.212461
   2 C :   -0.188618
   3 C :    0.731161
   4 N :    0.507808
   5 H :   -0.181168
   6 H :   -0.217044
   7 H :   -0.319411
   8 H :   -0.682080
   9 H :   -0.082873
  10 H :   -0.251237
  11 H :   -0.140307
  12 H :   -0.184635
  13 H :   -0.199097
Sum of atomic charges:    0.0000000

LOEWDIN ATOMIC CHARGES
----------------------
   0 C :    0.149376
   1 C :   -0.021923
   2 C :   -0.274038
   3 C :    0.187460
   4 N :    0.190461
   5 H :    0.001396
   6 H :    0.009427
   7 H :   -0.089410
   8 H :   -0.101604
   9 H :    0.021677
  10 H :    0.003469
  11 H :   -0.027242
  12 H :   -0.025839
  13 H :   -0.023211

  Mayer bond orders larger than 0.100000
B(  0-C ,  1-C ) :   1.2623 B(  0-C ,  9-H ) :   0.1054 B(  0-C , 10-H ) :   0.1237
B(  0-C , 11-H ) :   0.7379 B(  0-C , 12-H ) :   0.7557 B(  0-C , 13-H ) :   0.7472
B(  1-C ,  2-C ) :   1.0895 B(  1-C ,  3-C ) :   0.2239 B(  1-C ,  4-N ) :   0.1263
B(  1-C ,  9-H ) :   0.7608 B(  1-C , 10-H ) :   0.7012 B(  1-C , 11-H ) :   0.2036
B(  1-C , 12-H ) :   0.2407 B(  1-C , 13-H ) :   0.2374 B(  2-C ,  3-C ) :   1.5485
B(  2-C ,  4-N ) :   1.3444 B(  2-C ,  8-H ) :   0.2070 B(  2-C ,  9-H ) :   0.1587
B(  2-C , 10-H ) :   0.2551 B(  3-C ,  4-N ) :   0.2805 B(  3-C ,  7-H ) :   0.7262
B(  3-C ,  8-H ) :   0.5821 B(  4-N ,  5-H ) :   1.0600 B(  4-N ,  6-H ) :   1.2177
B(  5-H ,  6-H ) :  -0.1466 B(  7-H ,  8-H ) :  -0.1093

Dispersion correction           -0.021488757
FINAL SINGLE POINT ENERGY      -212.318933147522

DIPOLE MOMENT
-------------
                                X             Y             Z
Electronic contribution:     -0.03466       0.67177       3.04180
Nuclear contribution   :     -0.69146      -0.83112      -2.71336
                        -----------------------------------------
Total Dipole Moment    :     -0.72612      -0.15934       0.32844
                        -----------------------------------------
Magnitude (a.u.)       :      0.81272
Magnitude (Debye)      :      2.06577

Rotational constants in cm-1:     0.270661     0.129240     0.102040
Rotational constants in MHz :  8114.202941  3874.518141  3059.074383

                             ****ORCA TERMINATED NORMALLY****
TOTAL RUN TIME: 0 days 0 hours 0 minutes 10 seconds 639 msec
