                         Program Version 5.0.0 -  RELEASE  -
|  1> !BLYP D3BJ RIJCOSX def2-SVPD def2/J TightSCF
|  2> *xyz 0 1
|  3> C          1.64703       -2.34528       -5.02041
|  4> C          2.20996       -2.81239       -3.66571
|  5> C          2.48901       -1.66851       -2.73754
|  6> N          3.59631       -0.94761       -2.95225
|  7> C          1.66394       -1.41369       -1.77781
|  8> H          0.81164       -1.96318       -1.70275
|  9> H          1.84550       -0.63508       -1.15875
| 10> H          4.20535       -1.17600       -3.73383
| 11> H          3.81723       -0.12585       -2.40604
| 12> H          3.14311       -3.36280       -3.81152
| 13> H          1.48768       -3.45893       -3.16521
| 14> H          1.46566       -3.19589       -5.64368
| 15> H          2.35406       -1.69850       -5.49654
| 16> H          0.73014       -1.81680       -4.86253
| 17> *
| 18>
| 19> %MaxCore 64000
| 20> %pal nprocs 4
| 21> end
| 22>
| 23> %scf
| 24>   MaxIter 150
| 25> end
| 26>
| 27>
| 28>                          ****END OF INPUT****

CARTESIAN COORDINATES (ANGSTROEM)
---------------------------------
  C      1.647030   -2.345280   -5.020410
  C      2.209960   -2.812390   -3.665710
  C      2.489010   -1.668510   -2.737540
  N      3.596310   -0.947610   -2.952250
  C      1.663940   -1.413690   -1.777810
  H      0.811640   -1.963180   -1.702750
  H      1.845500   -0.635080   -1.158750
  H      4.205350   -1.176000   -3.733830
  H      3.817230   -0.125850   -2.406040
  H      3.143110   -3.362800   -3.811520
  H      1.487680   -3.458930   -3.165210
  H      1.465660   -3.195890   -5.643680
  H      2.354060   -1.698500   -5.496540
  H      0.730140   -1.816800   -4.862530

 Total Charge           Charge          ....    0
 Multiplicity           Mult            ....    1
 Number of Electrons    NEL             ....   40
 Basis Dimension        Dim             ....  172

ORBITAL ENERGIES
----------------

  NO   OCC          E(Eh)            E(eV)
   0   2.0000     -14.024865      -381.6360
   1   2.0000      -9.934721      -270.3375
   2   2.0000      -9.919932      -269.9351
   3   2.0000      -9.909059      -269.6392
   4   2.0000      -9.856274      -268.2029
   5   2.0000      -0.826786       -22.4980
   6   2.0000      -0.694065       -18.8865
   7   2.0000      -0.640403       -17.4263
   8   2.0000      -0.561343       -15.2749
   9   2.0000      -0.503622       -13.7042
  10   2.0000      -0.465605       -12.6697
  11   2.0000      -0.424162       -11.5420
  12   2.0000      -0.383998       -10.4491
  13   2.0000      -0.371518       -10.1095
  14   2.0000      -0.348208        -9.4752
  15   2.0000      -0.335476        -9.1288
  16   2.0000      -0.306408        -8.3378
  17   2.0000      -0.289540        -7.8788
  18   2.0000      -0.280318        -7.6278
  19   2.0000      -0.159873        -4.3504
  20   0.0000      -0.004638        -0.1262
  21   0.0000       0.018822         0.5122
  22   0.0000       0.033517         0.9120
  23   0.0000       0.039859         1.0846
  24   0.0000       0.048367         1.3161

MULLIKEN ATOMIC CHARGES
-----------------------
   0 C :    1.037887
   1 C :    0.152195
   2 C :   -0.106079
   3 N :    0.432716
   4 C :    0.608987
   5 H :   -0.248840
   6 H :   -0.567353
   7 H :   -0.210583
   8 H :   -0.275513
   9 H :   -0.222891
  10 H :   -0.077675
  11 H :   -0.157036
  12 H :   -0.172616
  13 H :   -0.193200
Sum of atomic charges:   -0.0000000

LOEWDIN ATOMIC CHARGES
----------------------
   0 C :    0.147918
   1 C :   -0.022804
   2 C :   -0.273019
   3 N :    0.194827
   4 C :    0.181073
   5 H :   -0.078616
   6 H :   -0.085237
   7 H :   -0.008858
   8 H :   -0.004807
   9 H :    0.014084
  10 H :    0.014334
  11 H :   -0.026852
  12 H :   -0.031894
  13 H :   -0.020148

  Mayer bond orders larger than 0.100000
B(  0-C ,  1-C ) :   1.2168 B(  0-C , 10-H ) :   0.1018 B(  0-C , 11-H ) :   0.7398
B(  0-C , 12-H ) :   0.7048 B(  0-C , 13-H ) :   0.7636 B(  1-C ,  2-C ) :   1.1919
B(  1-C ,  3-N ) :   0.1227 B(  1-C ,  4-C ) :   0.2068 B(  1-C ,  9-H ) :   0.7579
B(  1-C , 10-H ) :   0.7832 B(  1-C , 11-H ) :   0.2210 B(  1-C , 12-H ) :   0.2684
B(  1-C , 13-H ) :   0.2157 B(  2-C ,  3-N ) :   1.3078 B(  2-C ,  4-C ) :   1.4690
B(  2-C ,  6-H ) :   0.2922 B(  2-C ,  9-H ) :   0.1996 B(  2-C , 10-H ) :   0.2261
B(  3-N ,  4-C ) :   0.2992 B(  3-N ,  7-H ) :   1.1224 B(  3-N ,  8-H ) :   1.2234
B(  4-C ,  5-H ) :   0.8733 B(  4-C ,  6-H ) :   0.4715 B(  7-H ,  8-H ) :  -0.1547

Dispersion correction           -0.021458471
FINAL SINGLE POINT ENERGY      -212.322446789371

DIPOLE MOMENT
-------------
                                X             Y             Z
Electronic contribution:      1.65265       1.08478       2.01605
Nuclear contribution   :     -1.13902      -0.93906      -2.44135
                        -----------------------------------------
Total Dipole Moment    :      0.51363       0.14572      -0.42530
                        -----------------------------------------
Magnitude (a.u.)       :      0.68259
Magnitude (Debye)      :      1.73500

Rotational constants in cm-1:     0.267243     0.130607     0.102304
Rotational constants in MHz :  8011.748167  3915.504600  3066.999841

                             ****ORCA TERMINATED NORMALLY****
TOTAL RUN TIME: 0 days 0 hours 0 minutes 12 seconds 570 msec
