                         Program Version 5.0.0 -  RELEASE  -
|  1> !wB97X-D3 RIJCOSX def2-SVPD def2/J TightSCF
|  2> *xyz -1 1
|  3> C         -0.91495        0.61511        2.50554
|  4> C         -0.05915        1.50352        3.41058
|  5> H          0.36536        2.34431        2.86116
|  6> H         -0.69226        1.92021        4.19898
|  7> C          1.08303        0.74964        4.08571
|  8> O          2.22817        1.26348        4.01983
|  9> O          0.81003       -0.34541        4.63627
| 10> C         -0.13074       -0.19398        1.47076
| 11> H         -1.64796        1.24596        1.99108
| 12> H         -1.47818       -0.08105        3.13042
| 13> H         -0.80952       -0.78099        0.88803
| 14> H          0.55985       -0.83974        1.97175
| 15> H          0.40595        0.47288        0.82877
| 16> *
| 17>
| 18> %MaxCore 64000
| 19>
| 20> %pal nprocs 18
| 21> end
| 22>
| 23> %scf
| 24>   MaxIter 150
| 25> end
| 26>
| 27>
| 28>                          ****END OF INPUT****

CARTESIAN COORDINATES (ANGSTROEM)
---------------------------------
  C     -0.914950    0.615110    2.505540
  C     -0.059150    1.503520    3.410580
  H      0.365360    2.344310    2.861160
  H     -0.692260    1.920210    4.198980
  C      1.083030    0.749640    4.085710
  O      2.228170    1.263480    4.019830
  O      0.810030   -0.345410    4.636270
  C     -0.130740   -0.193980    1.470760
  H     -1.647960    1.245960    1.991080
  H     -1.478180   -0.081050    3.130420
  H     -0.809520   -0.780990    0.888030
  H      0.559850   -0.839740    1.971750
  H      0.405950    0.472880    0.828770

 Total Charge           Charge          ....   -1
 Multiplicity           Mult            ....    1
 Number of Electrons    NEL             ....   48
 Basis Dimension        Dim             ....  182

ORBITAL ENERGIES
----------------

  NO   OCC          E(Eh)            E(eV)
   0   2.0000     -18.984711      -516.6002
   1   2.0000     -18.984020      -516.5814
   2   2.0000     -10.179179      -276.9895
   3   2.0000     -10.142065      -275.9796
   4   2.0000     -10.134037      -275.7612
   5   2.0000     -10.117180      -275.3025
   6   2.0000      -0.931066       -25.3356
   7   2.0000      -0.834755       -22.7148
   8   2.0000      -0.748721       -20.3737
   9   2.0000      -0.652170       -17.7465
  10   2.0000      -0.551866       -15.0170
  11   2.0000      -0.430862       -11.7244
  12   2.0000      -0.407403       -11.0860
  13   2.0000      -0.391615       -10.6564
  14   2.0000      -0.356612        -9.7039
  15   2.0000      -0.335707        -9.1351
  16   2.0000      -0.313482        -8.5303
  17   2.0000      -0.305914        -8.3243
  18   2.0000      -0.292293        -7.9537
  19   2.0000      -0.270861        -7.3705
  20   2.0000      -0.260444        -7.0870
  21   2.0000      -0.146506        -3.9866
  22   2.0000      -0.140260        -3.8167
  23   2.0000      -0.127885        -3.4799
  24   0.0000       0.215486         5.8637
  25   0.0000       0.238228         6.4825
  26   0.0000       0.255067         6.9407
  27   0.0000       0.264923         7.2089
  28   0.0000       0.290958         7.9174

MULLIKEN ATOMIC CHARGES
-----------------------
   0 C :   -0.410731
   1 C :    0.120165
   2 H :   -0.016520
   3 H :   -0.018820
   4 C :    0.416683
   5 O :   -0.687365
   6 O :   -0.739636
   7 C :    0.589304
   8 H :   -0.165935
   9 H :    0.015960
  10 H :   -0.057647
  11 H :   -0.032374
  12 H :   -0.013083
Sum of atomic charges:   -1.0000000

LOEWDIN ATOMIC CHARGES
----------------------
   0 C :   -0.092783
   1 C :   -0.006721
   2 H :    0.004251
   3 H :    0.013671
   4 C :   -0.307023
   5 O :   -0.332036
   6 O :   -0.323916
   7 C :    0.111348
   8 H :   -0.000991
   9 H :    0.011438
  10 H :   -0.034875
  11 H :   -0.019839
  12 H :   -0.022524

  Mayer bond orders larger than 0.100000
B(  0-C ,  1-C ) :   1.1741 B(  0-C ,  2-H ) :   0.1323 B(  0-C ,  3-H ) :   0.1195
B(  0-C ,  7-C ) :   1.3038 B(  0-C ,  8-H ) :   0.9911 B(  0-C ,  9-H ) :   0.9055
B(  0-C , 10-H ) :   0.2021 B(  0-C , 11-H ) :   0.2026 B(  0-C , 12-H ) :   0.1902
B(  1-C ,  2-H ) :   0.8863 B(  1-C ,  3-H ) :   0.8426 B(  1-C ,  4-C ) :   1.0281
B(  1-C ,  9-H ) :   0.1164 B(  2-H ,  4-C ) :   0.2143 B(  3-H ,  4-C ) :   0.1023
B(  4-C ,  5-O ) :   1.4835 B(  4-C ,  6-O ) :   1.5252 B(  7-C , 10-H ) :   0.7766
B(  7-C , 11-H ) :   0.8575 B(  7-C , 12-H ) :   0.8059

Dispersion correction           -0.003396105
FINAL SINGLE POINT ENERGY      -306.864083318178

DIPOLE MOMENT
-------------
                                X             Y             Z
Electronic contribution:      4.56832       0.21598       5.48901
Nuclear contribution   :     -6.45806       0.15825      -7.12052
                        -----------------------------------------
Total Dipole Moment    :     -1.88974       0.37422      -1.63152
                        -----------------------------------------
Magnitude (a.u.)       :      2.52448
Magnitude (Debye)      :      6.41673

Rotational constants in cm-1:     0.199323     0.080770     0.077827
Rotational constants in MHz :  5975.562678  2421.415024  2333.195390

                             ****ORCA TERMINATED NORMALLY****
TOTAL RUN TIME: 0 days 0 hours 0 minutes 9 seconds 113 msec
