                         Program Version 5.0.0 -  RELEASE  -
|  1> !wB97X-D3 RIJCOSX def2-SVPD def2/J TightSCF
|  2> *xyz 1 1
|  3> C          4.60295       -2.44010        2.63478
|  4> C          3.86085       -1.59157        3.62289
|  5> N          2.75650       -2.04616        4.16633
|  6> N          4.25433       -0.36291        3.86046
|  7> H          3.56526        0.31099        4.16898
|  8> H          5.05429       -0.01606        3.33784
|  9> H          2.43970       -2.97389        3.89740
| 10> H          2.06687       -1.41253        4.54981
| 11> C          3.74469       -2.58056        1.36188
| 12> C          3.20372       -1.25600        0.82621
| 13> H          2.89894       -3.23929        1.58307
| 14> H          4.33496       -3.09552        0.60019
| 15> H          5.56156       -1.97135        2.40708
| 16> H          4.81050       -3.42255        3.06310
| 17> H          2.62184       -1.43789       -0.05313
| 18> H          4.02069       -0.60826        0.58562
| 19> H          2.58975       -0.79418        1.57097
| 20> *
| 21>
| 22> %MaxCore 64000
| 23>
| 24> %pal nprocs 18
| 25> end
| 26>
| 27> %scf
| 28>   MaxIter 150
| 29> end
| 30>
| 31>
| 32>                          ****END OF INPUT****

CARTESIAN COORDINATES (ANGSTROEM)
---------------------------------
  C      4.602950   -2.440100    2.634780
  C      3.860850   -1.591570    3.622890
  N      2.756500   -2.046160    4.166330
  N      4.254330   -0.362910    3.860460
  H      3.565260    0.310990    4.168980
  H      5.054290   -0.016060    3.337840
  H      2.439700   -2.973890    3.897400
  H      2.066870   -1.412530    4.549810
  C      3.744690   -2.580560    1.361880
  C      3.203720   -1.256000    0.826210
  H      2.898940   -3.239290    1.583070
  H      4.334960   -3.095520    0.600190
  H      5.561560   -1.971350    2.407080
  H      4.810500   -3.422550    3.063100
  H      2.621840   -1.437890   -0.053130
  H      4.020690   -0.608260    0.585620
  H      2.589750   -0.794180    1.570970

 Total Charge           Charge          ....    1
 Multiplicity           Mult            ....    1
 Number of Electrons    NEL             ....   48
 Basis Dimension        Dim             ....  208

ORBITAL ENERGIES
----------------

  NO   OCC          E(Eh)            E(eV)
   0   2.0000     -14.681651      -399.5080
   1   2.0000     -14.681464      -399.5029
   2   2.0000     -10.614247      -288.8283
   3   2.0000     -10.487568      -285.3812
   4   2.0000     -10.458244      -284.5833
   5   2.0000     -10.424961      -283.6776
   6   2.0000      -1.318025       -35.8653
   7   2.0000      -1.216884       -33.1131
   8   2.0000      -1.089712       -29.6526
   9   2.0000      -0.999580       -27.1999
  10   2.0000      -0.941398       -25.6167
  11   2.0000      -0.890402       -24.2291
  12   2.0000      -0.875714       -23.8294
  13   2.0000      -0.839332       -22.8394
  14   2.0000      -0.796184       -21.6653
  15   2.0000      -0.771381       -20.9903
  16   2.0000      -0.730892       -19.8886
  17   2.0000      -0.693015       -18.8579
  18   2.0000      -0.674034       -18.3414
  19   2.0000      -0.666012       -18.1231
  20   2.0000      -0.606208       -16.4958
  21   2.0000      -0.604155       -16.4399
  22   2.0000      -0.592478       -16.1222
  23   2.0000      -0.587263       -15.9802
  24   0.0000      -0.133811        -3.6412
  25   0.0000      -0.078981        -2.1492
  26   0.0000      -0.039889        -1.0854
  27   0.0000      -0.035239        -0.9589
  28   0.0000      -0.012971        -0.3530

MULLIKEN ATOMIC CHARGES
-----------------------
   0 C :    0.226363
   1 C :    0.441868
   2 N :   -0.008371
   3 N :   -0.044430
   4 H :   -0.026751
   5 H :    0.124053
   6 H :    0.113289
   7 H :   -0.068205
   8 C :   -0.374853
   9 C :    0.701067
  10 H :    0.024798
  11 H :   -0.106562
  12 H :    0.063408
  13 H :    0.037125
  14 H :   -0.058422
  15 H :   -0.004069
  16 H :   -0.040309
Sum of atomic charges:    1.0000000

LOEWDIN ATOMIC CHARGES
----------------------
   0 C :    0.050981
   1 C :   -0.060281
   2 N :    0.283662
   3 N :    0.282610
   4 H :    0.052889
   5 H :    0.055026
   6 H :    0.055540
   7 H :    0.054050
   8 C :   -0.040957
   9 C :    0.138289
  10 H :    0.024423
  11 H :    0.042070
  12 H :    0.040370
  13 H :    0.050197
  14 H :    0.003700
  15 H :   -0.004095
  16 H :   -0.028473

  Mayer bond orders larger than 0.100000
B(  0-C ,  1-C ) :   1.2077 B(  0-C ,  8-C ) :   1.1244 B(  0-C , 12-H ) :   0.8044
B(  0-C , 13-H ) :   0.8367 B(  1-C ,  2-N ) :   1.1228 B(  1-C ,  3-N ) :   1.0976
B(  1-C ,  4-H ) :  -0.1055 B(  1-C , 12-H ) :   0.1617 B(  1-C , 13-H ) :   0.1759
B(  2-N ,  3-N ) :   0.1564 B(  2-N ,  6-H ) :   1.0009 B(  2-N ,  7-H ) :   1.2132
B(  3-N ,  4-H ) :   1.1821 B(  3-N ,  5-H ) :   0.9800 B(  4-H ,  5-H ) :  -0.1323
B(  6-H ,  7-H ) :  -0.1500 B(  8-C ,  9-C ) :   1.3129 B(  8-C , 10-H ) :   0.9066
B(  8-C , 11-H ) :   1.0240 B(  8-C , 12-H ) :   0.1326 B(  8-C , 14-H ) :   0.1992
B(  8-C , 15-H ) :   0.1835 B(  8-C , 16-H ) :   0.2147 B(  9-C , 14-H ) :   0.8046
B(  9-C , 15-H ) :   0.7847 B(  9-C , 16-H ) :   0.8107 B( 15-H , 16-H ) :   0.1062

Dispersion correction           -0.004943813
FINAL SINGLE POINT ENERGY      -268.096732364147

DIPOLE MOMENT
-------------
                                X             Y             Z
Electronic contribution:      0.49727       0.57224       5.20741
Nuclear contribution   :     -0.82989      -0.08664      -4.26094
                        -----------------------------------------
Total Dipole Moment    :     -0.33262       0.48560       0.94647
                        -----------------------------------------
Magnitude (a.u.)       :      1.11456
Magnitude (Debye)      :      2.83299

Rotational constants in cm-1:     0.166042     0.084809     0.078793
Rotational constants in MHz :  4977.819890  2542.513379  2362.161076

                             ****ORCA TERMINATED NORMALLY****
TOTAL RUN TIME: 0 days 0 hours 0 minutes 13 seconds 416 msec
