                         Program Version 5.0.0 -  RELEASE  -
|  1> !wB97X-D3 RIJCOSX def2-SVPD def2/J TightSCF xyzfile
|  2>
|  3> *xyzfile 0 1 B.xyz
|  4>
|  5> %MaxCore 64000
|  6>
|  7> %pal nprocs 18
|  8> end
|  9>
| 10> %scf
| 11>   MaxIter 150
| 12> end
| 13>
| 14>
| 15>                          ****END OF INPUT****

CARTESIAN COORDINATES (ANGSTROEM)
---------------------------------
  C      4.602954   -2.440100    2.634780
  C     -0.914947    0.615112    2.505538
  C     -0.059146    1.503524    3.410578
  H      0.365364    2.344315    2.861161
  H     -0.692261    1.920207    4.198985
  C      1.083027    0.749640    4.085705
  C      3.860851   -1.591565    3.622893
  N      2.756502   -2.046159    4.166333
  N      4.254325   -0.362905    3.860455
  H      3.565256    0.310994    4.168983
  H      5.054292   -0.016059    3.337838
  H      2.439696   -2.973894    3.897395
  H      2.066869   -1.412532    4.549813
  O      2.228167    1.263475    4.019826
  O      0.810034   -0.345411    4.636269
  C      3.744685   -2.580557    1.361882
  C      0.772139    0.636882    0.562129
  C     -0.130740   -0.193985    1.470763
  H     -0.840563   -0.760165    0.856377
  H      0.466691   -0.938942    2.006959
  H     -1.647961    1.245963    1.991076
  H     -1.478180   -0.081046    3.130424
  C      3.203721   -1.256004    0.826211
  H      2.898939   -3.239289    1.583074
  H      4.334962   -3.095523    0.600188
  C      2.107815   -1.442385   -0.216865
  H      2.786775   -0.672760    1.650711
  H      4.021008   -0.652993    0.414046
  C      1.390662   -0.145912   -0.602422
  H      1.372179   -2.152184    0.176151
  H      2.523302   -1.906787   -1.117115
  H      1.561361    1.100094    1.161831
  H      0.195516    1.468325    0.142758
  H      0.602893   -0.398214   -1.319716
  H      2.087247    0.508272   -1.137335
  H      5.561557   -1.971347    2.407084
  H      4.810498   -3.422552    3.063099

 Total Charge           Charge          ....    0
 Multiplicity           Mult            ....    1
 Number of Electrons    NEL             ....  118
 Basis Dimension        Dim             ....  482

ORBITAL ENERGIES
----------------

  NO   OCC          E(Eh)            E(eV)
   0   2.0000     -19.170195      -521.6475
   1   2.0000     -19.168270      -521.5952
   2   2.0000     -14.480671      -394.0391
   3   2.0000     -14.480351      -394.0304
   4   2.0000     -10.432372      -283.8793
   5   2.0000     -10.357658      -281.8462
   6   2.0000     -10.343109      -281.4503
   7   2.0000     -10.324488      -280.9436
   8   2.0000     -10.300044      -280.2784
   9   2.0000     -10.290920      -280.0302
  10   2.0000     -10.282738      -279.8075
  11   2.0000     -10.272120      -279.5186
  12   2.0000     -10.268989      -279.4334
  13   2.0000     -10.264828      -279.3202
  14   2.0000     -10.255345      -279.0621
  15   2.0000      -1.133143       -30.8344
  16   2.0000      -1.116495       -30.3814
  17   2.0000      -1.033521       -28.1235
  18   2.0000      -1.017092       -27.6765
  19   2.0000      -0.951511       -25.8919
  20   2.0000      -0.916570       -24.9411
  21   2.0000      -0.885755       -24.1026
  22   2.0000      -0.844625       -22.9834
  23   2.0000      -0.805388       -21.9157
  24   2.0000      -0.766661       -20.8619
  25   2.0000      -0.750151       -20.4127
  26   2.0000      -0.727283       -19.7904
  27   2.0000      -0.692626       -18.8473
  28   2.0000      -0.686064       -18.6688
  29   2.0000      -0.676496       -18.4084
  30   2.0000      -0.651100       -17.7173
  31   2.0000      -0.618228       -16.8228
  32   2.0000      -0.610214       -16.6048
  33   2.0000      -0.588818       -16.0226
  34   2.0000      -0.577447       -15.7131
  35   2.0000      -0.566156       -15.4059
  36   2.0000      -0.558486       -15.1972
  37   2.0000      -0.545519       -14.8443
  38   2.0000      -0.533920       -14.5287
  39   2.0000      -0.520109       -14.1529
  40   2.0000      -0.514764       -14.0074
  41   2.0000      -0.506310       -13.7774
  42   2.0000      -0.501741       -13.6531
  43   2.0000      -0.495910       -13.4944
  44   2.0000      -0.474235       -12.9046
  45   2.0000      -0.470213       -12.7952
  46   2.0000      -0.463890       -12.6231
  47   2.0000      -0.459096       -12.4926
  48   2.0000      -0.447005       -12.1636
  49   2.0000      -0.429823       -11.6961
  50   2.0000      -0.425870       -11.5885
  51   2.0000      -0.417905       -11.3718
  52   2.0000      -0.402730       -10.9588
  53   2.0000      -0.397364       -10.8128
  54   2.0000      -0.395394       -10.7592
  55   2.0000      -0.387766       -10.5517
  56   2.0000      -0.332245        -9.0408
  57   2.0000      -0.321143        -8.7387
  58   2.0000      -0.317843        -8.6490
  59   0.0000       0.042248         1.1496
  60   0.0000       0.067726         1.8429
  61   0.0000       0.086113         2.3432
  62   0.0000       0.096597         2.6285
  63   0.0000       0.104690         2.8488

MULLIKEN ATOMIC CHARGES
-----------------------
   0 C :    0.509503
   1 C :    0.480459
   2 C :    0.144856
   3 H :    0.156631
   4 H :   -0.137383
   5 C :    0.450175
   6 C :    0.317661
   7 N :    0.338586
   8 N :    0.307290
   9 H :   -0.398906
  10 H :    0.125624
  11 H :    0.112836
  12 H :   -0.497386
  13 O :   -0.662060
  14 O :   -0.726827
  15 C :    0.161992
  16 C :   -0.223367
  17 C :   -0.181531
  18 H :   -0.171736
  19 H :   -0.050474
  20 H :   -0.076695
  21 H :    0.060087
  22 C :    0.148466
  23 H :    0.018069
  24 H :   -0.234277
  25 C :   -0.051061
  26 H :   -0.346396
  27 H :    0.004036
  28 C :    0.779882
  29 H :    0.165559
  30 H :   -0.325892
  31 H :    0.184692
  32 H :   -0.480266
  33 H :    0.091021
  34 H :   -0.007144
  35 H :    0.028327
  36 H :   -0.014350
Sum of atomic charges:   -0.0000000

LOEWDIN ATOMIC CHARGES
----------------------
   0 C :    0.039308
   1 C :   -0.026417
   2 C :    0.031148
   3 H :    0.016933
   4 H :    0.032768
   5 C :   -0.187591
   6 C :   -0.064534
   7 N :    0.304543
   8 N :    0.293055
   9 H :   -0.091764
  10 H :    0.039507
  11 H :    0.040918
  12 H :   -0.093233
  13 O :   -0.251131
  14 O :   -0.247545
  15 C :   -0.014232
  16 C :   -0.033251
  17 C :   -0.035221
  18 H :    0.025830
  19 H :    0.005300
  20 H :    0.020262
  21 H :    0.023123
  22 C :   -0.028454
  23 H :    0.019692
  24 H :    0.031031
  25 C :   -0.037594
  26 H :   -0.008373
  27 H :    0.038464
  28 C :   -0.030781
  29 H :    0.017525
  30 H :    0.024601
  31 H :    0.012019
  32 H :    0.025805
  33 H :    0.022694
  34 H :    0.022504
  35 H :    0.027882
  36 H :    0.035209

  Mayer bond orders larger than 0.100000
B(  0-C ,  6-C ) :   1.1861 B(  0-C , 15-C ) :   1.1211 B(  0-C , 35-H ) :   0.7396
B(  0-C , 36-H ) :   0.6787 B(  1-C ,  2-C ) :   1.1929 B(  1-C ,  4-H ) :   0.1518
B(  1-C , 17-C ) :   1.2242 B(  1-C , 20-H ) :   0.7729 B(  1-C , 21-H ) :   0.6481
B(  2-C ,  3-H ) :   0.8321 B(  2-C ,  4-H ) :   0.7339 B(  2-C ,  5-C ) :   1.1295
B(  2-C , 20-H ) :   0.1498 B(  2-C , 21-H ) :   0.1205 B(  3-H ,  5-C ) :   0.1898
B(  4-H ,  5-C ) :   0.2163 B(  5-C , 13-O ) :   1.3683 B(  5-C , 14-O ) :   1.2933
B(  6-C ,  7-N ) :   1.0414 B(  6-C ,  8-N ) :   1.0828 B(  6-C , 35-H ) :   0.2102
B(  6-C , 36-H ) :   0.2151 B(  7-N ,  8-N ) :   0.1600 B(  7-N , 11-H ) :   0.9844
B(  7-N , 12-H ) :   1.1599 B(  8-N ,  9-H ) :   1.1172 B(  8-N , 10-H ) :   0.9817
B(  9-H , 10-H ) :  -0.2313 B(  9-H , 13-O ) :   0.1785 B( 11-H , 12-H ) :  -0.2531
B( 12-H , 14-O ) :   0.2395 B( 13-O , 14-O ) :   0.1247 B( 15-C , 22-C ) :   1.1451
B( 15-C , 23-H ) :   0.8715 B( 15-C , 24-H ) :   0.9285 B( 15-C , 26-H ) :   0.1038
B( 15-C , 27-H ) :   0.1067 B( 15-C , 35-H ) :   0.1390 B( 15-C , 36-H ) :   0.1628
B( 16-C , 17-C ) :   1.2558 B( 16-C , 18-H ) :   0.1811 B( 16-C , 19-H ) :   0.1214
B( 16-C , 25-C ) :   0.1241 B( 16-C , 28-C ) :   1.0667 B( 16-C , 31-H ) :   0.8188
B( 16-C , 32-H ) :   1.1547 B( 16-C , 33-H ) :   0.1478 B( 16-C , 34-H ) :   0.2690
B( 17-C , 18-H ) :   0.8827 B( 17-C , 19-H ) :   0.9428 B( 17-C , 20-H ) :   0.1953
B( 17-C , 21-H ) :   0.2440 B( 17-C , 32-H ) :   0.1283 B( 20-H , 21-H ) :  -0.1083
B( 22-C , 23-H ) :   0.1326 B( 22-C , 24-H ) :   0.2261 B( 22-C , 25-C ) :   1.1980
B( 22-C , 26-H ) :   0.9225 B( 22-C , 27-H ) :   0.7363 B( 22-C , 29-H ) :   0.1259
B( 22-C , 30-H ) :   0.2156 B( 25-C , 27-H ) :   0.1063 B( 25-C , 28-C ) :   1.1445
B( 25-C , 29-H ) :   0.8138 B( 25-C , 30-H ) :   0.9833 B( 25-C , 33-H ) :   0.2140
B( 25-C , 34-H ) :   0.1555 B( 26-H , 27-H ) :   0.2037 B( 26-H , 31-H ) :   0.1967
B( 26-H , 32-H ) :  -0.1085 B( 28-C , 33-H ) :   0.6529 B( 28-C , 34-H ) :   0.6387
B( 33-H , 34-H ) :  -0.1042

Dispersion correction           -0.019998660
FINAL SINGLE POINT ENERGY      -691.803874571978

DIPOLE MOMENT
-------------
                                X             Y             Z
Electronic contribution:      3.45583       1.58530      12.96630
Nuclear contribution   :     -1.50655      -3.48027     -14.35034
                        -----------------------------------------
Total Dipole Moment    :      1.94927      -1.89497      -1.38404
                        -----------------------------------------
Magnitude (a.u.)       :      3.05060
Magnitude (Debye)      :      7.75400

Rotational constants in cm-1:     0.021781     0.017296     0.011403
Rotational constants in MHz :   652.971749   518.510612   341.853154

                             ****ORCA TERMINATED NORMALLY****
TOTAL RUN TIME: 0 days 0 hours 1 minutes 31 seconds 861 msec
