                         Program Version 5.0.0 -  RELEASE  -
|  1> !wB97X-D3 RIJCOSX def2-SVPD def2/J TightSCF
|  2> *xyz 0 1
|  3> C         -0.91495        0.61511        2.50554
|  4> C         -0.05915        1.50352        3.41058
|  5> H          0.36536        2.34431        2.86116
|  6> H         -0.69226        1.92021        4.19898
|  7> C          1.08303        0.74964        4.08571
|  8> F          2.22817        1.26348        4.01983
|  9> O          0.81003       -0.34541        4.63627
| 10> C         -0.13074       -0.19398        1.47076
| 11> H         -1.64796        1.24596        1.99108
| 12> H         -1.47818       -0.08105        3.13042
| 13> H         -0.80952       -0.78099        0.88803
| 14> H          0.55985       -0.83974        1.97175
| 15> H          0.40595        0.47288        0.82877
| 16> *
| 17>
| 18> %MaxCore 64000
| 19>
| 20> %pal nprocs 18
| 21> end
| 22>
| 23> %scf
| 24>   MaxIter 150
| 25> end
| 26>
| 27>
| 28>                          ****END OF INPUT****

CARTESIAN COORDINATES (ANGSTROEM)
---------------------------------
  C     -0.914950    0.615110    2.505540
  C     -0.059150    1.503520    3.410580
  H      0.365360    2.344310    2.861160
  H     -0.692260    1.920210    4.198980
  C      1.083030    0.749640    4.085710
  F      2.228170    1.263480    4.019830
  O      0.810030   -0.345410    4.636270
  C     -0.130740   -0.193980    1.470760
  H     -1.647960    1.245960    1.991080
  H     -1.478180   -0.081050    3.130420
  H     -0.809520   -0.780990    0.888030
  H      0.559850   -0.839740    1.971750
  H      0.405950    0.472880    0.828770

 Total Charge           Charge          ....    0
 Multiplicity           Mult            ....    1
 Number of Electrons    NEL             ....   48
 Basis Dimension        Dim             ....  182

ORBITAL ENERGIES
----------------

  NO   OCC          E(Eh)            E(eV)
   0   2.0000     -24.874908      -676.8807
   1   2.0000     -19.255782      -523.9765
   2   2.0000     -10.475890      -285.0635
   3   2.0000     -10.322024      -280.8765
   4   2.0000     -10.304631      -280.4033
   5   2.0000     -10.281431      -279.7720
   6   2.0000      -1.424286       -38.7568
   7   2.0000      -1.143107       -31.1055
   8   2.0000      -0.926120       -25.2010
   9   2.0000      -0.840821       -22.8799
  10   2.0000      -0.772139       -21.0110
  11   2.0000      -0.718528       -19.5521
  12   2.0000      -0.658404       -17.9161
  13   2.0000      -0.639453       -17.4004
  14   2.0000      -0.615804       -16.7569
  15   2.0000      -0.569107       -15.4862
  16   2.0000      -0.558267       -15.1912
  17   2.0000      -0.518903       -14.1201
  18   2.0000      -0.504421       -13.7260
  19   2.0000      -0.469661       -12.7801
  20   2.0000      -0.452733       -12.3195
  21   2.0000      -0.444464       -12.0945
  22   2.0000      -0.440105       -11.9759
  23   2.0000      -0.394136       -10.7250
  24   0.0000       0.049283         1.3411
  25   0.0000       0.085770         2.3339
  26   0.0000       0.111885         3.0446
  27   0.0000       0.116696         3.1755
  28   0.0000       0.130798         3.5592

MULLIKEN ATOMIC CHARGES
-----------------------
   0 C :   -0.391778
   1 C :   -0.010031
   2 H :    0.046308
   3 H :    0.066408
   4 C :    0.779394
   5 F :   -0.378773
   6 O :   -0.538751
   7 C :    0.579535
   8 H :   -0.112659
   9 H :    0.033584
  10 H :   -0.020900
  11 H :   -0.052817
  12 H :    0.000481
Sum of atomic charges:   -0.0000000

LOEWDIN ATOMIC CHARGES
----------------------
   0 C :   -0.064503
   1 C :    0.036014
   2 H :    0.026496
   3 H :    0.043205
   4 C :   -0.000894
   5 F :   -0.037391
   6 O :   -0.138226
   7 C :    0.128338
   8 H :    0.025153
   9 H :    0.027515
  10 H :   -0.012636
  11 H :   -0.019771
  12 H :   -0.013301

  Mayer bond orders larger than 0.100000
B(  0-C ,  1-C ) :   1.2070 B(  0-C ,  2-H ) :   0.1297 B(  0-C ,  3-H ) :   0.1201
B(  0-C ,  7-C ) :   1.3265 B(  0-C ,  8-H ) :   0.9877 B(  0-C ,  9-H ) :   0.9088
B(  0-C , 10-H ) :   0.1871 B(  0-C , 11-H ) :   0.1862 B(  0-C , 12-H ) :   0.1793
B(  1-C ,  2-H ) :   0.8956 B(  1-C ,  3-H ) :   0.8430 B(  1-C ,  4-C ) :   1.0952
B(  1-C ,  9-H ) :   0.1061 B(  2-H ,  4-C ) :   0.1034 B(  4-C ,  5-F ) :   0.7216
B(  4-C ,  6-O ) :   1.8217 B(  7-C , 10-H ) :   0.7927 B(  7-C , 11-H ) :   0.8629
B(  7-C , 12-H ) :   0.8116

Dispersion correction           -0.003314907
FINAL SINGLE POINT ENERGY      -331.395380450704

DIPOLE MOMENT
-------------
                                X             Y             Z
Electronic contribution:      7.97172       1.47844       7.20798
Nuclear contribution   :     -8.39104      -0.60591      -7.87060
                        -----------------------------------------
Total Dipole Moment    :     -0.41932       0.87254      -0.66261
                        -----------------------------------------
Magnitude (a.u.)       :      1.17312
Magnitude (Debye)      :      2.98183

Rotational constants in cm-1:     0.194210     0.077092     0.074391
Rotational constants in MHz :  5822.269139  2311.145895  2230.180895

                             ****ORCA TERMINATED NORMALLY****
TOTAL RUN TIME: 0 days 0 hours 0 minutes 10 seconds 322 msec
