                         Program Version 5.0.0 -  RELEASE  -
|  1> !wB97X-D3 RIJCOSX def2-SVPD def2/J TightSCF
|  2> *xyz 0 1
|  3> C          4.60295       -2.44010        2.63478
|  4> C          3.86085       -1.59157        3.62289
|  5> C          2.75650       -2.04616        4.16633
|  6> N          4.25433       -0.36291        3.86046
|  7> H          3.56526        0.31099        4.16898
|  8> H          5.05429       -0.01606        3.33784
|  9> H          2.43970       -2.97389        3.89740
| 10> H          2.06687       -1.41253        4.54981
| 11> C          3.74469       -2.58056        1.36188
| 12> C          3.20372       -1.25600        0.82621
| 13> H          2.89894       -3.23929        1.58307
| 14> H          4.33496       -3.09552        0.60019
| 15> H          5.56156       -1.97135        2.40708
| 16> H          4.81050       -3.42255        3.06310
| 17> H          2.62184       -1.43789       -0.05313
| 18> H          4.02069       -0.60826        0.58562
| 19> H          2.58975       -0.79418        1.57097
| 20> *
| 21>
| 22> %MaxCore 64000
| 23>
| 24> %pal nprocs 18
| 25> end
| 26>
| 27> %scf
| 28>   MaxIter 150
| 29> end
| 30>
| 31>
| 32>                          ****END OF INPUT****

CARTESIAN COORDINATES (ANGSTROEM)
---------------------------------
  C      4.602950   -2.440100    2.634780
  C      3.860850   -1.591570    3.622890
  C      2.756500   -2.046160    4.166330
  N      4.254330   -0.362910    3.860460
  H      3.565260    0.310990    4.168980
  H      5.054290   -0.016060    3.337840
  H      2.439700   -2.973890    3.897400
  H      2.066870   -1.412530    4.549810
  C      3.744690   -2.580560    1.361880
  C      3.203720   -1.256000    0.826210
  H      2.898940   -3.239290    1.583070
  H      4.334960   -3.095520    0.600190
  H      5.561560   -1.971350    2.407080
  H      4.810500   -3.422550    3.063100
  H      2.621840   -1.437890   -0.053130
  H      4.020690   -0.608260    0.585620
  H      2.589750   -0.794180    1.570970

 Total Charge           Charge          ....    0
 Multiplicity           Mult            ....    1
 Number of Electrons    NEL             ....   48
 Basis Dimension        Dim             ....  208

ORBITAL ENERGIES
----------------

  NO   OCC          E(Eh)            E(eV)
   0   2.0000     -14.439561      -392.9204
   1   2.0000     -10.309981      -280.5488
   2   2.0000     -10.290960      -280.0313
   3   2.0000     -10.287455      -279.9359
   4   2.0000     -10.270058      -279.4625
   5   2.0000     -10.218499      -278.0595
   6   2.0000      -1.044620       -28.4256
   7   2.0000      -0.907564       -24.6961
   8   2.0000      -0.839999       -22.8575
   9   2.0000      -0.793708       -21.5979
  10   2.0000      -0.712578       -19.3902
  11   2.0000      -0.661061       -17.9884
  12   2.0000      -0.625271       -17.0145
  13   2.0000      -0.590216       -16.0606
  14   2.0000      -0.559339       -15.2204
  15   2.0000      -0.536801       -14.6071
  16   2.0000      -0.500741       -13.6259
  17   2.0000      -0.486744       -13.2450
  18   2.0000      -0.464171       -12.6307
  19   2.0000      -0.458755       -12.4834
  20   2.0000      -0.431772       -11.7491
  21   2.0000      -0.424025       -11.5383
  22   2.0000      -0.417605       -11.3636
  23   2.0000      -0.280070        -7.6211
  24   0.0000       0.088229         2.4008
  25   0.0000       0.103640         2.8202
  26   0.0000       0.118295         3.2190
  27   0.0000       0.125765         3.4222
  28   0.0000       0.133439         3.6311

MULLIKEN ATOMIC CHARGES
-----------------------
   0 C :    0.411513
   1 C :   -0.319745
   2 C :    0.344025
   3 N :    0.076534
   4 H :   -0.047917
   5 H :    0.029615
   6 H :   -0.114277
   7 H :   -0.393583
   8 C :   -0.402178
   9 C :    0.703704
  10 H :    0.000516
  11 H :   -0.125857
  12 H :   -0.040093
  13 H :    0.026716
  14 H :   -0.144799
  15 H :   -0.010975
  16 H :    0.006802
Sum of atomic charges:    0.0000000

LOEWDIN ATOMIC CHARGES
----------------------
   0 C :    0.010811
   1 C :   -0.276796
   2 C :    0.164793
   3 N :    0.169360
   4 H :    0.013461
   5 H :    0.003141
   6 H :   -0.075695
   7 H :   -0.079082
   8 C :   -0.063850
   9 C :    0.120605
  10 H :    0.017080
  11 H :    0.016451
  12 H :    0.013926
  13 H :    0.028526
  14 H :   -0.018106
  15 H :   -0.017943
  16 H :   -0.026682

  Mayer bond orders larger than 0.100000
B(  0-C ,  1-C ) :   1.2110 B(  0-C ,  8-C ) :   1.1348 B(  0-C , 10-H ) :   0.1139
B(  0-C , 11-H ) :   0.1557 B(  0-C , 12-H ) :   0.6712 B(  0-C , 13-H ) :   0.8016
B(  1-C ,  2-C ) :   1.9920 B(  1-C ,  3-N ) :   0.9667 B(  1-C ,  5-H ) :   0.1178
B(  1-C ,  7-H ) :   0.1966 B(  1-C , 12-H ) :   0.2575 B(  1-C , 13-H ) :   0.1966
B(  2-C ,  3-N ) :   0.3007 B(  2-C ,  6-H ) :   0.7814 B(  2-C ,  7-H ) :   0.8090
B(  3-N ,  4-H ) :   1.0610 B(  3-N ,  5-H ) :   0.9385 B(  4-H ,  5-H ) :  -0.1236
B(  8-C ,  9-C ) :   1.2814 B(  8-C , 10-H ) :   0.9223 B(  8-C , 11-H ) :   0.9583
B(  8-C , 12-H ) :   0.1688 B(  8-C , 14-H ) :   0.2166 B(  8-C , 15-H ) :   0.1962
B(  8-C , 16-H ) :   0.2351 B(  9-C , 14-H ) :   0.8049 B(  9-C , 15-H ) :   0.7779
B(  9-C , 16-H ) :   0.8120

Dispersion correction           -0.004909280
FINAL SINGLE POINT ENERGY      -251.636072494968

DIPOLE MOMENT
-------------
                                X             Y             Z
Electronic contribution:      1.35705       0.69631       3.40273
Nuclear contribution   :     -1.05621      -0.17147      -3.92631
                        -----------------------------------------
Total Dipole Moment    :      0.30084       0.52484      -0.52358
                        -----------------------------------------
Magnitude (a.u.)       :      0.80006
Magnitude (Debye)      :      2.03358

Rotational constants in cm-1:     0.171127     0.086782     0.080643
Rotational constants in MHz :  5130.249275  2601.647634  2417.629092

                             ****ORCA TERMINATED NORMALLY****
TOTAL RUN TIME: 0 days 0 hours 0 minutes 15 seconds 11 msec
