                         Program Version 5.0.0 -  RELEASE  -
|  1> !wB97X-D3 RIJCOSX def2-SVPD def2/J TightSCF
|  2> *xyz 0 1
|  3> C         -0.91495        0.61511        2.50554
|  4> C         -0.05915        1.50352        3.41058
|  5> H          0.36536        2.34431        2.86116
|  6> H         -0.69226        1.92021        4.19898
|  7> C          1.08303        0.74964        4.08571
|  8> O          2.22817        1.26348        4.01983
|  9> F          0.81003       -0.34541        4.63627
| 10> C         -0.13074       -0.19398        1.47076
| 11> H         -1.64796        1.24596        1.99108
| 12> H         -1.47818       -0.08105        3.13042
| 13> H         -0.80952       -0.78099        0.88803
| 14> H          0.55985       -0.83974        1.97175
| 15> H          0.40595        0.47288        0.82877
| 16> *
| 17>
| 18> %MaxCore 64000
| 19>
| 20> %pal nprocs 18
| 21> end
| 22>
| 23> %scf
| 24>   MaxIter 150
| 25> end
| 26>
| 27>
| 28>                          ****END OF INPUT****

CARTESIAN COORDINATES (ANGSTROEM)
---------------------------------
  C     -0.914950    0.615110    2.505540
  C     -0.059150    1.503520    3.410580
  H      0.365360    2.344310    2.861160
  H     -0.692260    1.920210    4.198980
  C      1.083030    0.749640    4.085710
  O      2.228170    1.263480    4.019830
  F      0.810030   -0.345410    4.636270
  C     -0.130740   -0.193980    1.470760
  H     -1.647960    1.245960    1.991080
  H     -1.478180   -0.081050    3.130420
  H     -0.809520   -0.780990    0.888030
  H      0.559850   -0.839740    1.971750
  H      0.405950    0.472880    0.828770

 Total Charge           Charge          ....    0
 Multiplicity           Mult            ....    1
 Number of Electrons    NEL             ....   48
 Basis Dimension        Dim             ....  182

ORBITAL ENERGIES
----------------

  NO   OCC          E(Eh)            E(eV)
   0   2.0000     -24.876110      -676.9134
   1   2.0000     -19.254481      -523.9411
   2   2.0000     -10.474922      -285.0371
   3   2.0000     -10.321159      -280.8530
   4   2.0000     -10.309635      -280.5394
   5   2.0000     -10.287213      -279.9293
   6   2.0000      -1.425779       -38.7974
   7   2.0000      -1.140666       -31.0391
   8   2.0000      -0.931277       -25.3413
   9   2.0000      -0.841118       -22.8880
  10   2.0000      -0.771895       -21.0043
  11   2.0000      -0.724258       -19.7081
  12   2.0000      -0.661372       -17.9968
  13   2.0000      -0.650785       -17.7088
  14   2.0000      -0.598149       -16.2765
  15   2.0000      -0.576175       -15.6785
  16   2.0000      -0.560501       -15.2520
  17   2.0000      -0.521362       -14.1870
  18   2.0000      -0.502642       -13.6776
  19   2.0000      -0.475668       -12.9436
  20   2.0000      -0.463447       -12.6110
  21   2.0000      -0.448154       -12.1949
  22   2.0000      -0.442479       -12.0405
  23   2.0000      -0.387727       -10.5506
  24   0.0000       0.052796         1.4366
  25   0.0000       0.083141         2.2624
  26   0.0000       0.112910         3.0724
  27   0.0000       0.116895         3.1809
  28   0.0000       0.126271         3.4360

MULLIKEN ATOMIC CHARGES
-----------------------
   0 C :   -0.399357
   1 C :    0.015514
   2 H :    0.022835
   3 H :    0.055546
   4 C :    0.800291
   5 O :   -0.495789
   6 F :   -0.419387
   7 C :    0.586699
   8 H :   -0.120421
   9 H :    0.013924
  10 H :   -0.020940
  11 H :   -0.052334
  12 H :    0.013419
Sum of atomic charges:    0.0000000

LOEWDIN ATOMIC CHARGES
----------------------
   0 C :   -0.073052
   1 C :    0.040935
   2 H :    0.037537
   3 H :    0.040218
   4 C :   -0.007334
   5 O :   -0.141236
   6 F :   -0.033679
   7 C :    0.128837
   8 H :    0.025317
   9 H :    0.022520
  10 H :   -0.012749
  11 H :   -0.019207
  12 H :   -0.008107

  Mayer bond orders larger than 0.100000
B(  0-C ,  1-C ) :   1.1755 B(  0-C ,  2-H ) :   0.1212 B(  0-C ,  3-H ) :   0.1106
B(  0-C ,  7-C ) :   1.3270 B(  0-C ,  8-H ) :   0.9948 B(  0-C ,  9-H ) :   0.9108
B(  0-C , 10-H ) :   0.1921 B(  0-C , 11-H ) :   0.1851 B(  0-C , 12-H ) :   0.1843
B(  1-C ,  2-H ) :   0.9315 B(  1-C ,  3-H ) :   0.8518 B(  1-C ,  4-C ) :   1.0508
B(  2-H ,  4-C ) :   0.1381 B(  4-C ,  5-O ) :   1.8153 B(  4-C ,  6-F ) :   0.6951
B(  5-O ,  6-F ) :   0.1018 B(  7-C , 10-H ) :   0.7900 B(  7-C , 11-H ) :   0.8576
B(  7-C , 12-H ) :   0.8142

Dispersion correction           -0.003318922
FINAL SINGLE POINT ENERGY      -331.394274488332

DIPOLE MOMENT
-------------
                                X             Y             Z
Electronic contribution:      5.52211      -1.26145       8.22080
Nuclear contribution   :     -6.78915       1.21145      -8.56691
                        -----------------------------------------
Total Dipole Moment    :     -1.26704      -0.05000      -0.34611
                        -----------------------------------------
Magnitude (a.u.)       :      1.31441
Magnitude (Debye)      :      3.34098

Rotational constants in cm-1:     0.188995     0.079574     0.075294
Rotational constants in MHz :  5665.932233  2385.568994  2257.246443

                             ****ORCA TERMINATED NORMALLY****
TOTAL RUN TIME: 0 days 0 hours 0 minutes 11 seconds 548 msec
