                         Program Version 5.0.0 -  RELEASE  -
|  1> !wB97X-D3 RIJCOSX def2-SVPD def2/J TightSCF
|  2> *xyz 0 1
|  3> C          4.60295       -2.44010        2.63478
|  4> C          3.86085       -1.59157        3.62289
|  5> N          2.75650       -2.04616        4.16633
|  6> C          4.25433       -0.36291        3.86046
|  7> H          3.56526        0.31099        4.16898
|  8> H          5.05429       -0.01606        3.33784
|  9> H          2.43970       -2.97389        3.89740
| 10> H          2.06687       -1.41253        4.54981
| 11> C          3.74469       -2.58056        1.36188
| 12> C          3.20372       -1.25600        0.82621
| 13> H          2.89894       -3.23929        1.58307
| 14> H          4.33496       -3.09552        0.60019
| 15> H          5.56156       -1.97135        2.40708
| 16> H          4.81050       -3.42255        3.06310
| 17> H          2.62184       -1.43789       -0.05313
| 18> H          4.02069       -0.60826        0.58562
| 19> H          2.58975       -0.79418        1.57097
| 20> *
| 21>
| 22> %MaxCore 64000
| 23>
| 24> %pal nprocs 18
| 25> end
| 26>
| 27> %scf
| 28>   MaxIter 150
| 29> end
| 30>
| 31>
| 32>                          ****END OF INPUT****

CARTESIAN COORDINATES (ANGSTROEM)
---------------------------------
  C      4.602950   -2.440100    2.634780
  C      3.860850   -1.591570    3.622890
  N      2.756500   -2.046160    4.166330
  C      4.254330   -0.362910    3.860460
  H      3.565260    0.310990    4.168980
  H      5.054290   -0.016060    3.337840
  H      2.439700   -2.973890    3.897400
  H      2.066870   -1.412530    4.549810
  C      3.744690   -2.580560    1.361880
  C      3.203720   -1.256000    0.826210
  H      2.898940   -3.239290    1.583070
  H      4.334960   -3.095520    0.600190
  H      5.561560   -1.971350    2.407080
  H      4.810500   -3.422550    3.063100
  H      2.621840   -1.437890   -0.053130
  H      4.020690   -0.608260    0.585620
  H      2.589750   -0.794180    1.570970

 Total Charge           Charge          ....    0
 Multiplicity           Mult            ....    1
 Number of Electrons    NEL             ....   48
 Basis Dimension        Dim             ....  208

ORBITAL ENERGIES
----------------

  NO   OCC          E(Eh)            E(eV)
   0   2.0000     -14.440151      -392.9365
   1   2.0000     -10.310279      -280.5570
   2   2.0000     -10.290938      -280.0306
   3   2.0000     -10.290179      -280.0100
   4   2.0000     -10.268838      -279.4293
   5   2.0000     -10.219412      -278.0843
   6   2.0000      -1.044418       -28.4201
   7   2.0000      -0.906353       -24.6631
   8   2.0000      -0.843105       -22.9421
   9   2.0000      -0.795163       -21.6375
  10   2.0000      -0.705120       -19.1873
  11   2.0000      -0.671850       -18.2820
  12   2.0000      -0.629083       -17.1182
  13   2.0000      -0.574515       -15.6334
  14   2.0000      -0.560151       -15.2425
  15   2.0000      -0.549132       -14.9426
  16   2.0000      -0.489025       -13.3070
  17   2.0000      -0.487734       -13.2719
  18   2.0000      -0.473513       -12.8850
  19   2.0000      -0.460757       -12.5378
  20   2.0000      -0.427488       -11.6325
  21   2.0000      -0.425580       -11.5806
  22   2.0000      -0.415111       -11.2957
  23   2.0000      -0.282033        -7.6745
  24   0.0000       0.086282         2.3479
  25   0.0000       0.104869         2.8536
  26   0.0000       0.119535         3.2527
  27   0.0000       0.124170         3.3788
  28   0.0000       0.135561         3.6888

MULLIKEN ATOMIC CHARGES
-----------------------
   0 C :    0.261021
   1 C :   -0.345835
   2 N :    0.142413
   3 C :    0.395889
   4 H :   -0.351337
   5 H :   -0.067280
   6 H :   -0.011269
   7 H :   -0.119004
   8 C :   -0.366952
   9 C :    0.721066
  10 H :    0.017486
  11 H :   -0.188080
  12 H :    0.108177
  13 H :   -0.045633
  14 H :   -0.068430
  15 H :   -0.026001
  16 H :   -0.056233
Sum of atomic charges:   -0.0000000

LOEWDIN ATOMIC CHARGES
----------------------
   0 C :    0.009880
   1 C :   -0.281032
   2 N :    0.173096
   3 C :    0.163808
   4 H :   -0.078364
   5 H :   -0.077995
   6 H :    0.004870
   7 H :    0.013916
   8 C :   -0.066981
   9 C :    0.122484
  10 H :    0.009432
  11 H :    0.017476
  12 H :    0.025394
  13 H :    0.020866
  14 H :   -0.018739
  15 H :   -0.011427
  16 H :   -0.026685

  Mayer bond orders larger than 0.100000
B(  0-C ,  1-C ) :   1.2796 B(  0-C ,  8-C ) :   1.1385 B(  0-C , 10-H ) :   0.1196
B(  0-C , 11-H ) :   0.1695 B(  0-C , 12-H ) :   0.7985 B(  0-C , 13-H ) :   0.8020
B(  1-C ,  2-N ) :   1.0330 B(  1-C ,  3-C ) :   2.0969 B(  1-C ,  4-H ) :   0.2578
B(  1-C ,  5-H ) :   0.1532 B(  1-C , 12-H ) :   0.1656 B(  1-C , 13-H ) :   0.2286
B(  2-N ,  3-C ) :   0.2641 B(  2-N ,  6-H ) :   1.0255 B(  2-N ,  7-H ) :   1.1105
B(  3-C ,  4-H ) :   0.7450 B(  3-C ,  5-H ) :   0.8465 B(  6-H ,  7-H ) :  -0.1335
B(  8-C ,  9-C ) :   1.2876 B(  8-C , 10-H ) :   0.8856 B(  8-C , 11-H ) :   1.0094
B(  8-C , 12-H ) :   0.1490 B(  8-C , 14-H ) :   0.2090 B(  8-C , 15-H ) :   0.1907
B(  8-C , 16-H ) :   0.2431 B(  9-C , 14-H ) :   0.7815 B(  9-C , 15-H ) :   0.7941
B(  9-C , 16-H ) :   0.8238 B( 15-H , 16-H ) :   0.1234

Dispersion correction           -0.004912654
FINAL SINGLE POINT ENERGY      -251.636103627280

DIPOLE MOMENT
-------------
                                X             Y             Z
Electronic contribution:      0.08250      -0.72874       3.67629
Nuclear contribution   :     -0.70193       0.22667      -3.99866
                        -----------------------------------------
Total Dipole Moment    :     -0.61943      -0.50207      -0.32236
                        -----------------------------------------
Magnitude (a.u.)       :      0.86005
Magnitude (Debye)      :      2.18607

Rotational constants in cm-1:     0.170665     0.086587     0.081284
Rotational constants in MHz :  5116.404877  2595.819690  2436.831753

                             ****ORCA TERMINATED NORMALLY****
TOTAL RUN TIME: 0 days 0 hours 0 minutes 13 seconds 915 msec
