                         Program Version 5.0.0 -  RELEASE  -
|  1> !PBE D3BJ RIJCOSX def2-TZVP def2/J TightSCF
|  2> *xyz -1 1
|  3> C          4.08422        1.74208       -2.11472
|  4> C          4.26524        2.50052       -0.79589
|  5> H          4.86853        3.39267       -0.98113
|  6> H          3.30764        2.82457       -0.38781
|  7> C          4.98224        1.65026        0.24742
|  8> O          4.36806        1.38927        1.31371
|  9> O          6.12892        1.23351       -0.04562
| 10> H          3.57911        2.36849       -2.81997
| 11> H          3.50424        0.85965       -1.94198
| 12> H          5.04288        1.46841       -2.50327
| 13> *
| 14> %MaxCore 64000
| 15> %pal nprocs 8
| 16> end
| 17> %scf
| 18>   MaxIter 150
| 19> end
| 20>
| 21>
| 22>                          ****END OF INPUT****

CARTESIAN COORDINATES (ANGSTROEM)
---------------------------------
  C      4.084220    1.742080   -2.114720
  C      4.265240    2.500520   -0.795890
  H      4.868530    3.392670   -0.981130
  H      3.307640    2.824570   -0.387810
  C      4.982240    1.650260    0.247420
  O      4.368060    1.389270    1.313710
  O      6.128920    1.233510   -0.045620
  H      3.579110    2.368490   -2.819970
  H      3.504240    0.859650   -1.941980
  H      5.042880    1.468410   -2.503270

 Total Charge           Charge          ....   -1
 Multiplicity           Mult            ....    1
 Number of Electrons    NEL             ....   40
 Basis Dimension        Dim             ....  185

ORBITAL ENERGIES
----------------

  NO   OCC          E(Eh)            E(eV)
   0   2.0000     -18.473212      -502.6816
   1   2.0000     -18.472306      -502.6570
   2   2.0000      -9.742038      -265.0943
   3   2.0000      -9.711366      -264.2597
   4   2.0000      -9.698653      -263.9138
   5   2.0000      -0.720950       -19.6180
   6   2.0000      -0.632342       -17.2069
   7   2.0000      -0.527947       -14.3662
   8   2.0000      -0.403982       -10.9929
   9   2.0000      -0.260720        -7.0946
  10   2.0000      -0.237781        -6.4704
  11   2.0000      -0.201967        -5.4958
  12   2.0000      -0.176658        -4.8071
  13   2.0000      -0.159400        -4.3375
  14   2.0000      -0.150608        -4.0982
  15   2.0000      -0.121358        -3.3023
  16   2.0000      -0.109689        -2.9848
  17   2.0000      -0.000073        -0.0020
  18   2.0000       0.013207         0.3594
  19   2.0000       0.031051         0.8449
  20   0.0000       0.166559         4.5323
  21   0.0000       0.207729         5.6526
  22   0.0000       0.219260         5.9664
  23   0.0000       0.229865         6.2549
  24   0.0000       0.236455         6.4343

MULLIKEN ATOMIC CHARGES
-----------------------
   0 C :   -0.323479
   1 C :   -0.120307
   2 H :    0.026147
   3 H :    0.025739
   4 C :    0.112260
   5 O :   -0.475650
   6 O :   -0.472840
   7 H :    0.054333
   8 H :    0.086759
   9 H :    0.087038
Sum of atomic charges:   -1.0000000

LOEWDIN ATOMIC CHARGES
----------------------
   0 C :   -0.332310
   1 C :   -0.302372
   2 H :    0.120050
   3 H :    0.115600
   4 C :   -0.738917
   5 O :   -0.089979
   6 O :   -0.084243
   7 H :    0.093141
   8 H :    0.108979
   9 H :    0.110052

  Mayer bond orders larger than 0.100000
B(  0-C ,  1-C ) :   0.9791 B(  0-C ,  7-H ) :   0.9598 B(  0-C ,  8-H ) :   0.9781
B(  0-C ,  9-H ) :   0.9614 B(  1-C ,  2-H ) :   0.9355 B(  1-C ,  3-H ) :   0.9319
B(  1-C ,  4-C ) :   0.9330 B(  4-C ,  5-O ) :   1.9342 B(  4-C ,  6-O ) :   1.8907

Dispersion correction           -0.006551424
FINAL SINGLE POINT ENERGY      -267.635619787437

DIPOLE MOMENT
-------------
                                X             Y             Z
Electronic contribution:      2.52698      -1.56920       5.28031
Nuclear contribution   :     -3.31311       2.28398      -6.76358
                        -----------------------------------------
Total Dipole Moment    :     -0.78613       0.71479      -1.48327
                        -----------------------------------------
Magnitude (a.u.)       :      1.82456
Magnitude (Debye)      :      4.63766

Rotational constants in cm-1:     0.309287     0.135287     0.107346
Rotational constants in MHz :  9272.201029  4055.789113  3218.155789

                             ****ORCA TERMINATED NORMALLY****
TOTAL RUN TIME: 0 days 0 hours 0 minutes 4 seconds 634 msec
