                         Program Version 5.0.0 -  RELEASE  -
|  1> !PBE D3BJ RIJCOSX def2-TZVP def2/J TightSCF
|  2> *xyz 1 1
|  3> C          3.91385       -1.65829        3.01513
|  4> N          5.03927       -0.90115        2.49282
|  5> C          6.21038       -1.41726        2.17824
|  6> N          6.53591       -2.67712        2.55608
|  7> N          7.07675       -0.70082        1.47891
|  8> H          7.95464       -1.12155        1.20755
|  9> H          6.75616        0.10664        0.96028
| 10> H          4.84217        0.01761        2.11519
| 11> H          5.99388       -3.12692        3.28278
| 12> C          3.13916       -2.37657        1.91061
| 13> H          3.26723       -0.93940        3.52069
| 14> H          4.24720       -2.35509        3.79006
| 15> H          7.49844       -2.97548        2.46878
| 16> H          2.82969       -1.66654        1.17238
| 17> H          2.27790       -2.85264        2.33072
| 18> H          3.76754       -3.11338        1.45548
| 19> *
| 20> %MaxCore 64000
| 21> %pal nprocs 8
| 22> end
| 23> %scf
| 24>   MaxIter 150
| 25> end
| 26>
| 27>
| 28>                          ****END OF INPUT****

CARTESIAN COORDINATES (ANGSTROEM)
---------------------------------
  C      3.913850   -1.658290    3.015130
  N      5.039270   -0.901150    2.492820
  C      6.210380   -1.417260    2.178240
  N      6.535910   -2.677120    2.556080
  N      7.076750   -0.700820    1.478910
  H      7.954640   -1.121550    1.207550
  H      6.756160    0.106640    0.960280
  H      4.842170    0.017610    2.115190
  H      5.993880   -3.126920    3.282780
  C      3.139160   -2.376570    1.910610
  H      3.267230   -0.939400    3.520690
  H      4.247200   -2.355090    3.790060
  H      7.498440   -2.975480    2.468780
  H      2.829690   -1.666540    1.172380
  H      2.277900   -2.852640    2.330720
  H      3.767540   -3.113380    1.455480

 Total Charge           Charge          ....    1
 Multiplicity           Mult            ....    1
 Number of Electrons    NEL             ....   48
 Basis Dimension        Dim             ....  246

ORBITAL ENERGIES
----------------

  NO   OCC          E(Eh)            E(eV)
   0   2.0000     -14.209364      -386.6564
   1   2.0000     -14.205642      -386.5552
   2   2.0000     -14.203516      -386.4973
   3   2.0000     -10.202611      -277.6271
   4   2.0000     -10.089042      -274.5368
   5   2.0000     -10.015612      -272.5387
   6   2.0000      -1.131077       -30.7782
   7   2.0000      -1.029312       -28.0090
   8   2.0000      -1.013585       -27.5811
   9   2.0000      -0.862727       -23.4760
  10   2.0000      -0.781601       -21.2684
  11   2.0000      -0.743997       -20.2452
  12   2.0000      -0.731752       -19.9120
  13   2.0000      -0.690417       -18.7872
  14   2.0000      -0.642775       -17.4908
  15   2.0000      -0.637530       -17.3481
  16   2.0000      -0.606241       -16.4966
  17   2.0000      -0.581341       -15.8191
  18   2.0000      -0.555164       -15.1068
  19   2.0000      -0.518208       -14.1012
  20   2.0000      -0.488759       -13.2998
  21   2.0000      -0.470145       -12.7933
  22   2.0000      -0.436259       -11.8712
  23   2.0000      -0.412343       -11.2204
  24   0.0000      -0.199285        -5.4228
  25   0.0000      -0.176506        -4.8030
  26   0.0000      -0.144953        -3.9444
  27   0.0000      -0.134766        -3.6672
  28   0.0000      -0.116022        -3.1571

MULLIKEN ATOMIC CHARGES
-----------------------
   0 C :   -0.181699
   1 N :   -0.190894
   2 C :    0.359867
   3 N :   -0.364401
   4 N :   -0.351879
   5 H :    0.273562
   6 H :    0.273368
   7 H :    0.243463
   8 H :    0.267158
   9 C :   -0.314567
  10 H :    0.166905
  11 H :    0.125643
  12 H :    0.265870
  13 H :    0.132066
  14 H :    0.161774
  15 H :    0.133763
Sum of atomic charges:    1.0000000

LOEWDIN ATOMIC CHARGES
----------------------
   0 C :   -0.288289
   1 N :    0.187528
   2 C :   -0.428002
   3 N :    0.062797
   4 N :    0.079531
   5 H :    0.196994
   6 H :    0.196991
   7 H :    0.210414
   8 H :    0.190566
   9 C :   -0.285528
  10 H :    0.153748
  11 H :    0.139092
  12 H :    0.193450
  13 H :    0.127610
  14 H :    0.138396
  15 H :    0.124701

  Mayer bond orders larger than 0.100000
B(  0-C ,  1-N ) :   0.9150 B(  0-C ,  9-C ) :   1.0016 B(  0-C , 10-H ) :   0.9445
B(  0-C , 11-H ) :   0.9530 B(  1-N ,  2-C ) :   1.4077 B(  1-N ,  7-H ) :   0.8994
B(  2-C ,  3-N ) :   1.3319 B(  2-C ,  4-N ) :   1.3548 B(  3-N ,  8-H ) :   0.8885
B(  3-N , 12-H ) :   0.8979 B(  4-N ,  5-H ) :   0.8951 B(  4-N ,  6-H ) :   0.8953
B(  9-C , 13-H ) :   0.9595 B(  9-C , 14-H ) :   0.9564 B(  9-C , 15-H ) :   0.9588

Dispersion correction           -0.012423308
FINAL SINGLE POINT ENERGY      -284.155580047006

DIPOLE MOMENT
-------------
                                X             Y             Z
Electronic contribution:      4.70210       1.91082       0.06748
Nuclear contribution   :     -3.67981      -1.62355      -0.28562
                        -----------------------------------------
Total Dipole Moment    :      1.02229       0.28727      -0.21814
                        -----------------------------------------
Magnitude (a.u.)       :      1.08407
Magnitude (Debye)      :      2.75547

Rotational constants in cm-1:     0.222027     0.074735     0.065694
Rotational constants in MHz :  6656.200457  2240.503315  1969.451902

                             ****ORCA TERMINATED NORMALLY****
TOTAL RUN TIME: 0 days 0 hours 0 minutes 9 seconds 98 msec
