                         Program Version 5.0.0 -  RELEASE  -
|  1> !PBE D3BJ RIJCOSX def2-TZVP def2/J TightSCF xyzfile
|  2>
|  3> *xyzfile 0 1 B.xyz
|  4>
|  5> %MaxCore 64000
|  6>
|  7> %pal nprocs 18
|  8> end
|  9>
| 10> %scf
| 11>   MaxIter 150
| 12> end
| 13>
| 14>
| 15>                          ****END OF INPUT****

CARTESIAN COORDINATES (ANGSTROEM)
---------------------------------
  C      3.913853   -1.658291    3.015134
  N      5.039266   -0.901154    2.492821
  C      4.084215    1.742081   -2.114724
  C      4.265245    2.500518   -0.795890
  H      4.868534    3.392674   -0.981134
  H      3.307640    2.824571   -0.387809
  C      4.982240    1.650257    0.247422
  C      6.210384   -1.417261    2.178244
  N      6.535913   -2.677122    2.556078
  N      7.076754   -0.700820    1.478906
  H      7.954643   -1.121554    1.207554
  H      6.756161    0.106637    0.960278
  H      4.842168    0.017609    2.115191
  H      5.993876   -3.126918    3.282784
  H      7.498441   -2.975482    2.468776
  O      4.368065    1.389270    1.313706
  O      6.128919    1.233512   -0.045620
  C      3.139159   -2.376572    1.910609
  H      3.267235   -0.939401    3.520693
  H      4.247195   -2.355095    3.790065
  C      1.997274    0.430918   -1.399218
  C      3.412746    0.376886   -1.965497
  H      4.047407   -0.246590   -1.326706
  H      3.390774   -0.118719   -2.942839
  H      5.068475    1.598504   -2.565728
  H      3.503356    2.363939   -2.804565
  C      2.399946   -1.389579    1.009490
  H      2.440750   -3.087118    2.362976
  H      3.844475   -2.970462    1.318677
  C      2.070177   -1.936705   -0.372401
  H      1.481611   -1.061542    1.509912
  H      3.008628   -0.490001    0.897451
  C      1.322238   -0.935775   -1.256413
  H      1.472747   -2.850902   -0.283997
  H      3.003539   -2.234041   -0.862535
  H      1.376444    1.058920   -2.047420
  H      2.015341    0.929780   -0.426535
  H      0.316648   -0.787213   -0.848278
  H      1.185611   -1.379252   -2.248613

 Total Charge           Charge          ....    0
 Multiplicity           Mult            ....    1
 Number of Electrons    NEL             ....  126
 Basis Dimension        Dim             ....  634

ORBITAL ENERGIES
----------------

  NO   OCC          E(Eh)            E(eV)
   0   2.0000     -18.669520      -508.0235
   1   2.0000     -18.668302      -507.9903
   2   2.0000     -14.046563      -382.2264
   3   2.0000     -14.014830      -381.3629
   4   2.0000     -14.007414      -381.1611
   5   2.0000     -10.025667      -272.8123
   6   2.0000      -9.936593      -270.3884
   7   2.0000      -9.928896      -270.1790
   8   2.0000      -9.888418      -269.0775
   9   2.0000      -9.866764      -268.4883
  10   2.0000      -9.866331      -268.4765
  11   2.0000      -9.862545      -268.3735
  12   2.0000      -9.853444      -268.1258
  13   2.0000      -9.851730      -268.0792
  14   2.0000      -9.850799      -268.0539
  15   2.0000      -9.841130      -267.7908
  16   2.0000      -0.955014       -25.9873
  17   2.0000      -0.918794       -25.0017
  18   2.0000      -0.854989       -23.2654
  19   2.0000      -0.840796       -22.8792
  20   2.0000      -0.827724       -22.5235
  21   2.0000      -0.736900       -20.0521
  22   2.0000      -0.713517       -19.4158
  23   2.0000      -0.686315       -18.6756
  24   2.0000      -0.649972       -17.6866
  25   2.0000      -0.614412       -16.7190
  26   2.0000      -0.600230       -16.3331
  27   2.0000      -0.570243       -15.5171
  28   2.0000      -0.558282       -15.1916
  29   2.0000      -0.543931       -14.8011
  30   2.0000      -0.518377       -14.1058
  31   2.0000      -0.511657       -13.9229
  32   2.0000      -0.481038       -13.0897
  33   2.0000      -0.473095       -12.8736
  34   2.0000      -0.465067       -12.6551
  35   2.0000      -0.447143       -12.1674
  36   2.0000      -0.420564       -11.4441
  37   2.0000      -0.413221       -11.2443
  38   2.0000      -0.409018       -11.1299
  39   2.0000      -0.404267       -11.0007
  40   2.0000      -0.391636       -10.6570
  41   2.0000      -0.374476       -10.1900
  42   2.0000      -0.371367       -10.1054
  43   2.0000      -0.368656       -10.0316
  44   2.0000      -0.361019        -9.8238
  45   2.0000      -0.347452        -9.4547
  46   2.0000      -0.334887        -9.1127
  47   2.0000      -0.325395        -8.8545
  48   2.0000      -0.320468        -8.7204
  49   2.0000      -0.310704        -8.4547
  50   2.0000      -0.304174        -8.2770
  51   2.0000      -0.296499        -8.0681
  52   2.0000      -0.285050        -7.7566
  53   2.0000      -0.277662        -7.5556
  54   2.0000      -0.271545        -7.3891
  55   2.0000      -0.267075        -7.2675
  56   2.0000      -0.258665        -7.0386
  57   2.0000      -0.254652        -6.9294
  58   2.0000      -0.247580        -6.7370
  59   2.0000      -0.237101        -6.4518
  60   2.0000      -0.193624        -5.2688
  61   2.0000      -0.179115        -4.8740
  62   2.0000      -0.168578        -4.5872
  63   0.0000      -0.032728        -0.8906
  64   0.0000      -0.026778        -0.7287
  65   0.0000      -0.000822        -0.0224
  66   0.0000       0.022798         0.6204
  67   0.0000       0.031874         0.8673

MULLIKEN ATOMIC CHARGES
-----------------------
   0 C :   -0.157536
   1 N :   -0.165295
   2 C :   -0.125383
   3 C :   -0.143648
   4 H :    0.085107
   5 H :    0.090451
   6 C :    0.240604
   7 C :    0.307977
   8 N :   -0.402741
   9 N :   -0.334458
  10 H :    0.214996
  11 H :    0.251198
  12 H :    0.232727
  13 H :    0.240308
  14 H :    0.233328
  15 O :   -0.478037
  16 O :   -0.472619
  17 C :   -0.107419
  18 H :    0.129467
  19 H :    0.095940
  20 C :   -0.238983
  21 C :   -0.199880
  22 H :    0.102152
  23 H :    0.070011
  24 H :    0.084758
  25 H :    0.072909
  26 C :   -0.295583
  27 H :    0.093768
  28 H :    0.090215
  29 C :   -0.175009
  30 H :    0.077518
  31 H :    0.146826
  32 C :   -0.115702
  33 H :    0.082205
  34 H :    0.095918
  35 H :    0.079323
  36 H :    0.130624
  37 H :    0.081666
  38 H :    0.082299
Sum of atomic charges:   -0.0000000

LOEWDIN ATOMIC CHARGES
----------------------
   0 C :   -0.280681
   1 N :    0.190213
   2 C :   -0.269022
   3 C :   -0.245426
   4 H :    0.143276
   5 H :    0.135780
   6 C :   -0.663096
   7 C :   -0.450260
   8 N :    0.016126
   9 N :    0.070838
  10 H :    0.171475
  11 H :    0.144530
  12 H :    0.166260
  13 H :    0.174289
  14 H :    0.174930
  15 O :   -0.029196
  16 O :   -0.015867
  17 C :   -0.270055
  18 H :    0.149339
  19 H :    0.123798
  20 C :   -0.273377
  21 C :   -0.271918
  22 H :    0.139604
  23 H :    0.133880
  24 H :    0.139889
  25 H :    0.132624
  26 C :   -0.272737
  27 H :    0.137696
  28 H :    0.139213
  29 C :   -0.277089
  30 H :    0.138533
  31 H :    0.148901
  32 C :   -0.271758
  33 H :    0.133729
  34 H :    0.135856
  35 H :    0.135858
  36 H :    0.142434
  37 H :    0.135885
  38 H :    0.135527

  Mayer bond orders larger than 0.100000
B(  0-C ,  1-N ) :   0.9759 B(  0-C , 17-C ) :   0.9685 B(  0-C , 18-H ) :   0.9494
B(  0-C , 19-H ) :   0.9644 B(  1-N ,  7-C ) :   1.4436 B(  1-N , 12-H ) :   0.7615
B(  2-C ,  3-C ) :   0.9956 B(  2-C , 21-C ) :   1.0230 B(  2-C , 24-H ) :   0.9368
B(  2-C , 25-H ) :   0.9424 B(  3-C ,  4-H ) :   0.9267 B(  3-C ,  5-H ) :   0.9638
B(  3-C ,  6-C ) :   0.9702 B(  6-C , 15-O ) :   1.6575 B(  6-C , 16-O ) :   1.6843
B(  7-C ,  8-N ) :   1.2397 B(  7-C ,  9-N ) :   1.4229 B(  8-N , 13-H ) :   0.8998
B(  8-N , 14-H ) :   0.9112 B(  9-N , 10-H ) :   0.9163 B(  9-N , 11-H ) :   0.7469
B( 11-H , 16-O ) :   0.2551 B( 12-H , 15-O ) :   0.2454 B( 17-C , 26-C ) :   0.9935
B( 17-C , 27-H ) :   0.9379 B( 17-C , 28-H ) :   0.9500 B( 20-C , 21-C ) :   1.0044
B( 20-C , 32-C ) :   0.9933 B( 20-C , 35-H ) :   0.9417 B( 20-C , 36-H ) :   0.9605
B( 21-C , 22-H ) :   0.9517 B( 21-C , 23-H ) :   0.9450 B( 26-C , 29-C ) :   1.0027
B( 26-C , 30-H ) :   0.9413 B( 26-C , 31-H ) :   0.9769 B( 29-C , 32-C ) :   1.0176
B( 29-C , 33-H ) :   0.9488 B( 29-C , 34-H ) :   0.9513 B( 32-C , 37-H ) :   0.9509
B( 32-C , 38-H ) :   0.9467

Dispersion correction           -0.044850905
FINAL SINGLE POINT ENERGY      -747.166037769186

DIPOLE MOMENT
-------------
                                X             Y             Z
Electronic contribution:     12.35444       3.36043       7.67407
Nuclear contribution   :    -11.44764      -6.21818      -6.18483
                        -----------------------------------------
Total Dipole Moment    :      0.90680      -2.85775       1.48924
                        -----------------------------------------
Magnitude (a.u.)       :      3.34767
Magnitude (Debye)      :      8.50909

Rotational constants in cm-1:     0.020281     0.013510     0.009451
Rotational constants in MHz :   608.005987   405.034308   283.324538

                             ****ORCA TERMINATED NORMALLY****
TOTAL RUN TIME: 0 days 0 hours 0 minutes 37 seconds 661 msec
