                         Program Version 5.0.0 -  RELEASE  -
|  1> !PBE D3BJ RIJCOSX def2-TZVP def2/J TightSCF
|  2> *xyz 0 1
|  3> C          4.08422        1.74208       -2.11472
|  4> C          4.26524        2.50052       -0.79589
|  5> H          4.86853        3.39267       -0.98113
|  6> H          3.30764        2.82457       -0.38781
|  7> C          4.98224        1.65026        0.24742
|  8> F          4.36806        1.38927        1.31371
|  9> O          6.12892        1.23351       -0.04562
| 10> H          3.57911        2.36849       -2.81997
| 11> H          3.50424        0.85965       -1.94198
| 12> H          5.04288        1.46841       -2.50327
| 13> *
| 14> %MaxCore 64000
| 15> %pal nprocs 8
| 16> end
| 17> %scf
| 18>   MaxIter 150
| 19> end
| 20>
| 21>
| 22>                          ****END OF INPUT****

CARTESIAN COORDINATES (ANGSTROEM)
---------------------------------
  C      4.084220    1.742080   -2.114720
  C      4.265240    2.500520   -0.795890
  H      4.868530    3.392670   -0.981130
  H      3.307640    2.824570   -0.387810
  C      4.982240    1.650260    0.247420
  F      4.368060    1.389270    1.313710
  O      6.128920    1.233510   -0.045620
  H      3.579110    2.368490   -2.819970
  H      3.504240    0.859650   -1.941980
  H      5.042880    1.468410   -2.503270

 Total Charge           Charge          ....    0
 Multiplicity           Mult            ....    1
 Number of Electrons    NEL             ....   40
 Basis Dimension        Dim             ....  185

ORBITAL ENERGIES
----------------

  NO   OCC          E(Eh)            E(eV)
   0   2.0000     -24.323050      -661.8638
   1   2.0000     -18.750628      -510.2305
   2   2.0000     -10.044957      -273.3372
   3   2.0000      -9.911073      -269.6940
   4   2.0000      -9.884378      -268.9676
   5   2.0000      -1.211946       -32.9787
   6   2.0000      -0.943918       -25.6853
   7   2.0000      -0.727853       -19.8059
   8   2.0000      -0.622334       -16.9346
   9   2.0000      -0.574483       -15.6325
  10   2.0000      -0.486774       -13.2458
  11   2.0000      -0.471963       -12.8428
  12   2.0000      -0.449594       -12.2341
  13   2.0000      -0.414986       -11.2924
  14   2.0000      -0.383531       -10.4364
  15   2.0000      -0.354594        -9.6490
  16   2.0000      -0.332838        -9.0570
  17   2.0000      -0.327808        -8.9201
  18   2.0000      -0.305147        -8.3035
  19   2.0000      -0.242531        -6.5996
  20   0.0000      -0.065608        -1.7853
  21   0.0000       0.015303         0.4164
  22   0.0000       0.053821         1.4645
  23   0.0000       0.065302         1.7770
  24   0.0000       0.076473         2.0809

MULLIKEN ATOMIC CHARGES
-----------------------
   0 C :   -0.353152
   1 C :   -0.199595
   2 H :    0.124353
   3 H :    0.103515
   4 C :    0.299318
   5 F :   -0.063303
   6 O :   -0.291347
   7 H :    0.123023
   8 H :    0.118087
   9 H :    0.139102
Sum of atomic charges:   -0.0000000

LOEWDIN ATOMIC CHARGES
----------------------
   0 C :   -0.290464
   1 C :   -0.267152
   2 H :    0.156535
   3 H :    0.138454
   4 C :   -0.536177
   5 F :    0.341368
   6 O :    0.088369
   7 H :    0.120947
   8 H :    0.121410
   9 H :    0.126712

  Mayer bond orders larger than 0.100000
B(  0-C ,  1-C ) :   0.9925 B(  0-C ,  7-H ) :   0.9614 B(  0-C ,  8-H ) :   0.9705
B(  0-C ,  9-H ) :   0.9642 B(  1-C ,  2-H ) :   0.9312 B(  1-C ,  3-H ) :   0.9422
B(  1-C ,  4-C ) :   1.0021 B(  4-C ,  5-F ) :   1.1945 B(  4-C ,  6-O ) :   2.0787

Dispersion correction           -0.006226004
FINAL SINGLE POINT ENERGY      -292.192566582501

DIPOLE MOMENT
-------------
                                X             Y             Z
Electronic contribution:      1.96968      -2.08057       8.17082
Nuclear contribution   :     -2.87511       2.61564      -8.50037
                        -----------------------------------------
Total Dipole Moment    :     -0.90543       0.53507      -0.32955
                        -----------------------------------------
Magnitude (a.u.)       :      1.10214
Magnitude (Debye)      :      2.80140

Rotational constants in cm-1:     0.297822     0.128965     0.102219
Rotational constants in MHz :  8928.481997  3866.271686  3064.463504

                             ****ORCA TERMINATED NORMALLY****
TOTAL RUN TIME: 0 days 0 hours 0 minutes 4 seconds 70 msec
