                         Program Version 5.0.0 -  RELEASE  -
|  1> !PBE D3BJ RIJCOSX def2-TZVP def2/J TightSCF
|  2> *xyz 0 1
|  3> C          3.91385       -1.65829        3.01513
|  4> C          5.03927       -0.90115        2.49282
|  5> C          6.21038       -1.41726        2.17824
|  6> N          6.53591       -2.67712        2.55608
|  7> N          7.07675       -0.70082        1.47891
|  8> H          7.95464       -1.12155        1.20755
|  9> H          6.75616        0.10664        0.96028
| 10> H          4.84217        0.01761        2.11519
| 11> H          5.99388       -3.12692        3.28278
| 12> C          3.13916       -2.37657        1.91061
| 13> H          3.26723       -0.93940        3.52069
| 14> H          4.24720       -2.35509        3.79006
| 15> H          7.49844       -2.97548        2.46878
| 16> H          2.82969       -1.66654        1.17238
| 17> H          2.27790       -2.85264        2.33072
| 18> H          3.76754       -3.11338        1.45548
| 19> *
| 20> %MaxCore 64000
| 21> %pal nprocs 8
| 22> end
| 23> %scf
| 24>   MaxIter 150
| 25> end
| 26>
| 27>
| 28>                          ****END OF INPUT****

CARTESIAN COORDINATES (ANGSTROEM)
---------------------------------
  C      3.913850   -1.658290    3.015130
  C      5.039270   -0.901150    2.492820
  C      6.210380   -1.417260    2.178240
  N      6.535910   -2.677120    2.556080
  N      7.076750   -0.700820    1.478910
  H      7.954640   -1.121550    1.207550
  H      6.756160    0.106640    0.960280
  H      4.842170    0.017610    2.115190
  H      5.993880   -3.126920    3.282780
  C      3.139160   -2.376570    1.910610
  H      3.267230   -0.939400    3.520690
  H      4.247200   -2.355090    3.790060
  H      7.498440   -2.975480    2.468780
  H      2.829690   -1.666540    1.172380
  H      2.277900   -2.852640    2.330720
  H      3.767540   -3.113380    1.455480

 Total Charge           Charge          ....    0
 Multiplicity           Mult            ....    1
 Number of Electrons    NEL             ....   48
 Basis Dimension        Dim             ....  246

ORBITAL ENERGIES
----------------

  NO   OCC          E(Eh)            E(eV)
   0   2.0000     -13.982489      -380.4829
   1   2.0000     -13.980660      -380.4331
   2   2.0000      -9.914322      -269.7824
   3   2.0000      -9.854520      -268.1551
   4   2.0000      -9.841014      -267.7876
   5   2.0000      -9.800786      -266.6929
   6   2.0000      -0.876341       -23.8464
   7   2.0000      -0.792693       -21.5703
   8   2.0000      -0.699019       -19.0213
   9   2.0000      -0.624379       -16.9902
  10   2.0000      -0.554560       -15.0904
  11   2.0000      -0.519326       -14.1316
  12   2.0000      -0.486933       -13.2501
  13   2.0000      -0.456648       -12.4260
  14   2.0000      -0.424124       -11.5410
  15   2.0000      -0.388347       -10.5675
  16   2.0000      -0.368720       -10.0334
  17   2.0000      -0.338895        -9.2218
  18   2.0000      -0.334037        -9.0896
  19   2.0000      -0.309673        -8.4266
  20   2.0000      -0.283713        -7.7202
  21   2.0000      -0.275350        -7.4926
  22   2.0000      -0.221530        -6.0281
  23   2.0000      -0.127857        -3.4792
  24   0.0000      -0.001557        -0.0424
  25   0.0000       0.029377         0.7994
  26   0.0000       0.036386         0.9901
  27   0.0000       0.056350         1.5334
  28   0.0000       0.061695         1.6788

MULLIKEN ATOMIC CHARGES
-----------------------
   0 C :   -0.181788
   1 C :   -0.309002
   2 C :    0.279957
   3 N :   -0.435671
   4 N :   -0.424465
   5 H :    0.205155
   6 H :    0.231585
   7 H :    0.064604
   8 H :    0.225326
   9 C :   -0.290088
  10 H :    0.086173
  11 H :    0.051796
  12 H :    0.202456
  13 H :    0.094019
  14 H :    0.093740
  15 H :    0.106203
Sum of atomic charges:    0.0000000

LOEWDIN ATOMIC CHARGES
----------------------
   0 C :   -0.312061
   1 C :   -0.279164
   2 C :   -0.470209
   3 N :   -0.016800
   4 N :   -0.001710
   5 H :    0.159413
   6 H :    0.175802
   7 H :    0.121295
   8 H :    0.169588
   9 C :   -0.307014
  10 H :    0.140029
  11 H :    0.125159
  12 H :    0.157494
  13 H :    0.114706
  14 H :    0.108189
  15 H :    0.115280

  Mayer bond orders larger than 0.100000
B(  0-C ,  1-C ) :   1.0822 B(  0-C ,  9-C ) :   0.9681 B(  0-C , 10-H ) :   0.9624
B(  0-C , 11-H ) :   0.9474 B(  1-C ,  2-C ) :   1.6957 B(  1-C ,  7-H ) :   0.9898
B(  2-C ,  3-N ) :   1.1607 B(  2-C ,  4-N ) :   1.1667 B(  3-N ,  8-H ) :   0.9143
B(  3-N , 12-H ) :   0.9214 B(  4-N ,  5-H ) :   0.9235 B(  4-N ,  6-H ) :   0.9172
B(  9-C , 13-H ) :   0.9727 B(  9-C , 14-H ) :   0.9610 B(  9-C , 15-H ) :   0.9738

Dispersion correction           -0.012882584
FINAL SINGLE POINT ENERGY      -267.674868575796

DIPOLE MOMENT
-------------
                                X             Y             Z
Electronic contribution:      4.71869       1.22260      -0.06085
Nuclear contribution   :     -3.74303      -1.46908      -0.23637
                        -----------------------------------------
Total Dipole Moment    :      0.97566      -0.24648      -0.29722
                        -----------------------------------------
Magnitude (a.u.)       :      1.04929
Magnitude (Debye)      :      2.66707

Rotational constants in cm-1:     0.225937     0.074877     0.065953
Rotational constants in MHz :  6773.424301  2244.750632  1977.214101

                             ****ORCA TERMINATED NORMALLY****
TOTAL RUN TIME: 0 days 0 hours 0 minutes 6 seconds 797 msec
