                         Program Version 5.0.0 -  RELEASE  -
|  1> !PBE D3BJ RIJCOSX def2-TZVP def2/J TightSCF
|  2> *xyz 0 1
|  3> C          4.08422        1.74208       -2.11472
|  4> C          4.26524        2.50052       -0.79589
|  5> H          4.86853        3.39267       -0.98113
|  6> H          3.30764        2.82457       -0.38781
|  7> C          4.98224        1.65026        0.24742
|  8> O          4.36806        1.38927        1.31371
|  9> F          6.12892        1.23351       -0.04562
| 10> H          3.57911        2.36849       -2.81997
| 11> H          3.50424        0.85965       -1.94198
| 12> H          5.04288        1.46841       -2.50327
| 13> *
| 14> %MaxCore 64000
| 15> %pal nprocs 8
| 16> end
| 17> %scf
| 18>   MaxIter 150
| 19> end
| 20>
| 21>
| 22>                          ****END OF INPUT****

CARTESIAN COORDINATES (ANGSTROEM)
---------------------------------
  C      4.084220    1.742080   -2.114720
  C      4.265240    2.500520   -0.795890
  H      4.868530    3.392670   -0.981130
  H      3.307640    2.824570   -0.387810
  C      4.982240    1.650260    0.247420
  O      4.368060    1.389270    1.313710
  F      6.128920    1.233510   -0.045620
  H      3.579110    2.368490   -2.819970
  H      3.504240    0.859650   -1.941980
  H      5.042880    1.468410   -2.503270

 Total Charge           Charge          ....    0
 Multiplicity           Mult            ....    1
 Number of Electrons    NEL             ....   40
 Basis Dimension        Dim             ....  185

ORBITAL ENERGIES
----------------

  NO   OCC          E(Eh)            E(eV)
   0   2.0000     -24.324106      -661.8926
   1   2.0000     -18.749673      -510.2045
   2   2.0000     -10.044489      -273.3244
   3   2.0000      -9.910712      -269.6842
   4   2.0000      -9.888806      -269.0881
   5   2.0000      -1.214420       -33.0461
   6   2.0000      -0.940697       -25.5977
   7   2.0000      -0.731659       -19.9095
   8   2.0000      -0.620141       -16.8749
   9   2.0000      -0.579503       -15.7691
  10   2.0000      -0.489471       -13.3192
  11   2.0000      -0.476604       -12.9691
  12   2.0000      -0.444735       -12.1019
  13   2.0000      -0.414774       -11.2866
  14   2.0000      -0.385315       -10.4849
  15   2.0000      -0.357111        -9.7175
  16   2.0000      -0.335395        -9.1266
  17   2.0000      -0.331295        -9.0150
  18   2.0000      -0.308553        -8.3961
  19   2.0000      -0.237487        -6.4623
  20   0.0000      -0.062759        -1.7078
  21   0.0000       0.011479         0.3124
  22   0.0000       0.053038         1.4432
  23   0.0000       0.067878         1.8471
  24   0.0000       0.080852         2.2001

MULLIKEN ATOMIC CHARGES
-----------------------
   0 C :   -0.358168
   1 C :   -0.195028
   2 H :    0.111633
   3 H :    0.127234
   4 C :    0.291106
   5 O :   -0.291538
   6 F :   -0.064297
   7 H :    0.127403
   8 H :    0.128824
   9 H :    0.122829
Sum of atomic charges:    0.0000000

LOEWDIN ATOMIC CHARGES
----------------------
   0 C :   -0.296892
   1 C :   -0.262373
   2 H :    0.149006
   3 H :    0.151530
   4 C :   -0.539148
   5 O :    0.082301
   6 F :    0.348098
   7 H :    0.122657
   8 H :    0.123613
   9 H :    0.121208

  Mayer bond orders larger than 0.100000
B(  0-C ,  1-C ) :   0.9794 B(  0-C ,  7-H ) :   0.9615 B(  0-C ,  8-H ) :   0.9688
B(  0-C ,  9-H ) :   0.9668 B(  1-C ,  2-H ) :   0.9249 B(  1-C ,  3-H ) :   0.9521
B(  1-C ,  4-C ) :   1.0196 B(  4-C ,  5-O ) :   2.0959 B(  4-C ,  6-F ) :   1.1835

Dispersion correction           -0.006190232
FINAL SINGLE POINT ENERGY      -292.191751163077

DIPOLE MOMENT
-------------
                                X             Y             Z
Electronic contribution:      4.85354      -2.32368       5.91100
Nuclear contribution   :     -4.79499       2.78546      -7.01827
                        -----------------------------------------
Total Dipole Moment    :      0.05855       0.46178      -1.10727
                        -----------------------------------------
Magnitude (a.u.)       :      1.20113
Magnitude (Debye)      :      3.05304

Rotational constants in cm-1:     0.286098     0.133492     0.103343
Rotational constants in MHz :  8577.003657  4001.981591  3098.148068

                             ****ORCA TERMINATED NORMALLY****
TOTAL RUN TIME: 0 days 0 hours 0 minutes 4 seconds 241 msec
