                         Program Version 5.0.0 -  RELEASE  -
|  1> !PBE D3BJ RIJCOSX def2-TZVP def2/J TightSCF
|  2> *xyz 0 1
|  3> C          3.91385       -1.65829        3.01513
|  4> N          5.03927       -0.90115        2.49282
|  5> C          6.21038       -1.41726        2.17824
|  6> C          6.53591       -2.67712        2.55608
|  7> N          7.07675       -0.70082        1.47891
|  8> H          7.95464       -1.12155        1.20755
|  9> H          6.75616        0.10664        0.96028
| 10> H          4.84217        0.01761        2.11519
| 11> H          5.99388       -3.12692        3.28278
| 12> C          3.13916       -2.37657        1.91061
| 13> H          3.26723       -0.93940        3.52069
| 14> H          4.24720       -2.35509        3.79006
| 15> H          7.49844       -2.97548        2.46878
| 16> H          2.82969       -1.66654        1.17238
| 17> H          2.27790       -2.85264        2.33072
| 18> H          3.76754       -3.11338        1.45548
| 19> *
| 20> %MaxCore 64000
| 21> %pal nprocs 8
| 22> end
| 23> %scf
| 24>   MaxIter 150
| 25> end
| 26>
| 27>
| 28>                          ****END OF INPUT****

CARTESIAN COORDINATES (ANGSTROEM)
---------------------------------
  C      3.913850   -1.658290    3.015130
  N      5.039270   -0.901150    2.492820
  C      6.210380   -1.417260    2.178240
  C      6.535910   -2.677120    2.556080
  N      7.076750   -0.700820    1.478910
  H      7.954640   -1.121550    1.207550
  H      6.756160    0.106640    0.960280
  H      4.842170    0.017610    2.115190
  H      5.993880   -3.126920    3.282780
  C      3.139160   -2.376570    1.910610
  H      3.267230   -0.939400    3.520690
  H      4.247200   -2.355090    3.790060
  H      7.498440   -2.975480    2.468780
  H      2.829690   -1.666540    1.172380
  H      2.277900   -2.852640    2.330720
  H      3.767540   -3.113380    1.455480

 Total Charge           Charge          ....    0
 Multiplicity           Mult            ....    1
 Number of Electrons    NEL             ....   48
 Basis Dimension        Dim             ....  246

ORBITAL ENERGIES
----------------

  NO   OCC          E(Eh)            E(eV)
   0   2.0000     -13.989073      -380.6620
   1   2.0000     -13.983787      -380.5182
   2   2.0000      -9.919782      -269.9310
   3   2.0000      -9.912443      -269.7313
   4   2.0000      -9.859971      -268.3035
   5   2.0000      -9.790763      -266.4202
   6   2.0000      -0.889733       -24.2109
   7   2.0000      -0.811666       -22.0865
   8   2.0000      -0.683644       -18.6029
   9   2.0000      -0.635752       -17.2997
  10   2.0000      -0.579431       -15.7671
  11   2.0000      -0.508199       -13.8288
  12   2.0000      -0.497983       -13.5508
  13   2.0000      -0.468512       -12.7489
  14   2.0000      -0.418203       -11.3799
  15   2.0000      -0.391027       -10.6404
  16   2.0000      -0.370473       -10.0811
  17   2.0000      -0.350415        -9.5353
  18   2.0000      -0.333297        -9.0695
  19   2.0000      -0.320417        -8.7190
  20   2.0000      -0.317080        -8.6282
  21   2.0000      -0.301682        -8.2092
  22   2.0000      -0.209766        -5.7080
  23   2.0000      -0.131752        -3.5852
  24   0.0000      -0.001907        -0.0519
  25   0.0000       0.029207         0.7948
  26   0.0000       0.039889         1.0854
  27   0.0000       0.049916         1.3583
  28   0.0000       0.066607         1.8125

MULLIKEN ATOMIC CHARGES
-----------------------
   0 C :   -0.117233
   1 N :   -0.248652
   2 C :    0.280811
   3 C :   -0.496332
   4 N :   -0.422904
   5 H :    0.235671
   6 H :    0.201725
   7 H :    0.178067
   8 H :    0.077549
   9 C :   -0.310376
  10 H :    0.104058
  11 H :    0.108802
  12 H :    0.073353
  13 H :    0.087319
  14 H :    0.106025
  15 H :    0.142118
Sum of atomic charges:   -0.0000000

LOEWDIN ATOMIC CHARGES
----------------------
   0 C :   -0.304931
   1 N :    0.133142
   2 C :   -0.483393
   3 C :   -0.359785
   4 N :    0.002205
   5 H :    0.177726
   6 H :    0.157521
   7 H :    0.176666
   8 H :    0.096066
   9 C :   -0.309871
  10 H :    0.130122
  11 H :    0.136333
  12 H :    0.093917
  13 H :    0.112453
  14 H :    0.117121
  15 H :    0.124708

  Mayer bond orders larger than 0.100000
B(  0-C ,  1-N ) :   0.9774 B(  0-C ,  9-C ) :   0.9958 B(  0-C , 10-H ) :   0.9619
B(  0-C , 11-H ) :   0.9474 B(  1-N ,  2-C ) :   1.2281 B(  1-N ,  7-H ) :   0.9230
B(  2-C ,  3-C ) :   1.6487 B(  2-C ,  4-N ) :   1.1802 B(  3-C ,  8-H ) :   0.9942
B(  3-C , 12-H ) :   0.9801 B(  4-N ,  5-H ) :   0.9184 B(  4-N ,  6-H ) :   0.9174
B(  9-C , 13-H ) :   0.9663 B(  9-C , 14-H ) :   0.9599 B(  9-C , 15-H ) :   0.9671

Dispersion correction           -0.012845253
FINAL SINGLE POINT ENERGY      -267.665799085824

DIPOLE MOMENT
-------------
                                X             Y             Z
Electronic contribution:      3.09202       2.86782      -0.23330
Nuclear contribution   :     -3.42552      -1.84584      -0.22295
                        -----------------------------------------
Total Dipole Moment    :     -0.33351       1.02198      -0.45625
                        -----------------------------------------
Magnitude (a.u.)       :      1.16783
Magnitude (Debye)      :      2.96839

Rotational constants in cm-1:     0.233526     0.075277     0.067092
Rotational constants in MHz :  7000.931279  2256.752901  2011.361214

                             ****ORCA TERMINATED NORMALLY****
TOTAL RUN TIME: 0 days 0 hours 0 minutes 6 seconds 943 msec
