                         Program Version 5.0.0 -  RELEASE  -
|  1> !PBE D3BJ RIJCOSX def2-TZVP def2/J TightSCF
|  2> *xyz 0 1
|  3> C          3.91385       -1.65829        3.01513
|  4> N          5.03927       -0.90115        2.49282
|  5> C          6.21038       -1.41726        2.17824
|  6> N          6.53591       -2.67712        2.55608
|  7> C          7.07675       -0.70082        1.47891
|  8> H          7.95464       -1.12155        1.20755
|  9> H          6.75616        0.10664        0.96028
| 10> H          4.84217        0.01761        2.11519
| 11> H          5.99388       -3.12692        3.28278
| 12> C          3.13916       -2.37657        1.91061
| 13> H          3.26723       -0.93940        3.52069
| 14> H          4.24720       -2.35509        3.79006
| 15> H          7.49844       -2.97548        2.46878
| 16> H          2.82969       -1.66654        1.17238
| 17> H          2.27790       -2.85264        2.33072
| 18> H          3.76754       -3.11338        1.45548
| 19> *
| 20> %MaxCore 64000
| 21> %pal nprocs 8
| 22> end
| 23> %scf
| 24>   MaxIter 150
| 25> end
| 26>
| 27>
| 28>                          ****END OF INPUT****

CARTESIAN COORDINATES (ANGSTROEM)
---------------------------------
  C      3.913850   -1.658290    3.015130
  N      5.039270   -0.901150    2.492820
  C      6.210380   -1.417260    2.178240
  N      6.535910   -2.677120    2.556080
  C      7.076750   -0.700820    1.478910
  H      7.954640   -1.121550    1.207550
  H      6.756160    0.106640    0.960280
  H      4.842170    0.017610    2.115190
  H      5.993880   -3.126920    3.282780
  C      3.139160   -2.376570    1.910610
  H      3.267230   -0.939400    3.520690
  H      4.247200   -2.355090    3.790060
  H      7.498440   -2.975480    2.468780
  H      2.829690   -1.666540    1.172380
  H      2.277900   -2.852640    2.330720
  H      3.767540   -3.113380    1.455480

 Total Charge           Charge          ....    0
 Multiplicity           Mult            ....    1
 Number of Electrons    NEL             ....   48
 Basis Dimension        Dim             ....  246

ORBITAL ENERGIES
----------------

  NO   OCC          E(Eh)            E(eV)
   0   2.0000     -13.986060      -380.5800
   1   2.0000     -13.982147      -380.4736
   2   2.0000      -9.920753      -269.9574
   3   2.0000      -9.917536      -269.8699
   4   2.0000      -9.867639      -268.5121
   5   2.0000      -9.789660      -266.3902
   6   2.0000      -0.885296       -24.0901
   7   2.0000      -0.805050       -21.9065
   8   2.0000      -0.700054       -19.0494
   9   2.0000      -0.632892       -17.2219
  10   2.0000      -0.567669       -15.4471
  11   2.0000      -0.543459       -14.7883
  12   2.0000      -0.482587       -13.1318
  13   2.0000      -0.447025       -12.1642
  14   2.0000      -0.429516       -11.6877
  15   2.0000      -0.392785       -10.6882
  16   2.0000      -0.382750       -10.4151
  17   2.0000      -0.357308        -9.7228
  18   2.0000      -0.334878        -9.1125
  19   2.0000      -0.326567        -8.8863
  20   2.0000      -0.315544        -8.5864
  21   2.0000      -0.311775        -8.4838
  22   2.0000      -0.212814        -5.7910
  23   2.0000      -0.131212        -3.5705
  24   0.0000       0.000193         0.0053
  25   0.0000       0.024633         0.6703
  26   0.0000       0.035981         0.9791
  27   0.0000       0.050684         1.3792
  28   0.0000       0.061482         1.6730

MULLIKEN ATOMIC CHARGES
-----------------------
   0 C :   -0.163190
   1 N :   -0.237634
   2 C :    0.308679
   3 N :   -0.439505
   4 C :   -0.497402
   5 H :    0.072466
   6 H :    0.077519
   7 H :    0.205420
   8 H :    0.204272
   9 C :   -0.284623
  10 H :    0.112186
  11 H :    0.088686
  12 H :    0.228369
  13 H :    0.100254
  14 H :    0.102943
  15 H :    0.121560
Sum of atomic charges:   -0.0000000

LOEWDIN ATOMIC CHARGES
----------------------
   0 C :   -0.323095
   1 N :    0.136329
   2 C :   -0.474322
   3 N :   -0.013264
   4 C :   -0.343440
   5 H :    0.097067
   6 H :    0.097166
   7 H :    0.193956
   8 H :    0.155368
   9 C :   -0.310520
  10 H :    0.132761
  11 H :    0.125242
  12 H :    0.174190
  13 H :    0.116690
  14 H :    0.115885
  15 H :    0.119987

  Mayer bond orders larger than 0.100000
B(  0-C ,  1-N ) :   0.9986 B(  0-C ,  9-C ) :   0.9786 B(  0-C , 10-H ) :   0.9636
B(  0-C , 11-H ) :   0.9600 B(  1-N ,  2-C ) :   1.2388 B(  1-N ,  7-H ) :   0.9190
B(  2-C ,  3-N ) :   1.1553 B(  2-C ,  4-C ) :   1.6557 B(  3-N ,  8-H ) :   0.9151
B(  3-N , 12-H ) :   0.9199 B(  4-C ,  5-H ) :   0.9930 B(  4-C ,  6-H ) :   0.9938
B(  9-C , 13-H ) :   0.9653 B(  9-C , 14-H ) :   0.9564 B(  9-C , 15-H ) :   0.9677

Dispersion correction           -0.012776489
FINAL SINGLE POINT ENERGY      -267.665994801595

DIPOLE MOMENT
-------------
                                X             Y             Z
Electronic contribution:      2.55086       0.91511       0.97190
Nuclear contribution   :     -3.31079      -1.42658      -0.45147
                        -----------------------------------------
Total Dipole Moment    :     -0.75993      -0.51147       0.52044
                        -----------------------------------------
Magnitude (a.u.)       :      1.05354
Magnitude (Debye)      :      2.67788

Rotational constants in cm-1:     0.225507     0.077571     0.068070
Rotational constants in MHz :  6760.542142  2325.533779  2040.680522

                             ****ORCA TERMINATED NORMALLY****
TOTAL RUN TIME: 0 days 0 hours 0 minutes 8 seconds 434 msec
