                         Program Version 5.0.0 -  RELEASE  -
|  1> !PBE D3BJ RIJCOSX def2-TZVP def2/J TightSCF xyzfile
|  2>
|  3> *xyzfile 0 1 D2.xyz
|  4>
|  5> %MaxCore 64000
|  6>
|  7> %pal nprocs 18
|  8> end
|  9>
| 10> %scf
| 11>   MaxIter 150
| 12> end
| 13>
| 14>
| 15>                          ****END OF INPUT****

CARTESIAN COORDINATES (ANGSTROEM)
---------------------------------
  C      3.913853   -1.658291    3.015134
  N      5.039266   -0.901154    2.492821
  C      4.084215    1.742081   -2.114724
  C      4.265245    2.500518   -0.795890
  H      4.868534    3.392674   -0.981134
  H      3.307640    2.824571   -0.387809
  C      4.982240    1.650257    0.247422
  C      6.210384   -1.417261    2.178244
  C      6.535913   -2.677122    2.556078
  N      7.076754   -0.700820    1.478906
  H      7.954643   -1.121554    1.207554
  H      6.756161    0.106637    0.960278
  H      4.842168    0.017609    2.115191
  H      5.993876   -3.126918    3.282784
  H      7.498441   -2.975482    2.468776
  F      4.368065    1.389270    1.313706
  O      6.128919    1.233512   -0.045620
  C      3.139159   -2.376572    1.910609
  H      3.267235   -0.939401    3.520693
  H      4.247195   -2.355095    3.790065
  C      1.997274    0.430918   -1.399218
  C      3.412746    0.376886   -1.965497
  H      4.047407   -0.246590   -1.326706
  H      3.390774   -0.118719   -2.942839
  H      5.068475    1.598504   -2.565728
  H      3.503356    2.363939   -2.804565
  C      2.399946   -1.389579    1.009490
  H      2.440750   -3.087118    2.362976
  H      3.844475   -2.970462    1.318677
  C      2.070177   -1.936705   -0.372401
  H      1.481611   -1.061542    1.509912
  H      3.008628   -0.490001    0.897451
  C      1.322238   -0.935775   -1.256413
  H      1.472747   -2.850902   -0.283997
  H      3.003539   -2.234041   -0.862535
  H      1.376444    1.058920   -2.047420
  H      2.015341    0.929780   -0.426535
  H      0.316648   -0.787213   -0.848278
  H      1.185611   -1.379252   -2.248613

 Total Charge           Charge          ....    0
 Multiplicity           Mult            ....    1
 Number of Electrons    NEL             ....  126
 Basis Dimension        Dim             ....  634

ORBITAL ENERGIES
----------------

  NO   OCC          E(Eh)            E(eV)
   0   2.0000     -24.361349      -662.9060
   1   2.0000     -18.784393      -511.1493
   2   2.0000     -13.969414      -380.1271
   3   2.0000     -13.946932      -379.5153
   4   2.0000     -10.072964      -274.0993
   5   2.0000      -9.925127      -270.0764
   6   2.0000      -9.905812      -269.5508
   7   2.0000      -9.902030      -269.4479
   8   2.0000      -9.901585      -269.4358
   9   2.0000      -9.891271      -269.1552
  10   2.0000      -9.886857      -269.0351
  11   2.0000      -9.881309      -268.8841
  12   2.0000      -9.875693      -268.7313
  13   2.0000      -9.874302      -268.6934
  14   2.0000      -9.866743      -268.4877
  15   2.0000      -9.778288      -266.0808
  16   2.0000      -1.252765       -34.0895
  17   2.0000      -0.981945       -26.7201
  18   2.0000      -0.870609       -23.6905
  19   2.0000      -0.790116       -21.5001
  20   2.0000      -0.765151       -20.8208
  21   2.0000      -0.737170       -20.0594
  22   2.0000      -0.705184       -19.1890
  23   2.0000      -0.673765       -18.3341
  24   2.0000      -0.647036       -17.6067
  25   2.0000      -0.626842       -17.0572
  26   2.0000      -0.613289       -16.6884
  27   2.0000      -0.591448       -16.0941
  28   2.0000      -0.557674       -15.1751
  29   2.0000      -0.539044       -14.6681
  30   2.0000      -0.524492       -14.2721
  31   2.0000      -0.513225       -13.9656
  32   2.0000      -0.508761       -13.8441
  33   2.0000      -0.492979       -13.4146
  34   2.0000      -0.480495       -13.0749
  35   2.0000      -0.461079       -12.5466
  36   2.0000      -0.446158       -12.1406
  37   2.0000      -0.436628       -11.8812
  38   2.0000      -0.436237       -11.8706
  39   2.0000      -0.417879       -11.3711
  40   2.0000      -0.404043       -10.9946
  41   2.0000      -0.400447       -10.8967
  42   2.0000      -0.384337       -10.4583
  43   2.0000      -0.381643       -10.3850
  44   2.0000      -0.373052       -10.1513
  45   2.0000      -0.362559        -9.8657
  46   2.0000      -0.357230        -9.7207
  47   2.0000      -0.347821        -9.4647
  48   2.0000      -0.335321        -9.1246
  49   2.0000      -0.332126        -9.0376
  50   2.0000      -0.326649        -8.8886
  51   2.0000      -0.319602        -8.6968
  52   2.0000      -0.317025        -8.6267
  53   2.0000      -0.308404        -8.3921
  54   2.0000      -0.301090        -8.1931
  55   2.0000      -0.295850        -8.0505
  56   2.0000      -0.288784        -7.8582
  57   2.0000      -0.279444        -7.6041
  58   2.0000      -0.277302        -7.5458
  59   2.0000      -0.273755        -7.4493
  60   2.0000      -0.265677        -7.2294
  61   2.0000      -0.189575        -5.1586
  62   2.0000      -0.118177        -3.2158
  63   0.0000      -0.095173        -2.5898
  64   0.0000      -0.000995        -0.0271
  65   0.0000       0.018842         0.5127
  66   0.0000       0.021129         0.5750
  67   0.0000       0.025122         0.6836

MULLIKEN ATOMIC CHARGES
-----------------------
   0 C :   -0.131013
   1 N :   -0.251281
   2 C :   -0.136884
   3 C :   -0.197150
   4 H :    0.136377
   5 H :    0.125738
   6 C :    0.312000
   7 C :    0.270171
   8 C :   -0.514207
   9 N :   -0.418581
  10 H :    0.217562
  11 H :    0.212197
  12 H :    0.185411
  13 H :    0.073960
  14 H :    0.071233
  15 F :   -0.084696
  16 O :   -0.312505
  17 C :   -0.063227
  18 H :    0.094637
  19 H :    0.115578
  20 C :   -0.231527
  21 C :   -0.257926
  22 H :    0.136364
  23 H :    0.096363
  24 H :    0.117504
  25 H :    0.100899
  26 C :   -0.272715
  27 H :    0.082700
  28 H :    0.110528
  29 C :   -0.184307
  30 H :    0.078745
  31 H :    0.051232
  32 C :   -0.118879
  33 H :    0.095138
  34 H :    0.109698
  35 H :    0.092913
  36 H :    0.106581
  37 H :    0.089540
  38 H :    0.091827
Sum of atomic charges:   -0.0000000

LOEWDIN ATOMIC CHARGES
----------------------
   0 C :   -0.284058
   1 N :    0.132473
   2 C :   -0.256573
   3 C :   -0.235911
   4 H :    0.161826
   5 H :    0.144198
   6 C :   -0.527381
   7 C :   -0.482530
   8 C :   -0.360652
   9 N :    0.005037
  10 H :    0.171065
  11 H :    0.130273
  12 H :    0.159074
  13 H :    0.093709
  14 H :    0.092588
  15 F :    0.355924
  16 O :    0.113413
  17 C :   -0.267570
  18 H :    0.132440
  19 H :    0.137415
  20 C :   -0.275713
  21 C :   -0.269950
  22 H :    0.144176
  23 H :    0.143493
  24 H :    0.147714
  25 H :    0.143351
  26 C :   -0.279943
  27 H :    0.135359
  28 H :    0.147949
  29 C :   -0.273696
  30 H :    0.135898
  31 H :    0.128965
  32 C :   -0.269810
  33 H :    0.139400
  34 H :    0.139167
  35 H :    0.138619
  36 H :    0.133480
  37 H :    0.138563
  38 H :    0.138219

  Mayer bond orders larger than 0.100000
B(  0-C ,  1-N ) :   1.0142 B(  0-C , 17-C ) :   0.9708 B(  0-C , 18-H ) :   0.9627
B(  0-C , 19-H ) :   0.9500 B(  1-N ,  7-C ) :   1.2279 B(  1-N , 12-H ) :   0.9013
B(  2-C ,  3-C ) :   0.9835 B(  2-C , 21-C ) :   1.0068 B(  2-C , 24-H ) :   0.9434
B(  2-C , 25-H ) :   0.9422 B(  3-C ,  4-H ) :   0.9250 B(  3-C ,  5-H ) :   0.9523
B(  3-C ,  6-C ) :   1.0053 B(  6-C , 15-F ) :   1.1171 B(  6-C , 16-O ) :   1.9318
B(  7-C ,  8-C ) :   1.6015 B(  7-C ,  9-N ) :   1.2199 B(  8-C , 13-H ) :   0.9871
B(  8-C , 14-H ) :   0.9806 B(  9-N , 10-H ) :   0.9253 B(  9-N , 11-H ) :   0.8528
B( 11-H , 16-O ) :   0.1372 B( 17-C , 26-C ) :   1.0204 B( 17-C , 27-H ) :   0.9389
B( 17-C , 28-H ) :   0.9414 B( 20-C , 21-C ) :   0.9913 B( 20-C , 32-C ) :   1.0014
B( 20-C , 35-H ) :   0.9425 B( 20-C , 36-H ) :   0.9602 B( 21-C , 22-H ) :   0.9551
B( 21-C , 23-H ) :   0.9459 B( 26-C , 29-C ) :   1.0131 B( 26-C , 30-H ) :   0.9338
B( 26-C , 31-H ) :   0.9751 B( 29-C , 32-C ) :   1.0016 B( 29-C , 33-H ) :   0.9502
B( 29-C , 34-H ) :   0.9572 B( 32-C , 37-H ) :   0.9507 B( 32-C , 38-H ) :   0.9489

Dispersion correction           -0.044469858
FINAL SINGLE POINT ENERGY      -755.026364756132

DIPOLE MOMENT
-------------
                                X             Y             Z
Electronic contribution:      9.92035      10.35009       5.66816
Nuclear contribution   :    -11.22009      -8.67117      -6.77523
                        -----------------------------------------
Total Dipole Moment    :     -1.29974       1.67892      -1.10707
                        -----------------------------------------
Magnitude (a.u.)       :      2.39452
Magnitude (Debye)      :      6.08639

Rotational constants in cm-1:     0.020086     0.013778     0.009581
Rotational constants in MHz :   602.172053   413.051122   287.243919

                             ****ORCA TERMINATED NORMALLY****
TOTAL RUN TIME: 0 days 0 hours 0 minutes 31 seconds 661 msec
