                         Program Version 5.0.0 -  RELEASE  -
|  1> !PBE D3BJ RIJCOSX def2-TZVP def2/J TightSCF xyzfile
|  2>
|  3> *xyzfile 0 1 D4.xyz
|  4>
|  5> %MaxCore 64000
|  6>
|  7> %pal nprocs 18
|  8> end
|  9>
| 10> %scf
| 11>   MaxIter 150
| 12> end
| 13>
| 14>
| 15>                          ****END OF INPUT****

CARTESIAN COORDINATES (ANGSTROEM)
---------------------------------
  C      3.913853   -1.658291    3.015134
  C      5.039266   -0.901154    2.492821
  C      4.084215    1.742081   -2.114724
  C      4.265245    2.500518   -0.795890
  H      4.868534    3.392674   -0.981134
  H      3.307640    2.824571   -0.387809
  C      4.982240    1.650257    0.247422
  C      6.210384   -1.417261    2.178244
  N      6.535913   -2.677122    2.556078
  N      7.076754   -0.700820    1.478906
  H      7.954643   -1.121554    1.207554
  H      6.756161    0.106637    0.960278
  H      4.842168    0.017609    2.115191
  H      5.993876   -3.126918    3.282784
  H      7.498441   -2.975482    2.468776
  O      4.368065    1.389270    1.313706
  F      6.128919    1.233512   -0.045620
  C      3.139159   -2.376572    1.910609
  H      3.267235   -0.939401    3.520693
  H      4.247195   -2.355095    3.790065
  C      1.997274    0.430918   -1.399218
  C      3.412746    0.376886   -1.965497
  H      4.047407   -0.246590   -1.326706
  H      3.390774   -0.118719   -2.942839
  H      5.068475    1.598504   -2.565728
  H      3.503356    2.363939   -2.804565
  C      2.399946   -1.389579    1.009490
  H      2.440750   -3.087118    2.362976
  H      3.844475   -2.970462    1.318677
  C      2.070177   -1.936705   -0.372401
  H      1.481611   -1.061542    1.509912
  H      3.008628   -0.490001    0.897451
  C      1.322238   -0.935775   -1.256413
  H      1.472747   -2.850902   -0.283997
  H      3.003539   -2.234041   -0.862535
  H      1.376444    1.058920   -2.047420
  H      2.015341    0.929780   -0.426535
  H      0.316648   -0.787213   -0.848278
  H      1.185611   -1.379252   -2.248613

 Total Charge           Charge          ....    0
 Multiplicity           Mult            ....    1
 Number of Electrons    NEL             ....  126
 Basis Dimension        Dim             ....  634

ORBITAL ENERGIES
----------------

  NO   OCC          E(Eh)            E(eV)
   0   2.0000     -24.349897      -662.5944
   1   2.0000     -18.763103      -510.5700
   2   2.0000     -13.967690      -380.0802
   3   2.0000     -13.958645      -379.8340
   4   2.0000     -10.057967      -273.6912
   5   2.0000      -9.914144      -269.7776
   6   2.0000      -9.900263      -269.3999
   7   2.0000      -9.895903      -269.2812
   8   2.0000      -9.884034      -268.9582
   9   2.0000      -9.874122      -268.6885
  10   2.0000      -9.868531      -268.5364
  11   2.0000      -9.859904      -268.3016
  12   2.0000      -9.848828      -268.0002
  13   2.0000      -9.844531      -267.8833
  14   2.0000      -9.838660      -267.7235
  15   2.0000      -9.769987      -265.8549
  16   2.0000      -1.242829       -33.8191
  17   2.0000      -0.959711       -26.1151
  18   2.0000      -0.859671       -23.3928
  19   2.0000      -0.777454       -21.1556
  20   2.0000      -0.756826       -20.5943
  21   2.0000      -0.724711       -19.7204
  22   2.0000      -0.697453       -18.9787
  23   2.0000      -0.670789       -18.2531
  24   2.0000      -0.640749       -17.4357
  25   2.0000      -0.618870       -16.8403
  26   2.0000      -0.601600       -16.3704
  27   2.0000      -0.569042       -15.4844
  28   2.0000      -0.542697       -14.7675
  29   2.0000      -0.528615       -14.3843
  30   2.0000      -0.511075       -13.9071
  31   2.0000      -0.508242       -13.8300
  32   2.0000      -0.493815       -13.4374
  33   2.0000      -0.482065       -13.1177
  34   2.0000      -0.475801       -12.9472
  35   2.0000      -0.458609       -12.4794
  36   2.0000      -0.433495       -11.7960
  37   2.0000      -0.428844       -11.6694
  38   2.0000      -0.426954       -11.6180
  39   2.0000      -0.407300       -11.0832
  40   2.0000      -0.399675       -10.8757
  41   2.0000      -0.388195       -10.5633
  42   2.0000      -0.378090       -10.2884
  43   2.0000      -0.362554        -9.8656
  44   2.0000      -0.361108        -9.8262
  45   2.0000      -0.354140        -9.6366
  46   2.0000      -0.345940        -9.4135
  47   2.0000      -0.338833        -9.2201
  48   2.0000      -0.331930        -9.0323
  49   2.0000      -0.325675        -8.8621
  50   2.0000      -0.317176        -8.6308
  51   2.0000      -0.315181        -8.5765
  52   2.0000      -0.297902        -8.1063
  53   2.0000      -0.291331        -7.9275
  54   2.0000      -0.289729        -7.8839
  55   2.0000      -0.282652        -7.6914
  56   2.0000      -0.267126        -7.2689
  57   2.0000      -0.260770        -7.0959
  58   2.0000      -0.256063        -6.9678
  59   2.0000      -0.252453        -6.8696
  60   2.0000      -0.218670        -5.9503
  61   2.0000      -0.206149        -5.6096
  62   2.0000      -0.110286        -3.0010
  63   0.0000      -0.078001        -2.1225
  64   0.0000       0.002877         0.0783
  65   0.0000       0.014213         0.3868
  66   0.0000       0.028895         0.7863
  67   0.0000       0.031011         0.8438

MULLIKEN ATOMIC CHARGES
-----------------------
   0 C :   -0.180117
   1 C :   -0.396988
   2 C :   -0.169882
   3 C :   -0.187350
   4 H :    0.123653
   5 H :    0.138933
   6 C :    0.309395
   7 C :    0.254395
   8 N :   -0.431344
   9 N :   -0.427398
  10 H :    0.193702
  11 H :    0.219836
  12 H :    0.157855
  13 H :    0.222879
  14 H :    0.195520
  15 O :   -0.284589
  16 F :   -0.095445
  17 C :   -0.049356
  18 H :    0.068995
  19 H :    0.057395
  20 C :   -0.236466
  21 C :   -0.225610
  22 H :    0.123350
  23 H :    0.091295
  24 H :    0.107673
  25 H :    0.101139
  26 C :   -0.259067
  27 H :    0.061874
  28 H :    0.073149
  29 C :   -0.179853
  30 H :    0.069580
  31 H :    0.110026
  32 C :   -0.119492
  33 H :    0.085159
  34 H :    0.093828
  35 H :    0.085846
  36 H :    0.127898
  37 H :    0.085713
  38 H :    0.083869
Sum of atomic charges:   -0.0000000

LOEWDIN ATOMIC CHARGES
----------------------
   0 C :   -0.289899
   1 C :   -0.275595
   2 C :   -0.267077
   3 C :   -0.233950
   4 H :    0.153420
   5 H :    0.155680
   6 C :   -0.524918
   7 C :   -0.479146
   8 N :   -0.020897
   9 N :   -0.011677
  10 H :    0.154284
  11 H :    0.149967
  12 H :    0.114693
  13 H :    0.167957
  14 H :    0.153417
  15 O :    0.124083
  16 F :    0.359886
  17 C :   -0.263217
  18 H :    0.144226
  19 H :    0.124656
  20 C :   -0.273785
  21 C :   -0.270030
  22 H :    0.142711
  23 H :    0.141150
  24 H :    0.140690
  25 H :    0.142989
  26 C :   -0.271861
  27 H :    0.125173
  28 H :    0.137229
  29 C :   -0.277343
  30 H :    0.134715
  31 H :    0.142525
  32 C :   -0.271219
  33 H :    0.136103
  34 H :    0.134390
  35 H :    0.136634
  36 H :    0.140825
  37 H :    0.138137
  38 H :    0.135077

  Mayer bond orders larger than 0.100000
B(  0-C ,  1-C ) :   1.0735 B(  0-C , 17-C ) :   0.9609 B(  0-C , 18-H ) :   0.9487
B(  0-C , 19-H ) :   0.9537 B(  1-C ,  7-C ) :   1.6526 B(  1-C , 12-H ) :   0.9778
B(  2-C ,  3-C ) :   0.9715 B(  2-C , 21-C ) :   0.9947 B(  2-C , 24-H ) :   0.9538
B(  2-C , 25-H ) :   0.9413 B(  3-C ,  4-H ) :   0.9220 B(  3-C ,  5-H ) :   0.9628
B(  3-C ,  6-C ) :   1.0106 B(  6-C , 15-O ) :   1.9824 B(  6-C , 16-F ) :   1.0869
B(  7-C ,  8-N ) :   1.1523 B(  7-C ,  9-N ) :   1.1902 B(  8-N , 13-H ) :   0.9119
B(  8-N , 14-H ) :   0.9225 B(  9-N , 10-H ) :   0.9260 B(  9-N , 11-H ) :   0.8939
B( 17-C , 26-C ) :   1.0420 B( 17-C , 27-H ) :   0.9306 B( 17-C , 28-H ) :   0.9447
B( 20-C , 21-C ) :   0.9978 B( 20-C , 32-C ) :   1.0041 B( 20-C , 35-H ) :   0.9410
B( 20-C , 36-H ) :   0.9573 B( 21-C , 22-H ) :   0.9554 B( 21-C , 23-H ) :   0.9453
B( 26-C , 29-C ) :   1.0042 B( 26-C , 30-H ) :   0.9406 B( 26-C , 31-H ) :   0.9734
B( 29-C , 32-C ) :   1.0064 B( 29-C , 33-H ) :   0.9484 B( 29-C , 34-H ) :   0.9571
B( 32-C , 37-H ) :   0.9486 B( 32-C , 38-H ) :   0.9493

Dispersion correction           -0.044806316
FINAL SINGLE POINT ENERGY      -755.016611187465

DIPOLE MOMENT
-------------
                                X             Y             Z
Electronic contribution:     14.43591       8.67857       3.76206
Nuclear contribution   :    -13.61164      -8.17416      -5.14068
                        -----------------------------------------
Total Dipole Moment    :      0.82427       0.50441      -1.37861
                        -----------------------------------------
Magnitude (a.u.)       :      1.68357
Magnitude (Debye)      :      4.27931

Rotational constants in cm-1:     0.019858     0.013613     0.009401
Rotational constants in MHz :   595.331791   408.100423   281.843625

                             ****ORCA TERMINATED NORMALLY****
TOTAL RUN TIME: 0 days 0 hours 0 minutes 25 seconds 569 msec
