                         Program Version 5.0.0 -  RELEASE  -
|  1> !PBE D3BJ RIJCOSX def2-TZVP def2/J TightSCF xyzfile
|  2>
|  3> *xyzfile 0 1 D6.xyz
|  4>
|  5> %MaxCore 64000
|  6>
|  7> %pal nprocs 18
|  8> end
|  9>
| 10> %scf
| 11>   MaxIter 150
| 12> end
| 13>
| 14>
| 15>                          ****END OF INPUT****

CARTESIAN COORDINATES (ANGSTROEM)
---------------------------------
  C      3.913853   -1.658291    3.015134
  N      5.039266   -0.901154    2.492821
  C      4.084215    1.742081   -2.114724
  C      4.265245    2.500518   -0.795890
  H      4.868534    3.392674   -0.981134
  H      3.307640    2.824571   -0.387809
  C      4.982240    1.650257    0.247422
  C      6.210384   -1.417261    2.178244
  N      6.535913   -2.677122    2.556078
  C      7.076754   -0.700820    1.478906
  H      7.954643   -1.121554    1.207554
  H      6.756161    0.106637    0.960278
  H      4.842168    0.017609    2.115191
  H      5.993876   -3.126918    3.282784
  H      7.498441   -2.975482    2.468776
  O      4.368065    1.389270    1.313706
  F      6.128919    1.233512   -0.045620
  C      3.139159   -2.376572    1.910609
  H      3.267235   -0.939401    3.520693
  H      4.247195   -2.355095    3.790065
  C      1.997274    0.430918   -1.399218
  C      3.412746    0.376886   -1.965497
  H      4.047407   -0.246590   -1.326706
  H      3.390774   -0.118719   -2.942839
  H      5.068475    1.598504   -2.565728
  H      3.503356    2.363939   -2.804565
  C      2.399946   -1.389579    1.009490
  H      2.440750   -3.087118    2.362976
  H      3.844475   -2.970462    1.318677
  C      2.070177   -1.936705   -0.372401
  H      1.481611   -1.061542    1.509912
  H      3.008628   -0.490001    0.897451
  C      1.322238   -0.935775   -1.256413
  H      1.472747   -2.850902   -0.283997
  H      3.003539   -2.234041   -0.862535
  H      1.376444    1.058920   -2.047420
  H      2.015341    0.929780   -0.426535
  H      0.316648   -0.787213   -0.848278
  H      1.185611   -1.379252   -2.248613

 Total Charge           Charge          ....    0
 Multiplicity           Mult            ....    1
 Number of Electrons    NEL             ....  126
 Basis Dimension        Dim             ....  634

ORBITAL ENERGIES
----------------

  NO   OCC          E(Eh)            E(eV)
   0   2.0000     -24.337650      -662.2611
   1   2.0000     -18.774656      -510.8844
   2   2.0000     -13.964893      -380.0041
   3   2.0000     -13.950333      -379.6079
   4   2.0000     -10.066205      -273.9154
   5   2.0000      -9.917448      -269.8675
   6   2.0000      -9.903284      -269.4821
   7   2.0000      -9.899087      -269.3679
   8   2.0000      -9.897549      -269.3260
   9   2.0000      -9.887762      -269.0597
  10   2.0000      -9.880193      -268.8537
  11   2.0000      -9.876423      -268.7511
  12   2.0000      -9.871008      -268.6038
  13   2.0000      -9.866037      -268.4685
  14   2.0000      -9.865383      -268.4507
  15   2.0000      -9.765576      -265.7348
  16   2.0000      -1.232133       -33.5280
  17   2.0000      -0.970285       -26.4028
  18   2.0000      -0.862127       -23.4597
  19   2.0000      -0.784923       -21.3588
  20   2.0000      -0.761137       -20.7116
  21   2.0000      -0.731828       -19.9141
  22   2.0000      -0.703023       -19.1302
  23   2.0000      -0.669377       -18.2147
  24   2.0000      -0.645045       -17.5526
  25   2.0000      -0.612688       -16.6721
  26   2.0000      -0.606531       -16.5045
  27   2.0000      -0.575575       -15.6622
  28   2.0000      -0.549649       -14.9567
  29   2.0000      -0.535138       -14.5619
  30   2.0000      -0.515953       -14.0398
  31   2.0000      -0.507120       -13.7994
  32   2.0000      -0.502032       -13.6610
  33   2.0000      -0.491835       -13.3835
  34   2.0000      -0.468599       -12.7512
  35   2.0000      -0.455780       -12.4024
  36   2.0000      -0.436144       -11.8681
  37   2.0000      -0.433187       -11.7876
  38   2.0000      -0.424313       -11.5462
  39   2.0000      -0.412850       -11.2342
  40   2.0000      -0.406698       -11.0668
  41   2.0000      -0.388301       -10.5662
  42   2.0000      -0.383475       -10.4349
  43   2.0000      -0.376424       -10.2430
  44   2.0000      -0.368919       -10.0388
  45   2.0000      -0.363552        -9.8927
  46   2.0000      -0.349332        -9.5058
  47   2.0000      -0.341515        -9.2931
  48   2.0000      -0.336949        -9.1688
  49   2.0000      -0.329932        -8.9779
  50   2.0000      -0.322493        -8.7755
  51   2.0000      -0.311515        -8.4768
  52   2.0000      -0.309801        -8.4301
  53   2.0000      -0.300855        -8.1867
  54   2.0000      -0.297464        -8.0944
  55   2.0000      -0.289856        -7.8874
  56   2.0000      -0.284223        -7.7341
  57   2.0000      -0.274600        -7.4722
  58   2.0000      -0.272459        -7.4140
  59   2.0000      -0.268517        -7.3067
  60   2.0000      -0.253381        -6.8948
  61   2.0000      -0.192172        -5.2293
  62   2.0000      -0.112524        -3.0619
  63   0.0000      -0.083873        -2.2823
  64   0.0000       0.004263         0.1160
  65   0.0000       0.017949         0.4884
  66   0.0000       0.023621         0.6428
  67   0.0000       0.027100         0.7374

MULLIKEN ATOMIC CHARGES
-----------------------
   0 C :   -0.168963
   1 N :   -0.232512
   2 C :   -0.169206
   3 C :   -0.190622
   4 H :    0.129260
   5 H :    0.136547
   6 C :    0.327867
   7 C :    0.280726
   8 N :   -0.441264
   9 C :   -0.531976
  10 H :    0.063289
  11 H :    0.085501
  12 H :    0.221300
  13 H :    0.202146
  14 H :    0.221516
  15 O :   -0.335062
  16 F :   -0.046572
  17 C :   -0.055692
  18 H :    0.100426
  19 H :    0.092452
  20 C :   -0.236747
  21 C :   -0.235590
  22 H :    0.131096
  23 H :    0.094235
  24 H :    0.114907
  25 H :    0.102597
  26 C :   -0.284471
  27 H :    0.074839
  28 H :    0.090921
  29 C :   -0.182934
  30 H :    0.075947
  31 H :    0.101227
  32 C :   -0.121136
  33 H :    0.090076
  34 H :    0.104814
  35 H :    0.089256
  36 H :    0.125029
  37 H :    0.088098
  38 H :    0.088675
Sum of atomic charges:   -0.0000000

LOEWDIN ATOMIC CHARGES
----------------------
   0 C :   -0.302161
   1 N :    0.139104
   2 C :   -0.264027
   3 C :   -0.230789
   4 H :    0.155756
   5 H :    0.154361
   6 C :   -0.508715
   7 C :   -0.479449
   8 N :   -0.017627
   9 C :   -0.367312
  10 H :    0.092502
  11 H :    0.086234
  12 H :    0.163588
  13 H :    0.153479
  14 H :    0.170111
  15 O :    0.099871
  16 F :    0.381427
  17 C :   -0.272885
  18 H :    0.136695
  19 H :    0.123730
  20 C :   -0.273943
  21 C :   -0.269256
  22 H :    0.144005
  23 H :    0.142224
  24 H :    0.143672
  25 H :    0.143680
  26 C :   -0.275725
  27 H :    0.131699
  28 H :    0.141839
  29 C :   -0.275441
  30 H :    0.136412
  31 H :    0.139519
  32 C :   -0.270134
  33 H :    0.137318
  34 H :    0.137583
  35 H :    0.137667
  36 H :    0.139648
  37 H :    0.138450
  38 H :    0.136888

  Mayer bond orders larger than 0.100000
B(  0-C ,  1-N ) :   1.0302 B(  0-C , 17-C ) :   0.9440 B(  0-C , 18-H ) :   0.9613
B(  0-C , 19-H ) :   0.9663 B(  1-N ,  7-C ) :   1.2630 B(  1-N , 12-H ) :   0.8553
B(  2-C ,  3-C ) :   0.9734 B(  2-C , 21-C ) :   0.9967 B(  2-C , 24-H ) :   0.9517
B(  2-C , 25-H ) :   0.9422 B(  3-C ,  4-H ) :   0.9232 B(  3-C ,  5-H ) :   0.9613
B(  3-C ,  6-C ) :   1.0095 B(  6-C , 15-O ) :   1.9150 B(  6-C , 16-F ) :   1.1703
B(  7-C ,  8-N ) :   1.1459 B(  7-C ,  9-C ) :   1.6350 B(  8-N , 13-H ) :   0.9147
B(  8-N , 14-H ) :   0.9213 B(  9-C , 10-H ) :   0.9851 B(  9-C , 11-H ) :   1.0055
B( 12-H , 15-O ) :   0.1313 B( 17-C , 26-C ) :   1.0129 B( 17-C , 27-H ) :   0.9314
B( 17-C , 28-H ) :   0.9445 B( 20-C , 21-C ) :   0.9932 B( 20-C , 32-C ) :   1.0009
B( 20-C , 35-H ) :   0.9413 B( 20-C , 36-H ) :   0.9589 B( 21-C , 22-H ) :   0.9549
B( 21-C , 23-H ) :   0.9458 B( 26-C , 29-C ) :   1.0051 B( 26-C , 30-H ) :   0.9394
B( 26-C , 31-H ) :   0.9798 B( 29-C , 32-C ) :   1.0062 B( 29-C , 33-H ) :   0.9497
B( 29-C , 34-H ) :   0.9568 B( 32-C , 37-H ) :   0.9500 B( 32-C , 38-H ) :   0.9494

Dispersion correction           -0.044635095
FINAL SINGLE POINT ENERGY      -755.018870537966

DIPOLE MOMENT
-------------
                                X             Y             Z
Electronic contribution:     12.45077       8.50069       4.44211
Nuclear contribution   :    -13.25777      -8.13937      -5.31678
                        -----------------------------------------
Total Dipole Moment    :     -0.80700       0.36132      -0.87467
                        -----------------------------------------
Magnitude (a.u.)       :      1.24372
Magnitude (Debye)      :      3.16129

Rotational constants in cm-1:     0.020021     0.013636     0.009443
Rotational constants in MHz :   600.208195   408.782966   283.102361

                             ****ORCA TERMINATED NORMALLY****
TOTAL RUN TIME: 0 days 0 hours 0 minutes 33 seconds 353 msec
