                         Program Version 5.0.0 -  RELEASE  -
|  1> !wB97X-D3 RIJCOSX def2-SVPD def2/J TightSCF CPCM(Water)
|  2> *xyz -1 1
|  3> C         -0.29041        0.95134       -5.15342
|  4> C         -0.05517        1.61942       -3.78858
|  5> H          0.04501        0.86230       -3.00301
|  6> H         -0.92294        2.23033       -3.51703
|  7> C          1.22302        2.46987       -3.75691
|  8> H          1.11470        3.25807       -4.53300
|  9> H          1.23773        3.01124       -2.79216
| 10> O          2.35381        1.71203       -3.93448
| 11> H         -0.38575        1.70447       -5.90748
| 12> H         -1.18723        0.36894       -5.11561
| 13> H          0.53806        0.31571       -5.38692
| 14> *
| 15>
| 16> %MaxCore 64000
| 17>
| 18> %pal nprocs 18
| 19> end
| 20>
| 21> %scf
| 22>   MaxIter 150
| 23> end
| 24>
| 25>
| 26>                          ****END OF INPUT****

CARTESIAN COORDINATES (ANGSTROEM)
---------------------------------
  C     -0.290410    0.951340   -5.153420
  C     -0.055170    1.619420   -3.788580
  H      0.045010    0.862300   -3.003010
  H     -0.922940    2.230330   -3.517030
  C      1.223020    2.469870   -3.756910
  H      1.114700    3.258070   -4.533000
  H      1.237730    3.011240   -2.792160
  O      2.353810    1.712030   -3.934480
  H     -0.385750    1.704470   -5.907480
  H     -1.187230    0.368940   -5.115610
  H      0.538060    0.315710   -5.386920

 Total Charge           Charge          ....   -1
 Multiplicity           Mult            ....    1
 Number of Electrons    NEL             ....   34
 Basis Dimension        Dim             ....  139

ORBITAL ENERGIES
----------------

  NO   OCC          E(Eh)            E(eV)
   0   2.0000     -19.118349      -520.2367
   1   2.0000     -10.283735      -279.8346
   2   2.0000     -10.256106      -279.0828
   3   2.0000     -10.255362      -279.0626
   4   2.0000      -0.987752       -26.8781
   5   2.0000      -0.849337       -23.1116
   6   2.0000      -0.736564       -20.0429
   7   2.0000      -0.640219       -17.4212
   8   2.0000      -0.532427       -14.4881
   9   2.0000      -0.527662       -14.3584
  10   2.0000      -0.482500       -13.1295
  11   2.0000      -0.450035       -12.2461
  12   2.0000      -0.421588       -11.4720
  13   2.0000      -0.413279       -11.2459
  14   2.0000      -0.399388       -10.8679
  15   2.0000      -0.270121        -7.3504
  16   2.0000      -0.269109        -7.3228
  17   0.0000       0.104126         2.8334
  18   0.0000       0.127043         3.4570
  19   0.0000       0.135550         3.6885
  20   0.0000       0.146120         3.9761
  21   0.0000       0.174806         4.7567

MULLIKEN ATOMIC CHARGES
-----------------------
   0 C :    0.591018
   1 C :   -0.415216
   2 H :   -0.090813
   3 H :   -0.078387
   4 C :    0.414743
   5 H :   -0.115707
   6 H :   -0.166131
   7 O :   -0.969131
   8 H :   -0.054157
   9 H :   -0.046168
  10 H :   -0.070052
Sum of atomic charges:   -1.0000000

LOEWDIN ATOMIC CHARGES
----------------------
   0 C :    0.101467
   1 C :   -0.104251
   2 H :    0.006742
   3 H :    0.007522
   4 C :   -0.229361
   5 H :   -0.010554
   6 H :   -0.017169
   7 O :   -0.665522
   8 H :   -0.023213
   9 H :   -0.027341
  10 H :   -0.038319

  Mayer bond orders larger than 0.100000
B(  0-C ,  1-C ) :   1.2435 B(  0-C ,  8-H ) :   0.8311 B(  0-C ,  9-H ) :   0.8272
B(  0-C , 10-H ) :   0.8522 B(  1-C ,  2-H ) :   0.9624 B(  1-C ,  3-H ) :   0.9807
B(  1-C ,  4-C ) :   1.0796 B(  1-C ,  6-H ) :   0.1091 B(  1-C ,  8-H ) :   0.1638
B(  1-C ,  9-H ) :   0.1684 B(  1-C , 10-H ) :   0.1823 B(  2-H ,  4-C ) :   0.1188
B(  4-C ,  5-H ) :   0.9364 B(  4-C ,  6-H ) :   0.9371 B(  4-C ,  7-O ) :   1.2684

Dispersion correction           -0.001942097
FINAL SINGLE POINT ENERGY      -193.668228408810

DIPOLE MOMENT
-------------
                                X             Y             Z
Electronic contribution:      1.97943       0.14990       0.66808
Nuclear contribution   :     -4.97104      -0.06484      -1.04325
                        -----------------------------------------
Total Dipole Moment    :     -2.99161       0.08507      -0.37517
                        -----------------------------------------
Magnitude (a.u.)       :      3.01624
Magnitude (Debye)      :      7.66668

Rotational constants in cm-1:     0.508668     0.174500     0.148765
Rotational constants in MHz : 15249.486055  5231.367342  4459.875680

                             ****ORCA TERMINATED NORMALLY****
TOTAL RUN TIME: 0 days 0 hours 0 minutes 7 seconds 289 msec
