                         Program Version 5.0.0 -  RELEASE  -
|  1> !wB97X-D3 RIJCOSX def2-SVPD def2/J TightSCF CPCM(Water)
|  2> *xyz 1 1
|  3> C          1.63556       -1.67040       -5.29211
|  4> C          0.33848       -1.50091       -4.50540
|  5> N          2.48451       -0.50741       -5.14039
|  6> C         -0.68487       -0.52803       -5.09989
|  7> H          1.39834       -1.82924       -6.35259
|  8> H          2.15586       -2.56540       -4.93209
|  9> C          3.45115       -0.14953       -5.95259
| 10> N          3.92267        1.08956       -5.85071
| 11> N          3.96616       -1.00618       -6.86788
| 12> H          3.52139       -1.90647       -6.99527
| 13> H          4.44482       -0.62347       -7.67035
| 14> H          2.25200        0.24080       -4.49879
| 15> H          3.46428        1.64078       -5.13639
| 16> H          4.83447        1.31375       -6.22465
| 17> H          0.59489       -1.21158       -3.48231
| 18> H         -0.12653       -2.48766       -4.43418
| 19> H         -0.92267       -0.82721       -6.09931
| 20> H         -0.27317        0.45953       -5.11162
| 21> H         -1.57350       -0.53693       -4.50394
| 22> *
| 23>
| 24> %MaxCore 64000
| 25>
| 26> %pal nprocs 18
| 27> end
| 28>
| 29> %scf
| 30>   MaxIter 150
| 31> end
| 32>
| 33>
| 34>                          ****END OF INPUT****

CARTESIAN COORDINATES (ANGSTROEM)
---------------------------------
  C      1.635560   -1.670400   -5.292110
  C      0.338480   -1.500910   -4.505400
  N      2.484510   -0.507410   -5.140390
  C     -0.684870   -0.528030   -5.099890
  H      1.398340   -1.829240   -6.352590
  H      2.155860   -2.565400   -4.932090
  C      3.451150   -0.149530   -5.952590
  N      3.922670    1.089560   -5.850710
  N      3.966160   -1.006180   -6.867880
  H      3.521390   -1.906470   -6.995270
  H      4.444820   -0.623470   -7.670350
  H      2.252000    0.240800   -4.498790
  H      3.464280    1.640780   -5.136390
  H      4.834470    1.313750   -6.224650
  H      0.594890   -1.211580   -3.482310
  H     -0.126530   -2.487660   -4.434180
  H     -0.922670   -0.827210   -6.099310
  H     -0.273170    0.459530   -5.111620
  H     -1.573500   -0.536930   -4.503940

 Total Charge           Charge          ....    1
 Multiplicity           Mult            ....    1
 Number of Electrons    NEL             ....   56
 Basis Dimension        Dim             ....  236

ORBITAL ENERGIES
----------------

  NO   OCC          E(Eh)            E(eV)
   0   2.0000     -14.493700      -394.3936
   1   2.0000     -14.484598      -394.1459
   2   2.0000     -14.484000      -394.1297
   3   2.0000     -10.454329      -284.4768
   4   2.0000     -10.340178      -281.3705
   5   2.0000     -10.295761      -280.1619
   6   2.0000     -10.273999      -279.5697
   7   2.0000      -1.158163       -31.5152
   8   2.0000      -1.044228       -28.4149
   9   2.0000      -1.025841       -27.9146
  10   2.0000      -0.905875       -24.6501
  11   2.0000      -0.821586       -22.3565
  12   2.0000      -0.758180       -20.6311
  13   2.0000      -0.726183       -19.7604
  14   2.0000      -0.706510       -19.2251
  15   2.0000      -0.674289       -18.3483
  16   2.0000      -0.616489       -16.7755
  17   2.0000      -0.609713       -16.5911
  18   2.0000      -0.595480       -16.2038
  19   2.0000      -0.585116       -15.9218
  20   2.0000      -0.541161       -14.7257
  21   2.0000      -0.534336       -14.5400
  22   2.0000      -0.508820       -13.8457
  23   2.0000      -0.456786       -12.4298
  24   2.0000      -0.442992       -12.0544
  25   2.0000      -0.440077       -11.9751
  26   2.0000      -0.400940       -10.9101
  27   2.0000      -0.377922       -10.2838
  28   0.0000       0.079759         2.1703
  29   0.0000       0.085843         2.3359
  30   0.0000       0.109890         2.9903
  31   0.0000       0.112852         3.0709
  32   0.0000       0.128735         3.5031

MULLIKEN ATOMIC CHARGES
-----------------------
   0 C :    0.425783
   1 C :   -0.345523
   2 N :   -0.515779
   3 C :    0.618821
   4 H :    0.032111
   5 H :   -0.104323
   6 C :    1.160383
   7 N :   -0.096097
   8 N :   -0.131863
   9 H :    0.041083
  10 H :   -0.016886
  11 H :   -0.053482
  12 H :    0.107774
  13 H :   -0.040799
  14 H :   -0.015601
  15 H :   -0.021006
  16 H :    0.010705
  17 H :   -0.028693
  18 H :   -0.026606
Sum of atomic charges:    1.0000000

LOEWDIN ATOMIC CHARGES
----------------------
   0 C :    0.061723
   1 C :   -0.059042
   2 N :    0.043758
   3 C :    0.128250
   4 H :    0.043110
   5 H :    0.041425
   6 C :   -0.030907
   7 N :    0.263533
   8 N :    0.275969
   9 H :    0.019365
  10 H :    0.042154
  11 H :    0.063920
  12 H :    0.041780
  13 H :    0.050286
  14 H :    0.029262
  15 H :    0.029480
  16 H :   -0.012728
  17 H :   -0.018596
  18 H :   -0.012743

  Mayer bond orders larger than 0.100000
B(  0-C ,  1-C ) :   1.1888 B(  0-C ,  2-N ) :   0.8778 B(  0-C ,  4-H ) :   0.8508
B(  0-C ,  5-H ) :   0.9538 B(  0-C , 11-H ) :  -0.1146 B(  0-C , 14-H ) :   0.1369
B(  0-C , 15-H ) :   0.1904 B(  1-C ,  3-C ) :   1.2623 B(  1-C , 14-H ) :   0.9004
B(  1-C , 15-H ) :   0.8740 B(  1-C , 16-H ) :   0.1707 B(  1-C , 17-H ) :   0.2066
B(  1-C , 18-H ) :   0.2111 B(  2-N ,  4-H ) :   0.1581 B(  2-N ,  5-H ) :   0.1254
B(  2-N ,  6-C ) :   1.0791 B(  2-N ,  7-N ) :   0.2939 B(  2-N ,  8-N ) :   0.1863
B(  2-N , 11-H ) :   1.1820 B(  3-C , 16-H ) :   0.8300 B(  3-C , 17-H ) :   0.8303
B(  3-C , 18-H ) :   0.7944 B(  6-C ,  7-N ) :   0.9925 B(  6-C ,  8-N ) :   0.9315
B(  6-C , 11-H ) :  -0.2122 B(  7-N ,  8-N ) :   0.1373 B(  7-N , 12-H ) :   1.0156
B(  7-N , 13-H ) :   1.2058 B(  8-N ,  9-H ) :   1.0072 B(  8-N , 10-H ) :   1.1966
B(  9-H , 10-H ) :  -0.1422 B( 12-H , 13-H ) :  -0.1335

Dispersion correction           -0.004931757
FINAL SINGLE POINT ENERGY      -323.510245606817

DIPOLE MOMENT
-------------
                                X             Y             Z
Electronic contribution:      7.72166       1.93873      -1.70286
Nuclear contribution   :     -5.91327      -1.13589       1.03073
                        -----------------------------------------
Total Dipole Moment    :      1.80839       0.80284      -0.67214
                        -----------------------------------------
Magnitude (a.u.)       :      2.08964
Magnitude (Debye)      :      5.31145

Rotational constants in cm-1:     0.176161     0.043658     0.038822
Rotational constants in MHz :  5281.161077  1308.843263  1163.840625

                             ****ORCA TERMINATED NORMALLY****
TOTAL RUN TIME: 0 days 0 hours 0 minutes 17 seconds 950 msec
