                         Program Version 5.0.0 -  RELEASE  -
|  1> !wB97X-D3 RIJCOSX def2-SVPD def2/J TightSCF CPCM(Water)
|  2> *xyz 0 1
|  3> C         -0.29041        0.95134       -5.15342
|  4> C         -0.05517        1.61942       -3.78858
|  5> H          0.04501        0.86230       -3.00301
|  6> H         -0.92294        2.23033       -3.51703
|  7> C          1.22302        2.46987       -3.75691
|  8> H          1.11470        3.25807       -4.53300
|  9> H          1.23773        3.01124       -2.79216
| 10> F          2.35381        1.71203       -3.93448
| 11> H         -0.38575        1.70447       -5.90748
| 12> H         -1.18723        0.36894       -5.11561
| 13> H          0.53806        0.31571       -5.38692
| 14> *
| 15>
| 16> %MaxCore 64000
| 17>
| 18> %pal nprocs 18
| 19> end
| 20>
| 21> %scf
| 22>   MaxIter 150
| 23> end
| 24>
| 25>
| 26>                          ****END OF INPUT****

CARTESIAN COORDINATES (ANGSTROEM)
---------------------------------
  C     -0.290410    0.951340   -5.153420
  C     -0.055170    1.619420   -3.788580
  H      0.045010    0.862300   -3.003010
  H     -0.922940    2.230330   -3.517030
  C      1.223020    2.469870   -3.756910
  H      1.114700    3.258070   -4.533000
  H      1.237730    3.011240   -2.792160
  F      2.353810    1.712030   -3.934480
  H     -0.385750    1.704470   -5.907480
  H     -1.187230    0.368940   -5.115610
  H      0.538060    0.315710   -5.386920

 Total Charge           Charge          ....    0
 Multiplicity           Mult            ....    1
 Number of Electrons    NEL             ....   34
 Basis Dimension        Dim             ....  139

ORBITAL ENERGIES
----------------

  NO   OCC          E(Eh)            E(eV)
   0   2.0000     -24.796795      -674.7551
   1   2.0000     -10.361758      -281.9578
   2   2.0000     -10.287823      -279.9459
   3   2.0000     -10.269743      -279.4539
   4   2.0000      -1.305448       -35.5231
   5   2.0000      -0.892273       -24.2800
   6   2.0000      -0.792396       -21.5622
   7   2.0000      -0.699088       -19.0231
   8   2.0000      -0.614966       -16.7341
   9   2.0000      -0.597617       -16.2620
  10   2.0000      -0.571793       -15.5593
  11   2.0000      -0.530315       -14.4306
  12   2.0000      -0.498997       -13.5784
  13   2.0000      -0.470682       -12.8079
  14   2.0000      -0.440774       -11.9941
  15   2.0000      -0.418343       -11.3837
  16   2.0000      -0.417430       -11.3588
  17   0.0000       0.099457         2.7064
  18   0.0000       0.125302         3.4097
  19   0.0000       0.132199         3.5973
  20   0.0000       0.148928         4.0525
  21   0.0000       0.176702         4.8083

MULLIKEN ATOMIC CHARGES
-----------------------
   0 C :    0.528215
   1 C :   -0.562677
   2 H :   -0.035999
   3 H :   -0.020491
   4 C :    0.648399
   5 H :    0.020484
   6 H :   -0.019603
   7 F :   -0.481091
   8 H :   -0.028236
   9 H :   -0.024015
  10 H :   -0.024986
Sum of atomic charges:    0.0000000

LOEWDIN ATOMIC CHARGES
----------------------
   0 C :    0.119235
   1 C :   -0.063190
   2 H :    0.024428
   3 H :    0.031337
   4 C :    0.101627
   5 H :    0.041693
   6 H :    0.036552
   7 F :   -0.239721
   8 H :   -0.015267
   9 H :   -0.017358
  10 H :   -0.019335

  Mayer bond orders larger than 0.100000
B(  0-C ,  1-C ) :   1.2555 B(  0-C ,  8-H ) :   0.8458 B(  0-C ,  9-H ) :   0.8474
B(  0-C , 10-H ) :   0.8539 B(  1-C ,  2-H ) :   0.9896 B(  1-C ,  3-H ) :   0.9919
B(  1-C ,  4-C ) :   1.1697 B(  1-C ,  8-H ) :   0.1574 B(  1-C ,  9-H ) :   0.1618
B(  1-C , 10-H ) :   0.1664 B(  4-C ,  5-H ) :   0.9329 B(  4-C ,  6-H ) :   0.9363
B(  4-C ,  7-F ) :   0.6923

Dispersion correction           -0.001921977
FINAL SINGLE POINT ENERGY      -218.171093453548

DIPOLE MOMENT
-------------
                                X             Y             Z
Electronic contribution:      6.00182       0.51914       1.44139
Nuclear contribution   :     -6.82889      -0.09322      -1.32039
                        -----------------------------------------
Total Dipole Moment    :     -0.82706       0.42593       0.12100
                        -----------------------------------------
Magnitude (a.u.)       :      0.93813
Magnitude (Debye)      :      2.38454

Rotational constants in cm-1:     0.494282     0.164406     0.140369
Rotational constants in MHz : 14818.207649  4928.760399  4208.156468

                             ****ORCA TERMINATED NORMALLY****
TOTAL RUN TIME: 0 days 0 hours 0 minutes 7 seconds 71 msec
