                         Program Version 5.0.0 -  RELEASE  -
|  1> !wB97X-D3 RIJCOSX def2-SVPD def2/J TightSCF CPCM(Water)
|  2> *xyz 0 1
|  3> C          1.63556       -1.67040       -5.29211
|  4> C          0.33848       -1.50091       -4.50540
|  5> C          2.48451       -0.50741       -5.14039
|  6> C         -0.68487       -0.52803       -5.09989
|  7> H          1.39834       -1.82924       -6.35259
|  8> H          2.15586       -2.56540       -4.93209
|  9> C          3.45115       -0.14953       -5.95259
| 10> N          3.92267        1.08956       -5.85071
| 11> N          3.96616       -1.00618       -6.86788
| 12> H          3.52139       -1.90647       -6.99527
| 13> H          4.44482       -0.62347       -7.67035
| 14> H          2.25200        0.24080       -4.49879
| 15> H          3.46428        1.64078       -5.13639
| 16> H          4.83447        1.31375       -6.22465
| 17> H          0.59489       -1.21158       -3.48231
| 18> H         -0.12653       -2.48766       -4.43418
| 19> H         -0.92267       -0.82721       -6.09931
| 20> H         -0.27317        0.45953       -5.11162
| 21> H         -1.57350       -0.53693       -4.50394
| 22> *
| 23>
| 24> %MaxCore 64000
| 25>
| 26> %pal nprocs 18
| 27> end
| 28>
| 29> %scf
| 30>   MaxIter 150
| 31> end
| 32>
| 33>
| 34>                          ****END OF INPUT****

CARTESIAN COORDINATES (ANGSTROEM)
---------------------------------
  C      1.635560   -1.670400   -5.292110
  C      0.338480   -1.500910   -4.505400
  C      2.484510   -0.507410   -5.140390
  C     -0.684870   -0.528030   -5.099890
  H      1.398340   -1.829240   -6.352590
  H      2.155860   -2.565400   -4.932090
  C      3.451150   -0.149530   -5.952590
  N      3.922670    1.089560   -5.850710
  N      3.966160   -1.006180   -6.867880
  H      3.521390   -1.906470   -6.995270
  H      4.444820   -0.623470   -7.670350
  H      2.252000    0.240800   -4.498790
  H      3.464280    1.640780   -5.136390
  H      4.834470    1.313750   -6.224650
  H      0.594890   -1.211580   -3.482310
  H     -0.126530   -2.487660   -4.434180
  H     -0.922670   -0.827210   -6.099310
  H     -0.273170    0.459530   -5.111620
  H     -1.573500   -0.536930   -4.503940

 Total Charge           Charge          ....    0
 Multiplicity           Mult            ....    1
 Number of Electrons    NEL             ....   56
 Basis Dimension        Dim             ....  236

ORBITAL ENERGIES
----------------

  NO   OCC          E(Eh)            E(eV)
   0   2.0000     -14.432713      -392.7341
   1   2.0000     -14.427244      -392.5853
   2   2.0000     -10.332130      -281.1515
   3   2.0000     -10.273598      -279.5588
   4   2.0000     -10.268323      -279.4153
   5   2.0000     -10.263766      -279.2913
   6   2.0000     -10.212934      -277.9081
   7   2.0000      -1.065046       -28.9814
   8   2.0000      -0.972126       -26.4529
   9   2.0000      -0.902220       -24.5507
  10   2.0000      -0.835350       -22.7310
  11   2.0000      -0.768746       -20.9186
  12   2.0000      -0.694622       -18.9016
  13   2.0000      -0.674916       -18.3654
  14   2.0000      -0.631492       -17.1838
  15   2.0000      -0.613551       -16.6956
  16   2.0000      -0.559347       -15.2206
  17   2.0000      -0.545564       -14.8456
  18   2.0000      -0.541319       -14.7300
  19   2.0000      -0.515800       -14.0356
  20   2.0000      -0.488249       -13.2859
  21   2.0000      -0.475792       -12.9470
  22   2.0000      -0.462214       -12.5775
  23   2.0000      -0.425371       -11.5749
  24   2.0000      -0.414084       -11.2678
  25   2.0000      -0.409257       -11.1364
  26   2.0000      -0.357722        -9.7341
  27   2.0000      -0.253635        -6.9018
  28   0.0000       0.096528         2.6267
  29   0.0000       0.114942         3.1277
  30   0.0000       0.121623         3.3095
  31   0.0000       0.125680         3.4199
  32   0.0000       0.143737         3.9113

MULLIKEN ATOMIC CHARGES
-----------------------
   0 C :    0.147403
   1 C :   -0.151198
   2 C :   -0.077284
   3 C :    0.658779
   4 H :   -0.036987
   5 H :   -0.140626
   6 C :    0.428586
   7 N :   -0.036222
   8 N :   -0.148651
   9 H :    0.039589
  10 H :   -0.088696
  11 H :   -0.389644
  12 H :    0.131426
  13 H :   -0.142518
  14 H :   -0.016995
  15 H :   -0.074991
  16 H :   -0.013392
  17 H :   -0.061877
  18 H :   -0.026700
Sum of atomic charges:   -0.0000000

LOEWDIN ATOMIC CHARGES
----------------------
   0 C :   -0.084456
   1 C :   -0.089193
   2 C :   -0.055897
   3 C :    0.119851
   4 H :    0.021855
   5 H :    0.018203
   6 C :   -0.241020
   7 N :    0.173257
   8 N :    0.201565
   9 H :   -0.006559
  10 H :    0.003981
  11 H :   -0.052682
  12 H :    0.010249
  13 H :    0.008911
  14 H :    0.019868
  15 H :    0.013560
  16 H :   -0.017471
  17 H :   -0.024740
  18 H :   -0.019284

  Mayer bond orders larger than 0.100000
B(  0-C ,  1-C ) :   1.1889 B(  0-C ,  2-C ) :   0.9554 B(  0-C ,  4-H ) :   0.8277
B(  0-C ,  5-H ) :   0.7940 B(  0-C , 11-H ) :   0.2535 B(  0-C , 14-H ) :   0.1747
B(  0-C , 15-H ) :   0.2337 B(  1-C ,  2-C ) :   0.1462 B(  1-C ,  3-C ) :   1.2609
B(  1-C , 14-H ) :   0.8657 B(  1-C , 15-H ) :   0.8087 B(  1-C , 16-H ) :   0.1788
B(  1-C , 17-H ) :   0.2155 B(  1-C , 18-H ) :   0.2070 B(  2-C ,  4-H ) :   0.1639
B(  2-C ,  5-H ) :   0.2552 B(  2-C ,  6-C ) :   1.6652 B(  2-C ,  7-N ) :   0.3086
B(  2-C ,  8-N ) :   0.2048 B(  2-C ,  9-H ) :  -0.1285 B(  2-C , 11-H ) :   0.8024
B(  2-C , 12-H ) :  -0.1061 B(  3-C , 16-H ) :   0.8268 B(  3-C , 17-H ) :   0.8297
B(  3-C , 18-H ) :   0.7825 B(  6-C ,  7-N ) :   1.0109 B(  6-C ,  8-N ) :   0.9973
B(  7-N , 12-H ) :   0.9959 B(  7-N , 13-H ) :   1.2085 B(  8-N ,  9-H ) :   1.0057
B(  8-N , 10-H ) :   1.1899 B(  9-H , 10-H ) :  -0.1241 B( 12-H , 13-H ) :  -0.1344

Dispersion correction           -0.004909907
FINAL SINGLE POINT ENERGY      -306.957144812710

DIPOLE MOMENT
-------------
                                X             Y             Z
Electronic contribution:      6.49306       1.50837      -1.87388
Nuclear contribution   :     -5.84539      -1.11717       1.11949
                        -----------------------------------------
Total Dipole Moment    :      0.64767       0.39120      -0.75439
                        -----------------------------------------
Magnitude (a.u.)       :      1.06846
Magnitude (Debye)      :      2.71582

Rotational constants in cm-1:     0.177055     0.043715     0.038831
Rotational constants in MHz :  5307.971484  1310.555422  1164.112547

                             ****ORCA TERMINATED NORMALLY****
TOTAL RUN TIME: 0 days 0 hours 0 minutes 18 seconds 38 msec
