                         Program Version 5.0.0 -  RELEASE  -
|  1> !wB97X-D3 RIJCOSX def2-SVPD def2/J TightSCF CPCM(Water)
|  2> *xyz 0 1
|  3> C          1.63556       -1.67040       -5.29211
|  4> C          0.33848       -1.50091       -4.50540
|  5> N          2.48451       -0.50741       -5.14039
|  6> C         -0.68487       -0.52803       -5.09989
|  7> H          1.39834       -1.82924       -6.35259
|  8> H          2.15586       -2.56540       -4.93209
|  9> C          3.45115       -0.14953       -5.95259
| 10> C          3.92267        1.08956       -5.85071
| 11> N          3.96616       -1.00618       -6.86788
| 12> H          3.52139       -1.90647       -6.99527
| 13> H          4.44482       -0.62347       -7.67035
| 14> H          2.25200        0.24080       -4.49879
| 15> H          3.46428        1.64078       -5.13639
| 16> H          4.83447        1.31375       -6.22465
| 17> H          0.59489       -1.21158       -3.48231
| 18> H         -0.12653       -2.48766       -4.43418
| 19> H         -0.92267       -0.82721       -6.09931
| 20> H         -0.27317        0.45953       -5.11162
| 21> H         -1.57350       -0.53693       -4.50394
| 22> *
| 23>
| 24> %MaxCore 64000
| 25>
| 26> %pal nprocs 18
| 27> end
| 28>
| 29> %scf
| 30>   MaxIter 150
| 31> end
| 32>
| 33>
| 34>                          ****END OF INPUT****

CARTESIAN COORDINATES (ANGSTROEM)
---------------------------------
  C      1.635560   -1.670400   -5.292110
  C      0.338480   -1.500910   -4.505400
  N      2.484510   -0.507410   -5.140390
  C     -0.684870   -0.528030   -5.099890
  H      1.398340   -1.829240   -6.352590
  H      2.155860   -2.565400   -4.932090
  C      3.451150   -0.149530   -5.952590
  C      3.922670    1.089560   -5.850710
  N      3.966160   -1.006180   -6.867880
  H      3.521390   -1.906470   -6.995270
  H      4.444820   -0.623470   -7.670350
  H      2.252000    0.240800   -4.498790
  H      3.464280    1.640780   -5.136390
  H      4.834470    1.313750   -6.224650
  H      0.594890   -1.211580   -3.482310
  H     -0.126530   -2.487660   -4.434180
  H     -0.922670   -0.827210   -6.099310
  H     -0.273170    0.459530   -5.111620
  H     -1.573500   -0.536930   -4.503940

 Total Charge           Charge          ....    0
 Multiplicity           Mult            ....    1
 Number of Electrons    NEL             ....   56
 Basis Dimension        Dim             ....  236

ORBITAL ENERGIES
----------------

  NO   OCC          E(Eh)            E(eV)
   0   2.0000     -14.436673      -392.8418
   1   2.0000     -14.435443      -392.8084
   2   2.0000     -10.344152      -281.4787
   3   2.0000     -10.318787      -280.7885
   4   2.0000     -10.286174      -279.9010
   5   2.0000     -10.269231      -279.4400
   6   2.0000     -10.207204      -277.7521
   7   2.0000      -1.081897       -29.4399
   8   2.0000      -0.990044       -26.9405
   9   2.0000      -0.896863       -24.4049
  10   2.0000      -0.835914       -22.7464
  11   2.0000      -0.776006       -21.1162
  12   2.0000      -0.704900       -19.1813
  13   2.0000      -0.692518       -18.8444
  14   2.0000      -0.637701       -17.3527
  15   2.0000      -0.598727       -16.2922
  16   2.0000      -0.566259       -15.4087
  17   2.0000      -0.563100       -15.3227
  18   2.0000      -0.537108       -14.6155
  19   2.0000      -0.509344       -13.8599
  20   2.0000      -0.491770       -13.3817
  21   2.0000      -0.487223       -13.2580
  22   2.0000      -0.473559       -12.8862
  23   2.0000      -0.440524       -11.9873
  24   2.0000      -0.431453       -11.7404
  25   2.0000      -0.428136       -11.6502
  26   2.0000      -0.351923        -9.5763
  27   2.0000      -0.260383        -7.0854
  28   0.0000       0.092857         2.5268
  29   0.0000       0.115223         3.1354
  30   0.0000       0.118399         3.2218
  31   0.0000       0.130115         3.5406
  32   0.0000       0.136496         3.7143

MULLIKEN ATOMIC CHARGES
-----------------------
   0 C :    0.443218
   1 C :   -0.311903
   2 N :   -0.406391
   3 C :    0.626394
   4 H :   -0.024896
   5 H :   -0.169150
   6 C :    0.392342
   7 C :    0.432091
   8 N :   -0.043321
   9 H :   -0.072637
  10 H :   -0.008425
  11 H :   -0.081267
  12 H :   -0.198943
  13 H :   -0.436539
  14 H :   -0.034390
  15 H :   -0.039815
  16 H :    0.007628
  17 H :   -0.040160
  18 H :   -0.033836
Sum of atomic charges:   -0.0000000

LOEWDIN ATOMIC CHARGES
----------------------
   0 C :    0.036869
   1 C :   -0.068503
   2 N :   -0.019439
   3 C :    0.123483
   4 H :    0.030047
   5 H :    0.026152
   6 C :   -0.246879
   7 C :    0.101528
   8 N :    0.202195
   9 H :   -0.011747
  10 H :    0.014616
  11 H :    0.037328
  12 H :   -0.111483
  13 H :   -0.110300
  14 H :    0.024498
  15 H :    0.023229
  16 H :   -0.015097
  17 H :   -0.020816
  18 H :   -0.015682

  Mayer bond orders larger than 0.100000
B(  0-C ,  1-C ) :   1.1809 B(  0-C ,  2-N ) :   0.8951 B(  0-C ,  4-H ) :   0.8587
B(  0-C ,  5-H ) :   0.9513 B(  0-C , 11-H ) :  -0.1283 B(  0-C , 14-H ) :   0.1482
B(  0-C , 15-H ) :   0.1981 B(  1-C ,  3-C ) :   1.2520 B(  1-C , 14-H ) :   0.8943
B(  1-C , 15-H ) :   0.8751 B(  1-C , 16-H ) :   0.1773 B(  1-C , 17-H ) :   0.2095
B(  1-C , 18-H ) :   0.2119 B(  2-N ,  4-H ) :   0.1535 B(  2-N ,  5-H ) :   0.1473
B(  2-N ,  6-C ) :   1.1708 B(  2-N ,  7-C ) :   0.2512 B(  2-N ,  8-N ) :   0.1023
B(  2-N , 11-H ) :   1.1277 B(  3-C , 16-H ) :   0.8275 B(  3-C , 17-H ) :   0.8307
B(  3-C , 18-H ) :   0.7938 B(  6-C ,  7-C ) :   1.7475 B(  6-C ,  8-N ) :   0.9548
B(  6-C , 11-H ) :  -0.1769 B(  6-C , 12-H ) :   0.2343 B(  6-C , 13-H ) :   0.2896
B(  7-C ,  8-N ) :   0.2195 B(  7-C , 12-H ) :   0.8281 B(  7-C , 13-H ) :   0.6602
B(  8-N ,  9-H ) :   1.0198 B(  8-N , 10-H ) :   1.1438 B(  9-H , 10-H ) :  -0.1333

Dispersion correction           -0.004971126
FINAL SINGLE POINT ENERGY      -306.947394403933

DIPOLE MOMENT
-------------
                                X             Y             Z
Electronic contribution:      4.54510      -0.54890      -1.06441
Nuclear contribution   :     -5.53036      -0.76734       0.96389
                        -----------------------------------------
Total Dipole Moment    :     -0.98526      -1.31625      -0.10051
                        -----------------------------------------
Magnitude (a.u.)       :      1.64723
Magnitude (Debye)      :      4.18691

Rotational constants in cm-1:     0.181901     0.044719     0.039941
Rotational constants in MHz :  5453.254735  1340.639344  1197.391002

                             ****ORCA TERMINATED NORMALLY****
TOTAL RUN TIME: 0 days 0 hours 0 minutes 18 seconds 401 msec
