                         Program Version 5.0.0 -  RELEASE  -
|  1> !wB97X-D3 RIJCOSX def2-SVPD def2/J TightSCF CPCM(Water)
|  2> *xyz 0 1
|  3> C          1.63556       -1.67040       -5.29211
|  4> C          0.33848       -1.50091       -4.50540
|  5> N          2.48451       -0.50741       -5.14039
|  6> C         -0.68487       -0.52803       -5.09989
|  7> H          1.39834       -1.82924       -6.35259
|  8> H          2.15586       -2.56540       -4.93209
|  9> C          3.45115       -0.14953       -5.95259
| 10> N          3.92267        1.08956       -5.85071
| 11> C          3.96616       -1.00618       -6.86788
| 12> H          3.52139       -1.90647       -6.99527
| 13> H          4.44482       -0.62347       -7.67035
| 14> H          2.25200        0.24080       -4.49879
| 15> H          3.46428        1.64078       -5.13639
| 16> H          4.83447        1.31375       -6.22465
| 17> H          0.59489       -1.21158       -3.48231
| 18> H         -0.12653       -2.48766       -4.43418
| 19> H         -0.92267       -0.82721       -6.09931
| 20> H         -0.27317        0.45953       -5.11162
| 21> H         -1.57350       -0.53693       -4.50394
| 22> *
| 23>
| 24> %MaxCore 64000
| 25>
| 26> %pal nprocs 18
| 27> end
| 28>
| 29> %scf
| 30>   MaxIter 150
| 31> end
| 32>
| 33>
| 34>                          ****END OF INPUT****

CARTESIAN COORDINATES (ANGSTROEM)
---------------------------------
  C      1.635560   -1.670400   -5.292110
  C      0.338480   -1.500910   -4.505400
  N      2.484510   -0.507410   -5.140390
  C     -0.684870   -0.528030   -5.099890
  H      1.398340   -1.829240   -6.352590
  H      2.155860   -2.565400   -4.932090
  C      3.451150   -0.149530   -5.952590
  N      3.922670    1.089560   -5.850710
  C      3.966160   -1.006180   -6.867880
  H      3.521390   -1.906470   -6.995270
  H      4.444820   -0.623470   -7.670350
  H      2.252000    0.240800   -4.498790
  H      3.464280    1.640780   -5.136390
  H      4.834470    1.313750   -6.224650
  H      0.594890   -1.211580   -3.482310
  H     -0.126530   -2.487660   -4.434180
  H     -0.922670   -0.827210   -6.099310
  H     -0.273170    0.459530   -5.111620
  H     -1.573500   -0.536930   -4.503940

 Total Charge           Charge          ....    0
 Multiplicity           Mult            ....    1
 Number of Electrons    NEL             ....   56
 Basis Dimension        Dim             ....  236

ORBITAL ENERGIES
----------------

  NO   OCC          E(Eh)            E(eV)
   0   2.0000     -14.441444      -392.9717
   1   2.0000     -14.435006      -392.7965
   2   2.0000     -10.345690      -281.5205
   3   2.0000     -10.318848      -280.7901
   4   2.0000     -10.285534      -279.8836
   5   2.0000     -10.269017      -279.4341
   6   2.0000     -10.210031      -277.8291
   7   2.0000      -1.089311       -29.6417
   8   2.0000      -0.994477       -27.0611
   9   2.0000      -0.889355       -24.2006
  10   2.0000      -0.822190       -22.3729
  11   2.0000      -0.799065       -21.7437
  12   2.0000      -0.707303       -19.2467
  13   2.0000      -0.670903       -18.2562
  14   2.0000      -0.637975       -17.3602
  15   2.0000      -0.624059       -16.9815
  16   2.0000      -0.568555       -15.4712
  17   2.0000      -0.565901       -15.3989
  18   2.0000      -0.526282       -14.3209
  19   2.0000      -0.515114       -14.0170
  20   2.0000      -0.487385       -13.2624
  21   2.0000      -0.486702       -13.2438
  22   2.0000      -0.470789       -12.8108
  23   2.0000      -0.441426       -12.0118
  24   2.0000      -0.431580       -11.7439
  25   2.0000      -0.428539       -11.6611
  26   2.0000      -0.343905        -9.3581
  27   2.0000      -0.266181        -7.2432
  28   0.0000       0.094119         2.5611
  29   0.0000       0.114306         3.1104
  30   0.0000       0.116589         3.1726
  31   0.0000       0.129942         3.5359
  32   0.0000       0.139452         3.7947

MULLIKEN ATOMIC CHARGES
-----------------------
   0 C :    0.474207
   1 C :   -0.310611
   2 N :   -0.432084
   3 C :    0.637111
   4 H :    0.001990
   5 H :   -0.154936
   6 C :    0.288310
   7 N :    0.022546
   8 C :    0.454479
   9 H :   -0.116032
  10 H :   -0.452518
  11 H :   -0.178694
  12 H :   -0.026453
  13 H :   -0.055390
  14 H :   -0.037968
  15 H :   -0.048998
  16 H :    0.007954
  17 H :   -0.042630
  18 H :   -0.030285
Sum of atomic charges:    0.0000000

LOEWDIN ATOMIC CHARGES
----------------------
   0 C :    0.041043
   1 C :   -0.068667
   2 N :   -0.015690
   3 C :    0.123030
   4 H :    0.029225
   5 H :    0.029032
   6 C :   -0.252055
   7 N :    0.190898
   8 C :    0.116848
   9 H :   -0.136436
  10 H :   -0.120129
  11 H :    0.037142
  12 H :    0.008421
  13 H :    0.022676
  14 H :    0.023619
  15 H :    0.023409
  16 H :   -0.015115
  17 H :   -0.021431
  18 H :   -0.015818

  Mayer bond orders larger than 0.100000
B(  0-C ,  1-C ) :   1.1773 B(  0-C ,  2-N ) :   0.9293 B(  0-C ,  4-H ) :   0.8403
B(  0-C ,  5-H ) :   0.9417 B(  0-C , 11-H ) :  -0.1191 B(  0-C , 14-H ) :   0.1493
B(  0-C , 15-H ) :   0.1860 B(  1-C ,  3-C ) :   1.2560 B(  1-C , 14-H ) :   0.8848
B(  1-C , 15-H ) :   0.8874 B(  1-C , 16-H ) :   0.1766 B(  1-C , 17-H ) :   0.2116
B(  1-C , 18-H ) :   0.2141 B(  2-N ,  4-H ) :   0.1681 B(  2-N ,  5-H ) :   0.1218
B(  2-N ,  6-C ) :   1.1464 B(  2-N ,  7-N ) :   0.1954 B(  2-N ,  8-C ) :   0.2743
B(  2-N , 11-H ) :   1.2074 B(  3-C , 16-H ) :   0.8294 B(  3-C , 17-H ) :   0.8312
B(  3-C , 18-H ) :   0.7882 B(  6-C ,  7-N ) :   1.0087 B(  6-C ,  8-C ) :   1.8278
B(  6-C ,  9-H ) :   0.3026 B(  6-C , 10-H ) :   0.2588 B(  6-C , 11-H ) :  -0.2244
B(  7-N ,  8-C ) :   0.2245 B(  7-N , 12-H ) :   1.0329 B(  7-N , 13-H ) :   1.1928
B(  8-C ,  9-H ) :   0.6542 B(  8-C , 10-H ) :   0.7288 B(  9-H , 10-H ) :   0.1993
B( 12-H , 13-H ) :  -0.1254

Dispersion correction           -0.004948798
FINAL SINGLE POINT ENERGY      -306.949616289854

DIPOLE MOMENT
-------------
                                X             Y             Z
Electronic contribution:      4.54565       2.25597       0.39132
Nuclear contribution   :     -5.52083      -1.22643       0.74108
                        -----------------------------------------
Total Dipole Moment    :     -0.97518       1.02955       1.13239
                        -----------------------------------------
Magnitude (a.u.)       :      1.81473
Magnitude (Debye)      :      4.61268

Rotational constants in cm-1:     0.181479     0.044588     0.039739
Rotational constants in MHz :  5440.604457  1336.706831  1191.355312

                             ****ORCA TERMINATED NORMALLY****
TOTAL RUN TIME: 0 days 0 hours 0 minutes 18 seconds 533 msec
