                         Program Version 5.0.0 -  RELEASE  -
|  1> !wB97X-D3 RIJCOSX def2-SVPD def2/J TightSCF CPCM(Water) xyzfile
|  2>
|  3> *xyzfile 0 1 D1.xyz
|  4>
|  5> %MaxCore 64000
|  6>
|  7> %pal nprocs 18
|  8> end
|  9>
| 10> %scf
| 11>   MaxIter 150
| 12> end
| 13>
| 14>
| 15>                          ****END OF INPUT****

CARTESIAN COORDINATES (ANGSTROEM)
---------------------------------
  C      1.635557   -1.670396   -5.292109
  C      0.338484   -1.500907   -4.505398
  C      2.484511   -0.507410   -5.140392
  C     -0.684873   -0.528026   -5.099889
  C     -0.290406    0.951335   -5.153423
  H      0.607991    1.070692   -5.764412
  C     -0.055168    1.619420   -3.788577
  H     -1.080912    1.483775   -5.689436
  H      0.045006    0.862302   -3.003015
  H     -0.922936    2.230329   -3.517028
  C      1.223022    2.469865   -3.756911
  H      1.114701    3.258074   -4.532999
  H      1.237732    3.011242   -2.792157
  F      2.353815    1.712032   -3.934477
  H      1.398337   -1.829239   -6.352591
  H      2.155864   -2.565398   -4.932091
  C      3.451149   -0.149530   -5.952589
  N      3.922667    1.089559   -5.850711
  N      3.966162   -1.006183   -6.867880
  H      3.521391   -1.906467   -6.995270
  H      4.444824   -0.623472   -7.670348
  H      2.251995    0.240804   -4.498792
  H      3.464277    1.640782   -5.136392
  H      4.834470    1.313745   -6.224653
  H     -0.937999   -0.869056   -6.110838
  H     -1.604638   -0.622496   -4.513132
  H      0.594887   -1.211578   -3.482312
  H     -0.126530   -2.487656   -4.434176

 Total Charge           Charge          ....    0
 Multiplicity           Mult            ....    1
 Number of Electrons    NEL             ....   88
 Basis Dimension        Dim             ....  359

ORBITAL ENERGIES
----------------

  NO   OCC          E(Eh)            E(eV)
   0   2.0000     -24.813841      -675.2189
   1   2.0000     -14.426835      -392.5741
   2   2.0000     -14.412600      -392.1868
   3   2.0000     -10.368180      -282.1325
   4   2.0000     -10.321043      -280.8499
   5   2.0000     -10.286635      -279.9136
   6   2.0000     -10.275612      -279.6136
   7   2.0000     -10.275413      -279.6082
   8   2.0000     -10.269965      -279.4600
   9   2.0000     -10.262745      -279.2635
  10   2.0000     -10.192065      -277.3402
  11   2.0000      -1.332217       -36.2515
  12   2.0000      -1.056428       -28.7469
  13   2.0000      -0.964935       -26.2572
  14   2.0000      -0.918251       -24.9869
  15   2.0000      -0.885907       -24.1068
  16   2.0000      -0.836509       -22.7626
  17   2.0000      -0.801069       -21.7982
  18   2.0000      -0.746936       -20.3252
  19   2.0000      -0.713432       -19.4135
  20   2.0000      -0.683891       -18.6096
  21   2.0000      -0.659164       -17.9368
  22   2.0000      -0.639529       -17.4025
  23   2.0000      -0.625749       -17.0275
  24   2.0000      -0.607627       -16.5344
  25   2.0000      -0.606529       -16.5045
  26   2.0000      -0.587246       -15.9798
  27   2.0000      -0.558290       -15.1918
  28   2.0000      -0.543210       -14.7815
  29   2.0000      -0.539584       -14.6828
  30   2.0000      -0.515774       -14.0349
  31   2.0000      -0.503880       -13.7113
  32   2.0000      -0.489810       -13.3284
  33   2.0000      -0.480669       -13.0797
  34   2.0000      -0.459710       -12.5093
  35   2.0000      -0.454540       -12.3687
  36   2.0000      -0.443705       -12.0738
  37   2.0000      -0.427227       -11.6254
  38   2.0000      -0.413859       -11.2617
  39   2.0000      -0.401719       -10.9313
  40   2.0000      -0.396024       -10.7764
  41   2.0000      -0.385961       -10.5025
  42   2.0000      -0.350545        -9.5388
  43   2.0000      -0.242362        -6.5950
  44   0.0000       0.095223         2.5911
  45   0.0000       0.108332         2.9479
  46   0.0000       0.110798         3.0150
  47   0.0000       0.116237         3.1630
  48   0.0000       0.133511         3.6330

MULLIKEN ATOMIC CHARGES
-----------------------
   0 C :    0.302640
   1 C :    0.316345
   2 C :    0.101254
   3 C :    0.162174
   4 C :    0.053956
   5 H :    0.014718
   6 C :   -0.070515
   7 H :   -0.212764
   8 H :    0.004013
   9 H :   -0.167412
  10 C :    0.943168
  11 H :   -0.008029
  12 H :   -0.011574
  13 F :   -0.770719
  14 H :    0.017744
  15 H :   -0.178432
  16 C :    0.425727
  17 N :    0.125255
  18 N :   -0.171504
  19 H :    0.016648
  20 H :   -0.078652
  21 H :   -0.461197
  22 H :    0.006887
  23 H :   -0.217725
  24 H :    0.113533
  25 H :   -0.099246
  26 H :    0.019377
  27 H :   -0.175670
Sum of atomic charges:    0.0000000

LOEWDIN ATOMIC CHARGES
----------------------
   0 C :   -0.064823
   1 C :   -0.041713
   2 C :   -0.041298
   3 C :   -0.026246
   4 C :   -0.023622
   5 H :    0.005604
   6 C :    0.003203
   7 H :    0.020085
   8 H :    0.018596
   9 H :    0.035339
  10 C :    0.166965
  11 H :    0.053439
  12 H :    0.043905
  13 F :   -0.234859
  14 H :    0.019907
  15 H :    0.015009
  16 C :   -0.221464
  17 N :    0.190829
  18 N :    0.196352
  19 H :   -0.010177
  20 H :   -0.000441
  21 H :   -0.118815
  22 H :   -0.066068
  23 H :    0.006028
  24 H :    0.023657
  25 H :    0.021318
  26 H :    0.013549
  27 H :    0.015739

  Mayer bond orders larger than 0.100000
B(  0-C ,  1-C ) :   1.1530 B(  0-C ,  2-C ) :   0.8596 B(  0-C , 14-H ) :   0.7800
B(  0-C , 15-H ) :   0.6606 B(  0-C , 21-H ) :   0.4319 B(  0-C , 26-H ) :   0.1486
B(  0-C , 27-H ) :   0.2090 B(  1-C ,  2-C ) :   0.2152 B(  1-C ,  3-C ) :   1.2312
B(  1-C , 21-H ) :  -0.1514 B(  1-C , 24-H ) :   0.1487 B(  1-C , 25-H ) :   0.1772
B(  1-C , 26-H ) :   0.7277 B(  1-C , 27-H ) :   0.7622 B(  2-C , 14-H ) :   0.2093
B(  2-C , 15-H ) :   0.3225 B(  2-C , 16-C ) :   1.7771 B(  2-C , 17-N ) :   0.4026
B(  2-C , 18-N ) :   0.2731 B(  2-C , 19-H ) :  -0.1665 B(  2-C , 21-H ) :   0.2210
B(  3-C ,  4-C ) :   1.2748 B(  3-C ,  5-H ) :   0.1395 B(  3-C ,  7-H ) :   0.1299
B(  3-C , 24-H ) :   0.6858 B(  3-C , 25-H ) :   0.8509 B(  3-C , 26-H ) :   0.1526
B(  3-C , 27-H ) :   0.1434 B(  4-C ,  5-H ) :   0.8239 B(  4-C ,  6-C ) :   1.2030
B(  4-C ,  7-H ) :   0.8634 B(  4-C ,  8-H ) :   0.1247 B(  4-C ,  9-H ) :   0.1491
B(  4-C , 24-H ) :   0.1982 B(  4-C , 25-H ) :   0.1141 B(  5-H , 21-H ) :   0.1412
B(  6-C ,  8-H ) :   0.8662 B(  6-C ,  9-H ) :   0.9716 B(  6-C , 10-C ) :   1.1652
B(  6-C , 11-H ) :   0.1072 B(  6-C , 12-H ) :   0.1609 B(  6-C , 13-F ) :   0.1453
B( 10-C , 11-H ) :   0.8340 B( 10-C , 12-H ) :   0.8094 B( 10-C , 13-F ) :   0.6324
B( 11-H , 13-F ) :   0.2479 B( 13-F , 22-H ) :   0.1271 B( 14-H , 21-H ) :   0.1031
B( 16-C , 17-N ) :   0.7789 B( 16-C , 18-N ) :   0.9395 B( 16-C , 21-H ) :   0.2777
B( 16-C , 23-H ) :  -0.1556 B( 17-N , 22-H ) :   1.0319 B( 17-N , 23-H ) :   1.3151
B( 18-N , 19-H ) :   1.0439 B( 18-N , 20-H ) :   1.1941 B( 18-N , 21-H ) :  -0.1416
B( 19-H , 20-H ) :  -0.1303 B( 21-H , 22-H ) :  -0.1035 B( 22-H , 23-H ) :  -0.1817

Dispersion correction           -0.011718809
FINAL SINGLE POINT ENERGY      -523.905668384725

DIPOLE MOMENT
-------------
                                X             Y             Z
Electronic contribution:      7.69242       4.10861       0.99359
Nuclear contribution   :     -8.11591      -2.99033      -1.35383
                        -----------------------------------------
Total Dipole Moment    :     -0.42349       1.11828      -0.36025
                        -----------------------------------------
Magnitude (a.u.)       :      1.24887
Magnitude (Debye)      :      3.17437

Rotational constants in cm-1:     0.043530     0.028984     0.019589
Rotational constants in MHz :  1305.007140   868.923804   587.262638

                             ****ORCA TERMINATED NORMALLY****
TOTAL RUN TIME: 0 days 0 hours 0 minutes 45 seconds 645 msec
