                         Program Version 5.0.0 -  RELEASE  -
|  1> !wB97X-D3 RIJCOSX def2-SVPD def2/J TightSCF CPCM(Water) xyzfile
|  2>
|  3> *xyzfile 0 1 D3.xyz
|  4>
|  5> %MaxCore 64000
|  6>
|  7> %pal nprocs 18
|  8> end
|  9>
| 10> %scf
| 11>   MaxIter 150
| 12> end
| 13>
| 14>
| 15>                          ****END OF INPUT****

CARTESIAN COORDINATES (ANGSTROEM)
---------------------------------
  C      1.635557   -1.670396   -5.292109
  C      0.338484   -1.500907   -4.505398
  N      2.484511   -0.507410   -5.140392
  C     -0.684873   -0.528026   -5.099889
  C     -0.290406    0.951335   -5.153423
  H      0.607991    1.070692   -5.764412
  C     -0.055168    1.619420   -3.788577
  H     -1.080912    1.483775   -5.689436
  H      0.045006    0.862302   -3.003015
  H     -0.922936    2.230329   -3.517028
  C      1.223022    2.469865   -3.756911
  H      1.114701    3.258074   -4.532999
  H      1.237732    3.011242   -2.792157
  F      2.353815    1.712032   -3.934477
  H      1.398337   -1.829239   -6.352591
  H      2.155864   -2.565398   -4.932091
  C      3.451149   -0.149530   -5.952589
  N      3.922667    1.089559   -5.850711
  C      3.966162   -1.006183   -6.867880
  H      3.521391   -1.906467   -6.995270
  H      4.444824   -0.623472   -7.670348
  H      2.251995    0.240804   -4.498792
  H      3.464277    1.640782   -5.136392
  H      4.834470    1.313745   -6.224653
  H     -0.937999   -0.869056   -6.110838
  H     -1.604638   -0.622496   -4.513132
  H      0.594887   -1.211578   -3.482312
  H     -0.126530   -2.487656   -4.434176

 Total Charge           Charge          ....    0
 Multiplicity           Mult            ....    1
 Number of Electrons    NEL             ....   88
 Basis Dimension        Dim             ....  359

ORBITAL ENERGIES
----------------

  NO   OCC          E(Eh)            E(eV)
   0   2.0000     -24.832391      -675.7237
   1   2.0000     -14.424164      -392.5014
   2   2.0000     -14.421607      -392.4319
   3   2.0000     -10.374673      -282.3092
   4   2.0000     -10.339416      -281.3498
   5   2.0000     -10.314372      -280.6683
   6   2.0000     -10.291758      -280.0530
   7   2.0000     -10.283176      -279.8194
   8   2.0000     -10.281934      -279.7857
   9   2.0000     -10.281805      -279.7821
  10   2.0000     -10.205045      -277.6934
  11   2.0000      -1.348849       -36.7040
  12   2.0000      -1.081190       -29.4207
  13   2.0000      -0.987430       -26.8693
  14   2.0000      -0.919461       -25.0198
  15   2.0000      -0.880170       -23.9506
  16   2.0000      -0.829787       -22.5797
  17   2.0000      -0.818412       -22.2701
  18   2.0000      -0.762771       -20.7560
  19   2.0000      -0.731368       -19.9015
  20   2.0000      -0.675198       -18.3731
  21   2.0000      -0.670919       -18.2566
  22   2.0000      -0.664189       -18.0735
  23   2.0000      -0.631442       -17.1824
  24   2.0000      -0.624848       -17.0030
  25   2.0000      -0.598803       -16.2943
  26   2.0000      -0.593746       -16.1567
  27   2.0000      -0.573727       -15.6119
  28   2.0000      -0.558645       -15.2015
  29   2.0000      -0.532460       -14.4890
  30   2.0000      -0.521549       -14.1921
  31   2.0000      -0.509462       -13.8632
  32   2.0000      -0.494950       -13.4683
  33   2.0000      -0.480669       -13.0797
  34   2.0000      -0.473009       -12.8712
  35   2.0000      -0.463920       -12.6239
  36   2.0000      -0.454728       -12.3738
  37   2.0000      -0.444316       -12.0905
  38   2.0000      -0.436437       -11.8761
  39   2.0000      -0.413431       -11.2500
  40   2.0000      -0.407911       -11.0998
  41   2.0000      -0.404960       -11.0195
  42   2.0000      -0.333771        -9.0824
  43   2.0000      -0.260850        -7.0981
  44   0.0000       0.094300         2.5660
  45   0.0000       0.107600         2.9280
  46   0.0000       0.109682         2.9846
  47   0.0000       0.117551         3.1987
  48   0.0000       0.131893         3.5890

MULLIKEN ATOMIC CHARGES
-----------------------
   0 C :    0.634588
   1 C :    0.108864
   2 N :    0.185002
   3 C :    0.163022
   4 C :    0.123292
   5 H :   -0.027033
   6 C :   -0.110590
   7 H :   -0.224875
   8 H :   -0.014498
   9 H :   -0.096089
  10 C :    0.895661
  11 H :   -0.005612
  12 H :   -0.007214
  13 F :   -0.836051
  14 H :    0.010442
  15 H :   -0.202073
  16 C :    0.206469
  17 N :    0.353194
  18 C :    0.462233
  19 H :   -0.090772
  20 H :   -0.383562
  21 H :   -0.687403
  22 H :   -0.207532
  23 H :   -0.150645
  24 H :    0.125652
  25 H :   -0.089156
  26 H :    0.001343
  27 H :   -0.136656
Sum of atomic charges:   -0.0000000

LOEWDIN ATOMIC CHARGES
----------------------
   0 C :    0.055984
   1 C :   -0.021740
   2 N :    0.002043
   3 C :   -0.026101
   4 C :   -0.023616
   5 H :    0.006392
   6 C :    0.004567
   7 H :    0.023333
   8 H :    0.020183
   9 H :    0.038953
  10 C :    0.170873
  11 H :    0.057098
  12 H :    0.048240
  13 F :   -0.217531
  14 H :    0.027264
  15 H :    0.026314
  16 C :   -0.238190
  17 N :    0.209118
  18 C :    0.113317
  19 H :   -0.139980
  20 H :   -0.123861
  21 H :   -0.061012
  22 H :   -0.069201
  23 H :    0.021845
  24 H :    0.026553
  25 H :    0.025546
  26 H :    0.017135
  27 H :    0.026472

  Mayer bond orders larger than 0.100000
B(  0-C ,  1-C ) :   1.2007 B(  0-C ,  2-N ) :   0.9735 B(  0-C , 14-H ) :   0.7781
B(  0-C , 15-H ) :   0.8882 B(  0-C , 21-H ) :  -0.1945 B(  0-C , 26-H ) :   0.1243
B(  0-C , 27-H ) :   0.1763 B(  1-C ,  3-C ) :   1.2213 B(  1-C , 24-H ) :   0.1516
B(  1-C , 25-H ) :   0.1873 B(  1-C , 26-H ) :   0.7838 B(  1-C , 27-H ) :   0.8297
B(  2-N , 13-F ) :  -0.1212 B(  2-N , 14-H ) :   0.2610 B(  2-N , 15-H ) :   0.1299
B(  2-N , 16-C ) :   1.3452 B(  2-N , 18-C ) :   0.1826 B(  2-N , 21-H ) :   0.8057
B(  3-C ,  4-C ) :   1.2818 B(  3-C ,  5-H ) :   0.1417 B(  3-C ,  7-H ) :   0.1282
B(  3-C , 24-H ) :   0.6888 B(  3-C , 25-H ) :   0.8609 B(  3-C , 26-H ) :   0.1443
B(  3-C , 27-H ) :   0.1292 B(  4-C ,  5-H ) :   0.8418 B(  4-C ,  6-C ) :   1.1829
B(  4-C ,  7-H ) :   0.8387 B(  4-C ,  8-H ) :   0.1223 B(  4-C ,  9-H ) :   0.1568
B(  4-C , 24-H ) :   0.2029 B(  4-C , 25-H ) :   0.1168 B(  6-C ,  8-H ) :   0.8912
B(  6-C ,  9-H ) :   0.9486 B(  6-C , 10-C ) :   1.1660 B(  6-C , 11-H ) :   0.1033
B(  6-C , 12-H ) :   0.1579 B(  6-C , 13-F ) :   0.1318 B( 10-C , 11-H ) :   0.8592
B( 10-C , 12-H ) :   0.8290 B( 10-C , 13-F ) :   0.6300 B( 11-H , 13-F ) :   0.2070
B( 13-F , 21-H ) :   0.1443 B( 13-F , 22-H ) :   0.2058 B( 16-C , 17-N ) :   0.9101
B( 16-C , 18-C ) :   1.9289 B( 16-C , 19-H ) :   0.3337 B( 16-C , 20-H ) :   0.2739
B( 16-C , 21-H ) :  -0.3717 B( 16-C , 23-H ) :  -0.1472 B( 17-N , 18-C ) :   0.1850
B( 17-N , 22-H ) :   0.9656 B( 17-N , 23-H ) :   1.2918 B( 18-C , 19-H ) :   0.5979
B( 18-C , 20-H ) :   0.7128 B( 19-H , 20-H ) :   0.2404 B( 22-H , 23-H ) :  -0.1668

Dispersion correction           -0.011867319
FINAL SINGLE POINT ENERGY      -523.912227338992

DIPOLE MOMENT
-------------
                                X             Y             Z
Electronic contribution:      5.74731       4.91734       3.20152
Nuclear contribution   :     -7.84660      -3.08098      -1.66782
                        -----------------------------------------
Total Dipole Moment    :     -2.09930       1.83636       1.53370
                        -----------------------------------------
Magnitude (a.u.)       :      3.18300
Magnitude (Debye)      :      8.09055

Rotational constants in cm-1:     0.043547     0.029898     0.020008
Rotational constants in MHz :  1305.520367   896.323854   599.829375

                             ****ORCA TERMINATED NORMALLY****
TOTAL RUN TIME: 0 days 0 hours 0 minutes 49 seconds 954 msec
