                         Program Version 5.0.0 -  RELEASE  -
|  1> !BLYP D3BJ RIJCOSX def2-TZVPD def2/J TightSCF
|  2> *xyz -1 1
|  3> C         -0.10608        1.76991       -4.08984
|  4> C         -0.25875        1.00432       -5.40983
|  5> C          0.39596       -0.37070       -5.33994
|  6> H          0.23915        1.56939       -6.20125
|  7> H         -1.30936        0.88869       -5.68245
|  8> O         -0.32633       -1.39040       -5.49128
|  9> O          1.61941       -0.40073       -5.03683
| 10> H         -0.57627        2.72718       -4.17630
| 11> H          0.93321        1.90140       -3.87192
| 12> H         -0.56868        1.21534       -3.30031
| 13> *
| 14> %MaxCore 64000
| 15>
| 16> %pal nprocs 4
| 17> end
| 18>
| 19> %scf
| 20>   MaxIter 150
| 21> end
| 22>
| 23>
| 24>                          ****END OF INPUT****

CARTESIAN COORDINATES (ANGSTROEM)
---------------------------------
  C     -0.106080    1.769910   -4.089840
  C     -0.258750    1.004320   -5.409830
  C      0.395960   -0.370700   -5.339940
  H      0.239150    1.569390   -6.201250
  H     -1.309360    0.888690   -5.682450
  O     -0.326330   -1.390400   -5.491280
  O      1.619410   -0.400730   -5.036830
  H     -0.576270    2.727180   -4.176300
  H      0.933210    1.901400   -3.871920
  H     -0.568680    1.215340   -3.300310

 Total Charge           Charge          ....   -1
 Multiplicity           Mult            ....    1
 Number of Electrons    NEL             ....   40
 Basis Dimension        Dim             ....  236

ORBITAL ENERGIES
----------------

  NO   OCC          E(Eh)            E(eV)
   0   2.0000     -18.511955      -503.7359
   1   2.0000     -18.510788      -503.7042
   2   2.0000      -9.782033      -266.1827
   3   2.0000      -9.740204      -265.0444
   4   2.0000      -9.730460      -264.7793
   5   2.0000      -0.724673       -19.7194
   6   2.0000      -0.637015       -17.3341
   7   2.0000      -0.526913       -14.3380
   8   2.0000      -0.405506       -11.0344
   9   2.0000      -0.263195        -7.1619
  10   2.0000      -0.240032        -6.5316
  11   2.0000      -0.205735        -5.5983
  12   2.0000      -0.179070        -4.8727
  13   2.0000      -0.164067        -4.4645
  14   2.0000      -0.156087        -4.2473
  15   2.0000      -0.127827        -3.4784
  16   2.0000      -0.114688        -3.1208
  17   2.0000      -0.008100        -0.2204
  18   2.0000       0.003295         0.0897
  19   2.0000       0.021602         0.5878
  20   0.0000       0.120178         3.2702
  21   0.0000       0.146363         3.9827
  22   0.0000       0.162739         4.4283
  23   0.0000       0.170000         4.6259
  24   0.0000       0.195272         5.3136

MULLIKEN ATOMIC CHARGES
-----------------------
   0 C :   -1.155590
   1 C :   -0.071399
   2 C :    0.419234
   3 H :    0.187663
   4 H :    0.184488
   5 O :   -0.722346
   6 O :   -0.730141
   7 H :    0.299673
   8 H :    0.266530
   9 H :    0.321889
Sum of atomic charges:   -1.0000000

LOEWDIN ATOMIC CHARGES
----------------------
   0 C :   -0.125831
   1 C :   -0.210854
   2 C :   -0.783455
   3 H :    0.087206
   4 H :    0.081145
   5 O :   -0.097572
   6 O :   -0.094740
   7 H :    0.036731
   8 H :    0.050068
   9 H :    0.057301

  Mayer bond orders larger than 0.100000
B(  0-C ,  1-C ) :   0.5140 B(  0-C ,  7-H ) :   0.9245 B(  0-C ,  8-H ) :   1.0318
B(  0-C ,  9-H ) :   0.9368 B(  1-C ,  2-C ) :   0.9087 B(  1-C ,  3-H ) :   0.9618
B(  1-C ,  4-H ) :   1.0303 B(  2-C ,  5-O ) :   1.3882 B(  2-C ,  6-O ) :   1.3800

Dispersion correction           -0.013584565
FINAL SINGLE POINT ENERGY      -267.885184895183

DIPOLE MOMENT
-------------
                                X             Y             Z
Electronic contribution:      1.77866      -5.38752      -1.70481
Nuclear contribution   :     -2.46071       7.20791       1.95694
                        -----------------------------------------
Total Dipole Moment    :     -0.68206       1.82040       0.25213
                        -----------------------------------------
Magnitude (a.u.)       :      1.96026
Magnitude (Debye)      :      4.98258

Rotational constants in cm-1:     0.309435     0.135317     0.107436
Rotational constants in MHz :  9276.637721  4056.700783  3220.846587

                             ****ORCA TERMINATED NORMALLY****
TOTAL RUN TIME: 0 days 0 hours 0 minutes 14 seconds 142 msec
