                         Program Version 5.0.0 -  RELEASE  -
|  1> !BLYP D3BJ RIJCOSX def2-TZVPD def2/J TightSCF
|  2> *xyz 1 1
|  3> C          0.81607       -2.10149       -2.18655
|  4> H          1.69623       -2.36869       -1.60046
|  5> N          1.10055       -2.46749       -3.59927
|  6> C          0.51624       -0.61363       -2.03937
|  7> H         -0.02007       -2.71285       -1.84084
|  8> H          1.70061       -1.75723       -4.07838
|  9> H          0.29386       -2.35977       -4.25632
| 10> H          1.50132       -3.42848       -3.69491
| 11> H         -0.34841       -0.36504       -2.61858
| 12> H          1.35358       -0.04503       -2.38643
| 13> H          0.33317       -0.38682       -1.00984
| 14> *
| 15> %MaxCore 64000
| 16>
| 17> %pal nprocs 4
| 18> end
| 19>
| 20> %scf
| 21>   MaxIter 150
| 22> end
| 23>
| 24>
| 25>                          ****END OF INPUT****

CARTESIAN COORDINATES (ANGSTROEM)
---------------------------------
  C      0.816070   -2.101490   -2.186550
  H      1.696230   -2.368690   -1.600460
  N      1.100550   -2.467490   -3.599270
  C      0.516240   -0.613630   -2.039370
  H     -0.020070   -2.712850   -1.840840
  H      1.700610   -1.757230   -4.078380
  H      0.293860   -2.359770   -4.256320
  H      1.501320   -3.428480   -3.694910
  H     -0.348410   -0.365040   -2.618580
  H      1.353580   -0.045030   -2.386430
  H      0.333170   -0.386820   -1.009840

 Total Charge           Charge          ....    1
 Multiplicity           Mult            ....    1
 Number of Electrons    NEL             ....   26
 Basis Dimension        Dim             ....  183

ORBITAL ENERGIES
----------------

  NO   OCC          E(Eh)            E(eV)
   0   2.0000     -14.341298      -390.2465
   1   2.0000     -10.158241      -276.4198
   2   2.0000     -10.080456      -274.3031
   3   2.0000      -1.123476       -30.5713
   4   2.0000      -0.890643       -24.2356
   5   2.0000      -0.785927       -21.3862
   6   2.0000      -0.733326       -19.9548
   7   2.0000      -0.716830       -19.5059
   8   2.0000      -0.650502       -17.7011
   9   2.0000      -0.588308       -16.0087
  10   2.0000      -0.537365       -14.6224
  11   2.0000      -0.524166       -14.2633
  12   2.0000      -0.507178       -13.8010
  13   0.0000      -0.228881        -6.2282
  14   0.0000      -0.171158        -4.6575
  15   0.0000      -0.168620        -4.5884
  16   0.0000      -0.155783        -4.2391
  17   0.0000      -0.119262        -3.2453

MULLIKEN ATOMIC CHARGES
-----------------------
   0 C :   -0.212597
   1 H :    0.296197
   2 N :   -0.274466
   3 C :   -1.165852
   4 H :    0.304902
   5 H :    0.309675
   6 H :    0.324482
   7 H :    0.324812
   8 H :    0.374544
   9 H :    0.389042
  10 H :    0.329260
Sum of atomic charges:    1.0000000

LOEWDIN ATOMIC CHARGES
----------------------
   0 C :   -0.198362
   1 H :    0.133026
   2 N :    0.167627
   3 C :   -0.045120
   4 H :    0.134610
   5 H :    0.181958
   6 H :    0.185944
   7 H :    0.189683
   8 H :    0.079961
   9 H :    0.079722
  10 H :    0.090950

  Mayer bond orders larger than 0.100000
B(  0-C ,  1-H ) :   0.9211 B(  0-C ,  2-N ) :   0.9016 B(  0-C ,  3-C ) :   0.5564
B(  0-C ,  4-H ) :   0.9279 B(  2-N ,  5-H ) :   0.8849 B(  2-N ,  6-H ) :   0.8799
B(  2-N ,  7-H ) :   0.8759 B(  3-C ,  8-H ) :   0.9164 B(  3-C ,  9-H ) :   0.8986
B(  3-C , 10-H ) :   0.9691

Dispersion correction           -0.012413137
FINAL SINGLE POINT ENERGY      -135.516626004246

DIPOLE MOMENT
-------------
                                X             Y             Z
Electronic contribution:      0.41074      -1.41351      -1.03896
Nuclear contribution   :     -0.07506       0.54337      -0.16191
                        -----------------------------------------
Total Dipole Moment    :      0.33568      -0.87014      -1.20087
                        -----------------------------------------
Magnitude (a.u.)       :      1.52050
Magnitude (Debye)      :      3.86481

Rotational constants in cm-1:     0.999557     0.280801     0.246932
Rotational constants in MHz : 29965.963633  8418.199581  7402.841054

                             ****ORCA TERMINATED NORMALLY****
TOTAL RUN TIME: 0 days 0 hours 0 minutes 9 seconds 908 msec
