                         Program Version 5.0.0 -  RELEASE  -
|  1> !BLYP D3BJ RIJCOSX def2-TZVPD def2/J TightSCF xyzfile
|  2>
|  3> *xyzfile 0 1 B.xyz
|  4>
|  5> %MaxCore 64000
|  6>
|  7> %pal nprocs 4
|  8> end
|  9>
| 10> %scf
| 11>   MaxIter 150
| 12> end
| 13>
| 14>
| 15>                          ****END OF INPUT****

CARTESIAN COORDINATES (ANGSTROEM)
---------------------------------
  C      0.816067   -2.101491   -2.186546
  H      1.696232   -2.368691   -1.600457
  N      1.100552   -2.467492   -3.599269
  C      0.516243   -0.613634   -2.039373
  H     -0.020066   -2.712849   -1.840844
  C     -0.868621   -0.193925   -2.546303
  C     -0.984801    1.284739   -2.928686
  H     -0.764939    1.904116   -2.051568
  H     -2.032613    1.478953   -3.178952
  C     -0.106085    1.769914   -4.089836
  H     -0.347744    2.822196   -4.262942
  H      0.949683    1.745875   -3.808781
  C     -0.258747    1.004323   -5.409829
  C      0.395958   -0.370696   -5.339939
  H      0.239150    1.569393   -6.201253
  H     -1.309360    0.888694   -5.682455
  H      1.700606   -1.757225   -4.078378
  H      0.293855   -2.359766   -4.256324
  H      1.501324   -3.428479   -3.694915
  O     -0.326329   -1.390398   -5.491279
  O      1.619412   -0.400726   -5.036827
  H     -1.607271   -0.412651   -1.768955
  H     -1.157234   -0.796164   -3.409254
  H      1.299044   -0.056805   -2.558982
  H      0.612393   -0.365579   -0.979171

 Total Charge           Charge          ....    0
 Multiplicity           Mult            ....    1
 Number of Electrons    NEL             ....   80
 Basis Dimension        Dim             ....  511

ORBITAL ENERGIES
----------------

  NO   OCC          E(Eh)            E(eV)
   0   2.0000     -18.709987      -509.1246
   1   2.0000     -18.708473      -509.0834
   2   2.0000     -14.088212      -383.3597
   3   2.0000      -9.975275      -271.4410
   4   2.0000      -9.973017      -271.3796
   5   2.0000      -9.918196      -269.8878
   6   2.0000      -9.900307      -269.4010
   7   2.0000      -9.896174      -269.2886
   8   2.0000      -9.889269      -269.1007
   9   2.0000      -9.880789      -268.8699
  10   2.0000      -0.934994       -25.4425
  11   2.0000      -0.889699       -24.2099
  12   2.0000      -0.840769       -22.8785
  13   2.0000      -0.734008       -19.9734
  14   2.0000      -0.694143       -18.8886
  15   2.0000      -0.650480       -17.7004
  16   2.0000      -0.592026       -16.1099
  17   2.0000      -0.560915       -15.2633
  18   2.0000      -0.518491       -14.1088
  19   2.0000      -0.504303       -13.7228
  20   2.0000      -0.482816       -13.1381
  21   2.0000      -0.460006       -12.5174
  22   2.0000      -0.425137       -11.5686
  23   2.0000      -0.414640       -11.2829
  24   2.0000      -0.402396       -10.9497
  25   2.0000      -0.392214       -10.6727
  26   2.0000      -0.373158       -10.1542
  27   2.0000      -0.365278        -9.9397
  28   2.0000      -0.349110        -9.4998
  29   2.0000      -0.341185        -9.2841
  30   2.0000      -0.335011        -9.1161
  31   2.0000      -0.326146        -8.8749
  32   2.0000      -0.307191        -8.3591
  33   2.0000      -0.303484        -8.2582
  34   2.0000      -0.281685        -7.6650
  35   2.0000      -0.269705        -7.3390
  36   2.0000      -0.265262        -7.2181
  37   2.0000      -0.209384        -5.6976
  38   2.0000      -0.192189        -5.2297
  39   2.0000      -0.180519        -4.9122
  40   0.0000      -0.039498        -1.0748
  41   0.0000      -0.007901        -0.2150
  42   0.0000       0.001370         0.0373
  43   0.0000       0.006139         0.1670
  44   0.0000       0.011325         0.3082

MULLIKEN ATOMIC CHARGES
-----------------------
   0 C :   -0.755102
   1 H :    0.299319
   2 N :   -0.209477
   3 C :   -0.256555
   4 H :    0.292952
   5 C :   -0.648885
   6 C :   -0.578737
   7 H :    0.227354
   8 H :    0.277981
   9 C :   -0.542262
  10 H :    0.234188
  11 H :    0.207649
  12 C :   -0.378990
  13 C :    0.740911
  14 H :    0.285136
  15 H :    0.187649
  16 H :    0.294142
  17 H :    0.278178
  18 H :    0.280401
  19 O :   -0.799839
  20 O :   -0.809936
  21 H :    0.311352
  22 H :    0.447150
  23 H :    0.231316
  24 H :    0.384105
Sum of atomic charges:    0.0000000

LOEWDIN ATOMIC CHARGES
----------------------
   0 C :   -0.163572
   1 H :    0.116066
   2 N :    0.133180
   3 C :   -0.178765
   4 H :    0.122088
   5 C :   -0.194713
   6 C :   -0.192495
   7 H :    0.106117
   8 H :    0.107734
   9 C :   -0.198828
  10 H :    0.103438
  11 H :    0.099057
  12 C :   -0.109202
  13 C :   -0.675698
  14 H :    0.113272
  15 H :    0.111059
  16 H :    0.088796
  17 H :    0.088553
  18 H :    0.169601
  19 O :   -0.040250
  20 O :   -0.030884
  21 H :    0.110184
  22 H :    0.095441
  23 H :    0.104200
  24 H :    0.115623

  Mayer bond orders larger than 0.100000
B(  0-C ,  1-H ) :   0.9161 B(  0-C ,  2-N ) :   0.9740 B(  0-C ,  3-C ) :   0.7523
B(  0-C ,  4-H ) :   0.9235 B(  0-C ,  5-C ) :   0.2298 B(  2-N , 16-H ) :   0.7662
B(  2-N , 17-H ) :   0.7807 B(  2-N , 18-H ) :   0.8748 B(  3-C ,  5-C ) :   0.3495
B(  3-C ,  6-C ) :   0.1738 B(  3-C , 23-H ) :   1.0053 B(  3-C , 24-H ) :   0.8668
B(  5-C ,  6-C ) :   0.8617 B(  5-C , 21-H ) :   0.9446 B(  5-C , 22-H ) :   0.8693
B(  6-C ,  7-H ) :   0.9839 B(  6-C ,  8-H ) :   0.9437 B(  6-C ,  9-C ) :   0.8183
B(  9-C , 10-H ) :   0.9679 B(  9-C , 11-H ) :   0.9386 B(  9-C , 12-C ) :   0.8092
B( 12-C , 13-C ) :   0.9362 B( 12-C , 14-H ) :   0.8631 B( 12-C , 15-H ) :   1.0757
B( 13-C , 19-O ) :   1.1486 B( 13-C , 20-O ) :   1.1359 B( 16-H , 20-O ) :   0.2284
B( 17-H , 19-O ) :   0.2225 B( 19-O , 20-O ) :   0.1319

Dispersion correction           -0.053750184
FINAL SINGLE POINT ENERGY      -481.027675378381

DIPOLE MOMENT
-------------
                                X             Y             Z
Electronic contribution:      2.29453      -3.06659      -6.31593
Nuclear contribution   :     -2.02598       1.95876       8.24116
                        -----------------------------------------
Total Dipole Moment    :      0.26855      -1.10783       1.92523
                        -----------------------------------------
Magnitude (a.u.)       :      2.23739
Magnitude (Debye)      :      5.68700

Rotational constants in cm-1:     0.052900     0.041948     0.028766
Rotational constants in MHz :  1585.892512  1257.572595   862.390225

                             ****ORCA TERMINATED NORMALLY****
TOTAL RUN TIME: 0 days 0 hours 0 minutes 50 seconds 981 msec
