                         Program Version 5.0.0 -  RELEASE  -
|  1> !BLYP D3BJ RIJCOSX def2-TZVPD def2/J TightSCF
|  2> *xyz 0 1
|  3> C         -0.10608        1.76991       -4.08984
|  4> C         -0.25875        1.00432       -5.40983
|  5> C          0.39596       -0.37070       -5.33994
|  6> H          0.23915        1.56939       -6.20125
|  7> H         -1.30936        0.88869       -5.68245
|  8> F         -0.32633       -1.39040       -5.49128
|  9> O          1.61941       -0.40073       -5.03683
| 10> H         -0.57627        2.72718       -4.17630
| 11> H          0.93321        1.90140       -3.87192
| 12> H         -0.56868        1.21534       -3.30031
| 13> *
| 14> %MaxCore 64000
| 15>
| 16> %pal nprocs 4
| 17> end
| 18>
| 19> %scf
| 20>   MaxIter 150
| 21> end
| 22>
| 23>
| 24>                          ****END OF INPUT****

CARTESIAN COORDINATES (ANGSTROEM)
---------------------------------
  C     -0.106080    1.769910   -4.089840
  C     -0.258750    1.004320   -5.409830
  C      0.395960   -0.370700   -5.339940
  H      0.239150    1.569390   -6.201250
  H     -1.309360    0.888690   -5.682450
  F     -0.326330   -1.390400   -5.491280
  O      1.619410   -0.400730   -5.036830
  H     -0.576270    2.727180   -4.176300
  H      0.933210    1.901400   -3.871920
  H     -0.568680    1.215340   -3.300310

 Total Charge           Charge          ....    0
 Multiplicity           Mult            ....    1
 Number of Electrons    NEL             ....   40
 Basis Dimension        Dim             ....  236

ORBITAL ENERGIES
----------------

  NO   OCC          E(Eh)            E(eV)
   0   2.0000     -24.353215      -662.6847
   1   2.0000     -18.776504      -510.9347
   2   2.0000     -10.075017      -274.1551
   3   2.0000      -9.936718      -270.3919
   4   2.0000      -9.909397      -269.6484
   5   2.0000      -1.206839       -32.8398
   6   2.0000      -0.936303       -25.4781
   7   2.0000      -0.721941       -19.6450
   8   2.0000      -0.618171       -16.8213
   9   2.0000      -0.571366       -15.5477
  10   2.0000      -0.484323       -13.1791
  11   2.0000      -0.469602       -12.7785
  12   2.0000      -0.446923       -12.1614
  13   2.0000      -0.413171       -11.2429
  14   2.0000      -0.381369       -10.3776
  15   2.0000      -0.352063        -9.5801
  16   2.0000      -0.331525        -9.0212
  17   2.0000      -0.327646        -8.9157
  18   2.0000      -0.301920        -8.2156
  19   2.0000      -0.241637        -6.5753
  20   0.0000      -0.067530        -1.8376
  21   0.0000      -0.014677        -0.3994
  22   0.0000       0.012869         0.3502
  23   0.0000       0.024327         0.6620
  24   0.0000       0.032281         0.8784

MULLIKEN ATOMIC CHARGES
-----------------------
   0 C :   -1.145280
   1 C :   -0.110727
   2 C :    0.535760
   3 H :    0.223909
   4 H :    0.232982
   5 F :   -0.206776
   6 O :   -0.490615
   7 H :    0.307886
   8 H :    0.302250
   9 H :    0.350612
Sum of atomic charges:    0.0000000

LOEWDIN ATOMIC CHARGES
----------------------
   0 C :   -0.078653
   1 C :   -0.154737
   2 C :   -0.503822
   3 H :    0.117387
   4 H :    0.104539
   5 F :    0.219082
   6 O :    0.089268
   7 H :    0.066027
   8 H :    0.069367
   9 H :    0.071542

  Mayer bond orders larger than 0.100000
B(  0-C ,  1-C ) :   0.5916 B(  0-C ,  7-H ) :   0.9357 B(  0-C ,  8-H ) :   1.0076
B(  0-C ,  9-H ) :   0.9017 B(  1-C ,  2-C ) :   0.9084 B(  1-C ,  3-H ) :   0.9521
B(  1-C ,  4-H ) :   0.9715 B(  2-C ,  5-F ) :   1.0097 B(  2-C ,  6-O ) :   1.7037

Dispersion correction           -0.012887732
FINAL SINGLE POINT ENERGY      -292.454593279100

DIPOLE MOMENT
-------------
                                X             Y             Z
Electronic contribution:      0.87639      -8.19841      -2.56005
Nuclear contribution   :     -1.80992       8.85192       2.42184
                        -----------------------------------------
Total Dipole Moment    :     -0.93353       0.65352      -0.13821
                        -----------------------------------------
Magnitude (a.u.)       :      1.14790
Magnitude (Debye)      :      2.91772

Rotational constants in cm-1:     0.298360     0.128849     0.102271
Rotational constants in MHz :  8944.606599  3862.796179  3066.020510

                             ****ORCA TERMINATED NORMALLY****
TOTAL RUN TIME: 0 days 0 hours 0 minutes 13 seconds 677 msec
