                         Program Version 5.0.0 -  RELEASE  -
|  1> !BLYP D3BJ RIJCOSX def2-TZVPD def2/J TightSCF
|  2> *xyz 0 1
|  3> C          0.81607       -2.10149       -2.18655
|  4> H          1.69623       -2.36869       -1.60046
|  5> C          1.10055       -2.46749       -3.59927
|  6> C          0.51624       -0.61363       -2.03937
|  7> H         -0.02007       -2.71285       -1.84084
|  8> H          1.70061       -1.75723       -4.07838
|  9> H          0.29386       -2.35977       -4.25632
| 10> H          1.50132       -3.42848       -3.69491
| 11> H         -0.34841       -0.36504       -2.61858
| 12> H          1.35358       -0.04503       -2.38643
| 13> H          0.33317       -0.38682       -1.00984
| 14> *
| 15> %MaxCore 64000
| 16>
| 17> %pal nprocs 4
| 18> end
| 19>
| 20> %scf
| 21>   MaxIter 150
| 22> end
| 23>
| 24>
| 25>                          ****END OF INPUT****

CARTESIAN COORDINATES (ANGSTROEM)
---------------------------------
  C      0.816070   -2.101490   -2.186550
  H      1.696230   -2.368690   -1.600460
  C      1.100550   -2.467490   -3.599270
  C      0.516240   -0.613630   -2.039370
  H     -0.020070   -2.712850   -1.840840
  H      1.700610   -1.757230   -4.078380
  H      0.293860   -2.359770   -4.256320
  H      1.501320   -3.428480   -3.694910
  H     -0.348410   -0.365040   -2.618580
  H      1.353580   -0.045030   -2.386430
  H      0.333170   -0.386820   -1.009840

 Total Charge           Charge          ....    0
 Multiplicity           Mult            ....    1
 Number of Electrons    NEL             ....   26
 Basis Dimension        Dim             ....  183

ORBITAL ENERGIES
----------------

  NO   OCC          E(Eh)            E(eV)
   0   2.0000      -9.892362      -269.1849
   1   2.0000      -9.882462      -268.9154
   2   2.0000      -9.869978      -268.5758
   3   2.0000      -0.709405       -19.3039
   4   2.0000      -0.615459       -16.7475
   5   2.0000      -0.524713       -14.2782
   6   2.0000      -0.407074       -11.0770
   7   2.0000      -0.393820       -10.7164
   8   2.0000      -0.363063        -9.8794
   9   2.0000      -0.328853        -8.9486
  10   2.0000      -0.297554        -8.0969
  11   2.0000      -0.292644        -7.9633
  12   2.0000      -0.277704        -7.5567
  13   0.0000      -0.002907        -0.0791
  14   0.0000       0.022257         0.6056
  15   0.0000       0.023881         0.6498
  16   0.0000       0.043546         1.1850
  17   0.0000       0.064987         1.7684

MULLIKEN ATOMIC CHARGES
-----------------------
   0 C :    0.088322
   1 H :    0.226746
   2 C :   -1.375468
   3 C :   -1.168021
   4 H :    0.218004
   5 H :    0.373595
   6 H :    0.393986
   7 H :    0.312011
   8 H :    0.316958
   9 H :    0.318916
  10 H :    0.294952
Sum of atomic charges:   -0.0000000

LOEWDIN ATOMIC CHARGES
----------------------
   0 C :   -0.310959
   1 H :    0.099431
   2 C :   -0.132343
   3 C :   -0.108204
   4 H :    0.100545
   5 H :    0.054591
   6 H :    0.056520
   7 H :    0.056718
   8 H :    0.063530
   9 H :    0.062639
  10 H :    0.057530

  Mayer bond orders larger than 0.100000
B(  0-C ,  1-H ) :   0.9791 B(  0-C ,  2-C ) :   0.5491 B(  0-C ,  3-C ) :   0.5609
B(  0-C ,  4-H ) :   0.9734 B(  2-C ,  3-C ) :   0.1287 B(  2-C ,  5-H ) :   0.9237
B(  2-C ,  6-H ) :   0.9159 B(  2-C ,  7-H ) :   0.9579 B(  3-C ,  8-H ) :   0.9667
B(  3-C ,  9-H ) :   0.9697 B(  3-C , 10-H ) :   0.9743

Dispersion correction           -0.012496733
FINAL SINGLE POINT ENERGY      -119.099562940100

DIPOLE MOMENT
-------------
                                X             Y             Z
Electronic contribution:     -0.01844      -0.31078       0.46873
Nuclear contribution   :      0.01737       0.30387      -0.47422
                        -----------------------------------------
Total Dipole Moment    :     -0.00106      -0.00691      -0.00549
                        -----------------------------------------
Magnitude (a.u.)       :      0.00889
Magnitude (Debye)      :      0.02259

Rotational constants in cm-1:     1.006891     0.295208     0.258491
Rotational constants in MHz : 30185.831813  8850.104914  7749.351732

                             ****ORCA TERMINATED NORMALLY****
TOTAL RUN TIME: 0 days 0 hours 0 minutes 10 seconds 347 msec
