                         Program Version 5.0.0 -  RELEASE  -
|  1> !BLYP D3BJ RIJCOSX def2-TZVPD def2/J TightSCF
|  2> *xyz 0 1
|  3> C         -0.10608        1.76991       -4.08984
|  4> C         -0.25875        1.00432       -5.40983
|  5> C          0.39596       -0.37070       -5.33994
|  6> H          0.23915        1.56939       -6.20125
|  7> H         -1.30936        0.88869       -5.68245
|  8> O         -0.32633       -1.39040       -5.49128
|  9> F          1.61941       -0.40073       -5.03683
| 10> H         -0.57627        2.72718       -4.17630
| 11> H          0.93321        1.90140       -3.87192
| 12> H         -0.56868        1.21534       -3.30031
| 13> *
| 14> %MaxCore 64000
| 15>
| 16> %pal nprocs 4
| 17> end
| 18>
| 19> %scf
| 20>   MaxIter 150
| 21> end
| 22>
| 23>
| 24>                          ****END OF INPUT****

CARTESIAN COORDINATES (ANGSTROEM)
---------------------------------
  C     -0.106080    1.769910   -4.089840
  C     -0.258750    1.004320   -5.409830
  C      0.395960   -0.370700   -5.339940
  H      0.239150    1.569390   -6.201250
  H     -1.309360    0.888690   -5.682450
  O     -0.326330   -1.390400   -5.491280
  F      1.619410   -0.400730   -5.036830
  H     -0.576270    2.727180   -4.176300
  H      0.933210    1.901400   -3.871920
  H     -0.568680    1.215340   -3.300310

 Total Charge           Charge          ....    0
 Multiplicity           Mult            ....    1
 Number of Electrons    NEL             ....   40
 Basis Dimension        Dim             ....  236

ORBITAL ENERGIES
----------------

  NO   OCC          E(Eh)            E(eV)
   0   2.0000     -24.351784      -662.6457
   1   2.0000     -18.777164      -510.9526
   2   2.0000     -10.074303      -274.1357
   3   2.0000      -9.936508      -270.3861
   4   2.0000      -9.914254      -269.7806
   5   2.0000      -1.205475       -32.8026
   6   2.0000      -0.936203       -25.4754
   7   2.0000      -0.726290       -19.7634
   8   2.0000      -0.615789       -16.7565
   9   2.0000      -0.574652       -15.6371
  10   2.0000      -0.485493       -13.2109
  11   2.0000      -0.472693       -12.8626
  12   2.0000      -0.441583       -12.0161
  13   2.0000      -0.413017       -11.2388
  14   2.0000      -0.383017       -10.4224
  15   2.0000      -0.354523        -9.6471
  16   2.0000      -0.335188        -9.1209
  17   2.0000      -0.332310        -9.0426
  18   2.0000      -0.306809        -8.3487
  19   2.0000      -0.238593        -6.4924
  20   0.0000      -0.064447        -1.7537
  21   0.0000      -0.016689        -0.4541
  22   0.0000       0.012772         0.3476
  23   0.0000       0.023596         0.6421
  24   0.0000       0.032863         0.8943

MULLIKEN ATOMIC CHARGES
-----------------------
   0 C :   -1.172959
   1 C :   -0.076979
   2 C :    0.537557
   3 H :    0.247678
   4 H :    0.197214
   5 O :   -0.485414
   6 F :   -0.221834
   7 H :    0.301248
   8 H :    0.311630
   9 H :    0.361859
Sum of atomic charges:   -0.0000000

LOEWDIN ATOMIC CHARGES
----------------------
   0 C :   -0.081053
   1 C :   -0.150018
   2 C :   -0.510159
   3 H :    0.113652
   4 H :    0.114350
   5 O :    0.091716
   6 F :    0.216197
   7 H :    0.066492
   8 H :    0.065701
   9 H :    0.073122

  Mayer bond orders larger than 0.100000
B(  0-C ,  1-C ) :   0.5382 B(  0-C ,  7-H ) :   0.9528 B(  0-C ,  8-H ) :   0.9737
B(  0-C ,  9-H ) :   0.9198 B(  1-C ,  2-C ) :   0.9001 B(  1-C ,  3-H ) :   0.9342
B(  1-C ,  4-H ) :   1.0121 B(  2-C ,  5-O ) :   1.7080 B(  2-C ,  6-F ) :   0.9905

Dispersion correction           -0.012797336
FINAL SINGLE POINT ENERGY      -292.455871576021

DIPOLE MOMENT
-------------
                                X             Y             Z
Electronic contribution:      4.07296      -6.53659      -1.80674
Nuclear contribution   :     -3.93139       7.77287       1.92635
                        -----------------------------------------
Total Dipole Moment    :      0.14157       1.23629       0.11961
                        -----------------------------------------
Magnitude (a.u.)       :      1.25010
Magnitude (Debye)      :      3.17751

Rotational constants in cm-1:     0.286068     0.133630     0.103472
Rotational constants in MHz :  8576.109806  4006.118234  3102.010802

                             ****ORCA TERMINATED NORMALLY****
TOTAL RUN TIME: 0 days 0 hours 0 minutes 13 seconds 683 msec
