                         Program Version 5.0.0 -  RELEASE  -
|  1> !BLYP D3BJ RIJCOSX def2-TZVPD def2/J TightSCF xyzfile
|  2>
|  3> *xyzfile 0 1 D1.xyz
|  4>
|  5> %MaxCore 64000
|  6>
|  7> %pal nprocs 4
|  8> end
|  9>
| 10> %scf
| 11>   MaxIter 150
| 12> end
| 13>
| 14>
| 15>                          ****END OF INPUT****

CARTESIAN COORDINATES (ANGSTROEM)
---------------------------------
  C      0.816067   -2.101491   -2.186546
  H      1.696232   -2.368691   -1.600457
  C      1.100552   -2.467492   -3.599269
  C      0.516243   -0.613634   -2.039373
  H     -0.020066   -2.712849   -1.840844
  C     -0.868621   -0.193925   -2.546303
  C     -0.984801    1.284739   -2.928686
  H     -0.764939    1.904116   -2.051568
  H     -2.032613    1.478953   -3.178952
  C     -0.106085    1.769914   -4.089836
  H     -0.347744    2.822196   -4.262942
  H      0.949683    1.745875   -3.808781
  C     -0.258747    1.004323   -5.409829
  C      0.395958   -0.370696   -5.339939
  H      0.239150    1.569393   -6.201253
  H     -1.309360    0.888694   -5.682455
  H      1.700606   -1.757225   -4.078378
  H      0.293855   -2.359766   -4.256324
  H      1.501324   -3.428479   -3.694915
  F     -0.326329   -1.390398   -5.491279
  O      1.619412   -0.400726   -5.036827
  H     -1.607271   -0.412651   -1.768955
  H     -1.157234   -0.796164   -3.409254
  H      1.299044   -0.056805   -2.558982
  H      0.612393   -0.365579   -0.979171

 Total Charge           Charge          ....    0
 Multiplicity           Mult            ....    1
 Number of Electrons    NEL             ....   80
 Basis Dimension        Dim             ....  511

ORBITAL ENERGIES
----------------

  NO   OCC          E(Eh)            E(eV)
   0   2.0000     -24.359685      -662.8607
   1   2.0000     -18.782092      -511.0867
   2   2.0000     -10.081539      -274.3326
   3   2.0000      -9.937177      -270.4043
   4   2.0000      -9.917778      -269.8765
   5   2.0000      -9.906636      -269.5733
   6   2.0000      -9.899259      -269.3725
   7   2.0000      -9.886115      -269.0149
   8   2.0000      -9.877082      -268.7691
   9   2.0000      -9.829263      -267.4679
  10   2.0000      -1.219440       -33.1827
  11   2.0000      -0.950270       -25.8582
  12   2.0000      -0.743563       -20.2334
  13   2.0000      -0.712769       -19.3954
  14   2.0000      -0.668316       -18.1858
  15   2.0000      -0.633251       -17.2316
  16   2.0000      -0.595398       -16.2016
  17   2.0000      -0.569805       -15.5052
  18   2.0000      -0.533157       -14.5079
  19   2.0000      -0.494732       -13.4623
  20   2.0000      -0.493817       -13.4374
  21   2.0000      -0.475565       -12.9408
  22   2.0000      -0.463495       -12.6123
  23   2.0000      -0.423151       -11.5145
  24   2.0000      -0.403995       -10.9933
  25   2.0000      -0.392192       -10.6721
  26   2.0000      -0.386759       -10.5242
  27   2.0000      -0.373044       -10.1511
  28   2.0000      -0.361341        -9.8326
  29   2.0000      -0.350556        -9.5391
  30   2.0000      -0.331518        -9.0211
  31   2.0000      -0.321858        -8.7582
  32   2.0000      -0.316869        -8.6224
  33   2.0000      -0.306214        -8.3325
  34   2.0000      -0.294705        -8.0193
  35   2.0000      -0.282109        -7.6766
  36   2.0000      -0.272304        -7.4098
  37   2.0000      -0.264168        -7.1884
  38   2.0000      -0.254543        -6.9265
  39   2.0000      -0.219155        -5.9635
  40   0.0000      -0.076460        -2.0806
  41   0.0000      -0.014748        -0.4013
  42   0.0000       0.004864         0.1324
  43   0.0000       0.008393         0.2284
  44   0.0000       0.010341         0.2814

MULLIKEN ATOMIC CHARGES
-----------------------
   0 C :   -0.232774
   1 H :    0.224811
   2 C :   -1.833479
   3 C :   -0.327667
   4 H :    0.208395
   5 C :   -0.602003
   6 C :   -0.544978
   7 H :    0.232187
   8 H :    0.266757
   9 C :   -0.524245
  10 H :    0.242165
  11 H :    0.248111
  12 C :   -0.406041
  13 C :    0.637010
  14 H :    0.289287
  15 H :    0.227923
  16 H :    0.620448
  17 H :    0.549873
  18 H :    0.400526
  19 F :   -0.285231
  20 O :   -0.559506
  21 H :    0.332950
  22 H :    0.299542
  23 H :    0.188912
  24 H :    0.347026
Sum of atomic charges:    0.0000000

LOEWDIN ATOMIC CHARGES
----------------------
   0 C :   -0.234752
   1 H :    0.103785
   2 C :   -0.119587
   3 C :   -0.200591
   4 H :    0.105883
   5 C :   -0.193673
   6 C :   -0.193765
   7 H :    0.110916
   8 H :    0.105845
   9 C :   -0.188715
  10 H :    0.109361
  11 H :    0.105337
  12 C :   -0.085500
  13 C :   -0.477325
  14 H :    0.123596
  15 H :    0.116084
  16 H :    0.020459
  17 H :    0.033752
  18 H :    0.069950
  19 F :    0.190512
  20 O :    0.080819
  21 H :    0.113615
  22 H :    0.096450
  23 H :    0.099597
  24 H :    0.107947

  Mayer bond orders larger than 0.100000
B(  0-C ,  1-H ) :   0.9515 B(  0-C ,  2-C ) :   0.3622 B(  0-C ,  3-C ) :   0.8635
B(  0-C ,  4-H ) :   0.9617 B(  0-C ,  5-C ) :   0.2972 B(  2-C , 16-H ) :   0.7241
B(  2-C , 17-H ) :   0.7586 B(  2-C , 18-H ) :   0.8453 B(  3-C ,  5-C ) :   0.3789
B(  3-C ,  6-C ) :   0.1566 B(  3-C , 23-H ) :   1.0375 B(  3-C , 24-H ) :   0.8549
B(  5-C ,  6-C ) :   0.8308 B(  5-C , 21-H ) :   0.9168 B(  5-C , 22-H ) :   0.9301
B(  6-C ,  7-H ) :   0.9823 B(  6-C ,  8-H ) :   0.9591 B(  6-C ,  9-C ) :   0.8409
B(  9-C , 10-H ) :   0.9653 B(  9-C , 11-H ) :   0.9174 B(  9-C , 12-C ) :   0.7932
B( 12-C , 13-C ) :   0.9145 B( 12-C , 14-H ) :   0.8803 B( 12-C , 15-H ) :   1.0318
B( 13-C , 19-F ) :   0.8204 B( 13-C , 20-O ) :   1.6202 B( 16-H , 20-O ) :  -0.1433
B( 19-F , 20-O ) :   0.1119

Dispersion correction           -0.052536264
FINAL SINGLE POINT ENERGY      -488.931034348944

DIPOLE MOMENT
-------------
                                X             Y             Z
Electronic contribution:      0.38231      -2.01675     -10.56413
Nuclear contribution   :     -1.21560       2.80077      10.24180
                        -----------------------------------------
Total Dipole Moment    :     -0.83329       0.78402      -0.32232
                        -----------------------------------------
Magnitude (a.u.)       :      1.18868
Magnitude (Debye)      :      3.02137

Rotational constants in cm-1:     0.051255     0.042531     0.028894
Rotational constants in MHz :  1536.587743  1275.050721   866.218876

                             ****ORCA TERMINATED NORMALLY****
TOTAL RUN TIME: 0 days 0 hours 0 minutes 50 seconds 121 msec
