                         Program Version 5.0.0 -  RELEASE  -
|  1> !BLYP D3BJ RIJCOSX def2-TZVPD def2/J TightSCF xyzfile
|  2>
|  3> *xyzfile 0 1 D2.xyz
|  4>
|  5> %MaxCore 64000
|  6>
|  7> %pal nprocs 4
|  8> end
|  9>
| 10> %scf
| 11>   MaxIter 150
| 12> end
| 13>
| 14>
| 15>                          ****END OF INPUT****

CARTESIAN COORDINATES (ANGSTROEM)
---------------------------------
  C      0.816067   -2.101491   -2.186546
  H      1.696232   -2.368691   -1.600457
  C      1.100552   -2.467492   -3.599269
  C      0.516243   -0.613634   -2.039373
  H     -0.020066   -2.712849   -1.840844
  C     -0.868621   -0.193925   -2.546303
  C     -0.984801    1.284739   -2.928686
  H     -0.764939    1.904116   -2.051568
  H     -2.032613    1.478953   -3.178952
  C     -0.106085    1.769914   -4.089836
  H     -0.347744    2.822196   -4.262942
  H      0.949683    1.745875   -3.808781
  C     -0.258747    1.004323   -5.409829
  C      0.395958   -0.370696   -5.339939
  H      0.239150    1.569393   -6.201253
  H     -1.309360    0.888694   -5.682455
  H      1.700606   -1.757225   -4.078378
  H      0.293855   -2.359766   -4.256324
  H      1.501324   -3.428479   -3.694915
  O     -0.326329   -1.390398   -5.491279
  F      1.619412   -0.400726   -5.036827
  H     -1.607271   -0.412651   -1.768955
  H     -1.157234   -0.796164   -3.409254
  H      1.299044   -0.056805   -2.558982
  H      0.612393   -0.365579   -0.979171

 Total Charge           Charge          ....    0
 Multiplicity           Mult            ....    1
 Number of Electrons    NEL             ....   80
 Basis Dimension        Dim             ....  511

ORBITAL ENERGIES
----------------

  NO   OCC          E(Eh)            E(eV)
   0   2.0000     -24.359877      -662.8660
   1   2.0000     -18.782002      -511.0842
   2   2.0000     -10.081238      -274.3244
   3   2.0000      -9.937080      -270.4017
   4   2.0000      -9.921515      -269.9782
   5   2.0000      -9.906647      -269.5736
   6   2.0000      -9.894141      -269.2333
   7   2.0000      -9.889771      -269.1144
   8   2.0000      -9.878096      -268.7967
   9   2.0000      -9.830490      -267.5012
  10   2.0000      -1.219466       -33.1834
  11   2.0000      -0.949952       -25.8495
  12   2.0000      -0.745952       -20.2984
  13   2.0000      -0.714341       -19.4382
  14   2.0000      -0.668979       -18.2038
  15   2.0000      -0.632531       -17.2121
  16   2.0000      -0.595254       -16.1977
  17   2.0000      -0.570390       -15.5211
  18   2.0000      -0.534196       -14.5362
  19   2.0000      -0.499692       -13.5973
  20   2.0000      -0.494629       -13.4595
  21   2.0000      -0.480869       -13.0851
  22   2.0000      -0.450927       -12.2704
  23   2.0000      -0.424569       -11.5531
  24   2.0000      -0.403276       -10.9737
  25   2.0000      -0.392753       -10.6874
  26   2.0000      -0.387877       -10.5547
  27   2.0000      -0.378736       -10.3059
  28   2.0000      -0.362263        -9.8577
  29   2.0000      -0.343492        -9.3469
  30   2.0000      -0.338110        -9.2004
  31   2.0000      -0.327902        -8.9227
  32   2.0000      -0.322398        -8.7729
  33   2.0000      -0.305468        -8.3122
  34   2.0000      -0.288803        -7.8587
  35   2.0000      -0.283594        -7.7170
  36   2.0000      -0.274298        -7.4640
  37   2.0000      -0.260916        -7.0999
  38   2.0000      -0.256512        -6.9800
  39   2.0000      -0.219651        -5.9770
  40   0.0000      -0.075087        -2.0432
  41   0.0000      -0.016226        -0.4415
  42   0.0000       0.005056         0.1376
  43   0.0000       0.006286         0.1711
  44   0.0000       0.010399         0.2830

MULLIKEN ATOMIC CHARGES
-----------------------
   0 C :   -0.209387
   1 H :    0.220627
   2 C :   -1.819976
   3 C :   -0.336446
   4 H :    0.212424
   5 C :   -0.649429
   6 C :   -0.487564
   7 H :    0.237385
   8 H :    0.270923
   9 C :   -0.578649
  10 H :    0.231789
  11 H :    0.259774
  12 C :   -0.371467
  13 C :    0.651478
  14 H :    0.304143
  15 H :    0.192605
  16 H :    0.509575
  17 H :    0.638036
  18 H :    0.399235
  19 O :   -0.564395
  20 F :   -0.294735
  21 H :    0.335238
  22 H :    0.352472
  23 H :    0.156202
  24 H :    0.340141
Sum of atomic charges:    0.0000000

LOEWDIN ATOMIC CHARGES
----------------------
   0 C :   -0.235064
   1 H :    0.101714
   2 C :   -0.116543
   3 C :   -0.201503
   4 H :    0.108677
   5 C :   -0.193175
   6 C :   -0.192920
   7 H :    0.109640
   8 H :    0.107706
   9 C :   -0.193358
  10 H :    0.108497
  11 H :    0.101925
  12 C :   -0.079701
  13 C :   -0.482676
  14 H :    0.120591
  15 H :    0.124823
  16 H :    0.037426
  17 H :    0.018393
  18 H :    0.070950
  19 O :    0.073551
  20 F :    0.195481
  21 H :    0.113535
  22 H :    0.097805
  23 H :    0.096526
  24 H :    0.107700

  Mayer bond orders larger than 0.100000
B(  0-C ,  1-H ) :   0.9611 B(  0-C ,  2-C ) :   0.3541 B(  0-C ,  3-C ) :   0.8679
B(  0-C ,  4-H ) :   0.9598 B(  0-C ,  5-C ) :   0.2642 B(  2-C , 16-H ) :   0.8007
B(  2-C , 17-H ) :   0.7050 B(  2-C , 18-H ) :   0.8340 B(  3-C ,  5-C ) :   0.3842
B(  3-C ,  6-C ) :   0.1398 B(  3-C ,  9-C ) :   0.1071 B(  3-C , 23-H ) :   1.0445
B(  3-C , 24-H ) :   0.8610 B(  5-C ,  6-C ) :   0.8336 B(  5-C , 21-H ) :   0.9109
B(  5-C , 22-H ) :   0.9426 B(  6-C ,  7-H ) :   0.9895 B(  6-C ,  8-H ) :   0.9561
B(  6-C ,  9-C ) :   0.8425 B(  9-C , 10-H ) :   0.9891 B(  9-C , 11-H ) :   0.9132
B(  9-C , 12-C ) :   0.7607 B( 12-C , 13-C ) :   0.9123 B( 12-C , 14-H ) :   0.8831
B( 12-C , 15-H ) :   1.0542 B( 13-C , 19-O ) :   1.5970 B( 13-C , 20-F ) :   0.8143
B( 17-H , 19-O ) :  -0.1130 B( 19-O , 20-F ) :   0.1097

Dispersion correction           -0.052423032
FINAL SINGLE POINT ENERGY      -488.930995944396

DIPOLE MOMENT
-------------
                                X             Y             Z
Electronic contribution:      3.59938      -0.37180      -9.80917
Nuclear contribution   :     -3.57245       1.60200       9.69133
                        -----------------------------------------
Total Dipole Moment    :      0.02693       1.23020      -0.11784
                        -----------------------------------------
Magnitude (a.u.)       :      1.23612
Magnitude (Debye)      :      3.14198

Rotational constants in cm-1:     0.051520     0.042563     0.028962
Rotational constants in MHz :  1544.537298  1275.996546   868.258224

                             ****ORCA TERMINATED NORMALLY****
TOTAL RUN TIME: 0 days 0 hours 0 minutes 50 seconds 957 msec
