                         Program Version 5.0.0 -  RELEASE  -
|  1> !wB97X-D3 RIJCOSX def2-TZVPD def2/J TightSCF
|  2> *xyz -1 1
|  3> C         -1.91658       -2.48508       -3.64367
|  4> C         -1.36353       -1.98134       -2.29361
|  5> O         -0.35039       -2.74969       -1.79601
|  6> H         -2.22622       -1.90839       -1.60204
|  7> H         -1.05135       -0.91567       -2.44333
|  8> H         -1.11522       -2.57167       -4.34739
|  9> H         -2.64227       -1.79099       -4.01314
| 10> H         -2.37564       -3.44180       -3.50640
| 11> *
| 12>
| 13> %MaxCore 64000
| 14> %pal nprocs 4
| 15> end
| 16>
| 17> %scf
| 18>   MaxIter 150
| 19> end
| 20>
| 21>
| 22>                          ****END OF INPUT****

CARTESIAN COORDINATES (ANGSTROEM)
---------------------------------
  C     -1.916580   -2.485080   -3.643670
  C     -1.363530   -1.981340   -2.293610
  O     -0.350390   -2.749690   -1.796010
  H     -2.226220   -1.908390   -1.602040
  H     -1.051350   -0.915670   -2.443330
  H     -1.115220   -2.571670   -4.347390
  H     -2.642270   -1.790990   -4.013140
  H     -2.375640   -3.441800   -3.506400

 Total Charge           Charge          ....   -1
 Multiplicity           Mult            ....    1
 Number of Electrons    NEL             ....   26
 Basis Dimension        Dim             ....  159

ORBITAL ENERGIES
----------------

  NO   OCC          E(Eh)            E(eV)
   0   2.0000     -18.894409      -514.1430
   1   2.0000     -10.088755      -274.5290
   2   2.0000     -10.064249      -273.8621
   3   2.0000      -0.794351       -21.6154
   4   2.0000      -0.640509       -17.4291
   5   2.0000      -0.480851       -13.0846
   6   2.0000      -0.350062        -9.5257
   7   2.0000      -0.327327        -8.9070
   8   2.0000      -0.268581        -7.3085
   9   2.0000      -0.251269        -6.8374
  10   2.0000      -0.207860        -5.6562
  11   2.0000      -0.060686        -1.6514
  12   2.0000      -0.058332        -1.5873
  13   0.0000       0.212718         5.7884
  14   0.0000       0.232747         6.3334
  15   0.0000       0.262243         7.1360
  16   0.0000       0.263884         7.1806
  17   0.0000       0.287450         7.8219

MULLIKEN ATOMIC CHARGES
-----------------------
   0 C :   -0.882503
   1 C :   -0.242052
   2 O :   -0.916313
   3 H :    0.132023
   4 H :    0.127018
   5 H :    0.235196
   6 H :    0.311677
   7 H :    0.234954
Sum of atomic charges:   -1.0000000

LOEWDIN ATOMIC CHARGES
----------------------
   0 C :   -0.168062
   1 C :   -0.624097
   2 O :   -0.427147
   3 H :    0.054771
   4 H :    0.058370
   5 H :    0.039448
   6 H :    0.028415
   7 H :    0.038302

  Mayer bond orders larger than 0.100000
B(  0-C ,  1-C ) :   0.7748 B(  0-C ,  2-O ) :   0.2219 B(  0-C ,  5-H ) :   0.9950
B(  0-C ,  6-H ) :   0.9412 B(  0-C ,  7-H ) :   0.9897 B(  1-C ,  2-O ) :   1.0687
B(  1-C ,  3-H ) :   1.0713 B(  1-C ,  4-H ) :   1.0686

Dispersion correction           -0.000862866
FINAL SINGLE POINT ENERGY      -154.440298262561

DIPOLE MOMENT
-------------
                                X             Y             Z
Electronic contribution:      1.99685      -0.84456       1.80229
Nuclear contribution   :     -3.14382       1.30299      -2.83231
                        -----------------------------------------
Total Dipole Moment    :     -1.14697       0.45843      -1.03001
                        -----------------------------------------
Magnitude (a.u.)       :      1.60830
Magnitude (Debye)      :      4.08798

Rotational constants in cm-1:     1.288206     0.322942     0.285188
Rotational constants in MHz : 38619.437223  9681.562038  8549.712012

                             ****ORCA TERMINATED NORMALLY****
TOTAL RUN TIME: 0 days 0 hours 0 minutes 22 seconds 24 msec
