                         Program Version 5.0.0 -  RELEASE  -
|  1> !wB97X-D3 RIJCOSX def2-TZVPD def2/J TightSCF
|  2> *xyz 1 1
|  3> C          1.64703       -2.34528       -5.02041
|  4> C          2.20996       -2.81239       -3.66571
|  5> C          2.48901       -1.66851       -2.73754
|  6> N          3.59631       -0.94761       -2.95225
|  7> N          1.66394       -1.41369       -1.77781
|  8> H          0.81164       -1.96318       -1.70275
|  9> H          1.84550       -0.63508       -1.15875
| 10> H          4.20535       -1.17600       -3.73383
| 11> H          3.81723       -0.12585       -2.40604
| 12> H          3.14311       -3.36280       -3.81152
| 13> H          1.48768       -3.45893       -3.16521
| 14> H          1.46566       -3.19589       -5.64368
| 15> H          2.35406       -1.69850       -5.49654
| 16> H          0.73014       -1.81680       -4.86253
| 17> *
| 18>
| 19> %MaxCore 64000
| 20> %pal nprocs 4
| 21> end
| 22>
| 23> %scf
| 24>   MaxIter 150
| 25> end
| 26>
| 27>
| 28>                          ****END OF INPUT****

CARTESIAN COORDINATES (ANGSTROEM)
---------------------------------
  C      1.647030   -2.345280   -5.020410
  C      2.209960   -2.812390   -3.665710
  C      2.489010   -1.668510   -2.737540
  N      3.596310   -0.947610   -2.952250
  N      1.663940   -1.413690   -1.777810
  H      0.811640   -1.963180   -1.702750
  H      1.845500   -0.635080   -1.158750
  H      4.205350   -1.176000   -3.733830
  H      3.817230   -0.125850   -2.406040
  H      3.143110   -3.362800   -3.811520
  H      1.487680   -3.458930   -3.165210
  H      1.465660   -3.195890   -5.643680
  H      2.354060   -1.698500   -5.496540
  H      0.730140   -1.816800   -4.862530

 Total Charge           Charge          ....    1
 Multiplicity           Mult            ....    1
 Number of Electrons    NEL             ....   40
 Basis Dimension        Dim             ....  266

ORBITAL ENERGIES
----------------

  NO   OCC          E(Eh)            E(eV)
   0   2.0000     -14.672258      -399.2525
   1   2.0000     -14.662758      -398.9939
   2   2.0000     -10.600215      -288.4465
   3   2.0000     -10.474135      -285.0157
   4   2.0000     -10.428659      -283.7783
   5   2.0000      -1.323469       -36.0134
   6   2.0000      -1.224976       -33.3333
   7   2.0000      -1.084957       -29.5232
   8   2.0000      -0.971646       -26.4398
   9   2.0000      -0.924895       -25.1677
  10   2.0000      -0.877987       -23.8912
  11   2.0000      -0.855745       -23.2860
  12   2.0000      -0.802511       -21.8374
  13   2.0000      -0.750869       -20.4322
  14   2.0000      -0.722602       -19.6630
  15   2.0000      -0.711986       -19.3741
  16   2.0000      -0.639077       -17.3902
  17   2.0000      -0.630794       -17.1648
  18   2.0000      -0.625688       -17.0258
  19   2.0000      -0.585387       -15.9292
  20   0.0000      -0.126568        -3.4441
  21   0.0000      -0.094424        -2.5694
  22   0.0000      -0.054297        -1.4775
  23   0.0000      -0.050406        -1.3716
  24   0.0000      -0.032151        -0.8749

MULLIKEN ATOMIC CHARGES
-----------------------
   0 C :   -1.102620
   1 C :   -0.487688
   2 C :    0.847325
   3 N :   -0.423866
   4 N :   -0.387634
   5 H :    0.255928
   6 H :    0.211453
   7 H :    0.256639
   8 H :    0.206804
   9 H :    0.315531
  10 H :    0.296895
  11 H :    0.333177
  12 H :    0.336327
  13 H :    0.341730
Sum of atomic charges:    1.0000000

LOEWDIN ATOMIC CHARGES
----------------------
   0 C :   -0.055064
   1 C :   -0.147779
   2 C :   -0.357166
   3 N :    0.216097
   4 N :    0.233744
   5 H :    0.159677
   6 H :    0.154194
   7 H :    0.149423
   8 H :    0.143248
   9 H :    0.134658
  10 H :    0.124640
  11 H :    0.086130
  12 H :    0.075451
  13 H :    0.082747

  Mayer bond orders larger than 0.100000
B(  0-C ,  1-C ) :   0.6786 B(  0-C ,  2-C ) :   0.1344 B(  0-C , 11-H ) :   0.9629
B(  0-C , 12-H ) :   0.9072 B(  0-C , 13-H ) :   0.9520 B(  1-C ,  2-C ) :   0.7638
B(  1-C ,  3-N ) :   0.1173 B(  1-C ,  9-H ) :   0.9351 B(  1-C , 10-H ) :   0.9682
B(  2-C ,  3-N ) :   1.1067 B(  2-C ,  4-N ) :   1.1927 B(  3-N ,  4-N ) :   0.1016
B(  3-N ,  7-H ) :   0.9383 B(  3-N ,  8-H ) :   1.0435 B(  4-N ,  5-H ) :   0.9425
B(  4-N ,  6-H ) :   1.0420

Dispersion correction           -0.003021138
FINAL SINGLE POINT ENERGY      -229.058073513991

DIPOLE MOMENT
-------------
                                X             Y             Z
Electronic contribution:      1.19008       1.64907       3.62149
Nuclear contribution   :     -0.98617      -1.03178      -2.77619
                        -----------------------------------------
Total Dipole Moment    :      0.20391       0.61729       0.84530
                        -----------------------------------------
Magnitude (a.u.)       :      1.06638
Magnitude (Debye)      :      2.71053

Rotational constants in cm-1:     0.257311     0.127495     0.099037
Rotational constants in MHz :  7713.982239  3822.189706  2969.039713

                             ****ORCA TERMINATED NORMALLY****
TOTAL RUN TIME: 0 days 0 hours 1 minutes 1 seconds 458 msec
