                         Program Version 5.0.0 -  RELEASE  -
|  1> !wB97X-D3 RIJCOSX def2-TZVPD def2/J TightSCF xyzfile
|  2>
|  3> *xyzfile 0 1 B.xyz
|  4>
|  5> %MaxCore 64000
|  6>
|  7> %pal nprocs 18
|  8> end
|  9>
| 10> %scf
| 11>   MaxIter 150
| 12> end
| 13>
| 14>
| 15>                          ****END OF INPUT****

CARTESIAN COORDINATES (ANGSTROEM)
---------------------------------
  C      1.647032   -2.345276   -5.020411
  C      0.217628   -1.814022   -4.924389
  C      2.209964   -2.812388   -3.665708
  C     -0.811356   -2.908780   -4.607625
  C     -1.916579   -2.485081   -3.643665
  H     -2.554525   -1.712428   -4.091993
  C     -1.363531   -1.981337   -2.293608
  H     -2.553448   -3.355667   -3.458815
  O     -0.350395   -2.749689   -1.796006
  H      2.308385   -1.588704   -5.457128
  H      1.674286   -3.203478   -5.697392
  C      2.489007   -1.668510   -2.737538
  N      3.596314   -0.947608   -2.952247
  N      1.663936   -1.413685   -1.777806
  H      0.811642   -1.963178   -1.702755
  H      1.845503   -0.635078   -1.158749
  H      4.205351   -1.176003   -3.733825
  H      3.817230   -0.125845   -2.406041
  H     -1.244829   -3.280884   -5.541040
  H     -0.306331   -3.757746   -4.142734
  H     -0.036244   -1.318555   -5.865303
  H      0.175004   -1.035382   -4.158095
  H      3.143106   -3.362803   -3.811524
  H      1.487683   -3.458935   -3.165211
  H     -2.226220   -1.908386   -1.602039
  H     -1.051353   -0.915671   -2.443331

 Total Charge           Charge          ....    0
 Multiplicity           Mult            ....    1
 Number of Electrons    NEL             ....   80
 Basis Dimension        Dim             ....  517

ORBITAL ENERGIES
----------------

  NO   OCC          E(Eh)            E(eV)
   0   2.0000     -19.082837      -519.2704
   1   2.0000     -14.498719      -394.5302
   2   2.0000     -14.453290      -393.2940
   3   2.0000     -10.417608      -283.4775
   4   2.0000     -10.300951      -280.3031
   5   2.0000     -10.288852      -279.9739
   6   2.0000     -10.258613      -279.1511
   7   2.0000     -10.247898      -278.8595
   8   2.0000     -10.238582      -278.6060
   9   2.0000     -10.221006      -278.1277
  10   2.0000      -1.140778       -31.0421
  11   2.0000      -1.045426       -28.4475
  12   2.0000      -0.991734       -26.9865
  13   2.0000      -0.934017       -25.4159
  14   2.0000      -0.870474       -23.6868
  15   2.0000      -0.818478       -22.2719
  16   2.0000      -0.760597       -20.6969
  17   2.0000      -0.741791       -20.1852
  18   2.0000      -0.700664       -19.0660
  19   2.0000      -0.696621       -18.9560
  20   2.0000      -0.669078       -18.2065
  21   2.0000      -0.626671       -17.0526
  22   2.0000      -0.604872       -16.4594
  23   2.0000      -0.588247       -16.0070
  24   2.0000      -0.565724       -15.3941
  25   2.0000      -0.539870       -14.6906
  26   2.0000      -0.529958       -14.4209
  27   2.0000      -0.501590       -13.6489
  28   2.0000      -0.486935       -13.2502
  29   2.0000      -0.484197       -13.1757
  30   2.0000      -0.450595       -12.2613
  31   2.0000      -0.443808       -12.0766
  32   2.0000      -0.432277       -11.7628
  33   2.0000      -0.412631       -11.2283
  34   2.0000      -0.403061       -10.9678
  35   2.0000      -0.391127       -10.6431
  36   2.0000      -0.381984       -10.3943
  37   2.0000      -0.375441       -10.2163
  38   2.0000      -0.259014        -7.0481
  39   2.0000      -0.252576        -6.8729
  40   0.0000       0.035775         0.9735
  41   0.0000       0.044764         1.2181
  42   0.0000       0.069607         1.8941
  43   0.0000       0.086013         2.3405
  44   0.0000       0.087146         2.3713

MULLIKEN ATOMIC CHARGES
-----------------------
   0 C :   -0.449383
   1 C :   -0.479898
   2 C :   -0.516782
   3 C :   -0.395742
   4 C :   -0.663883
   5 H :    0.266854
   6 C :   -0.390739
   7 H :    0.320619
   8 O :   -0.929261
   9 H :    0.284448
  10 H :    0.294615
  11 C :    0.419945
  12 N :   -0.454559
  13 N :   -0.274238
  14 H :    0.257821
  15 H :    0.135055
  16 H :    0.238245
  17 H :    0.181280
  18 H :    0.305164
  19 H :    0.201740
  20 H :    0.326941
  21 H :    0.236778
  22 H :    0.330850
  23 H :    0.335721
  24 H :    0.238286
  25 H :    0.180123
Sum of atomic charges:    0.0000000

LOEWDIN ATOMIC CHARGES
----------------------
   0 C :   -0.190955
   1 C :   -0.202229
   2 C :   -0.110914
   3 C :   -0.217169
   4 C :   -0.204503
   5 H :    0.104385
   6 C :   -0.432389
   7 H :    0.103349
   8 O :   -0.300013
   9 H :    0.103436
  10 H :    0.116459
  11 C :   -0.361725
  12 N :    0.169010
  13 N :    0.233908
  14 H :   -0.028217
  15 H :    0.141150
  16 H :    0.127711
  17 H :    0.123668
  18 H :    0.106485
  19 H :    0.096467
  20 H :    0.110226
  21 H :    0.094712
  22 H :    0.123984
  23 H :    0.111688
  24 H :    0.094734
  25 H :    0.086740

  Mayer bond orders larger than 0.100000
B(  0-C ,  1-C ) :   0.9903 B(  0-C ,  2-C ) :   0.8261 B(  0-C ,  3-C ) :   0.3445
B(  0-C ,  9-H ) :   0.8463 B(  0-C , 10-H ) :   0.9345 B(  0-C , 11-C ) :   0.2583
B(  1-C ,  3-C ) :   0.6264 B(  1-C ,  4-C ) :   0.2939 B(  1-C , 11-C ) :   0.1100
B(  1-C , 20-H ) :   0.9088 B(  1-C , 21-H ) :   0.9854 B(  2-C , 11-C ) :   0.8392
B(  2-C , 12-N ) :   0.1322 B(  2-C , 22-H ) :   0.9118 B(  2-C , 23-H ) :   0.9465
B(  3-C ,  4-C ) :   0.9584 B(  3-C , 18-H ) :   0.9397 B(  3-C , 19-H ) :   0.9615
B(  4-C ,  5-H ) :   0.9807 B(  4-C ,  6-C ) :   0.9255 B(  4-C ,  7-H ) :   0.9004
B(  4-C ,  8-O ) :   0.1072 B(  6-C ,  8-O ) :   0.9664 B(  6-C , 24-H ) :   0.9829
B(  6-C , 25-H ) :   1.0331 B(  8-O , 13-N ) :  -0.1146 B(  8-O , 14-H ) :   0.3856
B( 11-C , 12-N ) :   1.0114 B( 11-C , 13-N ) :   1.4326 B( 12-N , 16-H ) :   0.9708
B( 12-N , 17-H ) :   1.0450 B( 13-N , 14-H ) :   0.6154 B( 13-N , 15-H ) :   1.0639

Dispersion correction           -0.011117851
FINAL SINGLE POINT ENERGY      -461.127793704682

DIPOLE MOMENT
-------------
                                X             Y             Z
Electronic contribution:      5.62014       0.90488       4.29334
Nuclear contribution   :     -2.25948       0.71378      -5.15247
                        -----------------------------------------
Total Dipole Moment    :      3.36066       1.61865      -0.85913
                        -----------------------------------------
Magnitude (a.u.)       :      3.82781
Magnitude (Debye)      :      9.72953

Rotational constants in cm-1:     0.063973     0.031829     0.024059
Rotational constants in MHz :  1917.874550   954.201145   721.285252

                             ****ORCA TERMINATED NORMALLY****
TOTAL RUN TIME: 0 days 0 hours 1 minutes 25 seconds 307 msec
