                         Program Version 5.0.0 -  RELEASE  -
|  1> !wB97X-D3 RIJCOSX def2-TZVPD def2/J TightSCF
|  2> *xyz 0 1
|  3> C         -1.91658       -2.48508       -3.64367
|  4> C         -1.36353       -1.98134       -2.29361
|  5> F         -0.35039       -2.74969       -1.79601
|  6> H         -2.22622       -1.90839       -1.60204
|  7> H         -1.05135       -0.91567       -2.44333
|  8> H         -1.11522       -2.57167       -4.34739
|  9> H         -2.64227       -1.79099       -4.01314
| 10> H         -2.37564       -3.44180       -3.50640
| 11> *
| 12>
| 13> %MaxCore 64000
| 14> %pal nprocs 4
| 15> end
| 16>
| 17> %scf
| 18>   MaxIter 150
| 19> end
| 20>
| 21>
| 22>                          ****END OF INPUT****

CARTESIAN COORDINATES (ANGSTROEM)
---------------------------------
  C     -1.916580   -2.485080   -3.643670
  C     -1.363530   -1.981340   -2.293610
  F     -0.350390   -2.749690   -1.796010
  H     -2.226220   -1.908390   -1.602040
  H     -1.051350   -0.915670   -2.443330
  H     -1.115220   -2.571670   -4.347390
  H     -2.642270   -1.790990   -4.013140
  H     -2.375640   -3.441800   -3.506400

 Total Charge           Charge          ....    0
 Multiplicity           Mult            ....    1
 Number of Electrons    NEL             ....   26
 Basis Dimension        Dim             ....  159

ORBITAL ENERGIES
----------------

  NO   OCC          E(Eh)            E(eV)
   0   2.0000     -24.773149      -674.1117
   1   2.0000     -10.355079      -281.7760
   2   2.0000     -10.268947      -279.4323
   3   2.0000      -1.316510       -35.8241
   4   2.0000      -0.879816       -23.9410
   5   2.0000      -0.743161       -20.2224
   6   2.0000      -0.611490       -16.6395
   7   2.0000      -0.598475       -16.2853
   8   2.0000      -0.560871       -15.2621
   9   2.0000      -0.505520       -13.7559
  10   2.0000      -0.498860       -13.5747
  11   2.0000      -0.431302       -11.7363
  12   2.0000      -0.424785       -11.5590
  13   0.0000       0.072931         1.9846
  14   0.0000       0.095635         2.6024
  15   0.0000       0.118007         3.2111
  16   0.0000       0.121403         3.3035
  17   0.0000       0.149398         4.0653

MULLIKEN ATOMIC CHARGES
-----------------------
   0 C :   -0.963421
   1 C :   -0.074336
   2 F :   -0.299380
   3 H :    0.218718
   4 H :    0.214925
   5 H :    0.289158
   6 H :    0.332265
   7 H :    0.282071
Sum of atomic charges:    0.0000000

LOEWDIN ATOMIC CHARGES
----------------------
   0 C :   -0.085975
   1 C :   -0.288683
   2 F :   -0.045936
   3 H :    0.110017
   4 H :    0.115206
   5 H :    0.064828
   6 H :    0.066717
   7 H :    0.063826

  Mayer bond orders larger than 0.100000
B(  0-C ,  1-C ) :   0.8074 B(  0-C ,  5-H ) :   0.9528 B(  0-C ,  6-H ) :   0.9215
B(  0-C ,  7-H ) :   0.9564 B(  1-C ,  2-F ) :   0.7776 B(  1-C ,  3-H ) :   0.9819
B(  1-C ,  4-H ) :   0.9819

Dispersion correction           -0.000873249
FINAL SINGLE POINT ENERGY      -179.086309067983

DIPOLE MOMENT
-------------
                                X             Y             Z
Electronic contribution:      3.61695      -1.35561       3.42725
Nuclear contribution   :     -4.15401       1.70894      -3.75000
                        -----------------------------------------
Total Dipole Moment    :     -0.53706       0.35333      -0.32274
                        -----------------------------------------
Magnitude (a.u.)       :      0.71933
Magnitude (Debye)      :      1.82839

Rotational constants in cm-1:     1.266842     0.300492     0.266603
Rotational constants in MHz : 37978.968232  9008.526876  7992.551454

                             ****ORCA TERMINATED NORMALLY****
TOTAL RUN TIME: 0 days 0 hours 0 minutes 17 seconds 920 msec
