                         Program Version 5.0.0 -  RELEASE  -
|  1> !wB97X-D3 RIJCOSX def2-TZVPD def2/J TightSCF
|  2> *xyz 0 1
|  3> C          1.64703       -2.34528       -5.02041
|  4> C          2.20996       -2.81239       -3.66571
|  5> C          2.48901       -1.66851       -2.73754
|  6> C          3.59631       -0.94761       -2.95225
|  7> N          1.66394       -1.41369       -1.77781
|  8> H          0.81164       -1.96318       -1.70275
|  9> H          1.84550       -0.63508       -1.15875
| 10> H          4.20535       -1.17600       -3.73383
| 11> H          3.81723       -0.12585       -2.40604
| 12> H          3.14311       -3.36280       -3.81152
| 13> H          1.48768       -3.45893       -3.16521
| 14> H          1.46566       -3.19589       -5.64368
| 15> H          2.35406       -1.69850       -5.49654
| 16> H          0.73014       -1.81680       -4.86253
| 17> *
| 18>
| 19> %MaxCore 64000
| 20> %pal nprocs 4
| 21> end
| 22>
| 23> %scf
| 24>   MaxIter 150
| 25> end
| 26>
| 27>
| 28>                          ****END OF INPUT****

CARTESIAN COORDINATES (ANGSTROEM)
---------------------------------
  C      1.647030   -2.345280   -5.020410
  C      2.209960   -2.812390   -3.665710
  C      2.489010   -1.668510   -2.737540
  C      3.596310   -0.947610   -2.952250
  N      1.663940   -1.413690   -1.777810
  H      0.811640   -1.963180   -1.702750
  H      1.845500   -0.635080   -1.158750
  H      4.205350   -1.176000   -3.733830
  H      3.817230   -0.125850   -2.406040
  H      3.143110   -3.362800   -3.811520
  H      1.487680   -3.458930   -3.165210
  H      1.465660   -3.195890   -5.643680
  H      2.354060   -1.698500   -5.496540
  H      0.730140   -1.816800   -4.862530

 Total Charge           Charge          ....    0
 Multiplicity           Mult            ....    1
 Number of Electrons    NEL             ....   40
 Basis Dimension        Dim             ....  266

ORBITAL ENERGIES
----------------

  NO   OCC          E(Eh)            E(eV)
   0   2.0000     -14.426335      -392.5605
   1   2.0000     -10.296090      -280.1708
   2   2.0000     -10.274960      -279.5959
   3   2.0000     -10.257439      -279.1191
   4   2.0000     -10.200710      -277.5754
   5   2.0000      -1.057080       -28.7646
   6   2.0000      -0.895674       -24.3725
   7   2.0000      -0.822629       -22.3849
   8   2.0000      -0.750414       -20.4198
   9   2.0000      -0.674042       -18.3416
  10   2.0000      -0.634849       -17.2751
  11   2.0000      -0.582560       -15.8523
  12   2.0000      -0.542252       -14.7554
  13   2.0000      -0.510671       -13.8961
  14   2.0000      -0.491754       -13.3813
  15   2.0000      -0.478239       -13.0135
  16   2.0000      -0.445950       -12.1349
  17   2.0000      -0.430910       -11.7257
  18   2.0000      -0.427279       -11.6269
  19   2.0000      -0.271214        -7.3801
  20   0.0000       0.067085         1.8255
  21   0.0000       0.092279         2.5110
  22   0.0000       0.095408         2.5962
  23   0.0000       0.100784         2.7425
  24   0.0000       0.123552         3.3620

MULLIKEN ATOMIC CHARGES
-----------------------
   0 C :   -1.089223
   1 C :   -0.457352
   2 C :    1.085963
   3 C :   -1.605861
   4 N :   -0.463340
   5 H :    0.201748
   6 H :    0.172820
   7 H :    0.335995
   8 H :    0.333893
   9 H :    0.280381
  10 H :    0.270251
  11 H :    0.302758
  12 H :    0.328931
  13 H :    0.303035
Sum of atomic charges:    0.0000000

LOEWDIN ATOMIC CHARGES
----------------------
   0 C :   -0.090922
   1 C :   -0.199569
   2 C :   -0.509425
   3 C :    0.010249
   4 N :    0.102418
   5 H :    0.116021
   6 H :    0.120512
   7 H :    0.022407
   8 H :    0.014041
   9 H :    0.114772
  10 H :    0.102465
  11 H :    0.061868
  12 H :    0.066083
  13 H :    0.069080

  Mayer bond orders larger than 0.100000
B(  0-C ,  1-C ) :   0.6322 B(  0-C ,  2-C ) :   0.1306 B(  0-C , 11-H ) :   0.9488
B(  0-C , 12-H ) :   0.9475 B(  0-C , 13-H ) :   0.9658 B(  1-C ,  2-C ) :   0.6722
B(  1-C ,  3-C ) :   0.1304 B(  1-C ,  9-H ) :   0.9492 B(  1-C , 10-H ) :   1.0364
B(  2-C ,  3-C ) :   0.8908 B(  2-C ,  4-N ) :   1.0335 B(  2-C ,  8-H ) :  -0.1149
B(  3-C ,  4-N ) :   0.1314 B(  3-C ,  7-H ) :   0.9341 B(  3-C ,  8-H ) :   1.0086
B(  4-N ,  5-H ) :   1.0002 B(  4-N ,  6-H ) :   1.0362

Dispersion correction           -0.003005821
FINAL SINGLE POINT ENERGY      -212.583284607904

DIPOLE MOMENT
-------------
                                X             Y             Z
Electronic contribution:     -0.05473       0.64753       3.01336
Nuclear contribution   :     -0.69146      -0.83112      -2.71336
                        -----------------------------------------
Total Dipole Moment    :     -0.74619      -0.18358       0.30000
                        -----------------------------------------
Magnitude (a.u.)       :      0.82493
Magnitude (Debye)      :      2.09680

Rotational constants in cm-1:     0.270661     0.129240     0.102040
Rotational constants in MHz :  8114.202941  3874.518141  3059.074383

                             ****ORCA TERMINATED NORMALLY****
TOTAL RUN TIME: 0 days 0 hours 0 minutes 58 seconds 162 msec
