                         Program Version 5.0.0 -  RELEASE  -
|  1> !wB97X-D3 RIJCOSX def2-TZVPD def2/J TightSCF
|  2> *xyz 0 1
|  3> C          1.64703       -2.34528       -5.02041
|  4> C          2.20996       -2.81239       -3.66571
|  5> C          2.48901       -1.66851       -2.73754
|  6> N          3.59631       -0.94761       -2.95225
|  7> C          1.66394       -1.41369       -1.77781
|  8> H          0.81164       -1.96318       -1.70275
|  9> H          1.84550       -0.63508       -1.15875
| 10> H          4.20535       -1.17600       -3.73383
| 11> H          3.81723       -0.12585       -2.40604
| 12> H          3.14311       -3.36280       -3.81152
| 13> H          1.48768       -3.45893       -3.16521
| 14> H          1.46566       -3.19589       -5.64368
| 15> H          2.35406       -1.69850       -5.49654
| 16> H          0.73014       -1.81680       -4.86253
| 17> *
| 18>
| 19> %MaxCore 64000
| 20> %pal nprocs 4
| 21> end
| 22>
| 23> %scf
| 24>   MaxIter 150
| 25> end
| 26>
| 27>
| 28>                          ****END OF INPUT****

CARTESIAN COORDINATES (ANGSTROEM)
---------------------------------
  C      1.647030   -2.345280   -5.020410
  C      2.209960   -2.812390   -3.665710
  C      2.489010   -1.668510   -2.737540
  N      3.596310   -0.947610   -2.952250
  C      1.663940   -1.413690   -1.777810
  H      0.811640   -1.963180   -1.702750
  H      1.845500   -0.635080   -1.158750
  H      4.205350   -1.176000   -3.733830
  H      3.817230   -0.125850   -2.406040
  H      3.143110   -3.362800   -3.811520
  H      1.487680   -3.458930   -3.165210
  H      1.465660   -3.195890   -5.643680
  H      2.354060   -1.698500   -5.496540
  H      0.730140   -1.816800   -4.862530

 Total Charge           Charge          ....    0
 Multiplicity           Mult            ....    1
 Number of Electrons    NEL             ....   40
 Basis Dimension        Dim             ....  266

ORBITAL ENERGIES
----------------

  NO   OCC          E(Eh)            E(eV)
   0   2.0000     -14.419528      -392.3753
   1   2.0000     -10.292630      -280.0767
   2   2.0000     -10.273297      -279.5506
   3   2.0000     -10.258458      -279.1468
   4   2.0000     -10.203702      -277.6569
   5   2.0000      -1.038175       -28.2502
   6   2.0000      -0.895699       -24.3732
   7   2.0000      -0.837013       -22.7763
   8   2.0000      -0.745859       -20.2959
   9   2.0000      -0.669994       -18.2315
  10   2.0000      -0.622489       -16.9388
  11   2.0000      -0.582728       -15.8568
  12   2.0000      -0.533987       -14.5305
  13   2.0000      -0.522516       -14.2184
  14   2.0000      -0.494489       -13.4557
  15   2.0000      -0.481021       -13.0893
  16   2.0000      -0.445882       -12.1331
  17   2.0000      -0.426483       -11.6052
  18   2.0000      -0.422031       -11.4841
  19   2.0000      -0.283267        -7.7081
  20   0.0000       0.067945         1.8489
  21   0.0000       0.092941         2.5291
  22   0.0000       0.097325         2.6484
  23   0.0000       0.098525         2.6810
  24   0.0000       0.127080         3.4580

MULLIKEN ATOMIC CHARGES
-----------------------
   0 C :   -1.059826
   1 C :   -0.477373
   2 C :    0.956635
   3 N :   -0.481056
   4 C :   -1.451017
   5 H :    0.320542
   6 H :    0.350698
   7 H :    0.191354
   8 H :    0.168247
   9 H :    0.301299
  10 H :    0.249141
  11 H :    0.305435
  12 H :    0.303317
  13 H :    0.322604
Sum of atomic charges:   -0.0000000

LOEWDIN ATOMIC CHARGES
----------------------
   0 C :   -0.092113
   1 C :   -0.200666
   2 C :   -0.501319
   3 N :    0.092815
   4 C :    0.012754
   5 H :    0.032424
   6 H :    0.028149
   7 H :    0.106148
   8 H :    0.108322
   9 H :    0.110864
  10 H :    0.108067
  11 H :    0.062118
  12 H :    0.060895
  13 H :    0.071541

  Mayer bond orders larger than 0.100000
B(  0-C ,  1-C ) :   0.6686 B(  0-C ,  2-C ) :   0.1050 B(  0-C , 11-H ) :   0.9583
B(  0-C , 12-H ) :   0.9368 B(  0-C , 13-H ) :   0.9804 B(  1-C ,  2-C ) :   0.7370
B(  1-C ,  3-N ) :   0.1380 B(  1-C ,  9-H ) :   0.9601 B(  1-C , 10-H ) :   0.9881
B(  2-C ,  3-N ) :   0.9254 B(  2-C ,  4-C ) :   1.0799 B(  2-C ,  6-H ) :  -0.1168
B(  3-N ,  4-C ) :   0.1175 B(  3-N ,  7-H ) :   1.0062 B(  3-N ,  8-H ) :   1.0363
B(  4-C ,  5-H ) :   0.9543 B(  4-C ,  6-H ) :   0.9714

Dispersion correction           -0.003021473
FINAL SINGLE POINT ENERGY      -212.587734178782

DIPOLE MOMENT
-------------
                                X             Y             Z
Electronic contribution:      1.63643       1.06426       1.99350
Nuclear contribution   :     -1.13902      -0.93906      -2.44135
                        -----------------------------------------
Total Dipole Moment    :      0.49741       0.12519      -0.44785
                        -----------------------------------------
Magnitude (a.u.)       :      0.68093
Magnitude (Debye)      :      1.73078

Rotational constants in cm-1:     0.267243     0.130607     0.102304
Rotational constants in MHz :  8011.748167  3915.504600  3066.999841

                             ****ORCA TERMINATED NORMALLY****
TOTAL RUN TIME: 0 days 0 hours 0 minutes 59 seconds 759 msec
