                         Program Version 5.0.0 -  RELEASE  -
|  1> !wB97X-D3 RIJCOSX def2-TZVPD def2/J TightSCF xyzfile
|  2>
|  3> *xyzfile 0 1 D2.xyz
|  4>
|  5> %MaxCore 64000
|  6>
|  7> %pal nprocs 18
|  8> end
|  9>
| 10> %scf
| 11>   MaxIter 150
| 12> end
| 13>
| 14>
| 15>                          ****END OF INPUT****

CARTESIAN COORDINATES (ANGSTROEM)
---------------------------------
  C      1.647032   -2.345276   -5.020411
  C      0.217628   -1.814022   -4.924389
  C      2.209964   -2.812388   -3.665708
  C     -0.811356   -2.908780   -4.607625
  C     -1.916579   -2.485081   -3.643665
  H     -2.554525   -1.712428   -4.091993
  C     -1.363531   -1.981337   -2.293608
  H     -2.553448   -3.355667   -3.458815
  F     -0.350395   -2.749689   -1.796006
  H      2.308385   -1.588704   -5.457128
  H      1.674286   -3.203478   -5.697392
  C      2.489007   -1.668510   -2.737538
  N      3.596314   -0.947608   -2.952247
  C      1.663936   -1.413685   -1.777806
  H      0.811642   -1.963178   -1.702755
  H      1.845503   -0.635078   -1.158749
  H      4.205351   -1.176003   -3.733825
  H      3.817230   -0.125845   -2.406041
  H     -1.244829   -3.280884   -5.541040
  H     -0.306331   -3.757746   -4.142734
  H     -0.036244   -1.318555   -5.865303
  H      0.175004   -1.035382   -4.158095
  H      3.143106   -3.362803   -3.811524
  H      1.487683   -3.458935   -3.165211
  H     -2.226220   -1.908386   -1.602039
  H     -1.051353   -0.915671   -2.443331

 Total Charge           Charge          ....    0
 Multiplicity           Mult            ....    1
 Number of Electrons    NEL             ....   80
 Basis Dimension        Dim             ....  517

ORBITAL ENERGIES
----------------

  NO   OCC          E(Eh)            E(eV)
   0   2.0000     -24.786883      -674.4854
   1   2.0000     -14.405906      -392.0046
   2   2.0000     -10.355830      -281.7965
   3   2.0000     -10.281183      -279.7652
   4   2.0000     -10.275402      -279.6079
   5   2.0000     -10.269205      -279.4393
   6   2.0000     -10.266482      -279.3652
   7   2.0000     -10.262439      -279.2552
   8   2.0000     -10.260952      -279.2147
   9   2.0000     -10.170483      -276.7529
  10   2.0000      -1.342124       -36.5211
  11   2.0000      -1.024420       -27.8759
  12   2.0000      -0.930361       -25.3164
  13   2.0000      -0.894012       -24.3273
  14   2.0000      -0.842657       -22.9299
  15   2.0000      -0.815138       -22.1810
  16   2.0000      -0.770357       -20.9625
  17   2.0000      -0.713885       -19.4258
  18   2.0000      -0.678725       -18.4690
  19   2.0000      -0.673233       -18.3196
  20   2.0000      -0.630899       -17.1676
  21   2.0000      -0.616522       -16.7764
  22   2.0000      -0.600009       -16.3271
  23   2.0000      -0.589518       -16.0416
  24   2.0000      -0.564336       -15.3564
  25   2.0000      -0.547070       -14.8865
  26   2.0000      -0.542024       -14.7492
  27   2.0000      -0.529674       -14.4132
  28   2.0000      -0.500357       -13.6154
  29   2.0000      -0.479368       -13.0443
  30   2.0000      -0.464257       -12.6331
  31   2.0000      -0.452777       -12.3207
  32   2.0000      -0.445740       -12.1292
  33   2.0000      -0.432381       -11.7657
  34   2.0000      -0.420781       -11.4500
  35   2.0000      -0.416888       -11.3441
  36   2.0000      -0.402958       -10.9650
  37   2.0000      -0.399459       -10.8698
  38   2.0000      -0.386264       -10.5108
  39   2.0000      -0.266571        -7.2538
  40   0.0000       0.070938         1.9303
  41   0.0000       0.076380         2.0784
  42   0.0000       0.081573         2.2197
  43   0.0000       0.089495         2.4353
  44   0.0000       0.101220         2.7543

MULLIKEN ATOMIC CHARGES
-----------------------
   0 C :   -0.435511
   1 C :   -0.485582
   2 C :   -0.526823
   3 C :   -0.549212
   4 C :   -0.602544
   5 H :    0.281290
   6 C :   -0.350285
   7 H :    0.313282
   8 F :   -0.329605
   9 H :    0.338471
  10 H :    0.255194
  11 C :    0.779019
  12 N :   -0.480938
  13 C :   -1.770263
  14 H :    0.600885
  15 H :    0.269841
  16 H :    0.196587
  17 H :    0.156749
  18 H :    0.311112
  19 H :    0.252296
  20 H :    0.317266
  21 H :    0.274606
  22 H :    0.374510
  23 H :    0.205377
  24 H :    0.301899
  25 H :    0.302379
Sum of atomic charges:   -0.0000000

LOEWDIN ATOMIC CHARGES
----------------------
   0 C :   -0.194983
   1 C :   -0.201330
   2 C :   -0.143149
   3 C :   -0.209576
   4 C :   -0.178427
   5 H :    0.119316
   6 C :   -0.212913
   7 H :    0.107866
   8 F :   -0.049316
   9 H :    0.106959
  10 H :    0.109821
  11 C :   -0.472213
  12 N :    0.090802
  13 C :    0.030467
  14 H :   -0.037343
  15 H :    0.039258
  16 H :    0.102670
  17 H :    0.105884
  18 H :    0.112850
  19 H :    0.100978
  20 H :    0.110229
  21 H :    0.096804
  22 H :    0.116919
  23 H :    0.101658
  24 H :    0.122959
  25 H :    0.123811

  Mayer bond orders larger than 0.100000
B(  0-C ,  1-C ) :   1.0395 B(  0-C ,  2-C ) :   0.8684 B(  0-C ,  3-C ) :   0.3270
B(  0-C ,  9-H ) :   0.8194 B(  0-C , 10-H ) :   0.9538 B(  0-C , 11-C ) :   0.1896
B(  1-C ,  3-C ) :   0.6090 B(  1-C ,  4-C ) :   0.2363 B(  1-C ,  6-C ) :   0.1176
B(  1-C , 11-C ) :   0.1310 B(  1-C , 20-H ) :   0.9061 B(  1-C , 21-H ) :   0.9988
B(  2-C , 11-C ) :   0.7700 B(  2-C , 12-N ) :   0.1876 B(  2-C , 22-H ) :   0.9013
B(  2-C , 23-H ) :   0.9989 B(  3-C ,  4-C ) :   0.9174 B(  3-C , 18-H ) :   0.9304
B(  3-C , 19-H ) :   1.0005 B(  4-C ,  5-H ) :   0.9457 B(  4-C ,  6-C ) :   0.9359
B(  4-C ,  7-H ) :   0.9248 B(  4-C ,  8-F ) :   0.1399 B(  6-C ,  8-F ) :   0.7521
B(  6-C , 13-C ) :   0.1795 B(  6-C , 24-H ) :   0.8846 B(  6-C , 25-H ) :   0.9698
B(  8-F , 14-H ) :  -0.2000 B( 11-C , 12-N ) :   0.8803 B( 11-C , 13-C ) :   0.9667
B( 11-C , 15-H ) :  -0.1806 B( 12-N , 16-H ) :   1.0130 B( 12-N , 17-H ) :   1.0465
B( 13-C , 14-H ) :   0.6818 B( 13-C , 15-H ) :   1.1421

Dispersion correction           -0.010964995
FINAL SINGLE POINT ENERGY      -469.069647141359

DIPOLE MOMENT
-------------
                                X             Y             Z
Electronic contribution:      0.39751      -1.32821       6.07510
Nuclear contribution   :     -0.73748       1.64619      -6.72655
                        -----------------------------------------
Total Dipole Moment    :     -0.33998       0.31798      -0.65146
                        -----------------------------------------
Magnitude (a.u.)       :      0.80068
Magnitude (Debye)      :      2.03517

Rotational constants in cm-1:     0.063169     0.031711     0.023958
Rotational constants in MHz :  1893.751676   950.657187   718.229932

                             ****ORCA TERMINATED NORMALLY****
TOTAL RUN TIME: 0 days 0 hours 1 minutes 38 seconds 48 msec
