                         Program Version 5.0.0 -  RELEASE  -
|  1> !TPSS D3BJ RIJCOSX def2-SVP def2/J TightSCF
|  2> *xyz -1 1
|  3> C          4.90646       -3.10282       -5.95484
|  4> C          3.51177       -2.80621       -6.49228
|  5> H          2.73604       -3.37345       -5.97374
|  6> H          3.44490       -3.04083       -7.55528
|  7> S          3.00462       -1.09621       -6.38926
|  8> O          4.12886       -0.32965       -6.95372
|  9> O          1.78128       -1.00078       -7.13640
| 10> O          2.85155       -0.78368       -4.95679
| 11> H          5.62703       -2.52424       -6.49422
| 12> H          5.12164       -4.14387       -6.07654
| 13> H          4.95004       -2.84862       -4.91639
| 14> *
| 15>
| 16> %MaxCore 64000
| 17>
| 18> %pal nprocs 4
| 19> end
| 20>
| 21> %scf
| 22>   MaxIter 150
| 23> end
| 24>
| 25>
| 26>                          ****END OF INPUT****

CARTESIAN COORDINATES (ANGSTROEM)
---------------------------------
  C      4.906460   -3.102820   -5.954840
  C      3.511770   -2.806210   -6.492280
  H      2.736040   -3.373450   -5.973740
  H      3.444900   -3.040830   -7.555280
  S      3.004620   -1.096210   -6.389260
  O      4.128860   -0.329650   -6.953720
  O      1.781280   -1.000780   -7.136400
  O      2.851550   -0.783680   -4.956790
  H      5.627030   -2.524240   -6.494220
  H      5.121640   -4.143870   -6.076540
  H      4.950040   -2.848620   -4.916390

 Total Charge           Charge          ....   -1
 Multiplicity           Mult            ....    1
 Number of Electrons    NEL             ....   58
 Basis Dimension        Dim             ....  113

ORBITAL ENERGIES
----------------

  NO   OCC          E(Eh)            E(eV)
   0   2.0000     -88.322639     -2403.3812
   1   2.0000     -18.643025      -507.3025
   2   2.0000     -18.630733      -506.9680
   3   2.0000     -18.629490      -506.9342
   4   2.0000      -9.850385      -268.0426
   5   2.0000      -9.844149      -267.8729
   6   2.0000      -7.689660      -209.2463
   7   2.0000      -5.675128      -154.4281
   8   2.0000      -5.674975      -154.4239
   9   2.0000      -5.674496      -154.4109
  10   2.0000      -0.819633       -22.3033
  11   2.0000      -0.684437       -18.6245
  12   2.0000      -0.663449       -18.0534
  13   2.0000      -0.558698       -15.2029
  14   2.0000      -0.440605       -11.9895
  15   2.0000      -0.309283        -8.4160
  16   2.0000      -0.265569        -7.2265
  17   2.0000      -0.245703        -6.6859
  18   2.0000      -0.212924        -5.7940
  19   2.0000      -0.192928        -5.2498
  20   2.0000      -0.191220        -5.2034
  21   2.0000      -0.167101        -4.5471
  22   2.0000      -0.157828        -4.2947
  23   2.0000      -0.069503        -1.8913
  24   2.0000      -0.069279        -1.8852
  25   2.0000      -0.041120        -1.1189
  26   2.0000      -0.033513        -0.9119
  27   2.0000      -0.023964        -0.6521
  28   2.0000       0.014317         0.3896
  29   0.0000       0.194144         5.2829
  30   0.0000       0.243473         6.6252
  31   0.0000       0.247066         6.7230
  32   0.0000       0.255415         6.9502
  33   0.0000       0.282787         7.6950

MULLIKEN ATOMIC CHARGES
-----------------------
   0 C :    0.045042
   1 C :   -0.090009
   2 H :   -0.005300
   3 H :   -0.005168
   4 S :    0.797970
   5 O :   -0.581638
   6 O :   -0.543342
   7 O :   -0.583891
   8 H :    0.003706
   9 H :   -0.037742
  10 H :    0.000371
Sum of atomic charges:   -1.0000000

LOEWDIN ATOMIC CHARGES
----------------------
   0 C :   -0.062059
   1 C :   -0.183561
   2 H :    0.001144
   3 H :    0.001419
   4 S :    1.059113
   5 O :   -0.623301
   6 O :   -0.584947
   7 O :   -0.627171
   8 H :    0.011918
   9 H :   -0.003773
  10 H :    0.011216

  Mayer bond orders larger than 0.100000
B(  0-C ,  1-C ) :   1.0594 B(  0-C ,  8-H ) :   0.9623 B(  0-C ,  9-H ) :   0.9556
B(  0-C , 10-H ) :   0.9645 B(  1-C ,  2-H ) :   0.9353 B(  1-C ,  3-H ) :   0.9349
B(  1-C ,  4-S ) :   0.8653 B(  4-S ,  5-O ) :   1.5884 B(  4-S ,  6-O ) :   1.6405
B(  4-S ,  7-O ) :   1.5950

Dispersion correction           -0.012123275
FINAL SINGLE POINT ENERGY      -702.793627645496

DIPOLE MOMENT
-------------
                                X             Y             Z
Electronic contribution:     -4.47107       6.62975      -0.66386
Nuclear contribution   :      5.05690      -8.21735       0.57889
                        -----------------------------------------
Total Dipole Moment    :      0.58583      -1.58760      -0.08496
                        -----------------------------------------
Magnitude (a.u.)       :      1.69437
Magnitude (Debye)      :      4.30675

Rotational constants in cm-1:     0.162547     0.083494     0.081672
Rotational constants in MHz :  4873.033504  2503.090885  2448.458543

                             ****ORCA TERMINATED NORMALLY****
TOTAL RUN TIME: 0 days 0 hours 0 minutes 4 seconds 964 msec
