                         Program Version 5.0.0 -  RELEASE  -
|  1> !TPSS D3BJ RIJCOSX def2-SVP def2/J TightSCF
|  2> *xyz 1 1
|  3> C          4.49059        1.15590       -2.46929
|  4> N          4.30539        1.22276       -3.90832
|  5> C          4.63192        2.24637       -4.67096
|  6> N          4.54169        2.14399       -5.98714
|  7> N          5.08409        3.39358       -4.11855
|  8> H          4.92067        3.57050       -3.13587
|  9> H          5.25465        4.19739       -4.70696
| 10> H          3.82453        0.44911       -4.35093
| 11> H          4.34337        1.24932       -6.41665
| 12> H          4.67671        2.95662       -6.57411
| 13> C          5.94213        0.93950       -2.03689
| 14> H          3.86431        0.32853       -2.13661
| 15> H          4.07623        2.04999       -1.98901
| 16> H          6.32982        0.06401       -2.51451
| 17> H          5.98308        0.81426       -0.97504
| 18> H          6.52865        1.78889       -2.31873
| 19> *
| 20>
| 21> %MaxCore 64000
| 22>
| 23> %pal nprocs 4
| 24> end
| 25>
| 26> %scf
| 27>   MaxIter 150
| 28> end
| 29>
| 30>
| 31>                          ****END OF INPUT****

CARTESIAN COORDINATES (ANGSTROEM)
---------------------------------
  C      4.490590    1.155900   -2.469290
  N      4.305390    1.222760   -3.908320
  C      4.631920    2.246370   -4.670960
  N      4.541690    2.143990   -5.987140
  N      5.084090    3.393580   -4.118550
  H      4.920670    3.570500   -3.135870
  H      5.254650    4.197390   -4.706960
  H      3.824530    0.449110   -4.350930
  H      4.343370    1.249320   -6.416650
  H      4.676710    2.956620   -6.574110
  C      5.942130    0.939500   -2.036890
  H      3.864310    0.328530   -2.136610
  H      4.076230    2.049990   -1.989010
  H      6.329820    0.064010   -2.514510
  H      5.983080    0.814260   -0.975040
  H      6.528650    1.788890   -2.318730

 Total Charge           Charge          ....    1
 Multiplicity           Mult            ....    1
 Number of Electrons    NEL             ....   48
 Basis Dimension        Dim             ....  134

ORBITAL ENERGIES
----------------

  NO   OCC          E(Eh)            E(eV)
   0   2.0000     -14.338198      -390.1622
   1   2.0000     -14.335263      -390.0823
   2   2.0000     -14.335091      -390.0776
   3   2.0000     -10.320500      -280.8351
   4   2.0000     -10.206335      -277.7285
   5   2.0000     -10.136504      -275.8283
   6   2.0000      -1.136844       -30.9351
   7   2.0000      -1.033394       -28.1201
   8   2.0000      -1.018691       -27.7200
   9   2.0000      -0.866378       -23.5754
  10   2.0000      -0.787539       -21.4300
  11   2.0000      -0.746777       -20.3208
  12   2.0000      -0.735229       -20.0066
  13   2.0000      -0.693197       -18.8629
  14   2.0000      -0.646694       -17.5974
  15   2.0000      -0.644389       -17.5347
  16   2.0000      -0.613519       -16.6947
  17   2.0000      -0.579158       -15.7597
  18   2.0000      -0.560593       -15.2545
  19   2.0000      -0.515572       -14.0294
  20   2.0000      -0.491255       -13.3677
  21   2.0000      -0.473691       -12.8898
  22   2.0000      -0.432706       -11.7745
  23   2.0000      -0.410701       -11.1757
  24   0.0000      -0.183037        -4.9807
  25   0.0000      -0.150719        -4.1013
  26   0.0000      -0.117237        -3.1902
  27   0.0000      -0.110538        -3.0079
  28   0.0000      -0.093288        -2.5385

MULLIKEN ATOMIC CHARGES
-----------------------
   0 C :    0.001159
   1 N :   -0.121543
   2 C :    0.066259
   3 N :   -0.021324
   4 N :   -0.057898
   5 H :    0.169665
   6 H :    0.166681
   7 H :    0.166534
   8 H :    0.171800
   9 H :    0.172183
  10 C :    0.021454
  11 H :    0.066047
  12 H :    0.057355
  13 H :    0.047159
  14 H :    0.066707
  15 H :    0.027764
Sum of atomic charges:    1.0000000

LOEWDIN ATOMIC CHARGES
----------------------
   0 C :    0.042033
   1 N :    0.039797
   2 C :    0.126110
   3 N :    0.061023
   4 N :    0.047046
   5 H :    0.104536
   6 H :    0.107885
   7 H :    0.107691
   8 H :    0.110911
   9 H :    0.110660
  10 C :   -0.034436
  11 H :    0.047175
  12 H :    0.028550
  13 H :    0.033360
  14 H :    0.045743
  15 H :    0.021915

  Mayer bond orders larger than 0.100000
B(  0-C ,  1-N ) :   0.9452 B(  0-C , 10-C ) :   1.0923 B(  0-C , 11-H ) :   0.9437
B(  0-C , 12-H ) :   0.9488 B(  1-N ,  2-C ) :   1.3735 B(  1-N ,  7-H ) :   0.9132
B(  2-C ,  3-N ) :   1.3944 B(  2-C ,  4-N ) :   1.3644 B(  3-N ,  8-H ) :   0.9254
B(  3-N ,  9-H ) :   0.9260 B(  4-N ,  5-H ) :   0.9215 B(  4-N ,  6-H ) :   0.9283
B( 10-C , 13-H ) :   0.9657 B( 10-C , 14-H ) :   0.9621 B( 10-C , 15-H ) :   0.9669

Dispersion correction           -0.015291452
FINAL SINGLE POINT ENERGY      -284.247898441288

DIPOLE MOMENT
-------------
                                X             Y             Z
Electronic contribution:     -1.82606       1.61683      -4.53901
Nuclear contribution   :      1.34333      -1.11039       3.43667
                        -----------------------------------------
Total Dipole Moment    :     -0.48274       0.50644      -1.10234
                        -----------------------------------------
Magnitude (a.u.)       :      1.30563
Magnitude (Debye)      :      3.31864

Rotational constants in cm-1:     0.227161     0.075356     0.065003
Rotational constants in MHz :  6810.114531  2259.122204  1948.738523

                             ****ORCA TERMINATED NORMALLY****
TOTAL RUN TIME: 0 days 0 hours 0 minutes 6 seconds 378 msec
