                         Program Version 5.0.0 -  RELEASE  -
|  1> !TPSS D3BJ RIJCOSX def2-TZVP def2/J TightSCF xyzfile
|  2>
|  3> *xyzfile 0 1 B.xyz
|  4>
|  5> %MaxCore 64000
|  6>
|  7> %pal nprocs 18
|  8> end
|  9>
| 10> %scf
| 11>   MaxIter 150
| 12> end
| 13>
| 14>
| 15>                          ****END OF INPUT****

CARTESIAN COORDINATES (ANGSTROEM)
---------------------------------
  C      4.490588    1.155899   -2.469290
  N      4.305394    1.222762   -3.908317
  C      4.906458   -3.102816   -5.954844
  C      3.511771   -2.806215   -6.492283
  H      2.736044   -3.373445   -5.973736
  H      3.444904   -3.040831   -7.555281
  S      3.004618   -1.096206   -6.389259
  C      4.631918    2.246365   -4.670958
  N      4.541686    2.143990   -5.987139
  N      5.084086    3.393584   -4.118545
  H      4.920675    3.570501   -3.135870
  H      5.254652    4.197390   -4.706956
  H      3.824530    0.449113   -4.350926
  H      4.343373    1.249318   -6.416646
  H      4.676712    2.956624   -6.574113
  O      4.128856   -0.329647   -6.953717
  O      1.781285   -1.000779   -7.136399
  C      5.942129    0.939500   -2.036893
  H      3.864305    0.328532   -2.136611
  H      4.076233    2.049994   -1.989010
  C      6.462677   -3.117775   -3.944671
  C      5.024977   -3.025679   -4.437625
  H      4.423321   -3.818693   -3.977648
  H      4.579350   -2.087131   -4.108727
  H      5.201533   -4.100207   -6.296905
  H      5.605922   -2.397822   -6.413368
  C      6.559957   -0.356290   -2.559086
  H      5.967976    0.952567   -0.942444
  H      6.547184    1.788331   -2.368849
  C      6.006283   -1.615917   -1.899301
  H      7.642360   -0.318000   -2.402059
  H      6.414855   -0.403433   -3.642587
  C      6.608718   -2.917014   -2.435655
  H      6.190324   -1.561115   -0.820948
  H      4.919250   -1.651245   -2.016586
  H      7.066975   -2.374258   -4.475514
  H      6.887808   -4.089747   -4.215332
  H      6.135197   -3.755573   -1.915159
  H      7.671142   -2.955503   -2.172291
  O      2.851546   -0.783683   -4.956789

 Total Charge           Charge          ....    0
 Multiplicity           Mult            ....    1
 Number of Electrons    NEL             ....  144
 Basis Dimension        Dim             ....  671

ORBITAL ENERGIES
----------------

  NO   OCC          E(Eh)            E(eV)
   0   2.0000     -88.478819     -2407.6311
   1   2.0000     -18.818743      -512.0840
   2   2.0000     -18.818529      -512.0782
   3   2.0000     -18.804476      -511.6958
   4   2.0000     -14.174429      -385.7058
   5   2.0000     -14.142410      -384.8345
   6   2.0000     -14.141058      -384.7978
   7   2.0000     -10.142310      -275.9863
   8   2.0000     -10.049943      -273.4729
   9   2.0000     -10.004504      -272.2364
  10   2.0000      -9.988216      -271.7932
  11   2.0000      -9.981305      -271.6051
  12   2.0000      -9.975989      -271.4605
  13   2.0000      -9.972094      -271.3545
  14   2.0000      -9.968787      -271.2645
  15   2.0000      -9.965661      -271.1794
  16   2.0000      -9.959111      -271.0012
  17   2.0000      -7.828203      -213.0162
  18   2.0000      -5.807952      -158.0424
  19   2.0000      -5.806934      -158.0147
  20   2.0000      -5.806202      -157.9948
  21   2.0000      -1.003602       -27.3094
  22   2.0000      -0.982625       -26.7386
  23   2.0000      -0.882890       -24.0247
  24   2.0000      -0.876263       -23.8443
  25   2.0000      -0.871164       -23.7056
  26   2.0000      -0.864507       -23.5244
  27   2.0000      -0.764602       -20.8059
  28   2.0000      -0.739036       -20.1102
  29   2.0000      -0.713156       -19.4060
  30   2.0000      -0.679063       -18.4782
  31   2.0000      -0.645379       -17.5616
  32   2.0000      -0.623294       -16.9607
  33   2.0000      -0.595779       -16.2120
  34   2.0000      -0.576745       -15.6940
  35   2.0000      -0.566112       -15.4047
  36   2.0000      -0.543992       -14.8028
  37   2.0000      -0.529755       -14.4154
  38   2.0000      -0.504938       -13.7401
  39   2.0000      -0.495060       -13.4713
  40   2.0000      -0.491836       -13.3835
  41   2.0000      -0.467646       -12.7253
  42   2.0000      -0.457201       -12.4411
  43   2.0000      -0.441340       -12.0095
  44   2.0000      -0.433700       -11.8016
  45   2.0000      -0.419333       -11.4106
  46   2.0000      -0.412156       -11.2153
  47   2.0000      -0.404254       -11.0003
  48   2.0000      -0.390719       -10.6320
  49   2.0000      -0.386172       -10.5083
  50   2.0000      -0.377145       -10.2626
  51   2.0000      -0.373895       -10.1742
  52   2.0000      -0.359612        -9.7855
  53   2.0000      -0.356522        -9.7015
  54   2.0000      -0.346587        -9.4311
  55   2.0000      -0.339473        -9.2375
  56   2.0000      -0.327598        -8.9144
  57   2.0000      -0.319369        -8.6905
  58   2.0000      -0.309485        -8.4215
  59   2.0000      -0.298201        -8.1145
  60   2.0000      -0.287990        -7.8366
  61   2.0000      -0.282452        -7.6859
  62   2.0000      -0.276767        -7.5312
  63   2.0000      -0.273920        -7.4537
  64   2.0000      -0.271180        -7.3792
  65   2.0000      -0.264167        -7.1883
  66   2.0000      -0.256724        -6.9858
  67   2.0000      -0.248915        -6.7733
  68   2.0000      -0.225562        -6.1378
  69   2.0000      -0.218454        -5.9444
  70   2.0000      -0.212010        -5.7691
  71   2.0000      -0.182214        -4.9583
  72   0.0000      -0.030166        -0.8209
  73   0.0000      -0.029655        -0.8070
  74   0.0000       0.002156         0.0587
  75   0.0000       0.027154         0.7389
  76   0.0000       0.036013         0.9800

MULLIKEN ATOMIC CHARGES
-----------------------
   0 C :   -0.226067
   1 N :   -0.191673
   2 C :   -0.126783
   3 C :   -0.165593
   4 H :    0.098283
   5 H :    0.114997
   6 S :    0.786566
   7 C :    0.373688
   8 N :   -0.379398
   9 N :   -0.456888
  10 H :    0.266150
  11 H :    0.248908
  12 H :    0.253816
  13 H :    0.289295
  14 H :    0.236257
  15 O :   -0.575723
  16 O :   -0.460761
  17 C :   -0.084337
  18 H :    0.155463
  19 H :    0.114344
  20 C :   -0.175110
  21 C :   -0.276244
  22 H :    0.065322
  23 H :    0.124532
  24 H :    0.076701
  25 H :    0.095485
  26 C :   -0.221795
  27 H :    0.087025
  28 H :    0.096326
  29 C :   -0.249081
  30 H :    0.088654
  31 H :    0.126172
  32 C :   -0.066820
  33 H :    0.079614
  34 H :    0.114029
  35 H :    0.091965
  36 H :    0.079831
  37 H :    0.077821
  38 H :    0.077545
  39 O :   -0.562515
Sum of atomic charges:    0.0000000

LOEWDIN ATOMIC CHARGES
----------------------
   0 C :   -0.270246
   1 N :    0.184618
   2 C :   -0.283916
   3 C :   -0.377159
   4 H :    0.131970
   5 H :    0.133902
   6 S :    0.418562
   7 C :   -0.434273
   8 N :    0.071856
   9 N :    0.021369
  10 H :    0.179371
  11 H :    0.177451
  12 H :    0.171424
  13 H :    0.154109
  14 H :    0.175798
  15 O :   -0.357417
  16 O :   -0.299298
  17 C :   -0.264783
  18 H :    0.147085
  19 H :    0.124612
  20 C :   -0.267248
  21 C :   -0.268969
  22 H :    0.131630
  23 H :    0.133674
  24 H :    0.132133
  25 H :    0.137629
  26 C :   -0.261158
  27 H :    0.138920
  28 H :    0.131179
  29 C :   -0.266577
  30 H :    0.135966
  31 H :    0.139976
  32 C :   -0.261215
  33 H :    0.131731
  34 H :    0.133648
  35 H :    0.131410
  36 H :    0.131653
  37 H :    0.134130
  38 H :    0.131407
  39 O :   -0.354953

  Mayer bond orders larger than 0.100000
B(  0-C ,  1-N ) :   0.9411 B(  0-C , 17-C ) :   0.9966 B(  0-C , 18-H ) :   0.9523
B(  0-C , 19-H ) :   0.9583 B(  1-N ,  7-C ) :   1.4206 B(  1-N , 12-H ) :   0.7844
B(  2-C ,  3-C ) :   1.0078 B(  2-C , 21-C ) :   1.0491 B(  2-C , 24-H ) :   0.9295
B(  2-C , 25-H ) :   0.9368 B(  3-C ,  4-H ) :   0.9424 B(  3-C ,  5-H ) :   0.9397
B(  3-C ,  6-S ) :   0.8970 B(  6-S , 15-O ) :   1.5621 B(  6-S , 16-O ) :   1.9243
B(  6-S , 39-O ) :   1.5655 B(  7-C ,  8-N ) :   1.4084 B(  7-C ,  9-N ) :   1.2397
B(  8-N , 13-H ) :   0.7722 B(  8-N , 14-H ) :   0.9092 B(  9-N , 10-H ) :   0.8933
B(  9-N , 11-H ) :   0.9079 B( 12-H , 39-O ) :   0.1805 B( 13-H , 15-O ) :   0.1812
B( 17-C , 26-C ) :   1.0100 B( 17-C , 27-H ) :   0.9392 B( 17-C , 28-H ) :   0.9451
B( 20-C , 21-C ) :   1.0206 B( 20-C , 32-C ) :   1.0159 B( 20-C , 35-H ) :   0.9615
B( 20-C , 36-H ) :   0.9393 B( 21-C , 22-H ) :   0.9437 B( 21-C , 23-H ) :   0.9481
B( 26-C , 29-C ) :   1.0326 B( 26-C , 30-H ) :   0.9409 B( 26-C , 31-H ) :   0.9545
B( 29-C , 32-C ) :   1.0224 B( 29-C , 33-H ) :   0.9339 B( 29-C , 34-H ) :   0.9622
B( 32-C , 37-H ) :   0.9438 B( 32-C , 38-H ) :   0.9463

Dispersion correction           -0.060896835
FINAL SINGLE POINT ENERGY     -1183.590700087082

DIPOLE MOMENT
-------------
                                X             Y             Z
Electronic contribution:    -14.59575       8.40185     -15.39431
Nuclear contribution   :     16.79156      -5.47215      17.54258
                        -----------------------------------------
Total Dipole Moment    :      2.19581       2.92970       2.14827
                        -----------------------------------------
Magnitude (a.u.)       :      4.24497
Magnitude (Debye)      :     10.78986

Rotational constants in cm-1:     0.014207     0.012373     0.007472
Rotational constants in MHz :   425.900436   370.942493   224.006604

                             ****ORCA TERMINATED NORMALLY****
TOTAL RUN TIME: 0 days 0 hours 0 minutes 37 seconds 439 msec
