                         Program Version 5.0.0 -  RELEASE  -
|  1> !TPSS D3BJ RIJCOSX def2-SVP def2/J TightSCF
|  2> *xyz 0 1
|  3> C          4.90646       -3.10282       -5.95484
|  4> C          3.51177       -2.80621       -6.49228
|  5> H          2.73604       -3.37345       -5.97374
|  6> H          3.44490       -3.04083       -7.55528
|  7> S          3.00462       -1.09621       -6.38926
|  8> F          4.12886       -0.32965       -6.95372
|  9> O          1.78128       -1.00078       -7.13640
| 10> O          2.85155       -0.78368       -4.95679
| 11> H          5.62703       -2.52424       -6.49422
| 12> H          5.12164       -4.14387       -6.07654
| 13> H          4.95004       -2.84862       -4.91639
| 14> *
| 15>
| 16> %MaxCore 64000
| 17>
| 18> %pal nprocs 4
| 19> end
| 20>
| 21> %scf
| 22>   MaxIter 150
| 23> end
| 24>
| 25>
| 26>                          ****END OF INPUT****

CARTESIAN COORDINATES (ANGSTROEM)
---------------------------------
  C      4.906460   -3.102820   -5.954840
  C      3.511770   -2.806210   -6.492280
  H      2.736040   -3.373450   -5.973740
  H      3.444900   -3.040830   -7.555280
  S      3.004620   -1.096210   -6.389260
  F      4.128860   -0.329650   -6.953720
  O      1.781280   -1.000780   -7.136400
  O      2.851550   -0.783680   -4.956790
  H      5.627030   -2.524240   -6.494220
  H      5.121640   -4.143870   -6.076540
  H      4.950040   -2.848620   -4.916390

 Total Charge           Charge          ....    0
 Multiplicity           Mult            ....    1
 Number of Electrons    NEL             ....   58
 Basis Dimension        Dim             ....  113

ORBITAL ENERGIES
----------------

  NO   OCC          E(Eh)            E(eV)
   0   2.0000     -88.592630     -2410.7280
   1   2.0000     -24.508556      -666.9117
   2   2.0000     -18.894230      -514.1381
   3   2.0000     -18.882007      -513.8055
   4   2.0000     -10.056065      -273.6394
   5   2.0000     -10.025310      -272.8025
   6   2.0000      -7.962390      -216.6676
   7   2.0000      -5.952033      -161.9631
   8   2.0000      -5.945603      -161.7881
   9   2.0000      -5.943897      -161.7417
  10   2.0000      -1.256113       -34.1806
  11   2.0000      -1.024441       -27.8765
  12   2.0000      -0.925861       -25.1939
  13   2.0000      -0.762365       -20.7450
  14   2.0000      -0.658668       -17.9233
  15   2.0000      -0.614324       -16.7166
  16   2.0000      -0.524386       -14.2693
  17   2.0000      -0.499036       -13.5795
  18   2.0000      -0.482802       -13.1377
  19   2.0000      -0.449425       -12.2295
  20   2.0000      -0.422605       -11.4997
  21   2.0000      -0.402056       -10.9405
  22   2.0000      -0.382645       -10.4123
  23   2.0000      -0.370113       -10.0713
  24   2.0000      -0.357757        -9.7351
  25   2.0000      -0.327884        -8.9222
  26   2.0000      -0.283534        -7.7154
  27   2.0000      -0.271201        -7.3798
  28   2.0000      -0.253216        -6.8904
  29   0.0000       0.006275         0.1707
  30   0.0000       0.040906         1.1131
  31   0.0000       0.060163         1.6371
  32   0.0000       0.072041         1.9603
  33   0.0000       0.079250         2.1565

MULLIKEN ATOMIC CHARGES
-----------------------
   0 C :    0.013130
   1 C :   -0.128550
   2 H :    0.092162
   3 H :    0.064278
   4 S :    0.881934
   5 F :   -0.184950
   6 O :   -0.405922
   7 O :   -0.447989
   8 H :    0.029452
   9 H :    0.039663
  10 H :    0.046790
Sum of atomic charges:   -0.0000000

LOEWDIN ATOMIC CHARGES
----------------------
   0 C :   -0.049064
   1 C :   -0.144799
   2 H :    0.049220
   3 H :    0.030792
   4 S :    1.119827
   5 F :   -0.138655
   6 O :   -0.455438
   7 O :   -0.497535
   8 H :    0.022686
   9 H :    0.033326
  10 H :    0.029641

  Mayer bond orders larger than 0.100000
B(  0-C ,  1-C ) :   1.0520 B(  0-C ,  8-H ) :   0.9714 B(  0-C ,  9-H ) :   0.9598
B(  0-C , 10-H ) :   0.9689 B(  1-C ,  2-H ) :   0.9321 B(  1-C ,  3-H ) :   0.9288
B(  1-C ,  4-S ) :   0.9021 B(  4-S ,  5-F ) :   0.9869 B(  4-S ,  6-O ) :   1.7915
B(  4-S ,  7-O ) :   1.7515

Dispersion correction           -0.011527403
FINAL SINGLE POINT ENERGY      -727.314888831913

DIPOLE MOMENT
-------------
                                X             Y             Z
Electronic contribution:     -3.06789       8.29536      -1.73053
Nuclear contribution   :      4.18919      -9.36357       1.23251
                        -----------------------------------------
Total Dipole Moment    :      1.12131      -1.06821      -0.49801
                        -----------------------------------------
Magnitude (a.u.)       :      1.62678
Magnitude (Debye)      :      4.13495

Rotational constants in cm-1:     0.153152     0.082513     0.079874
Rotational constants in MHz :  4591.373714  2473.673397  2394.575279

                             ****ORCA TERMINATED NORMALLY****
TOTAL RUN TIME: 0 days 0 hours 0 minutes 4 seconds 966 msec
