                         Program Version 5.0.0 -  RELEASE  -
|  1> !TPSS D3BJ RIJCOSX def2-SVP def2/J TightSCF
|  2> *xyz 0 1
|  3> C          4.49059        1.15590       -2.46929
|  4> C          4.30539        1.22276       -3.90832
|  5> C          4.63192        2.24637       -4.67096
|  6> N          4.54169        2.14399       -5.98714
|  7> N          5.08409        3.39358       -4.11855
|  8> H          4.92067        3.57050       -3.13587
|  9> H          5.25465        4.19739       -4.70696
| 10> H          3.82453        0.44911       -4.35093
| 11> H          4.34337        1.24932       -6.41665
| 12> H          4.67671        2.95662       -6.57411
| 13> C          5.94213        0.93950       -2.03689
| 14> H          3.86431        0.32853       -2.13661
| 15> H          4.07623        2.04999       -1.98901
| 16> H          6.32982        0.06401       -2.51451
| 17> H          5.98308        0.81426       -0.97504
| 18> H          6.52865        1.78889       -2.31873
| 19> *
| 20>
| 21> %MaxCore 64000
| 22>
| 23> %pal nprocs 4
| 24> end
| 25>
| 26> %scf
| 27>   MaxIter 150
| 28> end
| 29>
| 30>
| 31>                          ****END OF INPUT****

CARTESIAN COORDINATES (ANGSTROEM)
---------------------------------
  C      4.490590    1.155900   -2.469290
  C      4.305390    1.222760   -3.908320
  C      4.631920    2.246370   -4.670960
  N      4.541690    2.143990   -5.987140
  N      5.084090    3.393580   -4.118550
  H      4.920670    3.570500   -3.135870
  H      5.254650    4.197390   -4.706960
  H      3.824530    0.449110   -4.350930
  H      4.343370    1.249320   -6.416650
  H      4.676710    2.956620   -6.574110
  C      5.942130    0.939500   -2.036890
  H      3.864310    0.328530   -2.136610
  H      4.076230    2.049990   -1.989010
  H      6.329820    0.064010   -2.514510
  H      5.983080    0.814260   -0.975040
  H      6.528650    1.788890   -2.318730

 Total Charge           Charge          ....    0
 Multiplicity           Mult            ....    1
 Number of Electrons    NEL             ....   48
 Basis Dimension        Dim             ....  134

ORBITAL ENERGIES
----------------

  NO   OCC          E(Eh)            E(eV)
   0   2.0000     -14.109360      -383.9352
   1   2.0000     -14.107701      -383.8901
   2   2.0000     -10.026599      -272.8376
   3   2.0000      -9.967709      -271.2352
   4   2.0000      -9.960306      -271.0337
   5   2.0000      -9.908292      -269.6183
   6   2.0000      -0.875874       -23.8338
   7   2.0000      -0.792211       -21.5572
   8   2.0000      -0.697871       -18.9900
   9   2.0000      -0.624684       -16.9985
  10   2.0000      -0.555233       -15.1086
  11   2.0000      -0.518811       -14.1176
  12   2.0000      -0.486892       -13.2490
  13   2.0000      -0.454088       -12.3564
  14   2.0000      -0.424539       -11.5523
  15   2.0000      -0.387308       -10.5392
  16   2.0000      -0.369686       -10.0597
  17   2.0000      -0.341572        -9.2947
  18   2.0000      -0.331085        -9.0093
  19   2.0000      -0.302875        -8.2416
  20   2.0000      -0.282414        -7.6849
  21   2.0000      -0.273764        -7.4495
  22   2.0000      -0.212545        -5.7837
  23   2.0000      -0.116849        -3.1796
  24   0.0000       0.031934         0.8690
  25   0.0000       0.061919         1.6849
  26   0.0000       0.072613         1.9759
  27   0.0000       0.085892         2.3372
  28   0.0000       0.096908         2.6370

MULLIKEN ATOMIC CHARGES
-----------------------
   0 C :    0.034133
   1 C :   -0.199276
   2 C :   -0.017472
   3 N :   -0.060620
   4 N :   -0.096941
   5 H :    0.120742
   6 H :    0.098228
   7 H :   -0.096146
   8 H :    0.119281
   9 H :    0.096727
  10 C :    0.061016
  11 H :   -0.015377
  12 H :   -0.024083
  13 H :   -0.003572
  14 H :   -0.010225
  15 H :   -0.006416
Sum of atomic charges:   -0.0000000

LOEWDIN ATOMIC CHARGES
----------------------
   0 C :   -0.036037
   1 C :   -0.217823
   2 C :    0.015025
   3 N :   -0.011576
   4 N :   -0.021820
   5 H :    0.075677
   6 H :    0.062098
   7 H :   -0.011934
   8 H :    0.081784
   9 H :    0.061488
  10 C :   -0.044309
  11 H :    0.020701
  12 H :   -0.001011
  13 H :    0.013729
  14 H :    0.006287
  15 H :    0.007721

  Mayer bond orders larger than 0.100000
B(  0-C ,  1-C ) :   1.0823 B(  0-C , 10-C ) :   1.0859 B(  0-C , 11-H ) :   0.9160
B(  0-C , 12-H ) :   0.9281 B(  1-C ,  2-C ) :   1.6573 B(  1-C ,  7-H ) :   0.9532
B(  2-C ,  3-N ) :   1.2442 B(  2-C ,  4-N ) :   1.2337 B(  3-N ,  8-H ) :   0.9393
B(  3-N ,  9-H ) :   0.9466 B(  4-N ,  5-H ) :   0.9341 B(  4-N ,  6-H ) :   0.9494
B( 10-C , 13-H ) :   0.9642 B( 10-C , 14-H ) :   0.9610 B( 10-C , 15-H ) :   0.9693

Dispersion correction           -0.015909588
FINAL SINGLE POINT ENERGY      -267.766607881503

DIPOLE MOMENT
-------------
                                X             Y             Z
Electronic contribution:     -1.24063       2.10878      -4.27819
Nuclear contribution   :      1.23062      -1.24683       3.43056
                        -----------------------------------------
Total Dipole Moment    :     -0.01001       0.86195      -0.84762
                        -----------------------------------------
Magnitude (a.u.)       :      1.20893
Magnitude (Debye)      :      3.07286

Rotational constants in cm-1:     0.231477     0.075416     0.065327
Rotational constants in MHz :  6939.497385  2260.912204  1958.442932

                             ****ORCA TERMINATED NORMALLY****
TOTAL RUN TIME: 0 days 0 hours 0 minutes 6 seconds 641 msec
