                         Program Version 5.0.0 -  RELEASE  -
|  1> !TPSS D3BJ RIJCOSX def2-SVP def2/J TightSCF
|  2> *xyz 0 1
|  3> C          4.90646       -3.10282       -5.95484
|  4> C          3.51177       -2.80621       -6.49228
|  5> H          2.73604       -3.37345       -5.97374
|  6> H          3.44490       -3.04083       -7.55528
|  7> S          3.00462       -1.09621       -6.38926
|  8> O          4.12886       -0.32965       -6.95372
|  9> F          1.78128       -1.00078       -7.13640
| 10> O          2.85155       -0.78368       -4.95679
| 11> H          5.62703       -2.52424       -6.49422
| 12> H          5.12164       -4.14387       -6.07654
| 13> H          4.95004       -2.84862       -4.91639
| 14> *
| 15>
| 16> %MaxCore 64000
| 17>
| 18> %pal nprocs 4
| 19> end
| 20>
| 21> %scf
| 22>   MaxIter 150
| 23> end
| 24>
| 25>
| 26>                          ****END OF INPUT****

CARTESIAN COORDINATES (ANGSTROEM)
---------------------------------
  C      4.906460   -3.102820   -5.954840
  C      3.511770   -2.806210   -6.492280
  H      2.736040   -3.373450   -5.973740
  H      3.444900   -3.040830   -7.555280
  S      3.004620   -1.096210   -6.389260
  O      4.128860   -0.329650   -6.953720
  F      1.781280   -1.000780   -7.136400
  O      2.851550   -0.783680   -4.956790
  H      5.627030   -2.524240   -6.494220
  H      5.121640   -4.143870   -6.076540
  H      4.950040   -2.848620   -4.916390

 Total Charge           Charge          ....    0
 Multiplicity           Mult            ....    1
 Number of Electrons    NEL             ....   58
 Basis Dimension        Dim             ....  113

ORBITAL ENERGIES
----------------

  NO   OCC          E(Eh)            E(eV)
   0   2.0000     -88.594002     -2410.7654
   1   2.0000     -24.526477      -667.3994
   2   2.0000     -18.881617      -513.7949
   3   2.0000     -18.881238      -513.7846
   4   2.0000     -10.056836      -273.6604
   5   2.0000     -10.021074      -272.6873
   6   2.0000      -7.963759      -216.7049
   7   2.0000      -5.953580      -162.0051
   8   2.0000      -5.946729      -161.8187
   9   2.0000      -5.945137      -161.7754
  10   2.0000      -1.286945       -35.0195
  11   2.0000      -1.010463       -27.4961
  12   2.0000      -0.911694       -24.8085
  13   2.0000      -0.759098       -20.6561
  14   2.0000      -0.671233       -18.2652
  15   2.0000      -0.616412       -16.7734
  16   2.0000      -0.527030       -14.3412
  17   2.0000      -0.520905       -14.1745
  18   2.0000      -0.493909       -13.4400
  19   2.0000      -0.451318       -12.2810
  20   2.0000      -0.423139       -11.5142
  21   2.0000      -0.387703       -10.5499
  22   2.0000      -0.379060       -10.3147
  23   2.0000      -0.368029       -10.0146
  24   2.0000      -0.349787        -9.5182
  25   2.0000      -0.321517        -8.7489
  26   2.0000      -0.271607        -7.3908
  27   2.0000      -0.267303        -7.2737
  28   2.0000      -0.241061        -6.5596
  29   0.0000       0.011602         0.3157
  30   0.0000       0.033402         0.9089
  31   0.0000       0.059086         1.6078
  32   0.0000       0.061640         1.6773
  33   0.0000       0.082045         2.2325

MULLIKEN ATOMIC CHARGES
-----------------------
   0 C :    0.029227
   1 C :   -0.120063
   2 H :    0.063234
   3 H :    0.057224
   4 S :    0.871906
   5 O :   -0.444599
   6 F :   -0.146735
   7 O :   -0.444550
   8 H :    0.049341
   9 H :    0.037374
  10 H :    0.047641
Sum of atomic charges:   -0.0000000

LOEWDIN ATOMIC CHARGES
----------------------
   0 C :   -0.033458
   1 C :   -0.146440
   2 H :    0.030407
   3 H :    0.027719
   4 S :    1.113036
   5 O :   -0.492778
   6 F :   -0.101415
   7 O :   -0.494787
   8 H :    0.032188
   9 H :    0.033238
  10 H :    0.032290

  Mayer bond orders larger than 0.100000
B(  0-C ,  1-C ) :   1.0755 B(  0-C ,  8-H ) :   0.9670 B(  0-C ,  9-H ) :   0.9596
B(  0-C , 10-H ) :   0.9699 B(  1-C ,  2-H ) :   0.9258 B(  1-C ,  3-H ) :   0.9239
B(  1-C ,  4-S ) :   0.9000 B(  4-S ,  5-O ) :   1.7418 B(  4-S ,  6-F ) :   1.0343
B(  4-S ,  7-O ) :   1.7475

Dispersion correction           -0.011596351
FINAL SINGLE POINT ENERGY      -727.298863238230

DIPOLE MOMENT
-------------
                                X             Y             Z
Electronic contribution:     -6.98256       7.18739      -2.03829
Nuclear contribution   :      6.63544      -8.66423       1.42287
                        -----------------------------------------
Total Dipole Moment    :     -0.34712      -1.47684      -0.61542
                        -----------------------------------------
Magnitude (a.u.)       :      1.63716
Magnitude (Debye)      :      4.16133

Rotational constants in cm-1:     0.158118     0.080978     0.078216
Rotational constants in MHz :  4740.271775  2427.649826  2344.849020

                             ****ORCA TERMINATED NORMALLY****
TOTAL RUN TIME: 0 days 0 hours 0 minutes 5 seconds 243 msec
