                         Program Version 5.0.0 -  RELEASE  -
|  1> !TPSS D3BJ RIJCOSX def2-SVP def2/J TightSCF
|  2> *xyz 0 1
|  3> C          4.49059        1.15590       -2.46929
|  4> N          4.30539        1.22276       -3.90832
|  5> C          4.63192        2.24637       -4.67096
|  6> C          4.54169        2.14399       -5.98714
|  7> N          5.08409        3.39358       -4.11855
|  8> H          4.92067        3.57050       -3.13587
|  9> H          5.25465        4.19739       -4.70696
| 10> H          3.82453        0.44911       -4.35093
| 11> H          4.34337        1.24932       -6.41665
| 12> H          4.67671        2.95662       -6.57411
| 13> C          5.94213        0.93950       -2.03689
| 14> H          3.86431        0.32853       -2.13661
| 15> H          4.07623        2.04999       -1.98901
| 16> H          6.32982        0.06401       -2.51451
| 17> H          5.98308        0.81426       -0.97504
| 18> H          6.52865        1.78889       -2.31873
| 19> *
| 20>
| 21> %MaxCore 64000
| 22>
| 23> %pal nprocs 4
| 24> end
| 25>
| 26> %scf
| 27>   MaxIter 150
| 28> end
| 29>
| 30>
| 31>                          ****END OF INPUT****

CARTESIAN COORDINATES (ANGSTROEM)
---------------------------------
  C      4.490590    1.155900   -2.469290
  N      4.305390    1.222760   -3.908320
  C      4.631920    2.246370   -4.670960
  C      4.541690    2.143990   -5.987140
  N      5.084090    3.393580   -4.118550
  H      4.920670    3.570500   -3.135870
  H      5.254650    4.197390   -4.706960
  H      3.824530    0.449110   -4.350930
  H      4.343370    1.249320   -6.416650
  H      4.676710    2.956620   -6.574110
  C      5.942130    0.939500   -2.036890
  H      3.864310    0.328530   -2.136610
  H      4.076230    2.049990   -1.989010
  H      6.329820    0.064010   -2.514510
  H      5.983080    0.814260   -0.975040
  H      6.528650    1.788890   -2.318730

 Total Charge           Charge          ....    0
 Multiplicity           Mult            ....    1
 Number of Electrons    NEL             ....   48
 Basis Dimension        Dim             ....  134

ORBITAL ENERGIES
----------------

  NO   OCC          E(Eh)            E(eV)
   0   2.0000     -14.107761      -383.8917
   1   2.0000     -14.107400      -383.8819
   2   2.0000     -10.037750      -273.1411
   3   2.0000     -10.028092      -272.8783
   4   2.0000      -9.988836      -271.8100
   5   2.0000      -9.904823      -269.5239
   6   2.0000      -0.884988       -24.0817
   7   2.0000      -0.803856       -21.8740
   8   2.0000      -0.702245       -19.1091
   9   2.0000      -0.633569       -17.2403
  10   2.0000      -0.570200       -15.5159
  11   2.0000      -0.540213       -14.6999
  12   2.0000      -0.480857       -13.0848
  13   2.0000      -0.447247       -12.1702
  14   2.0000      -0.431379       -11.7384
  15   2.0000      -0.401587       -10.9277
  16   2.0000      -0.375783       -10.2256
  17   2.0000      -0.354909        -9.6576
  18   2.0000      -0.335846        -9.1388
  19   2.0000      -0.329929        -8.9778
  20   2.0000      -0.317395        -8.6368
  21   2.0000      -0.308013        -8.3815
  22   2.0000      -0.204952        -5.5770
  23   2.0000      -0.120750        -3.2858
  24   0.0000       0.031419         0.8550
  25   0.0000       0.054289         1.4773
  26   0.0000       0.071046         1.9333
  27   0.0000       0.085386         2.3235
  28   0.0000       0.097040         2.6406

MULLIKEN ATOMIC CHARGES
-----------------------
   0 C :    0.038241
   1 N :   -0.141490
   2 C :   -0.025729
   3 C :   -0.079744
   4 N :   -0.101755
   5 H :    0.101958
   6 H :    0.119140
   7 H :    0.121372
   8 H :   -0.059975
   9 H :   -0.060490
  10 C :    0.042209
  11 H :    0.007886
  12 H :    0.006704
  13 H :    0.014621
  14 H :    0.006293
  15 H :    0.010756
Sum of atomic charges:    0.0000000

LOEWDIN ATOMIC CHARGES
----------------------
   0 C :    0.031782
   1 N :   -0.018902
   2 C :    0.021582
   3 C :   -0.241934
   4 N :   -0.021538
   5 H :    0.059316
   6 H :    0.080831
   7 H :    0.083887
   8 H :   -0.011792
   9 H :   -0.011984
  10 C :   -0.051672
  11 H :    0.021433
  12 H :    0.005951
  13 H :    0.019960
  14 H :    0.017480
  15 H :    0.015600

  Mayer bond orders larger than 0.100000
B(  0-C ,  1-N ) :   1.0347 B(  0-C , 10-C ) :   1.0811 B(  0-C , 11-H ) :   0.9495
B(  0-C , 12-H ) :   0.9449 B(  1-N ,  2-C ) :   1.2033 B(  1-N ,  7-H ) :   0.9290
B(  2-C ,  3-C ) :   1.7351 B(  2-C ,  4-N ) :   1.2091 B(  3-C ,  8-H ) :   0.9337
B(  3-C ,  9-H ) :   0.9328 B(  4-N ,  5-H ) :   0.9446 B(  4-N ,  6-H ) :   0.9431
B( 10-C , 13-H ) :   0.9645 B( 10-C , 14-H ) :   0.9589 B( 10-C , 15-H ) :   0.9637

Dispersion correction           -0.015764985
FINAL SINGLE POINT ENERGY      -267.763171517762

DIPOLE MOMENT
-------------
                                X             Y             Z
Electronic contribution:     -1.43352       1.13456      -1.96384
Nuclear contribution   :      1.28075      -1.05140       2.98955
                        -----------------------------------------
Total Dipole Moment    :     -0.15277       0.08316       1.02571
                        -----------------------------------------
Magnitude (a.u.)       :      1.04036
Magnitude (Debye)      :      2.64437

Rotational constants in cm-1:     0.229858     0.078444     0.067377
Rotational constants in MHz :  6890.979812  2351.691803  2019.910665

                             ****ORCA TERMINATED NORMALLY****
TOTAL RUN TIME: 0 days 0 hours 0 minutes 6 seconds 170 msec
