                         Program Version 5.0.0 -  RELEASE  -
|  1> !TPSS D3BJ RIJCOSX def2-SVP def2/J TightSCF
|  2> *xyz 0 1
|  3> C          4.90646       -3.10282       -5.95484
|  4> C          3.51177       -2.80621       -6.49228
|  5> H          2.73604       -3.37345       -5.97374
|  6> H          3.44490       -3.04083       -7.55528
|  7> S          3.00462       -1.09621       -6.38926
|  8> O          4.12886       -0.32965       -6.95372
|  9> O          1.78128       -1.00078       -7.13640
| 10> F          2.85155       -0.78368       -4.95679
| 11> H          5.62703       -2.52424       -6.49422
| 12> H          5.12164       -4.14387       -6.07654
| 13> H          4.95004       -2.84862       -4.91639
| 14> *
| 15>
| 16> %MaxCore 64000
| 17>
| 18> %pal nprocs 4
| 19> end
| 20>
| 21> %scf
| 22>   MaxIter 150
| 23> end
| 24>
| 25>
| 26>                          ****END OF INPUT****

CARTESIAN COORDINATES (ANGSTROEM)
---------------------------------
  C      4.906460   -3.102820   -5.954840
  C      3.511770   -2.806210   -6.492280
  H      2.736040   -3.373450   -5.973740
  H      3.444900   -3.040830   -7.555280
  S      3.004620   -1.096210   -6.389260
  O      4.128860   -0.329650   -6.953720
  O      1.781280   -1.000780   -7.136400
  F      2.851550   -0.783680   -4.956790
  H      5.627030   -2.524240   -6.494220
  H      5.121640   -4.143870   -6.076540
  H      4.950040   -2.848620   -4.916390

 Total Charge           Charge          ....    0
 Multiplicity           Mult            ....    1
 Number of Electrons    NEL             ....   58
 Basis Dimension        Dim             ....  113

ORBITAL ENERGIES
----------------

  NO   OCC          E(Eh)            E(eV)
   0   2.0000     -88.592916     -2410.7358
   1   2.0000     -24.507853      -666.8926
   2   2.0000     -18.894561      -514.1471
   3   2.0000     -18.883020      -513.8331
   4   2.0000     -10.055986      -273.6373
   5   2.0000     -10.022325      -272.7213
   6   2.0000      -7.962650      -216.6747
   7   2.0000      -5.952245      -161.9688
   8   2.0000      -5.945882      -161.7957
   9   2.0000      -5.944199      -161.7499
  10   2.0000      -1.254926       -34.1483
  11   2.0000      -1.024802       -27.8863
  12   2.0000      -0.927890       -25.2492
  13   2.0000      -0.760064       -20.6824
  14   2.0000      -0.657886       -17.9020
  15   2.0000      -0.613044       -16.6818
  16   2.0000      -0.521791       -14.1987
  17   2.0000      -0.497558       -13.5392
  18   2.0000      -0.484798       -13.1920
  19   2.0000      -0.447943       -12.1892
  20   2.0000      -0.424835       -11.5604
  21   2.0000      -0.401112       -10.9148
  22   2.0000      -0.380683       -10.3589
  23   2.0000      -0.365725        -9.9519
  24   2.0000      -0.358014        -9.7421
  25   2.0000      -0.326726        -8.8907
  26   2.0000      -0.283632        -7.7180
  27   2.0000      -0.272284        -7.4092
  28   2.0000      -0.255237        -6.9454
  29   0.0000       0.006264         0.1705
  30   0.0000       0.038286         1.0418
  31   0.0000       0.059309         1.6139
  32   0.0000       0.071817         1.9543
  33   0.0000       0.079529         2.1641

MULLIKEN ATOMIC CHARGES
-----------------------
   0 C :    0.017296
   1 C :   -0.130385
   2 H :    0.062056
   3 H :    0.091031
   4 S :    0.883451
   5 O :   -0.447948
   6 O :   -0.407127
   7 F :   -0.184994
   8 H :    0.051569
   9 H :    0.036336
  10 H :    0.028716
Sum of atomic charges:   -0.0000000

LOEWDIN ATOMIC CHARGES
----------------------
   0 C :   -0.047481
   1 C :   -0.145385
   2 H :    0.029326
   3 H :    0.048783
   4 S :    1.119628
   5 O :   -0.494737
   6 O :   -0.456097
   7 F :   -0.140681
   8 H :    0.031158
   9 H :    0.032044
  10 H :    0.023441

  Mayer bond orders larger than 0.100000
B(  0-C ,  1-C ) :   1.0536 B(  0-C ,  8-H ) :   0.9669 B(  0-C ,  9-H ) :   0.9584
B(  0-C , 10-H ) :   0.9722 B(  1-C ,  2-H ) :   0.9290 B(  1-C ,  3-H ) :   0.9313
B(  1-C ,  4-S ) :   0.8997 B(  4-S ,  5-O ) :   1.7473 B(  4-S ,  6-O ) :   1.7927
B(  4-S ,  7-F ) :   0.9896

Dispersion correction           -0.011546626
FINAL SINGLE POINT ENERGY      -727.315522422384

DIPOLE MOMENT
-------------
                                X             Y             Z
Electronic contribution:     -5.20745       7.54987       1.60577
Nuclear contribution   :      5.52019      -8.89046      -0.84835
                        -----------------------------------------
Total Dipole Moment    :      0.31274      -1.34059       0.75742
                        -----------------------------------------
Magnitude (a.u.)       :      1.57120
Magnitude (Debye)      :      3.99368

Rotational constants in cm-1:     0.153332     0.082132     0.079755
Rotational constants in MHz :  4596.775407  2462.251277  2391.008596

                             ****ORCA TERMINATED NORMALLY****
TOTAL RUN TIME: 0 days 0 hours 0 minutes 4 seconds 902 msec
