                         Program Version 5.0.0 -  RELEASE  -
|  1> !TPSS D3BJ RIJCOSX def2-SVP def2/J TightSCF
|  2> *xyz 0 1
|  3> C          4.49059        1.15590       -2.46929
|  4> N          4.30539        1.22276       -3.90832
|  5> C          4.63192        2.24637       -4.67096
|  6> N          4.54169        2.14399       -5.98714
|  7> C          5.08409        3.39358       -4.11855
|  8> H          4.92067        3.57050       -3.13587
|  9> H          5.25465        4.19739       -4.70696
| 10> H          3.82453        0.44911       -4.35093
| 11> H          4.34337        1.24932       -6.41665
| 12> H          4.67671        2.95662       -6.57411
| 13> C          5.94213        0.93950       -2.03689
| 14> H          3.86431        0.32853       -2.13661
| 15> H          4.07623        2.04999       -1.98901
| 16> H          6.32982        0.06401       -2.51451
| 17> H          5.98308        0.81426       -0.97504
| 18> H          6.52865        1.78889       -2.31873
| 19> *
| 20>
| 21> %MaxCore 64000
| 22>
| 23> %pal nprocs 4
| 24> end
| 25>
| 26> %scf
| 27>   MaxIter 150
| 28> end
| 29>
| 30>
| 31>                          ****END OF INPUT****

CARTESIAN COORDINATES (ANGSTROEM)
---------------------------------
  C      4.490590    1.155900   -2.469290
  N      4.305390    1.222760   -3.908320
  C      4.631920    2.246370   -4.670960
  N      4.541690    2.143990   -5.987140
  C      5.084090    3.393580   -4.118550
  H      4.920670    3.570500   -3.135870
  H      5.254650    4.197390   -4.706960
  H      3.824530    0.449110   -4.350930
  H      4.343370    1.249320   -6.416650
  H      4.676710    2.956620   -6.574110
  C      5.942130    0.939500   -2.036890
  H      3.864310    0.328530   -2.136610
  H      4.076230    2.049990   -1.989010
  H      6.329820    0.064010   -2.514510
  H      5.983080    0.814260   -0.975040
  H      6.528650    1.788890   -2.318730

 Total Charge           Charge          ....    0
 Multiplicity           Mult            ....    1
 Number of Electrons    NEL             ....   48
 Basis Dimension        Dim             ....  134

ORBITAL ENERGIES
----------------

  NO   OCC          E(Eh)            E(eV)
   0   2.0000     -14.110404      -383.9636
   1   2.0000     -14.110074      -383.9546
   2   2.0000     -10.030567      -272.9456
   3   2.0000     -10.028664      -272.8938
   4   2.0000      -9.977779      -271.5092
   5   2.0000      -9.903802      -269.4961
   6   2.0000      -0.888092       -24.1662
   7   2.0000      -0.810023       -22.0419
   8   2.0000      -0.684168       -18.6171
   9   2.0000      -0.635821       -17.3016
  10   2.0000      -0.578817       -15.7504
  11   2.0000      -0.505182       -13.7467
  12   2.0000      -0.497334       -13.5332
  13   2.0000      -0.468941       -12.7605
  14   2.0000      -0.420700       -11.4478
  15   2.0000      -0.391988       -10.6665
  16   2.0000      -0.363234        -9.8841
  17   2.0000      -0.346619        -9.4320
  18   2.0000      -0.334945        -9.1143
  19   2.0000      -0.319016        -8.6809
  20   2.0000      -0.312529        -8.5043
  21   2.0000      -0.304622        -8.2892
  22   2.0000      -0.201826        -5.4920
  23   2.0000      -0.120086        -3.2677
  24   0.0000       0.031980         0.8702
  25   0.0000       0.060557         1.6478
  26   0.0000       0.068431         1.8621
  27   0.0000       0.085188         2.3181
  28   0.0000       0.102392         2.7862

MULLIKEN ATOMIC CHARGES
-----------------------
   0 C :    0.067096
   1 N :   -0.157773
   2 C :   -0.029335
   3 N :   -0.075396
   4 C :   -0.107098
   5 H :   -0.042935
   6 H :   -0.067080
   7 H :    0.096838
   8 H :    0.096953
   9 H :    0.124606
  10 C :    0.037580
  11 H :   -0.000910
  12 H :    0.023128
  13 H :    0.001178
  14 H :    0.005355
  15 H :    0.027794
Sum of atomic charges:    0.0000000

LOEWDIN ATOMIC CHARGES
----------------------
   0 C :    0.045846
   1 N :   -0.018654
   2 C :    0.019359
   3 N :   -0.008920
   4 C :   -0.260206
   5 H :   -0.011949
   6 H :   -0.014481
   7 H :    0.063291
   8 H :    0.061258
   9 H :    0.083103
  10 C :   -0.047738
  11 H :    0.016469
  12 H :    0.016518
  13 H :    0.014218
  14 H :    0.017897
  15 H :    0.023988

  Mayer bond orders larger than 0.100000
B(  0-C ,  1-N ) :   1.0221 B(  0-C , 10-C ) :   1.0987 B(  0-C , 11-H ) :   0.9508
B(  0-C , 12-H ) :   0.9388 B(  1-N ,  2-C ) :   1.1906 B(  1-N ,  7-H ) :   0.9356
B(  2-C ,  3-N ) :   1.2382 B(  2-C ,  4-C ) :   1.6999 B(  3-N ,  8-H ) :   0.9492
B(  3-N ,  9-H ) :   0.9412 B(  4-C ,  5-H ) :   0.9303 B(  4-C ,  6-H ) :   0.9384
B( 10-C , 13-H ) :   0.9633 B( 10-C , 14-H ) :   0.9611 B( 10-C , 15-H ) :   0.9633

Dispersion correction           -0.015869460
FINAL SINGLE POINT ENERGY      -267.761637083514

DIPOLE MOMENT
-------------
                                X             Y             Z
Electronic contribution:     -1.93340      -0.17079      -3.95815
Nuclear contribution   :      1.39581      -0.78630       3.38596
                        -----------------------------------------
Total Dipole Moment    :     -0.53759      -0.95710      -0.57218
                        -----------------------------------------
Magnitude (a.u.)       :      1.23791
Magnitude (Debye)      :      3.14653

Rotational constants in cm-1:     0.239249     0.075811     0.066261
Rotational constants in MHz :  7172.504830  2272.756282  1986.457543

                             ****ORCA TERMINATED NORMALLY****
TOTAL RUN TIME: 0 days 0 hours 0 minutes 6 seconds 241 msec
