                         Program Version 5.0.0 -  RELEASE  -
|  1> !TPSS D3BJ RIJCOSX def2-TZVP def2/J TightSCF xyzfile
|  2>
|  3> *xyzfile 0 1 D2.xyz
|  4>
|  5> %MaxCore 64000
|  6>
|  7> %pal nprocs 18
|  8> end
|  9>
| 10> %scf
| 11>   MaxIter 150
| 12> end
| 13>
| 14>
| 15>                          ****END OF INPUT****

CARTESIAN COORDINATES (ANGSTROEM)
---------------------------------
  C      4.490588    1.155899   -2.469290
  N      4.305394    1.222762   -3.908317
  C      4.906458   -3.102816   -5.954844
  C      3.511771   -2.806215   -6.492283
  H      2.736044   -3.373445   -5.973736
  H      3.444904   -3.040831   -7.555281
  S      3.004618   -1.096206   -6.389259
  C      4.631918    2.246365   -4.670958
  C      4.541686    2.143990   -5.987139
  N      5.084086    3.393584   -4.118545
  H      4.920675    3.570501   -3.135870
  H      5.254652    4.197390   -4.706956
  H      3.824530    0.449113   -4.350926
  H      4.343373    1.249318   -6.416646
  H      4.676712    2.956624   -6.574113
  F      4.128856   -0.329647   -6.953717
  O      1.781285   -1.000779   -7.136399
  C      5.942129    0.939500   -2.036893
  H      3.864305    0.328532   -2.136611
  H      4.076233    2.049994   -1.989010
  C      6.462677   -3.117775   -3.944671
  C      5.024977   -3.025679   -4.437625
  H      4.423321   -3.818693   -3.977648
  H      4.579350   -2.087131   -4.108727
  H      5.201533   -4.100207   -6.296905
  H      5.605922   -2.397822   -6.413368
  C      6.559957   -0.356290   -2.559086
  H      5.967976    0.952567   -0.942444
  H      6.547184    1.788331   -2.368849
  C      6.006283   -1.615917   -1.899301
  H      7.642360   -0.318000   -2.402059
  H      6.414855   -0.403433   -3.642587
  C      6.608718   -2.917014   -2.435655
  H      6.190324   -1.561115   -0.820948
  H      4.919250   -1.651245   -2.016586
  H      7.066975   -2.374258   -4.475514
  H      6.887808   -4.089747   -4.215332
  H      6.135197   -3.755573   -1.915159
  H      7.671142   -2.955503   -2.172291
  O      2.851546   -0.783683   -4.956789

 Total Charge           Charge          ....    0
 Multiplicity           Mult            ....    1
 Number of Electrons    NEL             ....  144
 Basis Dimension        Dim             ....  671

ORBITAL ENERGIES
----------------

  NO   OCC          E(Eh)            E(eV)
   0   2.0000     -88.592208     -2410.7165
   1   2.0000     -24.515467      -667.0998
   2   2.0000     -18.903183      -514.3818
   3   2.0000     -18.901637      -514.3397
   4   2.0000     -14.086350      -383.3091
   5   2.0000     -14.071335      -382.9005
   6   2.0000     -10.048134      -273.4236
   7   2.0000     -10.015950      -272.5479
   8   2.0000     -10.008013      -272.3319
   9   2.0000     -10.006079      -272.2793
  10   2.0000      -9.990623      -271.8587
  11   2.0000      -9.986413      -271.7441
  12   2.0000      -9.982407      -271.6351
  13   2.0000      -9.977659      -271.5059
  14   2.0000      -9.973840      -271.4020
  15   2.0000      -9.973353      -271.3887
  16   2.0000      -9.877761      -268.7876
  17   2.0000      -7.941817      -216.1078
  18   2.0000      -5.925102      -161.2302
  19   2.0000      -5.918540      -161.0517
  20   2.0000      -5.917777      -161.0309
  21   2.0000      -1.283714       -34.9316
  22   2.0000      -1.045863       -28.4594
  23   2.0000      -0.958623       -26.0855
  24   2.0000      -0.883639       -24.0451
  25   2.0000      -0.805300       -21.9133
  26   2.0000      -0.786640       -21.4056
  27   2.0000      -0.754415       -20.5287
  28   2.0000      -0.726176       -19.7602
  29   2.0000      -0.692687       -18.8490
  30   2.0000      -0.669844       -18.2274
  31   2.0000      -0.644381       -17.5345
  32   2.0000      -0.625419       -17.0185
  33   2.0000      -0.595830       -16.2134
  34   2.0000      -0.574625       -15.6364
  35   2.0000      -0.549893       -14.9633
  36   2.0000      -0.537383       -14.6229
  37   2.0000      -0.529150       -14.3989
  38   2.0000      -0.523202       -14.2371
  39   2.0000      -0.510093       -13.8803
  40   2.0000      -0.503499       -13.7009
  41   2.0000      -0.470920       -12.8144
  42   2.0000      -0.454687       -12.3727
  43   2.0000      -0.446652       -12.1540
  44   2.0000      -0.436866       -11.8877
  45   2.0000      -0.435143       -11.8408
  46   2.0000      -0.425102       -11.5676
  47   2.0000      -0.418837       -11.3971
  48   2.0000      -0.414068       -11.2674
  49   2.0000      -0.397947       -10.8287
  50   2.0000      -0.395160       -10.7528
  51   2.0000      -0.390843       -10.6354
  52   2.0000      -0.379170       -10.3178
  53   2.0000      -0.356167        -9.6918
  54   2.0000      -0.354302        -9.6411
  55   2.0000      -0.351788        -9.5726
  56   2.0000      -0.342467        -9.3190
  57   2.0000      -0.331051        -9.0084
  58   2.0000      -0.330488        -8.9930
  59   2.0000      -0.323978        -8.8159
  60   2.0000      -0.318123        -8.6566
  61   2.0000      -0.310282        -8.4432
  62   2.0000      -0.307915        -8.3788
  63   2.0000      -0.300703        -8.1825
  64   2.0000      -0.295282        -8.0350
  65   2.0000      -0.288194        -7.8422
  66   2.0000      -0.285126        -7.7587
  67   2.0000      -0.278730        -7.5846
  68   2.0000      -0.276478        -7.5233
  69   2.0000      -0.273055        -7.4302
  70   2.0000      -0.198098        -5.3905
  71   2.0000      -0.118138        -3.2147
  72   0.0000      -0.014469        -0.3937
  73   0.0000       0.014470         0.3937
  74   0.0000       0.022050         0.6000
  75   0.0000       0.027255         0.7416
  76   0.0000       0.031777         0.8647

MULLIKEN ATOMIC CHARGES
-----------------------
   0 C :   -0.217965
   1 N :   -0.286973
   2 C :   -0.168835
   3 C :   -0.185342
   4 H :    0.145164
   5 H :    0.150409
   6 S :    0.790413
   7 C :    0.406245
   8 C :   -0.604154
   9 N :   -0.510237
  10 H :    0.226364
  11 H :    0.233129
  12 H :    0.216281
  13 H :    0.112342
  14 H :    0.085215
  15 F :   -0.082610
  16 O :   -0.366614
  17 C :   -0.034286
  18 H :    0.117390
  19 H :    0.100547
  20 C :   -0.187023
  21 C :   -0.283410
  22 H :    0.079407
  23 H :    0.141713
  24 H :    0.105381
  25 H :    0.110157
  26 C :   -0.224727
  27 H :    0.062805
  28 H :    0.093195
  29 C :   -0.244726
  30 H :    0.082935
  31 H :    0.111357
  32 C :   -0.069182
  33 H :    0.082651
  34 H :    0.105008
  35 H :    0.104254
  36 H :    0.084162
  37 H :    0.077267
  38 H :    0.083214
  39 O :   -0.440920
Sum of atomic charges:    0.0000000

LOEWDIN ATOMIC CHARGES
----------------------
   0 C :   -0.293121
   1 N :    0.128990
   2 C :   -0.279748
   3 C :   -0.359082
   4 H :    0.150997
   5 H :    0.142097
   6 S :    0.528484
   7 C :   -0.468011
   8 C :   -0.361732
   9 N :   -0.015626
  10 H :    0.157272
  11 H :    0.170973
  12 H :    0.161833
  13 H :    0.078574
  14 H :    0.091555
  15 F :    0.100577
  16 O :   -0.223740
  17 C :   -0.266361
  18 H :    0.132596
  19 H :    0.120188
  20 C :   -0.265016
  21 C :   -0.268117
  22 H :    0.135087
  23 H :    0.137266
  24 H :    0.142725
  25 H :    0.139511
  26 C :   -0.263527
  27 H :    0.131205
  28 H :    0.133403
  29 C :   -0.266606
  30 H :    0.133739
  31 H :    0.136070
  32 C :   -0.260446
  33 H :    0.133265
  34 H :    0.130725
  35 H :    0.134756
  36 H :    0.132243
  37 H :    0.132985
  38 H :    0.134137
  39 O :   -0.260121

  Mayer bond orders larger than 0.100000
B(  0-C ,  1-N ) :   0.9874 B(  0-C , 17-C ) :   0.9838 B(  0-C , 18-H ) :   0.9649
B(  0-C , 19-H ) :   0.9616 B(  1-N ,  7-C ) :   1.2095 B(  1-N , 12-H ) :   0.8670
B(  2-C ,  3-C ) :   0.9989 B(  2-C , 21-C ) :   1.0183 B(  2-C , 24-H ) :   0.9299
B(  2-C , 25-H ) :   0.9522 B(  3-C ,  4-H ) :   0.9299 B(  3-C ,  5-H ) :   0.9349
B(  3-C ,  6-S ) :   0.9195 B(  6-S , 15-F ) :   1.1147 B(  6-S , 16-O ) :   1.9943
B(  6-S , 39-O ) :   1.7654 B(  7-C ,  8-C ) :   1.5835 B(  7-C ,  9-N ) :   1.1207
B(  8-C , 13-H ) :   1.0133 B(  8-C , 14-H ) :   0.9806 B(  9-N , 10-H ) :   0.9116
B(  9-N , 11-H ) :   0.9189 B( 12-H , 39-O ) :   0.1020 B( 17-C , 26-C ) :   1.0160
B( 17-C , 27-H ) :   0.9344 B( 17-C , 28-H ) :   0.9356 B( 20-C , 21-C ) :   1.0280
B( 20-C , 32-C ) :   1.0206 B( 20-C , 35-H ) :   0.9588 B( 20-C , 36-H ) :   0.9395
B( 21-C , 22-H ) :   0.9427 B( 21-C , 23-H ) :   0.9509 B( 26-C , 29-C ) :   1.0307
B( 26-C , 30-H ) :   0.9415 B( 26-C , 31-H ) :   0.9513 B( 29-C , 32-C ) :   1.0153
B( 29-C , 33-H ) :   0.9356 B( 29-C , 34-H ) :   0.9656 B( 32-C , 37-H ) :   0.9464
B( 32-C , 38-H ) :   0.9443

Dispersion correction           -0.060628595
FINAL SINGLE POINT ENERGY     -1191.444772979165

DIPOLE MOMENT
-------------
                                X             Y             Z
Electronic contribution:    -16.44033       4.03696     -19.62948
Nuclear contribution   :     17.27667      -5.32157      20.03034
                        -----------------------------------------
Total Dipole Moment    :      0.83634      -1.28461       0.40086
                        -----------------------------------------
Magnitude (a.u.)       :      1.58441
Magnitude (Debye)      :      4.02725

Rotational constants in cm-1:     0.014355     0.012269     0.007481
Rotational constants in MHz :   430.360270   367.823451   224.273399

                             ****ORCA TERMINATED NORMALLY****
TOTAL RUN TIME: 0 days 0 hours 0 minutes 40 seconds 232 msec
