                         Program Version 5.0.0 -  RELEASE  -
|  1> !TPSS D3BJ RIJCOSX def2-TZVP def2/J TightSCF xyzfile
|  2>
|  3> *xyzfile 0 1 D4.xyz
|  4>
|  5> %MaxCore 64000
|  6>
|  7> %pal nprocs 18
|  8> end
|  9>
| 10> %scf
| 11>   MaxIter 150
| 12> end
| 13>
| 14>
| 15>                          ****END OF INPUT****

CARTESIAN COORDINATES (ANGSTROEM)
---------------------------------
  C      4.490588    1.155899   -2.469290
  C      4.305394    1.222762   -3.908317
  C      4.906458   -3.102816   -5.954844
  C      3.511771   -2.806215   -6.492283
  H      2.736044   -3.373445   -5.973736
  H      3.444904   -3.040831   -7.555281
  S      3.004618   -1.096206   -6.389259
  C      4.631918    2.246365   -4.670958
  N      4.541686    2.143990   -5.987139
  N      5.084086    3.393584   -4.118545
  H      4.920675    3.570501   -3.135870
  H      5.254652    4.197390   -4.706956
  H      3.824530    0.449113   -4.350926
  H      4.343373    1.249318   -6.416646
  H      4.676712    2.956624   -6.574113
  O      4.128856   -0.329647   -6.953717
  F      1.781285   -1.000779   -7.136399
  C      5.942129    0.939500   -2.036893
  H      3.864305    0.328532   -2.136611
  H      4.076233    2.049994   -1.989010
  C      6.462677   -3.117775   -3.944671
  C      5.024977   -3.025679   -4.437625
  H      4.423321   -3.818693   -3.977648
  H      4.579350   -2.087131   -4.108727
  H      5.201533   -4.100207   -6.296905
  H      5.605922   -2.397822   -6.413368
  C      6.559957   -0.356290   -2.559086
  H      5.967976    0.952567   -0.942444
  H      6.547184    1.788331   -2.368849
  C      6.006283   -1.615917   -1.899301
  H      7.642360   -0.318000   -2.402059
  H      6.414855   -0.403433   -3.642587
  C      6.608718   -2.917014   -2.435655
  H      6.190324   -1.561115   -0.820948
  H      4.919250   -1.651245   -2.016586
  H      7.066975   -2.374258   -4.475514
  H      6.887808   -4.089747   -4.215332
  H      6.135197   -3.755573   -1.915159
  H      7.671142   -2.955503   -2.172291
  O      2.851546   -0.783683   -4.956789

 Total Charge           Charge          ....    0
 Multiplicity           Mult            ....    1
 Number of Electrons    NEL             ....  144
 Basis Dimension        Dim             ....  671

ORBITAL ENERGIES
----------------

  NO   OCC          E(Eh)            E(eV)
   0   2.0000     -88.596778     -2410.8409
   1   2.0000     -24.538327      -667.7218
   2   2.0000     -18.904272      -514.4114
   3   2.0000     -18.895235      -514.1655
   4   2.0000     -14.076804      -383.0493
   5   2.0000     -14.057856      -382.5337
   6   2.0000     -10.049720      -273.4668
   7   2.0000     -10.010929      -272.4112
   8   2.0000      -9.989550      -271.8295
   9   2.0000      -9.979891      -271.5666
  10   2.0000      -9.974636      -271.4236
  11   2.0000      -9.968325      -271.2519
  12   2.0000      -9.958371      -270.9811
  13   2.0000      -9.949297      -270.7341
  14   2.0000      -9.943334      -270.5719
  15   2.0000      -9.936513      -270.3863
  16   2.0000      -9.863545      -268.4007
  17   2.0000      -7.946450      -216.2339
  18   2.0000      -5.929680      -161.3548
  19   2.0000      -5.923131      -161.1766
  20   2.0000      -5.922372      -161.1559
  21   2.0000      -1.314733       -35.7757
  22   2.0000      -1.039731       -28.2925
  23   2.0000      -0.948429       -25.8081
  24   2.0000      -0.864138       -23.5144
  25   2.0000      -0.783130       -21.3101
  26   2.0000      -0.779194       -21.2030
  27   2.0000      -0.742623       -20.2078
  28   2.0000      -0.714274       -19.4364
  29   2.0000      -0.693929       -18.8828
  30   2.0000      -0.665611       -18.1122
  31   2.0000      -0.641434       -17.4543
  32   2.0000      -0.609944       -16.5974
  33   2.0000      -0.582755       -15.8576
  34   2.0000      -0.561404       -15.2766
  35   2.0000      -0.541859       -14.7447
  36   2.0000      -0.534910       -14.5556
  37   2.0000      -0.531828       -14.4718
  38   2.0000      -0.519446       -14.1348
  39   2.0000      -0.501459       -13.6454
  40   2.0000      -0.487540       -13.2666
  41   2.0000      -0.469950       -12.7880
  42   2.0000      -0.454241       -12.3605
  43   2.0000      -0.449025       -12.2186
  44   2.0000      -0.434619       -11.8266
  45   2.0000      -0.421087       -11.4583
  46   2.0000      -0.419610       -11.4182
  47   2.0000      -0.408437       -11.1141
  48   2.0000      -0.401076       -10.9138
  49   2.0000      -0.387444       -10.5429
  50   2.0000      -0.381314       -10.3761
  51   2.0000      -0.370784       -10.0895
  52   2.0000      -0.368532       -10.0283
  53   2.0000      -0.358856        -9.7650
  54   2.0000      -0.341248        -9.2858
  55   2.0000      -0.335520        -9.1300
  56   2.0000      -0.333294        -9.0694
  57   2.0000      -0.325895        -8.8680
  58   2.0000      -0.310585        -8.4515
  59   2.0000      -0.307058        -8.3555
  60   2.0000      -0.303513        -8.2590
  61   2.0000      -0.295911        -8.0521
  62   2.0000      -0.289243        -7.8707
  63   2.0000      -0.281863        -7.6699
  64   2.0000      -0.277832        -7.5602
  65   2.0000      -0.276528        -7.5247
  66   2.0000      -0.265355        -7.2207
  67   2.0000      -0.257651        -7.0110
  68   2.0000      -0.249832        -6.7983
  69   2.0000      -0.234302        -6.3757
  70   2.0000      -0.194909        -5.3037
  71   2.0000      -0.100447        -2.7333
  72   0.0000      -0.013173        -0.3585
  73   0.0000       0.007942         0.2161
  74   0.0000       0.024708         0.6723
  75   0.0000       0.030296         0.8244
  76   0.0000       0.033428         0.9096

MULLIKEN ATOMIC CHARGES
-----------------------
   0 C :   -0.251310
   1 C :   -0.401924
   2 C :   -0.152267
   3 C :   -0.174809
   4 H :    0.128910
   5 H :    0.135754
   6 S :    0.778197
   7 C :    0.334083
   8 N :   -0.478934
   9 N :   -0.504997
  10 H :    0.240801
  11 H :    0.206204
  12 H :    0.183067
  13 H :    0.252142
  14 H :    0.196437
  15 O :   -0.434615
  16 F :   -0.066197
  17 C :   -0.039156
  18 H :    0.079508
  19 H :    0.057646
  20 C :   -0.185693
  21 C :   -0.294509
  22 H :    0.071101
  23 H :    0.168719
  24 H :    0.103474
  25 H :    0.124919
  26 C :   -0.180155
  27 H :    0.043343
  28 H :    0.077368
  29 C :   -0.247139
  30 H :    0.065997
  31 H :    0.114437
  32 C :   -0.064307
  33 H :    0.075358
  34 H :    0.105695
  35 H :    0.104081
  36 H :    0.076440
  37 H :    0.069921
  38 H :    0.077257
  39 O :   -0.394846
Sum of atomic charges:   -0.0000000

LOEWDIN ATOMIC CHARGES
----------------------
   0 C :   -0.286615
   1 C :   -0.284805
   2 C :   -0.267659
   3 C :   -0.365577
   4 H :    0.140441
   5 H :    0.137209
   6 S :    0.517929
   7 C :   -0.467549
   8 N :   -0.012260
   9 N :   -0.022538
  10 H :    0.168656
  11 H :    0.153521
  12 H :    0.109352
  13 H :    0.145115
  14 H :    0.150578
  15 O :   -0.257240
  16 F :    0.120967
  17 C :   -0.260145
  18 H :    0.137135
  19 H :    0.119862
  20 C :   -0.264686
  21 C :   -0.264688
  22 H :    0.132672
  23 H :    0.144238
  24 H :    0.143682
  25 H :    0.147216
  26 C :   -0.263106
  27 H :    0.122564
  28 H :    0.129651
  29 C :   -0.265789
  30 H :    0.128631
  31 H :    0.136370
  32 C :   -0.262213
  33 H :    0.131552
  34 H :    0.131430
  35 H :    0.135810
  36 H :    0.129740
  37 H :    0.130599
  38 H :    0.132608
  39 O :   -0.232658

  Mayer bond orders larger than 0.100000
B(  0-C ,  1-C ) :   1.0519 B(  0-C , 17-C ) :   0.9979 B(  0-C , 18-H ) :   0.9721
B(  0-C , 19-H ) :   0.9409 B(  1-C ,  7-C ) :   1.6410 B(  1-C , 12-H ) :   0.9520
B(  2-C ,  3-C ) :   1.0100 B(  2-C , 21-C ) :   1.0418 B(  2-C , 24-H ) :   0.9275
B(  2-C , 25-H ) :   0.9409 B(  3-C ,  4-H ) :   0.9238 B(  3-C ,  5-H ) :   0.9229
B(  3-C ,  6-S ) :   0.9221 B(  6-S , 15-O ) :   1.7912 B(  6-S , 16-F ) :   1.1684
B(  6-S , 39-O ) :   1.8719 B(  7-C ,  8-N ) :   1.1928 B(  7-C ,  9-N ) :   1.1174
B(  8-N , 13-H ) :   0.8544 B(  8-N , 14-H ) :   0.9239 B(  9-N , 10-H ) :   0.9085
B(  9-N , 11-H ) :   0.9250 B( 13-H , 15-O ) :   0.1016 B( 17-C , 26-C ) :   1.0343
B( 17-C , 27-H ) :   0.9353 B( 17-C , 28-H ) :   0.9365 B( 20-C , 21-C ) :   1.0387
B( 20-C , 32-C ) :   1.0261 B( 20-C , 35-H ) :   0.9565 B( 20-C , 36-H ) :   0.9391
B( 21-C , 22-H ) :   0.9424 B( 21-C , 23-H ) :   0.9435 B( 26-C , 29-C ) :   1.0294
B( 26-C , 30-H ) :   0.9413 B( 26-C , 31-H ) :   0.9463 B( 29-C , 32-C ) :   1.0123
B( 29-C , 33-H ) :   0.9359 B( 29-C , 34-H ) :   0.9669 B( 32-C , 37-H ) :   0.9457
B( 32-C , 38-H ) :   0.9424

Dispersion correction           -0.061321178
FINAL SINGLE POINT ENERGY     -1191.433794578292

DIPOLE MOMENT
-------------
                                X             Y             Z
Electronic contribution:    -20.58484       3.68269     -22.04825
Nuclear contribution   :     19.99734      -4.67125      20.55522
                        -----------------------------------------
Total Dipole Moment    :     -0.58750      -0.98856      -1.49303
                        -----------------------------------------
Magnitude (a.u.)       :      1.88455
Magnitude (Debye)      :      4.79014

Rotational constants in cm-1:     0.014213     0.012058     0.007367
Rotational constants in MHz :   426.102180   361.491761   220.844824

                             ****ORCA TERMINATED NORMALLY****
TOTAL RUN TIME: 0 days 0 hours 0 minutes 33 seconds 873 msec
