                         Program Version 5.0.0 -  RELEASE  -
|  1> !TPSS D3BJ RIJCOSX def2-TZVP def2/J TightSCF xyzfile
|  2>
|  3> *xyzfile 0 1 D5.xyz
|  4>
|  5> %MaxCore 64000
|  6>
|  7> %pal nprocs 18
|  8> end
|  9>
| 10> %scf
| 11>   MaxIter 150
| 12> end
| 13>
| 14>
| 15>                          ****END OF INPUT****

CARTESIAN COORDINATES (ANGSTROEM)
---------------------------------
  C      4.490588    1.155899   -2.469290
  N      4.305394    1.222762   -3.908317
  C      4.906458   -3.102816   -5.954844
  C      3.511771   -2.806215   -6.492283
  H      2.736044   -3.373445   -5.973736
  H      3.444904   -3.040831   -7.555281
  S      3.004618   -1.096206   -6.389259
  C      4.631918    2.246365   -4.670958
  C      4.541686    2.143990   -5.987139
  N      5.084086    3.393584   -4.118545
  H      4.920675    3.570501   -3.135870
  H      5.254652    4.197390   -4.706956
  H      3.824530    0.449113   -4.350926
  H      4.343373    1.249318   -6.416646
  H      4.676712    2.956624   -6.574113
  O      4.128856   -0.329647   -6.953717
  F      1.781285   -1.000779   -7.136399
  C      5.942129    0.939500   -2.036893
  H      3.864305    0.328532   -2.136611
  H      4.076233    2.049994   -1.989010
  C      6.462677   -3.117775   -3.944671
  C      5.024977   -3.025679   -4.437625
  H      4.423321   -3.818693   -3.977648
  H      4.579350   -2.087131   -4.108727
  H      5.201533   -4.100207   -6.296905
  H      5.605922   -2.397822   -6.413368
  C      6.559957   -0.356290   -2.559086
  H      5.967976    0.952567   -0.942444
  H      6.547184    1.788331   -2.368849
  C      6.006283   -1.615917   -1.899301
  H      7.642360   -0.318000   -2.402059
  H      6.414855   -0.403433   -3.642587
  C      6.608718   -2.917014   -2.435655
  H      6.190324   -1.561115   -0.820948
  H      4.919250   -1.651245   -2.016586
  H      7.066975   -2.374258   -4.475514
  H      6.887808   -4.089747   -4.215332
  H      6.135197   -3.755573   -1.915159
  H      7.671142   -2.955503   -2.172291
  O      2.851546   -0.783683   -4.956789

 Total Charge           Charge          ....    0
 Multiplicity           Mult            ....    1
 Number of Electrons    NEL             ....  144
 Basis Dimension        Dim             ....  671

ORBITAL ENERGIES
----------------

  NO   OCC          E(Eh)            E(eV)
   0   2.0000     -88.596519     -2410.8338
   1   2.0000     -24.537543      -667.7005
   2   2.0000     -18.903496      -514.3903
   3   2.0000     -18.893654      -514.1225
   4   2.0000     -14.073420      -382.9572
   5   2.0000     -14.059963      -382.5910
   6   2.0000     -10.050454      -273.4867
   7   2.0000     -10.013838      -272.4904
   8   2.0000     -10.000021      -272.1144
   9   2.0000      -9.989421      -271.8260
  10   2.0000      -9.987051      -271.7615
  11   2.0000      -9.982064      -271.6258
  12   2.0000      -9.978191      -271.5204
  13   2.0000      -9.972617      -271.3687
  14   2.0000      -9.966816      -271.2108
  15   2.0000      -9.965921      -271.1865
  16   2.0000      -9.854813      -268.1631
  17   2.0000      -7.946123      -216.2250
  18   2.0000      -5.929352      -161.3459
  19   2.0000      -5.922805      -161.1677
  20   2.0000      -5.922052      -161.1472
  21   2.0000      -1.313679       -35.7470
  22   2.0000      -1.039006       -28.2728
  23   2.0000      -0.947548       -25.7841
  24   2.0000      -0.870952       -23.6998
  25   2.0000      -0.793481       -21.5917
  26   2.0000      -0.784055       -21.3352
  27   2.0000      -0.750490       -20.4219
  28   2.0000      -0.722633       -19.6638
  29   2.0000      -0.693513       -18.8715
  30   2.0000      -0.669042       -18.2056
  31   2.0000      -0.643319       -17.5056
  32   2.0000      -0.615886       -16.7591
  33   2.0000      -0.590629       -16.0718
  34   2.0000      -0.570231       -15.5168
  35   2.0000      -0.542981       -14.7753
  36   2.0000      -0.539465       -14.6796
  37   2.0000      -0.534074       -14.5329
  38   2.0000      -0.526966       -14.3395
  39   2.0000      -0.510674       -13.8962
  40   2.0000      -0.501370       -13.6430
  41   2.0000      -0.465295       -12.6613
  42   2.0000      -0.457294       -12.4436
  43   2.0000      -0.445665       -12.1272
  44   2.0000      -0.432713       -11.7747
  45   2.0000      -0.427015       -11.6197
  46   2.0000      -0.419848       -11.4246
  47   2.0000      -0.416859       -11.3433
  48   2.0000      -0.403420       -10.9776
  49   2.0000      -0.400171       -10.8892
  50   2.0000      -0.389092       -10.5877
  51   2.0000      -0.383673       -10.4403
  52   2.0000      -0.371319       -10.1041
  53   2.0000      -0.354337        -9.6420
  54   2.0000      -0.347589        -9.4584
  55   2.0000      -0.345650        -9.4056
  56   2.0000      -0.336706        -9.1622
  57   2.0000      -0.330559        -8.9950
  58   2.0000      -0.319531        -8.6949
  59   2.0000      -0.316319        -8.6075
  60   2.0000      -0.314912        -8.5692
  61   2.0000      -0.303930        -8.2704
  62   2.0000      -0.300294        -8.1714
  63   2.0000      -0.293261        -7.9800
  64   2.0000      -0.286326        -7.7913
  65   2.0000      -0.278048        -7.5661
  66   2.0000      -0.274520        -7.4701
  67   2.0000      -0.272806        -7.4234
  68   2.0000      -0.267671        -7.2837
  69   2.0000      -0.251585        -6.8460
  70   2.0000      -0.186281        -5.0690
  71   2.0000      -0.101309        -2.7568
  72   0.0000      -0.013548        -0.3687
  73   0.0000       0.007414         0.2017
  74   0.0000       0.025468         0.6930
  75   0.0000       0.028858         0.7853
  76   0.0000       0.031508         0.8574

MULLIKEN ATOMIC CHARGES
-----------------------
   0 C :   -0.216753
   1 N :   -0.289769
   2 C :   -0.155552
   3 C :   -0.177305
   4 H :    0.124683
   5 H :    0.140197
   6 S :    0.785867
   7 C :    0.388244
   8 C :   -0.622392
   9 N :   -0.515494
  10 H :    0.220363
  11 H :    0.230275
  12 H :    0.235848
  13 H :    0.172319
  14 H :    0.073338
  15 O :   -0.384968
  16 F :   -0.064402
  17 C :   -0.027453
  18 H :    0.110606
  19 H :    0.095353
  20 C :   -0.191865
  21 C :   -0.281526
  22 H :    0.074094
  23 H :    0.143913
  24 H :    0.104446
  25 H :    0.131464
  26 C :   -0.231394
  27 H :    0.056964
  28 H :    0.092104
  29 C :   -0.243855
  30 H :    0.080024
  31 H :    0.125045
  32 C :   -0.067209
  33 H :    0.080549
  34 H :    0.101960
  35 H :    0.109401
  36 H :    0.081189
  37 H :    0.074413
  38 H :    0.082168
  39 O :   -0.444889
Sum of atomic charges:   -0.0000000

LOEWDIN ATOMIC CHARGES
----------------------
   0 C :   -0.296499
   1 N :    0.128080
   2 C :   -0.266880
   3 C :   -0.366714
   4 H :    0.138201
   5 H :    0.139135
   6 S :    0.521654
   7 C :   -0.473513
   8 C :   -0.350788
   9 N :   -0.022439
  10 H :    0.153943
  11 H :    0.169258
  12 H :    0.165724
  13 H :    0.083139
  14 H :    0.087950
  15 O :   -0.228598
  16 F :    0.123945
  17 C :   -0.266814
  18 H :    0.130402
  19 H :    0.118654
  20 C :   -0.264000
  21 C :   -0.265542
  22 H :    0.133227
  23 H :    0.139068
  24 H :    0.144226
  25 H :    0.148964
  26 C :   -0.263533
  27 H :    0.129498
  28 H :    0.133446
  29 C :   -0.267124
  30 H :    0.133094
  31 H :    0.139003
  32 C :   -0.260876
  33 H :    0.132529
  34 H :    0.129912
  35 H :    0.136711
  36 H :    0.131513
  37 H :    0.132012
  38 H :    0.133950
  39 O :   -0.263922

  Mayer bond orders larger than 0.100000
B(  0-C ,  1-N ) :   0.9971 B(  0-C , 17-C ) :   0.9829 B(  0-C , 18-H ) :   0.9659
B(  0-C , 19-H ) :   0.9598 B(  1-N ,  7-C ) :   1.2020 B(  1-N , 12-H ) :   0.8689
B(  2-C ,  3-C ) :   1.0112 B(  2-C , 21-C ) :   1.0456 B(  2-C , 24-H ) :   0.9272
B(  2-C , 25-H ) :   0.9390 B(  3-C ,  4-H ) :   0.9223 B(  3-C ,  5-H ) :   0.9238
B(  3-C ,  6-S ) :   0.9253 B(  6-S , 15-O ) :   1.8650 B(  6-S , 16-F ) :   1.1743
B(  6-S , 39-O ) :   1.7816 B(  7-C ,  8-C ) :   1.5945 B(  7-C ,  9-N ) :   1.1060
B(  8-C , 13-H ) :   0.9876 B(  8-C , 14-H ) :   0.9848 B(  9-N , 10-H ) :   0.9136
B(  9-N , 11-H ) :   0.9197 B( 17-C , 26-C ) :   1.0156 B( 17-C , 27-H ) :   0.9323
B( 17-C , 28-H ) :   0.9346 B( 20-C , 21-C ) :   1.0366 B( 20-C , 32-C ) :   1.0207
B( 20-C , 35-H ) :   0.9589 B( 20-C , 36-H ) :   0.9389 B( 21-C , 22-H ) :   0.9427
B( 21-C , 23-H ) :   0.9460 B( 26-C , 29-C ) :   1.0310 B( 26-C , 30-H ) :   0.9410
B( 26-C , 31-H ) :   0.9503 B( 29-C , 32-C ) :   1.0156 B( 29-C , 33-H ) :   0.9359
B( 29-C , 34-H ) :   0.9656 B( 32-C , 37-H ) :   0.9463 B( 32-C , 38-H ) :   0.9439

Dispersion correction           -0.061016835
FINAL SINGLE POINT ENERGY     -1191.428039672163

DIPOLE MOMENT
-------------
                                X             Y             Z
Electronic contribution:    -20.61278       2.75930     -20.20101
Nuclear contribution   :     20.03262      -4.53368      20.24480
                        -----------------------------------------
Total Dipole Moment    :     -0.58016      -1.77439       0.04378
                        -----------------------------------------
Magnitude (a.u.)       :      1.86734
Magnitude (Debye)      :      4.74639

Rotational constants in cm-1:     0.014367     0.012055     0.007393
Rotational constants in MHz :   430.711297   361.391195   221.649333

                             ****ORCA TERMINATED NORMALLY****
TOTAL RUN TIME: 0 days 0 hours 0 minutes 33 seconds 63 msec
