                         Program Version 5.0.0 -  RELEASE  -
|  1> !TPSS D3BJ RIJCOSX def2-TZVP def2/J TightSCF xyzfile
|  2>
|  3> *xyzfile 0 1 D7.xyz
|  4>
|  5> %MaxCore 64000
|  6>
|  7> %pal nprocs 18
|  8> end
|  9>
| 10> %scf
| 11>   MaxIter 150
| 12> end
| 13>
| 14>
| 15>                          ****END OF INPUT****

CARTESIAN COORDINATES (ANGSTROEM)
---------------------------------
  C      4.490588    1.155899   -2.469290
  C      4.305394    1.222762   -3.908317
  C      4.906458   -3.102816   -5.954844
  C      3.511771   -2.806215   -6.492283
  H      2.736044   -3.373445   -5.973736
  H      3.444904   -3.040831   -7.555281
  S      3.004618   -1.096206   -6.389259
  C      4.631918    2.246365   -4.670958
  N      4.541686    2.143990   -5.987139
  N      5.084086    3.393584   -4.118545
  H      4.920675    3.570501   -3.135870
  H      5.254652    4.197390   -4.706956
  H      3.824530    0.449113   -4.350926
  H      4.343373    1.249318   -6.416646
  H      4.676712    2.956624   -6.574113
  O      4.128856   -0.329647   -6.953717
  O      1.781285   -1.000779   -7.136399
  C      5.942129    0.939500   -2.036893
  H      3.864305    0.328532   -2.136611
  H      4.076233    2.049994   -1.989010
  C      6.462677   -3.117775   -3.944671
  C      5.024977   -3.025679   -4.437625
  H      4.423321   -3.818693   -3.977648
  H      4.579350   -2.087131   -4.108727
  H      5.201533   -4.100207   -6.296905
  H      5.605922   -2.397822   -6.413368
  C      6.559957   -0.356290   -2.559086
  H      5.967976    0.952567   -0.942444
  H      6.547184    1.788331   -2.368849
  C      6.006283   -1.615917   -1.899301
  H      7.642360   -0.318000   -2.402059
  H      6.414855   -0.403433   -3.642587
  C      6.608718   -2.917014   -2.435655
  H      6.190324   -1.561115   -0.820948
  H      4.919250   -1.651245   -2.016586
  H      7.066975   -2.374258   -4.475514
  H      6.887808   -4.089747   -4.215332
  H      6.135197   -3.755573   -1.915159
  H      7.671142   -2.955503   -2.172291
  F      2.851546   -0.783683   -4.956789

 Total Charge           Charge          ....    0
 Multiplicity           Mult            ....    1
 Number of Electrons    NEL             ....  144
 Basis Dimension        Dim             ....  671

ORBITAL ENERGIES
----------------

  NO   OCC          E(Eh)            E(eV)
   0   2.0000     -88.591686     -2410.7023
   1   2.0000     -24.514707      -667.0791
   2   2.0000     -18.903963      -514.4030
   3   2.0000     -18.901229      -514.3286
   4   2.0000     -14.089294      -383.3892
   5   2.0000     -14.067826      -382.8050
   6   2.0000     -10.046784      -273.3869
   7   2.0000     -10.009665      -272.3768
   8   2.0000     -10.005512      -272.2638
   9   2.0000      -9.991558      -271.8841
  10   2.0000      -9.982445      -271.6361
  11   2.0000      -9.976225      -271.4669
  12   2.0000      -9.968309      -271.2515
  13   2.0000      -9.959445      -271.0103
  14   2.0000      -9.954433      -270.8739
  15   2.0000      -9.951386      -270.7910
  16   2.0000      -9.885318      -268.9932
  17   2.0000      -7.941392      -216.0963
  18   2.0000      -5.924676      -161.2186
  19   2.0000      -5.918081      -161.0392
  20   2.0000      -5.917350      -161.0193
  21   2.0000      -1.282857       -34.9083
  22   2.0000      -1.046116       -28.4663
  23   2.0000      -0.959178       -26.1006
  24   2.0000      -0.876484       -23.8503
  25   2.0000      -0.792331       -21.5604
  26   2.0000      -0.782979       -21.3059
  27   2.0000      -0.749088       -20.3837
  28   2.0000      -0.721819       -19.6417
  29   2.0000      -0.696980       -18.9658
  30   2.0000      -0.662762       -18.0347
  31   2.0000      -0.649645       -17.6778
  32   2.0000      -0.615869       -16.7586
  33   2.0000      -0.590743       -16.0749
  34   2.0000      -0.570811       -15.5326
  35   2.0000      -0.540400       -14.7050
  36   2.0000      -0.529736       -14.4148
  37   2.0000      -0.525729       -14.3058
  38   2.0000      -0.520085       -14.1522
  39   2.0000      -0.501886       -13.6570
  40   2.0000      -0.497944       -13.5497
  41   2.0000      -0.477848       -13.0029
  42   2.0000      -0.452052       -12.3010
  43   2.0000      -0.443063       -12.0564
  44   2.0000      -0.440311       -11.9815
  45   2.0000      -0.430262       -11.7080
  46   2.0000      -0.427344       -11.6286
  47   2.0000      -0.414867       -11.2891
  48   2.0000      -0.406395       -11.0586
  49   2.0000      -0.396870       -10.7994
  50   2.0000      -0.386505       -10.5173
  51   2.0000      -0.382068       -10.3966
  52   2.0000      -0.377941       -10.2843
  53   2.0000      -0.359895        -9.7932
  54   2.0000      -0.351359        -9.5610
  55   2.0000      -0.341977        -9.3057
  56   2.0000      -0.336063        -9.1447
  57   2.0000      -0.332344        -9.0435
  58   2.0000      -0.322175        -8.7668
  59   2.0000      -0.316135        -8.6025
  60   2.0000      -0.306936        -8.3521
  61   2.0000      -0.303535        -8.2596
  62   2.0000      -0.297117        -8.0850
  63   2.0000      -0.291694        -7.9374
  64   2.0000      -0.291000        -7.9185
  65   2.0000      -0.283154        -7.7050
  66   2.0000      -0.281348        -7.6559
  67   2.0000      -0.268503        -7.3063
  68   2.0000      -0.262629        -7.1465
  69   2.0000      -0.258047        -7.0218
  70   2.0000      -0.205783        -5.5996
  71   2.0000      -0.116477        -3.1695
  72   0.0000      -0.011913        -0.3242
  73   0.0000       0.013375         0.3639
  74   0.0000       0.021267         0.5787
  75   0.0000       0.030314         0.8249
  76   0.0000       0.034063         0.9269

MULLIKEN ATOMIC CHARGES
-----------------------
   0 C :   -0.241909
   1 C :   -0.420271
   2 C :   -0.135456
   3 C :   -0.195987
   4 H :    0.131599
   5 H :    0.160770
   6 S :    0.781345
   7 C :    0.350331
   8 N :   -0.469202
   9 N :   -0.500602
  10 H :    0.242787
  11 H :    0.212573
  12 H :    0.125139
  13 H :    0.256787
  14 H :    0.202172
  15 O :   -0.441668
  16 O :   -0.374431
  17 C :   -0.037789
  18 H :    0.072251
  19 H :    0.067581
  20 C :   -0.187750
  21 C :   -0.291891
  22 H :    0.082178
  23 H :    0.120533
  24 H :    0.099661
  25 H :    0.125825
  26 C :   -0.189536
  27 H :    0.049839
  28 H :    0.081447
  29 C :   -0.244800
  30 H :    0.071877
  31 H :    0.119700
  32 C :   -0.067733
  33 H :    0.080420
  34 H :    0.097866
  35 H :    0.107374
  36 H :    0.082971
  37 H :    0.073597
  38 H :    0.080770
  39 F :   -0.078367
Sum of atomic charges:    0.0000000

LOEWDIN ATOMIC CHARGES
----------------------
   0 C :   -0.287583
   1 C :   -0.301492
   2 C :   -0.277358
   3 C :   -0.359785
   4 H :    0.139715
   5 H :    0.152026
   6 S :    0.525964
   7 C :   -0.461112
   8 N :   -0.003565
   9 N :   -0.016126
  10 H :    0.169829
  11 H :    0.156942
  12 H :    0.103463
  13 H :    0.145557
  14 H :    0.154328
  15 O :   -0.258153
  16 O :   -0.228989
  17 C :   -0.259109
  18 H :    0.135275
  19 H :    0.122507
  20 C :   -0.262963
  21 C :   -0.268920
  22 H :    0.134029
  23 H :    0.133662
  24 H :    0.141815
  25 H :    0.146183
  26 C :   -0.263155
  27 H :    0.124447
  28 H :    0.130897
  29 C :   -0.266184
  30 H :    0.130495
  31 H :    0.136211
  32 C :   -0.261767
  33 H :    0.132833
  34 H :    0.128465
  35 H :    0.136757
  36 H :    0.132277
  37 H :    0.131413
  38 H :    0.133764
  39 F :    0.097404

  Mayer bond orders larger than 0.100000
B(  0-C ,  1-C ) :   1.0552 B(  0-C , 17-C ) :   0.9973 B(  0-C , 18-H ) :   0.9647
B(  0-C , 19-H ) :   0.9473 B(  1-C ,  7-C ) :   1.6251 B(  1-C , 12-H ) :   0.9758
B(  2-C ,  3-C ) :   0.9937 B(  2-C , 21-C ) :   1.0361 B(  2-C , 24-H ) :   0.9256
B(  2-C , 25-H ) :   0.9395 B(  3-C ,  4-H ) :   0.9347 B(  3-C ,  5-H ) :   0.9300
B(  3-C ,  6-S ) :   0.9140 B(  6-S , 15-O ) :   1.7687 B(  6-S , 16-O ) :   1.9920
B(  6-S , 39-F ) :   1.1208 B(  7-C ,  8-N ) :   1.2115 B(  7-C ,  9-N ) :   1.1326
B(  8-N , 13-H ) :   0.8489 B(  8-N , 14-H ) :   0.9213 B(  9-N , 10-H ) :   0.9070
B(  9-N , 11-H ) :   0.9228 B( 13-H , 15-O ) :   0.1038 B( 17-C , 26-C ) :   1.0316
B( 17-C , 27-H ) :   0.9372 B( 17-C , 28-H ) :   0.9376 B( 20-C , 21-C ) :   1.0414
B( 20-C , 32-C ) :   1.0216 B( 20-C , 35-H ) :   0.9575 B( 20-C , 36-H ) :   0.9400
B( 21-C , 22-H ) :   0.9414 B( 21-C , 23-H ) :   0.9488 B( 26-C , 29-C ) :   1.0254
B( 26-C , 30-H ) :   0.9420 B( 26-C , 31-H ) :   0.9481 B( 29-C , 32-C ) :   1.0115
B( 29-C , 33-H ) :   0.9359 B( 29-C , 34-H ) :   0.9685 B( 32-C , 37-H ) :   0.9471
B( 32-C , 38-H ) :   0.9427

Dispersion correction           -0.060802082
FINAL SINGLE POINT ENERGY     -1191.450887136835

DIPOLE MOMENT
-------------
                                X             Y             Z
Electronic contribution:    -18.46129       4.18945     -18.13482
Nuclear contribution   :     18.74089      -4.92611      17.99644
                        -----------------------------------------
Total Dipole Moment    :      0.27961      -0.73666      -0.13837
                        -----------------------------------------
Magnitude (a.u.)       :      0.79999
Magnitude (Debye)      :      2.03342

Rotational constants in cm-1:     0.014210     0.012324     0.007480
Rotational constants in MHz :   425.991442   369.455467   224.259162

                             ****ORCA TERMINATED NORMALLY****
TOTAL RUN TIME: 0 days 0 hours 0 minutes 39 seconds 483 msec
