                         Program Version 5.0.0 -  RELEASE  -
|  1> !TPSS D3BJ RIJCOSX def2-TZVP def2/J TightSCF xyzfile
|  2>
|  3> *xyzfile 0 1 D9.xyz
|  4>
|  5> %MaxCore 64000
|  6>
|  7> %pal nprocs 18
|  8> end
|  9>
| 10> %scf
| 11>   MaxIter 150
| 12> end
| 13>
| 14>
| 15>                          ****END OF INPUT****

CARTESIAN COORDINATES (ANGSTROEM)
---------------------------------
  C      4.490588    1.155899   -2.469290
  N      4.305394    1.222762   -3.908317
  C      4.906458   -3.102816   -5.954844
  C      3.511771   -2.806215   -6.492283
  H      2.736044   -3.373445   -5.973736
  H      3.444904   -3.040831   -7.555281
  S      3.004618   -1.096206   -6.389259
  C      4.631918    2.246365   -4.670958
  N      4.541686    2.143990   -5.987139
  C      5.084086    3.393584   -4.118545
  H      4.920675    3.570501   -3.135870
  H      5.254652    4.197390   -4.706956
  H      3.824530    0.449113   -4.350926
  H      4.343373    1.249318   -6.416646
  H      4.676712    2.956624   -6.574113
  O      4.128856   -0.329647   -6.953717
  O      1.781285   -1.000779   -7.136399
  C      5.942129    0.939500   -2.036893
  H      3.864305    0.328532   -2.136611
  H      4.076233    2.049994   -1.989010
  C      6.462677   -3.117775   -3.944671
  C      5.024977   -3.025679   -4.437625
  H      4.423321   -3.818693   -3.977648
  H      4.579350   -2.087131   -4.108727
  H      5.201533   -4.100207   -6.296905
  H      5.605922   -2.397822   -6.413368
  C      6.559957   -0.356290   -2.559086
  H      5.967976    0.952567   -0.942444
  H      6.547184    1.788331   -2.368849
  C      6.006283   -1.615917   -1.899301
  H      7.642360   -0.318000   -2.402059
  H      6.414855   -0.403433   -3.642587
  C      6.608718   -2.917014   -2.435655
  H      6.190324   -1.561115   -0.820948
  H      4.919250   -1.651245   -2.016586
  H      7.066975   -2.374258   -4.475514
  H      6.887808   -4.089747   -4.215332
  H      6.135197   -3.755573   -1.915159
  H      7.671142   -2.955503   -2.172291
  F      2.851546   -0.783683   -4.956789

 Total Charge           Charge          ....    0
 Multiplicity           Mult            ....    1
 Number of Electrons    NEL             ....  144
 Basis Dimension        Dim             ....  671

ORBITAL ENERGIES
----------------

  NO   OCC          E(Eh)            E(eV)
   0   2.0000     -88.606980     -2411.1185
   1   2.0000     -24.541443      -667.8066
   2   2.0000     -18.918580      -514.8007
   3   2.0000     -18.916044      -514.7317
   4   2.0000     -14.086993      -383.3266
   5   2.0000     -14.066222      -382.7614
   6   2.0000     -10.059907      -273.7440
   7   2.0000     -10.021624      -272.7023
   8   2.0000     -10.008873      -272.3553
   9   2.0000     -10.005091      -272.2524
  10   2.0000     -10.004391      -272.2333
  11   2.0000      -9.993578      -271.9391
  12   2.0000      -9.987132      -271.7637
  13   2.0000      -9.981391      -271.6075
  14   2.0000      -9.973718      -271.3987
  15   2.0000      -9.968683      -271.2617
  16   2.0000      -9.878329      -268.8030
  17   2.0000      -7.957000      -216.5210
  18   2.0000      -5.940517      -161.6497
  19   2.0000      -5.933530      -161.4596
  20   2.0000      -5.932750      -161.4383
  21   2.0000      -1.308707       -35.6117
  22   2.0000      -1.061441       -28.8833
  23   2.0000      -0.973831       -26.4993
  24   2.0000      -0.887418       -24.1479
  25   2.0000      -0.806800       -21.9542
  26   2.0000      -0.796268       -21.6676
  27   2.0000      -0.760126       -20.6841
  28   2.0000      -0.728725       -19.8296
  29   2.0000      -0.698163       -18.9980
  30   2.0000      -0.676659       -18.4128
  31   2.0000      -0.646534       -17.5931
  32   2.0000      -0.632016       -17.1980
  33   2.0000      -0.610567       -16.6144
  34   2.0000      -0.587360       -15.9829
  35   2.0000      -0.553988       -15.0748
  36   2.0000      -0.551006       -14.9936
  37   2.0000      -0.545107       -14.8331
  38   2.0000      -0.527768       -14.3613
  39   2.0000      -0.518006       -14.0957
  40   2.0000      -0.491018       -13.3613
  41   2.0000      -0.477958       -13.0059
  42   2.0000      -0.467508       -12.7216
  43   2.0000      -0.462261       -12.5787
  44   2.0000      -0.451005       -12.2725
  45   2.0000      -0.444035       -12.0828
  46   2.0000      -0.429115       -11.6768
  47   2.0000      -0.428807       -11.6684
  48   2.0000      -0.410421       -11.1681
  49   2.0000      -0.408097       -11.1049
  50   2.0000      -0.396824       -10.7981
  51   2.0000      -0.395807       -10.7704
  52   2.0000      -0.375848       -10.2273
  53   2.0000      -0.367833       -10.0093
  54   2.0000      -0.357762        -9.7352
  55   2.0000      -0.353498        -9.6192
  56   2.0000      -0.344972        -9.3872
  57   2.0000      -0.337816        -9.1924
  58   2.0000      -0.330694        -8.9986
  59   2.0000      -0.325307        -8.8521
  60   2.0000      -0.319443        -8.6925
  61   2.0000      -0.316677        -8.6172
  62   2.0000      -0.313747        -8.5375
  63   2.0000      -0.307413        -8.3651
  64   2.0000      -0.304253        -8.2791
  65   2.0000      -0.295932        -8.0527
  66   2.0000      -0.295060        -8.0290
  67   2.0000      -0.284219        -7.7340
  68   2.0000      -0.282952        -7.6995
  69   2.0000      -0.274147        -7.4599
  70   2.0000      -0.192300        -5.2328
  71   2.0000      -0.115871        -3.1530
  72   0.0000      -0.030341        -0.8256
  73   0.0000       0.001814         0.0494
  74   0.0000       0.012658         0.3444
  75   0.0000       0.023491         0.6392
  76   0.0000       0.026073         0.7095

MULLIKEN ATOMIC CHARGES
-----------------------
   0 C :   -0.168272
   1 N :   -0.311810
   2 C :   -0.142919
   3 C :   -0.192612
   4 H :    0.135754
   5 H :    0.167008
   6 S :    0.775033
   7 C :    0.362315
   8 N :   -0.490971
   9 C :   -0.566649
  10 H :    0.104585
  11 H :    0.073293
  12 H :    0.174769
  13 H :    0.240861
  14 H :    0.233183
  15 O :   -0.429297
  16 O :   -0.361500
  17 C :   -0.043335
  18 H :    0.099065
  19 H :    0.115016
  20 C :   -0.192315
  21 C :   -0.282314
  22 H :    0.088581
  23 H :    0.091959
  24 H :    0.105318
  25 H :    0.131554
  26 C :   -0.233924
  27 H :    0.065926
  28 H :    0.121576
  29 C :   -0.242851
  30 H :    0.086287
  31 H :    0.112617
  32 C :   -0.070823
  33 H :    0.086824
  34 H :    0.093090
  35 H :    0.112207
  36 H :    0.088587
  37 H :    0.078022
  38 H :    0.086844
  39 F :   -0.100684
Sum of atomic charges:   -0.0000000

LOEWDIN ATOMIC CHARGES
----------------------
   0 C :   -0.278293
   1 N :    0.117538
   2 C :   -0.276493
   3 C :   -0.358188
   4 H :    0.140776
   5 H :    0.154467
   6 S :    0.519652
   7 C :   -0.476899
   8 N :   -0.004388
   9 C :   -0.360747
  10 H :    0.092965
  11 H :    0.089196
  12 H :    0.153029
  13 H :    0.134199
  14 H :    0.172106
  15 O :   -0.253745
  16 O :   -0.219966
  17 C :   -0.259782
  18 H :    0.124836
  19 H :    0.130704
  20 C :   -0.262111
  21 C :   -0.269822
  22 H :    0.135507
  23 H :    0.127929
  24 H :    0.143981
  25 H :    0.147128
  26 C :   -0.264822
  27 H :    0.132712
  28 H :    0.143482
  29 C :   -0.268023
  30 H :    0.134905
  31 H :    0.133966
  32 C :   -0.260480
  33 H :    0.134555
  34 H :    0.125989
  35 H :    0.137539
  36 H :    0.134214
  37 H :    0.132603
  38 H :    0.135669
  39 F :    0.084113

  Mayer bond orders larger than 0.100000
B(  0-C ,  1-N ) :   0.9858 B(  0-C , 17-C ) :   1.0077 B(  0-C , 18-H ) :   0.9643
B(  0-C , 19-H ) :   0.9490 B(  1-N ,  7-C ) :   1.1683 B(  1-N , 12-H ) :   0.9066
B(  2-C ,  3-C ) :   0.9923 B(  2-C , 21-C ) :   1.0340 B(  2-C , 24-H ) :   0.9248
B(  2-C , 25-H ) :   0.9406 B(  3-C ,  4-H ) :   0.9336 B(  3-C ,  5-H ) :   0.9283
B(  3-C ,  6-S ) :   0.9129 B(  6-S , 15-O ) :   1.7844 B(  6-S , 16-O ) :   1.9994
B(  6-S , 39-F ) :   1.0709 B(  7-C ,  8-N ) :   1.1801 B(  7-C ,  9-C ) :   1.6156
B(  8-N , 13-H ) :   0.8574 B(  8-N , 14-H ) :   0.9191 B(  9-C , 10-H ) :   0.9800
B(  9-C , 11-H ) :   0.9879 B( 17-C , 26-C ) :   1.0187 B( 17-C , 27-H ) :   0.9406
B( 17-C , 28-H ) :   0.9295 B( 20-C , 21-C ) :   1.0396 B( 20-C , 32-C ) :   1.0168
B( 20-C , 35-H ) :   0.9593 B( 20-C , 36-H ) :   0.9396 B( 21-C , 22-H ) :   0.9419
B( 21-C , 23-H ) :   0.9504 B( 26-C , 29-C ) :   1.0234 B( 26-C , 30-H ) :   0.9421
B( 26-C , 31-H ) :   0.9521 B( 29-C , 32-C ) :   1.0121 B( 29-C , 33-H ) :   0.9359
B( 29-C , 34-H ) :   0.9680 B( 32-C , 37-H ) :   0.9478 B( 32-C , 38-H ) :   0.9438

Dispersion correction           -0.060409056
FINAL SINGLE POINT ENERGY     -1191.447421627140

DIPOLE MOMENT
-------------
                                X             Y             Z
Electronic contribution:    -19.01043       1.92594     -17.93323
Nuclear contribution   :     18.85717      -4.60195      17.96505
                        -----------------------------------------
Total Dipole Moment    :     -0.15326      -2.67601       0.03183
                        -----------------------------------------
Magnitude (a.u.)       :      2.68058
Magnitude (Debye)      :      6.81351

Rotational constants in cm-1:     0.014436     0.012382     0.007563
Rotational constants in MHz :   432.785702   371.214592   226.743759

                             ****ORCA TERMINATED NORMALLY****
TOTAL RUN TIME: 0 days 0 hours 0 minutes 44 seconds 283 msec
