                         Program Version 5.0.0 -  RELEASE  -
|  1> !LC-BLYP RIJCOSX def2-SVP def2/J TightSCF
|  2> *xyz -1 1
|  3> C          0.96805        1.63064       -3.71575
|  4> C         -0.50835        1.72268       -4.12430
|  5> S         -1.32861        0.14674       -4.43578
|  6> H         -0.59151        2.29496       -5.04722
|  7> H         -1.11411        2.23561       -3.37436
|  8> O         -2.57135        0.47573       -5.06834
|  9> O         -1.51496       -0.40051       -3.06342
| 10> O         -0.37793       -0.62756       -5.20114
| 11> H          1.51840        1.12197       -4.47946
| 12> H          1.05062        1.08971       -2.79625
| 13> H          1.36450        2.61606       -3.58668
| 14> *
| 15> %MaxCore 64000
| 16>
| 17> %pal nprocs 4
| 18> end
| 19>
| 20> %scf
| 21>   MaxIter 150
| 22> end
| 23>
| 24>
| 25>                          ****END OF INPUT****

CARTESIAN COORDINATES (ANGSTROEM)
---------------------------------
  C      0.968050    1.630640   -3.715750
  C     -0.508350    1.722680   -4.124300
  S     -1.328610    0.146740   -4.435780
  H     -0.591510    2.294960   -5.047220
  H     -1.114110    2.235610   -3.374360
  O     -2.571350    0.475730   -5.068340
  O     -1.514960   -0.400510   -3.063420
  O     -0.377930   -0.627560   -5.201140
  H      1.518400    1.121970   -4.479460
  H      1.050620    1.089710   -2.796250
  H      1.364500    2.616060   -3.586680

 Total Charge           Charge          ....   -1
 Multiplicity           Mult            ....    1
 Number of Electrons    NEL             ....   58
 Basis Dimension        Dim             ....  113

ORBITAL ENERGIES
----------------

  NO   OCC          E(Eh)            E(eV)
   0   2.0000     -88.262565     -2401.7465
   1   2.0000     -18.699406      -508.8367
   2   2.0000     -18.696432      -508.7558
   3   2.0000     -18.677039      -508.2281
   4   2.0000      -9.932545      -270.2783
   5   2.0000      -9.925417      -270.0843
   6   2.0000      -7.818665      -212.7567
   7   2.0000      -5.852559      -159.2562
   8   2.0000      -5.852350      -159.2505
   9   2.0000      -5.852180      -159.2459
  10   2.0000      -0.997550       -27.1447
  11   2.0000      -0.854626       -23.2555
  12   2.0000      -0.821919       -22.3656
  13   2.0000      -0.720503       -19.6059
  14   2.0000      -0.595353       -16.2004
  15   2.0000      -0.460591       -12.5333
  16   2.0000      -0.408624       -11.1192
  17   2.0000      -0.396807       -10.7977
  18   2.0000      -0.360235        -9.8025
  19   2.0000      -0.338828        -9.2200
  20   2.0000      -0.334011        -9.0889
  21   2.0000      -0.311264        -8.4699
  22   2.0000      -0.295684        -8.0460
  23   2.0000      -0.218923        -5.9572
  24   2.0000      -0.217535        -5.9194
  25   2.0000      -0.185354        -5.0437
  26   2.0000      -0.174708        -4.7540
  27   2.0000      -0.159902        -4.3511
  28   2.0000      -0.126232        -3.4349
  29   0.0000       0.276444         7.5224
  30   0.0000       0.329225         8.9587
  31   0.0000       0.338597         9.2137
  32   0.0000       0.344515         9.3747
  33   0.0000       0.373617        10.1666

MULLIKEN ATOMIC CHARGES
-----------------------
   0 C :    0.037179
   1 C :   -0.090648
   2 S :    0.744244
   3 H :   -0.019595
   4 H :   -0.007008
   5 O :   -0.514554
   6 O :   -0.582553
   7 O :   -0.528861
   8 H :    0.001892
   9 H :    0.000136
  10 H :   -0.040233
Sum of atomic charges:   -1.0000000

LOEWDIN ATOMIC CHARGES
----------------------
   0 C :   -0.085771
   1 C :   -0.200292
   2 S :    1.066856
   3 H :    0.003454
   4 H :    0.010101
   5 O :   -0.586489
   6 O :   -0.651725
   7 O :   -0.598528
   8 H :    0.018809
   9 H :    0.019251
  10 H :    0.004335

  Mayer bond orders larger than 0.100000
B(  0-C ,  1-C ) :   1.0659 B(  0-C ,  8-H ) :   0.9634 B(  0-C ,  9-H ) :   0.9650
B(  0-C , 10-H ) :   0.9605 B(  1-C ,  2-S ) :   0.8981 B(  1-C ,  3-H ) :   0.9394
B(  1-C ,  4-H ) :   0.9436 B(  2-S ,  5-O ) :   1.6864 B(  2-S ,  6-O ) :   1.6133
B(  2-S ,  7-O ) :   1.6617

FINAL SINGLE POINT ENERGY      -701.869982149718

DIPOLE MOMENT
-------------
                                X             Y             Z
Electronic contribution:     -5.70170      -5.43464      -1.97580
Nuclear contribution   :      6.64523       6.80157       2.07300
                        -----------------------------------------
Total Dipole Moment    :      0.94353       1.36693       0.09720
                        -----------------------------------------
Magnitude (a.u.)       :      1.66379
Magnitude (Debye)      :      4.22902

Rotational constants in cm-1:     0.163070     0.082807     0.081541
Rotational constants in MHz :  4888.719902  2482.497026  2444.541148

                             ****ORCA TERMINATED NORMALLY****
TOTAL RUN TIME: 0 days 0 hours 0 minutes 15 seconds 29 msec
