                         Program Version 5.0.0 -  RELEASE  -
|  1> !LC-BLYP RIJCOSX def2-SVP def2/J TightSCF
|  2> *xyz 1 1
|  3> C          1.36401        0.46874       -2.81376
|  4> N          0.42884        0.32140       -1.65531
|  5> C          0.96805        1.63064       -3.71575
|  6> H          0.74858       -0.40054       -1.00134
|  7> H         -0.46105        0.02333       -2.07773
|  8> H          0.31026        1.20137       -1.13495
|  9> H          1.29485       -0.46874       -3.36468
| 10> H          2.37622        0.59740       -2.43149
| 11> H          1.65923        1.70213       -4.52942
| 12> H          0.98421        2.54058       -3.15304
| 13> H         -0.01744        1.46536       -4.09838
| 14> *
| 15> %MaxCore 64000
| 16>
| 17> %pal nprocs 4
| 18> end
| 19>
| 20> %scf
| 21>   MaxIter 150
| 22> end
| 23>
| 24>
| 25>                          ****END OF INPUT****

CARTESIAN COORDINATES (ANGSTROEM)
---------------------------------
  C      1.364010    0.468740   -2.813760
  N      0.428840    0.321400   -1.655310
  C      0.968050    1.630640   -3.715750
  H      0.748580   -0.400540   -1.001340
  H     -0.461050    0.023330   -2.077730
  H      0.310260    1.201370   -1.134950
  H      1.294850   -0.468740   -3.364680
  H      2.376220    0.597400   -2.431490
  H      1.659230    1.702130   -4.529420
  H      0.984210    2.540580   -3.153040
  H     -0.017440    1.465360   -4.098380

 Total Charge           Charge          ....    1
 Multiplicity           Mult            ....    1
 Number of Electrons    NEL             ....   26
 Basis Dimension        Dim             ....   82

ORBITAL ENERGIES
----------------

  NO   OCC          E(Eh)            E(eV)
   0   2.0000     -14.523916      -395.2159
   1   2.0000     -10.339001      -281.3385
   2   2.0000     -10.261103      -279.2188
   3   2.0000      -1.309467       -35.6324
   4   2.0000      -1.067742       -29.0547
   5   2.0000      -0.946790       -25.7635
   6   2.0000      -0.910456       -24.7748
   7   2.0000      -0.892467       -24.2853
   8   2.0000      -0.797097       -21.6901
   9   2.0000      -0.746846       -20.3227
  10   2.0000      -0.683803       -18.6072
  11   2.0000      -0.666313       -18.1313
  12   2.0000      -0.649352       -17.6698
  13   0.0000      -0.113077        -3.0770
  14   0.0000      -0.049903        -1.3579
  15   0.0000      -0.045482        -1.2376
  16   0.0000      -0.016404        -0.4464
  17   0.0000       0.025901         0.7048

MULLIKEN ATOMIC CHARGES
-----------------------
   0 C :   -0.066204
   1 N :    0.003765
   2 C :   -0.027215
   3 H :    0.224589
   4 H :    0.221252
   5 H :    0.220554
   6 H :    0.101422
   7 H :    0.107540
   8 H :    0.098426
   9 H :    0.059995
  10 H :    0.055876
Sum of atomic charges:    1.0000000

LOEWDIN ATOMIC CHARGES
----------------------
   0 C :    0.039346
   1 N :    0.288463
   2 C :   -0.054431
   3 H :    0.151565
   4 H :    0.151079
   5 H :    0.148668
   6 H :    0.058517
   7 H :    0.059313
   8 H :    0.069913
   9 H :    0.044314
  10 H :    0.043252

  Mayer bond orders larger than 0.100000
B(  0-C ,  1-N ) :   0.9366 B(  0-C ,  2-C ) :   1.1074 B(  0-C ,  6-H ) :   0.9530
B(  0-C ,  7-H ) :   0.9526 B(  1-N ,  3-H ) :   0.9302 B(  1-N ,  4-H ) :   0.9363
B(  1-N ,  5-H ) :   0.9306 B(  2-C ,  8-H ) :   0.9536 B(  2-C ,  9-H ) :   0.9672
B(  2-C , 10-H ) :   0.9673

FINAL SINGLE POINT ENERGY      -135.033436059367

DIPOLE MOMENT
-------------
                                X             Y             Z
Electronic contribution:     -0.37930      -0.97268       1.63167
Nuclear contribution   :     -0.20470       0.31427      -0.31587
                        -----------------------------------------
Total Dipole Moment    :     -0.58400      -0.65841       1.31581
                        -----------------------------------------
Magnitude (a.u.)       :      1.58300
Magnitude (Debye)      :      4.02368

Rotational constants in cm-1:     1.011480     0.279280     0.248378
Rotational constants in MHz : 30323.408050  8372.602834  7446.185305

                             ****ORCA TERMINATED NORMALLY****
TOTAL RUN TIME: 0 days 0 hours 0 minutes 9 seconds 723 msec
