                         Program Version 5.0.0 -  RELEASE  -
|  1> !LC-BLYP RIJCOSX def2-SVP def2/J TightSCF
|  2> *xyz 0 1
|  3> C          0.96805        1.63064       -3.71575
|  4> C         -0.50835        1.72268       -4.12430
|  5> S         -1.32861        0.14674       -4.43578
|  6> H         -0.59151        2.29496       -5.04722
|  7> H         -1.11411        2.23561       -3.37436
|  8> F         -2.57135        0.47573       -5.06834
|  9> O         -1.51496       -0.40051       -3.06342
| 10> O         -0.37793       -0.62756       -5.20114
| 11> H          1.51840        1.12197       -4.47946
| 12> H          1.05062        1.08971       -2.79625
| 13> H          1.36450        2.61606       -3.58668
| 14> *
| 15> %MaxCore 64000
| 16>
| 17> %pal nprocs 4
| 18> end
| 19>
| 20> %scf
| 21>   MaxIter 150
| 22> end
| 23>
| 24>
| 25>                          ****END OF INPUT****

CARTESIAN COORDINATES (ANGSTROEM)
---------------------------------
  C      0.968050    1.630640   -3.715750
  C     -0.508350    1.722680   -4.124300
  S     -1.328610    0.146740   -4.435780
  H     -0.591510    2.294960   -5.047220
  H     -1.114110    2.235610   -3.374360
  F     -2.571350    0.475730   -5.068340
  O     -1.514960   -0.400510   -3.063420
  O     -0.377930   -0.627560   -5.201140
  H      1.518400    1.121970   -4.479460
  H      1.050620    1.089710   -2.796250
  H      1.364500    2.616060   -3.586680

 Total Charge           Charge          ....    0
 Multiplicity           Mult            ....    1
 Number of Electrons    NEL             ....   58
 Basis Dimension        Dim             ....  113

ORBITAL ENERGIES
----------------

  NO   OCC          E(Eh)            E(eV)
   0   2.0000     -88.536995     -2409.2141
   1   2.0000     -24.578918      -668.8264
   2   2.0000     -18.948677      -515.6197
   3   2.0000     -18.930644      -515.1290
   4   2.0000     -10.138171      -275.8737
   5   2.0000     -10.100903      -274.8596
   6   2.0000      -8.095548      -220.2911
   7   2.0000      -6.133838      -166.9102
   8   2.0000      -6.126769      -166.7179
   9   2.0000      -6.125650      -166.6874
  10   2.0000      -1.454940       -39.5909
  11   2.0000      -1.186825       -32.2951
  12   2.0000      -1.076527       -29.2938
  13   2.0000      -0.919016       -25.0077
  14   2.0000      -0.831823       -22.6351
  15   2.0000      -0.775362       -21.0987
  16   2.0000      -0.687582       -18.7101
  17   2.0000      -0.685439       -18.6517
  18   2.0000      -0.645730       -17.5712
  19   2.0000      -0.593188       -16.1415
  20   2.0000      -0.574648       -15.6370
  21   2.0000      -0.526706       -14.3324
  22   2.0000      -0.524827       -14.2813
  23   2.0000      -0.503604       -13.7037
  24   2.0000      -0.480990       -13.0884
  25   2.0000      -0.472090       -12.8462
  26   2.0000      -0.416926       -11.3451
  27   2.0000      -0.399837       -10.8801
  28   2.0000      -0.385067       -10.4782
  29   0.0000       0.116491         3.1699
  30   0.0000       0.128657         3.5009
  31   0.0000       0.161631         4.3982
  32   0.0000       0.167300         4.5525
  33   0.0000       0.174826         4.7572

MULLIKEN ATOMIC CHARGES
-----------------------
   0 C :    0.021195
   1 C :   -0.133486
   2 S :    0.828139
   3 H :    0.048773
   4 H :    0.064992
   5 F :   -0.121864
   6 O :   -0.442947
   7 O :   -0.392593
   8 H :    0.045705
   9 H :    0.047208
  10 H :    0.034876
Sum of atomic charges:    0.0000000

LOEWDIN ATOMIC CHARGES
----------------------
   0 C :   -0.059952
   1 C :   -0.165390
   2 S :    1.120635
   3 H :    0.030941
   4 H :    0.039478
   5 F :   -0.092665
   6 O :   -0.519952
   7 O :   -0.469572
   8 H :    0.037679
   9 H :    0.039301
  10 H :    0.039497

  Mayer bond orders larger than 0.100000
B(  0-C ,  1-C ) :   1.0800 B(  0-C ,  8-H ) :   0.9669 B(  0-C ,  9-H ) :   0.9703
B(  0-C , 10-H ) :   0.9624 B(  1-C ,  2-S ) :   0.9264 B(  1-C ,  3-H ) :   0.9322
B(  1-C ,  4-H ) :   0.9339 B(  2-S ,  5-F ) :   1.0753 B(  2-S ,  6-O ) :   1.7641
B(  2-S ,  7-O ) :   1.8105

FINAL SINGLE POINT ENERGY      -726.357394390307

DIPOLE MOMENT
-------------
                                X             Y             Z
Electronic contribution:     -8.40291      -5.19964      -3.27264
Nuclear contribution   :      8.31000       6.74109       2.87442
                        -----------------------------------------
Total Dipole Moment    :     -0.09291       1.54145      -0.39821
                        -----------------------------------------
Magnitude (a.u.)       :      1.59477
Magnitude (Debye)      :      4.05358

Rotational constants in cm-1:     0.158705     0.080192     0.078179
Rotational constants in MHz :  4757.865601  2404.095079  2343.752507

                             ****ORCA TERMINATED NORMALLY****
TOTAL RUN TIME: 0 days 0 hours 0 minutes 15 seconds 597 msec
