                         Program Version 5.0.0 -  RELEASE  -
|  1> !LC-BLYP RIJCOSX def2-SVP def2/J TightSCF
|  2> *xyz 0 1
|  3> C          1.36401        0.46874       -2.81376
|  4> C          0.42884        0.32140       -1.65531
|  5> C          0.96805        1.63064       -3.71575
|  6> H          0.74858       -0.40054       -1.00134
|  7> H         -0.46105        0.02333       -2.07773
|  8> H          0.31026        1.20137       -1.13495
|  9> H          1.29485       -0.46874       -3.36468
| 10> H          2.37622        0.59740       -2.43149
| 11> H          1.65923        1.70213       -4.52942
| 12> H          0.98421        2.54058       -3.15304
| 13> H         -0.01744        1.46536       -4.09838
| 14> *
| 15> %MaxCore 64000
| 16>
| 17> %pal nprocs 4
| 18> end
| 19>
| 20> %scf
| 21>   MaxIter 150
| 22> end
| 23>
| 24>
| 25>                          ****END OF INPUT****

CARTESIAN COORDINATES (ANGSTROEM)
---------------------------------
  C      1.364010    0.468740   -2.813760
  C      0.428840    0.321400   -1.655310
  C      0.968050    1.630640   -3.715750
  H      0.748580   -0.400540   -1.001340
  H     -0.461050    0.023330   -2.077730
  H      0.310260    1.201370   -1.134950
  H      1.294850   -0.468740   -3.364680
  H      2.376220    0.597400   -2.431490
  H      1.659230    1.702130   -4.529420
  H      0.984210    2.540580   -3.153040
  H     -0.017440    1.465360   -4.098380

 Total Charge           Charge          ....    0
 Multiplicity           Mult            ....    1
 Number of Electrons    NEL             ....   26
 Basis Dimension        Dim             ....   82

ORBITAL ENERGIES
----------------

  NO   OCC          E(Eh)            E(eV)
   0   2.0000     -10.070244      -274.0253
   1   2.0000     -10.062974      -273.8274
   2   2.0000     -10.047738      -273.4128
   3   2.0000      -0.892436       -24.2844
   4   2.0000      -0.789403       -21.4807
   5   2.0000      -0.683589       -18.6014
   6   2.0000      -0.575374       -15.6567
   7   2.0000      -0.547724       -14.9043
   8   2.0000      -0.502202       -13.6656
   9   2.0000      -0.488420       -13.2906
  10   2.0000      -0.433629       -11.7997
  11   2.0000      -0.428195       -11.6518
  12   2.0000      -0.423000       -11.5104
  13   0.0000       0.133848         3.6422
  14   0.0000       0.185499         5.0477
  15   0.0000       0.187187         5.0936
  16   0.0000       0.191113         5.2004
  17   0.0000       0.221222         6.0198

MULLIKEN ATOMIC CHARGES
-----------------------
   0 C :   -0.059684
   1 C :    0.064511
   2 C :    0.010228
   3 H :   -0.010821
   4 H :   -0.013454
   5 H :   -0.011910
   6 H :    0.001325
   7 H :    0.002195
   8 H :    0.008651
   9 H :    0.005558
  10 H :    0.003400
Sum of atomic charges:    0.0000000

LOEWDIN ATOMIC CHARGES
----------------------
   0 C :   -0.045047
   1 C :   -0.055845
   2 C :   -0.065275
   3 H :    0.018129
   4 H :    0.018618
   5 H :    0.015353
   6 H :    0.023083
   7 H :    0.020083
   8 H :    0.025016
   9 H :    0.023036
  10 H :    0.022847

  Mayer bond orders larger than 0.100000
B(  0-C ,  1-C ) :   1.1084 B(  0-C ,  2-C ) :   1.1079 B(  0-C ,  6-H ) :   0.9561
B(  0-C ,  7-H ) :   0.9563 B(  1-C ,  3-H ) :   0.9595 B(  1-C ,  4-H ) :   0.9678
B(  1-C ,  5-H ) :   0.9680 B(  2-C ,  8-H ) :   0.9678 B(  2-C ,  9-H ) :   0.9725
B(  2-C , 10-H ) :   0.9727

FINAL SINGLE POINT ENERGY      -118.642543108170

DIPOLE MOMENT
-------------
                                X             Y             Z
Electronic contribution:      0.35909      -0.17700      -0.02110
Nuclear contribution   :     -0.35842       0.15752       0.02695
                        -----------------------------------------
Total Dipole Moment    :      0.00067      -0.01948       0.00585
                        -----------------------------------------
Magnitude (a.u.)       :      0.02035
Magnitude (Debye)      :      0.05174

Rotational constants in cm-1:     1.019891     0.293671     0.260247
Rotational constants in MHz : 30575.551403  8804.039097  7802.009261

                             ****ORCA TERMINATED NORMALLY****
TOTAL RUN TIME: 0 days 0 hours 0 minutes 9 seconds 303 msec
