                         Program Version 5.0.0 -  RELEASE  -
|  1> !LC-BLYP RIJCOSX def2-SVP def2/J TightSCF
|  2> *xyz 0 1
|  3> C          0.96805        1.63064       -3.71575
|  4> C         -0.50835        1.72268       -4.12430
|  5> S         -1.32861        0.14674       -4.43578
|  6> H         -0.59151        2.29496       -5.04722
|  7> H         -1.11411        2.23561       -3.37436
|  8> O         -2.57135        0.47573       -5.06834
|  9> F         -1.51496       -0.40051       -3.06342
| 10> O         -0.37793       -0.62756       -5.20114
| 11> H          1.51840        1.12197       -4.47946
| 12> H          1.05062        1.08971       -2.79625
| 13> H          1.36450        2.61606       -3.58668
| 14> *
| 15> %MaxCore 64000
| 16>
| 17> %pal nprocs 4
| 18> end
| 19>
| 20> %scf
| 21>   MaxIter 150
| 22> end
| 23>
| 24>
| 25>                          ****END OF INPUT****

CARTESIAN COORDINATES (ANGSTROEM)
---------------------------------
  C      0.968050    1.630640   -3.715750
  C     -0.508350    1.722680   -4.124300
  S     -1.328610    0.146740   -4.435780
  H     -0.591510    2.294960   -5.047220
  H     -1.114110    2.235610   -3.374360
  O     -2.571350    0.475730   -5.068340
  F     -1.514960   -0.400510   -3.063420
  O     -0.377930   -0.627560   -5.201140
  H      1.518400    1.121970   -4.479460
  H      1.050620    1.089710   -2.796250
  H      1.364500    2.616060   -3.586680

 Total Charge           Charge          ....    0
 Multiplicity           Mult            ....    1
 Number of Electrons    NEL             ....   58
 Basis Dimension        Dim             ....  113

ORBITAL ENERGIES
----------------

  NO   OCC          E(Eh)            E(eV)
   0   2.0000     -88.535317     -2409.1685
   1   2.0000     -24.549249      -668.0190
   2   2.0000     -18.952412      -515.7213
   3   2.0000     -18.949463      -515.6411
   4   2.0000     -10.137166      -275.8463
   5   2.0000     -10.103041      -274.9177
   6   2.0000      -8.093626      -220.2388
   7   2.0000      -6.131679      -166.8515
   8   2.0000      -6.125219      -166.6757
   9   2.0000      -6.123977      -166.6419
  10   2.0000      -1.407052       -38.2878
  11   2.0000      -1.201591       -32.6970
  12   2.0000      -1.104385       -30.0518
  13   2.0000      -0.921340       -25.0709
  14   2.0000      -0.814175       -22.1548
  15   2.0000      -0.766355       -20.8536
  16   2.0000      -0.675513       -18.3817
  17   2.0000      -0.651067       -17.7164
  18   2.0000      -0.635841       -17.3021
  19   2.0000      -0.591958       -16.1080
  20   2.0000      -0.571958       -15.5638
  21   2.0000      -0.546520       -14.8716
  22   2.0000      -0.526655       -14.3310
  23   2.0000      -0.500822       -13.6281
  24   2.0000      -0.496600       -13.5132
  25   2.0000      -0.473678       -12.8894
  26   2.0000      -0.427728       -11.6391
  27   2.0000      -0.416870       -11.3436
  28   2.0000      -0.406415       -11.0591
  29   0.0000       0.109316         2.9746
  30   0.0000       0.140450         3.8218
  31   0.0000       0.163491         4.4488
  32   0.0000       0.170734         4.6459
  33   0.0000       0.173002         4.7076

MULLIKEN ATOMIC CHARGES
-----------------------
   0 C :    0.010876
   1 C :   -0.145468
   2 S :    0.838702
   3 H :    0.083051
   4 H :    0.060676
   5 O :   -0.380598
   6 F :   -0.181985
   7 O :   -0.396861
   8 H :    0.049814
   9 H :    0.026954
  10 H :    0.034840
Sum of atomic charges:   -0.0000000

LOEWDIN ATOMIC CHARGES
----------------------
   0 C :   -0.072232
   1 C :   -0.167229
   2 S :    1.129174
   3 H :    0.051523
   4 H :    0.036752
   5 O :   -0.460441
   6 F :   -0.151995
   7 O :   -0.472628
   8 H :    0.037649
   9 H :    0.030382
  10 H :    0.039045

  Mayer bond orders larger than 0.100000
B(  0-C ,  1-C ) :   1.0593 B(  0-C ,  8-H ) :   0.9671 B(  0-C ,  9-H ) :   0.9730
B(  0-C , 10-H ) :   0.9609 B(  1-C ,  2-S ) :   0.9235 B(  1-C ,  3-H ) :   0.9390
B(  1-C ,  4-H ) :   0.9366 B(  2-S ,  5-O ) :   1.8375 B(  2-S ,  6-F ) :   1.0080
B(  2-S ,  7-O ) :   1.8168

FINAL SINGLE POINT ENERGY      -726.383739550133

DIPOLE MOMENT
-------------
                                X             Y             Z
Electronic contribution:     -6.61062      -6.69338       0.15572
Nuclear contribution   :      7.20921       7.65416       0.78523
                        -----------------------------------------
Total Dipole Moment    :      0.59859       0.96078       0.94095
                        -----------------------------------------
Magnitude (a.u.)       :      1.47200
Magnitude (Debye)      :      3.74154

Rotational constants in cm-1:     0.153780     0.081282     0.079816
Rotational constants in MHz :  4610.199589  2436.778679  2392.820729

                             ****ORCA TERMINATED NORMALLY****
TOTAL RUN TIME: 0 days 0 hours 0 minutes 15 seconds 202 msec
