                         Program Version 5.0.0 -  RELEASE  -
|  1> !LC-BLYP RIJCOSX def2-SVP def2/J TightSCF
|  2> *xyz 0 1
|  3> C          0.96805        1.63064       -3.71575
|  4> C         -0.50835        1.72268       -4.12430
|  5> S         -1.32861        0.14674       -4.43578
|  6> H         -0.59151        2.29496       -5.04722
|  7> H         -1.11411        2.23561       -3.37436
|  8> O         -2.57135        0.47573       -5.06834
|  9> O         -1.51496       -0.40051       -3.06342
| 10> F         -0.37793       -0.62756       -5.20114
| 11> H          1.51840        1.12197       -4.47946
| 12> H          1.05062        1.08971       -2.79625
| 13> H          1.36450        2.61606       -3.58668
| 14> *
| 15> %MaxCore 64000
| 16>
| 17> %pal nprocs 4
| 18> end
| 19>
| 20> %scf
| 21>   MaxIter 150
| 22> end
| 23>
| 24>
| 25>                          ****END OF INPUT****

CARTESIAN COORDINATES (ANGSTROEM)
---------------------------------
  C      0.968050    1.630640   -3.715750
  C     -0.508350    1.722680   -4.124300
  S     -1.328610    0.146740   -4.435780
  H     -0.591510    2.294960   -5.047220
  H     -1.114110    2.235610   -3.374360
  O     -2.571350    0.475730   -5.068340
  O     -1.514960   -0.400510   -3.063420
  F     -0.377930   -0.627560   -5.201140
  H      1.518400    1.121970   -4.479460
  H      1.050620    1.089710   -2.796250
  H      1.364500    2.616060   -3.586680

 Total Charge           Charge          ....    0
 Multiplicity           Mult            ....    1
 Number of Electrons    NEL             ....   58
 Basis Dimension        Dim             ....  113

ORBITAL ENERGIES
----------------

  NO   OCC          E(Eh)            E(eV)
   0   2.0000     -88.536173     -2409.1918
   1   2.0000     -24.572910      -668.6629
   2   2.0000     -18.952283      -515.7178
   3   2.0000     -18.930921      -515.1365
   4   2.0000     -10.137789      -275.8633
   5   2.0000     -10.106848      -275.0213
   6   2.0000      -8.094719      -220.2685
   7   2.0000      -6.133082      -166.8896
   8   2.0000      -6.125969      -166.6961
   9   2.0000      -6.124815      -166.6647
  10   2.0000      -1.444105       -39.2961
  11   2.0000      -1.192457       -32.4484
  12   2.0000      -1.079587       -29.3771
  13   2.0000      -0.923371       -25.1262
  14   2.0000      -0.824328       -22.4311
  15   2.0000      -0.778394       -21.1812
  16   2.0000      -0.695037       -18.9129
  17   2.0000      -0.677136       -18.4258
  18   2.0000      -0.634958       -17.2781
  19   2.0000      -0.593827       -16.1588
  20   2.0000      -0.570701       -15.5296
  21   2.0000      -0.545979       -14.8569
  22   2.0000      -0.525303       -14.2942
  23   2.0000      -0.506977       -13.7956
  24   2.0000      -0.489928       -13.3316
  25   2.0000      -0.471837       -12.8393
  26   2.0000      -0.420073       -11.4308
  27   2.0000      -0.400584       -10.9004
  28   2.0000      -0.388163       -10.5625
  29   0.0000       0.104284         2.8377
  30   0.0000       0.141422         3.8483
  31   0.0000       0.161807         4.4030
  32   0.0000       0.168700         4.5906
  33   0.0000       0.175069         4.7639

MULLIKEN ATOMIC CHARGES
-----------------------
   0 C :    0.002682
   1 C :   -0.136803
   2 S :    0.828673
   3 H :    0.058531
   4 H :    0.091224
   5 O :   -0.374763
   6 O :   -0.443069
   7 F :   -0.136948
   8 H :    0.024373
   9 H :    0.046370
  10 H :    0.039730
Sum of atomic charges:    0.0000000

LOEWDIN ATOMIC CHARGES
----------------------
   0 C :   -0.075161
   1 C :   -0.162309
   2 S :    1.122710
   3 H :    0.035241
   4 H :    0.055793
   5 O :   -0.455878
   6 O :   -0.520266
   7 F :   -0.105608
   8 H :    0.027801
   9 H :    0.036575
  10 H :    0.041103

  Mayer bond orders larger than 0.100000
B(  0-C ,  1-C ) :   1.0572 B(  0-C ,  8-H ) :   0.9724 B(  0-C ,  9-H ) :   0.9693
B(  0-C , 10-H ) :   0.9615 B(  1-C ,  2-S ) :   0.9298 B(  1-C ,  3-H ) :   0.9367
B(  1-C ,  4-H ) :   0.9376 B(  2-S ,  5-O ) :   1.8326 B(  2-S ,  6-O ) :   1.7647
B(  2-S ,  7-F ) :   1.0548

FINAL SINGLE POINT ENERGY      -726.362548244346

DIPOLE MOMENT
-------------
                                X             Y             Z
Electronic contribution:     -4.67127      -7.05848      -3.47910
Nuclear contribution   :      6.02439       7.89075       3.01280
                        -----------------------------------------
Total Dipole Moment    :      1.35313       0.83227      -0.46630
                        -----------------------------------------
Magnitude (a.u.)       :      1.65562
Magnitude (Debye)      :      4.20824

Rotational constants in cm-1:     0.153652     0.082400     0.079295
Rotational constants in MHz :  4606.361242  2470.285703  2377.214112

                             ****ORCA TERMINATED NORMALLY****
TOTAL RUN TIME: 0 days 0 hours 0 minutes 15 seconds 107 msec
