                         Program Version 5.0.0 -  RELEASE  -
|  1> !LC-BLYP RIJCOSX def2-TZVP def2/J TightSCF xyzfile
|  2>
|  3> *xyzfile 0 1 D3.xyz
|  4>
|  5> %MaxCore 64000
|  6>
|  7> %pal nprocs 18
|  8> end
|  9>
| 10> %scf
| 11>   MaxIter 150
| 12> end
| 13>
| 14>
| 15>                          ****END OF INPUT****

CARTESIAN COORDINATES (ANGSTROEM)
---------------------------------
  C      1.364014    0.468742   -2.813764
  C      0.428844    0.321402   -1.655312
  C      0.968045    1.630639   -3.715749
  C     -0.508347    1.722679   -4.124300
  S     -1.328608    0.146737   -4.435781
  H     -0.591511    2.294958   -5.047219
  H     -1.114114    2.235610   -3.374362
  H      0.748578   -0.400542   -1.001345
  H     -0.461053    0.023332   -2.077731
  H      0.310258    1.201375   -1.134948
  O     -2.571347    0.475733   -5.068341
  O     -1.514963   -0.400512   -3.063420
  H      1.294847   -0.468742   -3.364684
  H      2.376216    0.597400   -2.431495
  H      1.578688    1.520652   -4.612733
  H      1.266653    2.575988   -3.250448
  F     -0.377928   -0.627558   -5.201141

 Total Charge           Charge          ....    0
 Multiplicity           Mult            ....    1
 Number of Electrons    NEL             ....   74
 Basis Dimension        Dim             ....  308

ORBITAL ENERGIES
----------------

  NO   OCC          E(Eh)            E(eV)
   0   2.0000     -88.525276     -2408.8952
   1   2.0000     -24.580424      -668.8674
   2   2.0000     -18.960583      -515.9437
   3   2.0000     -18.943266      -515.4725
   4   2.0000     -10.129208      -275.6298
   5   2.0000     -10.093549      -274.6594
   6   2.0000     -10.065419      -273.8940
   7   2.0000     -10.000290      -272.1217
   8   2.0000      -8.067967      -219.5405
   9   2.0000      -6.099788      -165.9837
  10   2.0000      -6.092870      -165.7954
  11   2.0000      -6.092357      -165.7814
  12   2.0000      -1.469734       -39.9935
  13   2.0000      -1.212489       -32.9935
  14   2.0000      -1.113259       -30.2933
  15   2.0000      -0.947950       -25.7950
  16   2.0000      -0.882925       -24.0256
  17   2.0000      -0.828939       -22.5566
  18   2.0000      -0.789532       -21.4842
  19   2.0000      -0.722905       -19.6712
  20   2.0000      -0.698552       -19.0086
  21   2.0000      -0.690433       -18.7876
  22   2.0000      -0.649268       -17.6675
  23   2.0000      -0.609497       -16.5853
  24   2.0000      -0.603549       -16.4234
  25   2.0000      -0.575510       -15.6604
  26   2.0000      -0.560394       -15.2491
  27   2.0000      -0.532653       -14.4942
  28   2.0000      -0.515482       -14.0270
  29   2.0000      -0.499049       -13.5798
  30   2.0000      -0.494347       -13.4519
  31   2.0000      -0.468544       -12.7497
  32   2.0000      -0.445762       -12.1298
  33   2.0000      -0.431439       -11.7401
  34   2.0000      -0.430745       -11.7212
  35   2.0000      -0.420216       -11.4347
  36   2.0000      -0.369523       -10.0552
  37   0.0000       0.076673         2.0864
  38   0.0000       0.106519         2.8985
  39   0.0000       0.117901         3.2083
  40   0.0000       0.128389         3.4936
  41   0.0000       0.136306         3.7091

MULLIKEN ATOMIC CHARGES
-----------------------
   0 C :   -0.294353
   1 C :   -0.411320
   2 C :   -0.266998
   3 C :   -0.351644
   4 S :    0.757967
   5 H :    0.184177
   6 H :    0.199570
   7 H :    0.123165
   8 H :    0.185922
   9 H :    0.113039
  10 O :   -0.344384
  11 O :   -0.382717
  12 H :    0.133098
  13 H :    0.125127
  14 H :    0.145994
  15 H :    0.149696
  16 F :   -0.066338
Sum of atomic charges:    0.0000000

LOEWDIN ATOMIC CHARGES
----------------------
   0 C :   -0.319261
   1 C :   -0.332413
   2 C :   -0.297865
   3 C :   -0.368665
   4 S :    0.519823
   5 H :    0.146087
   6 H :    0.157822
   7 H :    0.109561
   8 H :    0.086905
   9 H :    0.106349
  10 O :   -0.236158
  11 O :   -0.258197
  12 H :    0.135057
  13 H :    0.140011
  14 H :    0.144479
  15 H :    0.150815
  16 F :    0.115652

  Mayer bond orders larger than 0.100000
B(  0-C ,  1-C ) :   0.8747 B(  0-C ,  2-C ) :   0.9026 B(  0-C , 12-H ) :   0.9922
B(  0-C , 13-H ) :   0.9827 B(  1-C ,  7-H ) :   0.9874 B(  1-C ,  8-H ) :   0.9311
B(  1-C ,  9-H ) :   0.9813 B(  2-C ,  3-C ) :   0.8979 B(  2-C , 14-H ) :   0.9850
B(  2-C , 15-H ) :   0.9626 B(  3-C ,  4-S ) :   0.9334 B(  3-C ,  5-H ) :   0.9516
B(  3-C ,  6-H ) :   0.9348 B(  4-S , 10-O ) :   2.0305 B(  4-S , 11-O ) :   1.8042
B(  4-S , 16-F ) :   1.1692

FINAL SINGLE POINT ENERGY      -805.355744517235

DIPOLE MOMENT
-------------
                                X             Y             Z
Electronic contribution:     -8.65906      -5.95911      -9.93156
Nuclear contribution   :      9.83476       6.70164       9.41257
                        -----------------------------------------
Total Dipole Moment    :      1.17570       0.74253      -0.51899
                        -----------------------------------------
Magnitude (a.u.)       :      1.48424
Magnitude (Debye)      :      3.77264

Rotational constants in cm-1:     0.099832     0.045916     0.042219
Rotational constants in MHz :  2992.874960  1376.530174  1265.693813

                             ****ORCA TERMINATED NORMALLY****
TOTAL RUN TIME: 0 days 0 hours 0 minutes 22 seconds 281 msec
