                         Program Version 5.0.0 -  RELEASE  -
|  1> !TPSS D3BJ RIJCOSX def2-SVPD def2/J TightSCF
|  2> *xyz -1 1
|  3> C          0.84888        2.66797       -4.30235
|  4> C          2.09343        1.86104       -4.65684
|  5> H          2.44481        2.04157       -5.67499
|  6> H          2.90175        2.13786       -3.98034
|  7> S          1.87964        0.07859       -4.46297
|  8> O          3.20757       -0.46611       -4.42026
|  9> O          1.07506       -0.05616       -3.26876
| 10> O          1.13166       -0.31996       -5.67903
| 11> H          0.05064        2.40112       -4.96303
| 12> H          1.06043        3.71210       -4.40203
| 13> H          0.56237        2.45684       -3.29327
| 14> *
| 15>
| 16> %MaxCore 64000
| 17>
| 18> %pal nprocs 4
| 19> end
| 20>
| 21> %scf
| 22>   MaxIter 150
| 23> end
| 24>
| 25>
| 26>                          ****END OF INPUT****

CARTESIAN COORDINATES (ANGSTROEM)
---------------------------------
  C      0.848880    2.667970   -4.302350
  C      2.093430    1.861040   -4.656840
  H      2.444810    2.041570   -5.674990
  H      2.901750    2.137860   -3.980340
  S      1.879640    0.078590   -4.462970
  O      3.207570   -0.466110   -4.420260
  O      1.075060   -0.056160   -3.268760
  O      1.131660   -0.319960   -5.679030
  H      0.050640    2.401120   -4.963030
  H      1.060430    3.712100   -4.402030
  H      0.562370    2.456840   -3.293270

 Total Charge           Charge          ....   -1
 Multiplicity           Mult            ....    1
 Number of Electrons    NEL             ....   58
 Basis Dimension        Dim             ....  176

ORBITAL ENERGIES
----------------

  NO   OCC          E(Eh)            E(eV)
   0   2.0000     -88.364956     -2404.5327
   1   2.0000     -18.682189      -508.3682
   2   2.0000     -18.679084      -508.2837
   3   2.0000     -18.667147      -507.9589
   4   2.0000      -9.857802      -268.2444
   5   2.0000      -9.855574      -268.1838
   6   2.0000      -7.725054      -210.2094
   7   2.0000      -5.711127      -155.4077
   8   2.0000      -5.710899      -155.4015
   9   2.0000      -5.710061      -155.3787
  10   2.0000      -0.855435       -23.2776
  11   2.0000      -0.725333       -19.7373
  12   2.0000      -0.699849       -19.0439
  13   2.0000      -0.567121       -15.4322
  14   2.0000      -0.447494       -12.1769
  15   2.0000      -0.329376        -8.9628
  16   2.0000      -0.274000        -7.4559
  17   2.0000      -0.269878        -7.3437
  18   2.0000      -0.231173        -6.2905
  19   2.0000      -0.217059        -5.9065
  20   2.0000      -0.212065        -5.7706
  21   2.0000      -0.188925        -5.1409
  22   2.0000      -0.175821        -4.7843
  23   2.0000      -0.107157        -2.9159
  24   2.0000      -0.106522        -2.8986
  25   2.0000      -0.075300        -2.0490
  26   2.0000      -0.068258        -1.8574
  27   2.0000      -0.057296        -1.5591
  28   2.0000      -0.023115        -0.6290
  29   0.0000       0.134562         3.6616
  30   0.0000       0.161173         4.3857
  31   0.0000       0.169224         4.6048
  32   0.0000       0.173679         4.7260
  33   0.0000       0.195984         5.3330

MULLIKEN ATOMIC CHARGES
-----------------------
   0 C :    0.672751
   1 C :   -0.371852
   2 H :   -0.046958
   3 H :   -0.005485
   4 S :    1.269734
   5 O :   -0.765834
   6 O :   -0.783000
   7 O :   -0.814728
   8 H :   -0.037450
   9 H :   -0.101835
  10 H :   -0.015344
Sum of atomic charges:   -1.0000000

LOEWDIN ATOMIC CHARGES
----------------------
   0 C :    0.104211
   1 C :   -0.129311
   2 H :   -0.001772
   3 H :   -0.009057
   4 S :    0.840391
   5 O :   -0.563460
   6 O :   -0.562141
   7 O :   -0.588444
   8 H :   -0.019983
   9 H :   -0.040214
  10 H :   -0.030220

  Mayer bond orders larger than 0.100000
B(  0-C ,  1-C ) :   1.2894 B(  0-C ,  8-H ) :   0.8318 B(  0-C ,  9-H ) :   0.7826
B(  0-C , 10-H ) :   0.8333 B(  1-C ,  2-H ) :   1.0027 B(  1-C ,  3-H ) :   0.9947
B(  1-C ,  4-S ) :   0.8893 B(  1-C ,  8-H ) :   0.1810 B(  1-C ,  9-H ) :   0.2058
B(  1-C , 10-H ) :   0.1970 B(  4-S ,  5-O ) :   1.3635 B(  4-S ,  6-O ) :   1.3321
B(  4-S ,  7-O ) :   1.3007

Dispersion correction           -0.012158092
FINAL SINGLE POINT ENERGY      -702.849856731485

DIPOLE MOMENT
-------------
                                X             Y             Z
Electronic contribution:      1.60741      -7.71250       0.05859
Nuclear contribution   :     -1.55288       9.51857       0.00420
                        -----------------------------------------
Total Dipole Moment    :      0.05453       1.80607       0.06279
                        -----------------------------------------
Magnitude (a.u.)       :      1.80799
Magnitude (Debye)      :      4.59554

Rotational constants in cm-1:     0.163401     0.083833     0.082462
Rotational constants in MHz :  4898.624208  2513.264548  2472.149188

                             ****ORCA TERMINATED NORMALLY****
TOTAL RUN TIME: 0 days 0 hours 0 minutes 13 seconds 744 msec
