                         Program Version 5.0.0 -  RELEASE  -
|  1> !TPSS D3BJ RIJCOSX def2-SVPD def2/J TightSCF
|  2> *xyz 1 1
|  3> C         -0.46129        2.23469       -4.98962
|  4> C          0.84888        2.66797       -4.30235
|  5> C         -0.42384        2.39877       -6.47432
|  6> N         -0.95947        3.49265       -7.00740
|  7> N          0.14558        1.48689       -7.20399
|  8> H          0.56537        0.69681       -6.72386
|  9> H          0.22068        1.58177       -8.20752
| 10> H         -1.40624        4.18151       -6.40326
| 11> H         -0.93421        3.68160       -7.99947
| 12> H         -1.28888        2.82674       -4.59500
| 13> H         -0.65170        1.18634       -4.75655
| 14> H          1.66208        2.08894       -4.68750
| 15> H          0.76716        2.51042       -3.24717
| 16> H          1.02677        3.70527       -4.49537
| 17> *
| 18>
| 19> %MaxCore 64000
| 20>
| 21> %pal nprocs 4
| 22> end
| 23>
| 24> %scf
| 25>   MaxIter 150
| 26> end
| 27>
| 28>
| 29>                          ****END OF INPUT****

CARTESIAN COORDINATES (ANGSTROEM)
---------------------------------
  C     -0.461290    2.234690   -4.989620
  C      0.848880    2.667970   -4.302350
  C     -0.423840    2.398770   -6.474320
  N     -0.959470    3.492650   -7.007400
  N      0.145580    1.486890   -7.203990
  H      0.565370    0.696810   -6.723860
  H      0.220680    1.581770   -8.207520
  H     -1.406240    4.181510   -6.403260
  H     -0.934210    3.681600   -7.999470
  H     -1.288880    2.826740   -4.595000
  H     -0.651700    1.186340   -4.756550
  H      1.662080    2.088940   -4.687500
  H      0.767160    2.510420   -3.247170
  H      1.026770    3.705270   -4.495370

 Total Charge           Charge          ....    1
 Multiplicity           Mult            ....    1
 Number of Electrons    NEL             ....   40
 Basis Dimension        Dim             ....  172

ORBITAL ENERGIES
----------------

  NO   OCC          E(Eh)            E(eV)
   0   2.0000     -14.366307      -390.9271
   1   2.0000     -14.362825      -390.8323
   2   2.0000     -10.312448      -280.6160
   3   2.0000     -10.200180      -277.5610
   4   2.0000     -10.159408      -276.4516
   5   2.0000      -1.130672       -30.7671
   6   2.0000      -1.041587       -28.3430
   7   2.0000      -0.906506       -24.6673
   8   2.0000      -0.806416       -21.9437
   9   2.0000      -0.765330       -20.8257
  10   2.0000      -0.732193       -19.9240
  11   2.0000      -0.704881       -19.1808
  12   2.0000      -0.660099       -17.9622
  13   2.0000      -0.606846       -16.5131
  14   2.0000      -0.583716       -15.8837
  15   2.0000      -0.573955       -15.6181
  16   2.0000      -0.508141       -13.8272
  17   2.0000      -0.499322       -13.5872
  18   2.0000      -0.493912       -13.4400
  19   2.0000      -0.456881       -12.4324
  20   0.0000      -0.238103        -6.4791
  21   0.0000      -0.173752        -4.7280
  22   0.0000      -0.130482        -3.5506
  23   0.0000      -0.128837        -3.5058
  24   0.0000      -0.101258        -2.7554

MULLIKEN ATOMIC CHARGES
-----------------------
   0 C :   -0.359429
   1 C :    0.558614
   2 C :    0.822578
   3 N :   -0.060821
   4 N :    0.074843
   5 H :    0.082216
   6 H :   -0.143701
   7 H :    0.063553
   8 H :   -0.124911
   9 H :    0.021909
  10 H :    0.043908
  11 H :   -0.008350
  12 H :    0.042844
  13 H :   -0.013252
Sum of atomic charges:    1.0000000

LOEWDIN ATOMIC CHARGES
----------------------
   0 C :    0.018956
   1 C :    0.184176
   2 C :   -0.049424
   3 N :    0.284460
   4 N :    0.288209
   5 H :    0.059148
   6 H :    0.052595
   7 H :    0.054675
   8 H :    0.043343
   9 H :    0.035233
  10 H :    0.040775
  11 H :   -0.011244
  12 H :    0.004975
  13 H :   -0.005879

  Mayer bond orders larger than 0.100000
B(  0-C ,  1-C ) :   1.2807 B(  0-C ,  2-C ) :   1.1135 B(  0-C ,  3-N ) :   0.1042
B(  0-C ,  9-H ) :   0.9078 B(  0-C , 10-H ) :   0.9083 B(  0-C , 11-H ) :   0.1739
B(  0-C , 12-H ) :   0.1410 B(  0-C , 13-H ) :   0.1540 B(  1-C , 11-H ) :   0.8229
B(  1-C , 12-H ) :   0.8450 B(  1-C , 13-H ) :   0.8613 B(  2-C ,  3-N ) :   0.9751
B(  2-C ,  4-N ) :   1.1573 B(  2-C ,  6-H ) :  -0.1769 B(  2-C ,  8-H ) :  -0.2136
B(  3-N ,  4-N ) :   0.1854 B(  3-N ,  7-H ) :   1.0767 B(  3-N ,  8-H ) :   1.3379
B(  4-N ,  5-H ) :   1.0525 B(  4-N ,  6-H ) :   1.3216 B(  5-H ,  6-H ) :  -0.1608
B(  7-H ,  8-H ) :  -0.1715

Dispersion correction           -0.012421485
FINAL SINGLE POINT ENERGY      -228.928487943475

DIPOLE MOMENT
-------------
                                X             Y             Z
Electronic contribution:     -1.55282      -0.26305      -3.89136
Nuclear contribution   :      1.33202       0.27544       2.83701
                        -----------------------------------------
Total Dipole Moment    :     -0.22080       0.01239      -1.05435
                        -----------------------------------------
Magnitude (a.u.)       :      1.07729
Magnitude (Debye)      :      2.73826

Rotational constants in cm-1:     0.258570     0.126296     0.098869
Rotational constants in MHz :  7751.748523  3786.267300  2964.011691

                             ****ORCA TERMINATED NORMALLY****
TOTAL RUN TIME: 0 days 0 hours 0 minutes 13 seconds 880 msec
