                         Program Version 5.0.0 -  RELEASE  -
|  1> !TPSS D3BJ RIJCOSX def2-SVPD def2/J TightSCF
|  2> *xyz 0 1
|  3> C          0.84888        2.66797       -4.30235
|  4> C          2.09343        1.86104       -4.65684
|  5> H          2.44481        2.04157       -5.67499
|  6> H          2.90175        2.13786       -3.98034
|  7> S          1.87964        0.07859       -4.46297
|  8> F          3.20757       -0.46611       -4.42026
|  9> O          1.07506       -0.05616       -3.26876
| 10> O          1.13166       -0.31996       -5.67903
| 11> H          0.05064        2.40112       -4.96303
| 12> H          1.06043        3.71210       -4.40203
| 13> H          0.56237        2.45684       -3.29327
| 14> *
| 15>
| 16> %MaxCore 64000
| 17>
| 18> %pal nprocs 4
| 19> end
| 20>
| 21> %scf
| 22>   MaxIter 150
| 23> end
| 24>
| 25>
| 26>                          ****END OF INPUT****

CARTESIAN COORDINATES (ANGSTROEM)
---------------------------------
  C      0.848880    2.667970   -4.302350
  C      2.093430    1.861040   -4.656840
  H      2.444810    2.041570   -5.674990
  H      2.901750    2.137860   -3.980340
  S      1.879640    0.078590   -4.462970
  F      3.207570   -0.466110   -4.420260
  O      1.075060   -0.056160   -3.268760
  O      1.131660   -0.319960   -5.679030
  H      0.050640    2.401120   -4.963030
  H      1.060430    3.712100   -4.402030
  H      0.562370    2.456840   -3.293270

 Total Charge           Charge          ....    0
 Multiplicity           Mult            ....    1
 Number of Electrons    NEL             ....   58
 Basis Dimension        Dim             ....  176

ORBITAL ENERGIES
----------------

  NO   OCC          E(Eh)            E(eV)
   0   2.0000     -88.621673     -2411.5183
   1   2.0000     -24.545414      -667.9147
   2   2.0000     -18.912212      -514.6275
   3   2.0000     -18.900292      -514.3031
   4   2.0000     -10.060366      -273.7565
   5   2.0000     -10.020336      -272.6672
   6   2.0000      -7.982956      -217.2273
   7   2.0000      -5.973310      -162.5420
   8   2.0000      -5.966664      -162.3612
   9   2.0000      -5.964764      -162.3095
  10   2.0000      -1.298901       -35.3449
  11   2.0000      -1.033077       -28.1114
  12   2.0000      -0.933427       -25.3998
  13   2.0000      -0.758114       -20.6293
  14   2.0000      -0.679757       -18.4971
  15   2.0000      -0.621208       -16.9039
  16   2.0000      -0.536953       -14.6112
  17   2.0000      -0.533167       -14.5082
  18   2.0000      -0.505973       -13.7682
  19   2.0000      -0.451697       -12.2913
  20   2.0000      -0.438941       -11.9442
  21   2.0000      -0.399848       -10.8804
  22   2.0000      -0.389850       -10.6084
  23   2.0000      -0.370273       -10.0756
  24   2.0000      -0.352181        -9.5833
  25   2.0000      -0.341619        -9.2959
  26   2.0000      -0.293857        -7.9962
  27   2.0000      -0.280345        -7.6286
  28   2.0000      -0.263670        -7.1748
  29   0.0000      -0.022568        -0.6141
  30   0.0000       0.004245         0.1155
  31   0.0000       0.021228         0.5776
  32   0.0000       0.027763         0.7555
  33   0.0000       0.030446         0.8285

MULLIKEN ATOMIC CHARGES
-----------------------
   0 C :    0.671216
   1 C :   -0.398108
   2 H :    0.004354
   3 H :    0.047404
   4 S :    1.460804
   5 F :   -0.384484
   6 O :   -0.649672
   7 O :   -0.676996
   8 H :   -0.018281
   9 H :   -0.064628
  10 H :    0.008391
Sum of atomic charges:    0.0000000

LOEWDIN ATOMIC CHARGES
----------------------
   0 C :    0.150177
   1 C :   -0.092086
   2 H :    0.019004
   3 H :    0.009417
   4 S :    1.105710
   5 F :   -0.248450
   6 O :   -0.451618
   7 O :   -0.470943
   8 H :   -0.001996
   9 H :   -0.007183
  10 H :   -0.012033

  Mayer bond orders larger than 0.100000
B(  0-C ,  1-C ) :   1.3611 B(  0-C ,  8-H ) :   0.8317 B(  0-C ,  9-H ) :   0.7834
B(  0-C , 10-H ) :   0.8283 B(  1-C ,  2-H ) :   0.9880 B(  1-C ,  3-H ) :   0.9598
B(  1-C ,  4-S ) :   0.9367 B(  1-C ,  8-H ) :   0.1739 B(  1-C ,  9-H ) :   0.1917
B(  1-C , 10-H ) :   0.1897 B(  4-S ,  5-F ) :   0.7005 B(  4-S ,  6-O ) :   1.5311
B(  4-S ,  7-O ) :   1.4927

Dispersion correction           -0.011631218
FINAL SINGLE POINT ENERGY      -727.336686124635

DIPOLE MOMENT
-------------
                                X             Y             Z
Electronic contribution:      4.11533      -9.32468       0.10267
Nuclear contribution   :     -3.08754      10.54185      -0.04092
                        -----------------------------------------
Total Dipole Moment    :      1.02779       1.21718       0.06175
                        -----------------------------------------
Magnitude (a.u.)       :      1.59427
Magnitude (Debye)      :      4.05231

Rotational constants in cm-1:     0.158925     0.081210     0.079022
Rotational constants in MHz :  4764.450166  2434.603461  2369.014434

                             ****ORCA TERMINATED NORMALLY****
TOTAL RUN TIME: 0 days 0 hours 0 minutes 16 seconds 629 msec
