                         Program Version 5.0.0 -  RELEASE  -
|  1> !TPSS D3BJ RIJCOSX def2-SVPD def2/J TightSCF
|  2> *xyz 0 1
|  3> C         -0.46129        2.23469       -4.98962
|  4> C          0.84888        2.66797       -4.30235
|  5> C         -0.42384        2.39877       -6.47432
|  6> C         -0.95947        3.49265       -7.00740
|  7> N          0.14558        1.48689       -7.20399
|  8> H          0.56537        0.69681       -6.72386
|  9> H          0.22068        1.58177       -8.20752
| 10> H         -1.40624        4.18151       -6.40326
| 11> H         -0.93421        3.68160       -7.99947
| 12> H         -1.28888        2.82674       -4.59500
| 13> H         -0.65170        1.18634       -4.75655
| 14> H          1.66208        2.08894       -4.68750
| 15> H          0.76716        2.51042       -3.24717
| 16> H          1.02677        3.70527       -4.49537
| 17> *
| 18>
| 19> %MaxCore 64000
| 20>
| 21> %pal nprocs 4
| 22> end
| 23>
| 24> %scf
| 25>   MaxIter 150
| 26> end
| 27>
| 28>
| 29>                          ****END OF INPUT****

CARTESIAN COORDINATES (ANGSTROEM)
---------------------------------
  C     -0.461290    2.234690   -4.989620
  C      0.848880    2.667970   -4.302350
  C     -0.423840    2.398770   -6.474320
  C     -0.959470    3.492650   -7.007400
  N      0.145580    1.486890   -7.203990
  H      0.565370    0.696810   -6.723860
  H      0.220680    1.581770   -8.207520
  H     -1.406240    4.181510   -6.403260
  H     -0.934210    3.681600   -7.999470
  H     -1.288880    2.826740   -4.595000
  H     -0.651700    1.186340   -4.756550
  H      1.662080    2.088940   -4.687500
  H      0.767160    2.510420   -3.247170
  H      1.026770    3.705270   -4.495370

 Total Charge           Charge          ....    0
 Multiplicity           Mult            ....    1
 Number of Electrons    NEL             ....   40
 Basis Dimension        Dim             ....  172

ORBITAL ENERGIES
----------------

  NO   OCC          E(Eh)            E(eV)
   0   2.0000     -14.122293      -384.2871
   1   2.0000     -10.012239      -272.4469
   2   2.0000     -10.000138      -272.1176
   3   2.0000      -9.988508      -271.8011
   4   2.0000      -9.931969      -270.2626
   5   2.0000      -0.863889       -23.5076
   6   2.0000      -0.714540       -19.4436
   7   2.0000      -0.651731       -17.7345
   8   2.0000      -0.580810       -15.8046
   9   2.0000      -0.520495       -14.1634
  10   2.0000      -0.486062       -13.2264
  11   2.0000      -0.435808       -11.8589
  12   2.0000      -0.397495       -10.8164
  13   2.0000      -0.378286       -10.2937
  14   2.0000      -0.351449        -9.5634
  15   2.0000      -0.342847        -9.3293
  16   2.0000      -0.317015        -8.6264
  17   2.0000      -0.298568        -8.1244
  18   2.0000      -0.292533        -7.9602
  19   2.0000      -0.156545        -4.2598
  20   0.0000       0.003182         0.0866
  21   0.0000       0.023126         0.6293
  22   0.0000       0.040772         1.1095
  23   0.0000       0.048459         1.3186
  24   0.0000       0.055199         1.5020

MULLIKEN ATOMIC CHARGES
-----------------------
   0 C :   -0.190448
   1 C :    0.555796
   2 C :   -0.006413
   3 C :    0.332799
   4 N :    0.194495
   5 H :   -0.084538
   6 H :   -0.207536
   7 H :   -0.080935
   8 H :   -0.455337
   9 H :    0.075722
  10 H :   -0.054410
  11 H :   -0.040556
  12 H :    0.006532
  13 H :   -0.045169
Sum of atomic charges:    0.0000000

LOEWDIN ATOMIC CHARGES
----------------------
   0 C :   -0.023259
   1 C :    0.144139
   2 C :   -0.269957
   3 C :    0.179268
   4 N :    0.171655
   5 H :    0.005307
   6 H :    0.012443
   7 H :   -0.083905
   8 H :   -0.093540
   9 H :    0.017985
  10 H :    0.011688
  11 H :   -0.028181
  12 H :   -0.024564
  13 H :   -0.019078

  Mayer bond orders larger than 0.100000
B(  0-C ,  1-C ) :   1.2593 B(  0-C ,  2-C ) :   1.1399 B(  0-C ,  3-C ) :   0.1764
B(  0-C ,  4-N ) :   0.1092 B(  0-C ,  9-H ) :   0.8519 B(  0-C , 10-H ) :   0.8748
B(  0-C , 11-H ) :   0.2010 B(  0-C , 12-H ) :   0.1594 B(  0-C , 13-H ) :   0.1681
B(  1-C , 11-H ) :   0.8290 B(  1-C , 12-H ) :   0.8280 B(  1-C , 13-H ) :   0.8793
B(  2-C ,  3-C ) :   1.6086 B(  2-C ,  4-N ) :   1.2622 B(  2-C ,  8-H ) :   0.1583
B(  2-C ,  9-H ) :   0.1346 B(  2-C , 10-H ) :   0.1460 B(  3-C ,  4-N ) :   0.2700
B(  3-C ,  7-H ) :   0.9392 B(  3-C ,  8-H ) :   0.7890 B(  4-N ,  5-H ) :   1.0962
B(  4-N ,  6-H ) :   1.2832 B(  5-H ,  6-H ) :  -0.1278

Dispersion correction           -0.012925976
FINAL SINGLE POINT ENERGY      -212.466826129573

DIPOLE MOMENT
-------------
                                X             Y             Z
Electronic contribution:     -0.72641      -1.16524      -2.61410
Nuclear contribution   :      1.14741       0.51394       2.60761
                        -----------------------------------------
Total Dipole Moment    :      0.42100      -0.65130      -0.00649
                        -----------------------------------------
Magnitude (a.u.)       :      0.77555
Magnitude (Debye)      :      1.97129

Rotational constants in cm-1:     0.269157     0.129188     0.102123
Rotational constants in MHz :  8069.118715  3872.945231  3061.580645

                             ****ORCA TERMINATED NORMALLY****
TOTAL RUN TIME: 0 days 0 hours 0 minutes 14 seconds 760 msec
