                         Program Version 5.0.0 -  RELEASE  -
|  1> !TPSS D3BJ RIJCOSX def2-SVPD def2/J TightSCF
|  2> *xyz 0 1
|  3> C          0.84888        2.66797       -4.30235
|  4> C          2.09343        1.86104       -4.65684
|  5> H          2.44481        2.04157       -5.67499
|  6> H          2.90175        2.13786       -3.98034
|  7> S          1.87964        0.07859       -4.46297
|  8> O          3.20757       -0.46611       -4.42026
|  9> F          1.07506       -0.05616       -3.26876
| 10> O          1.13166       -0.31996       -5.67903
| 11> H          0.05064        2.40112       -4.96303
| 12> H          1.06043        3.71210       -4.40203
| 13> H          0.56237        2.45684       -3.29327
| 14> *
| 15>
| 16> %MaxCore 64000
| 17>
| 18> %pal nprocs 4
| 19> end
| 20>
| 21> %scf
| 22>   MaxIter 150
| 23> end
| 24>
| 25>
| 26>                          ****END OF INPUT****

CARTESIAN COORDINATES (ANGSTROEM)
---------------------------------
  C      0.848880    2.667970   -4.302350
  C      2.093430    1.861040   -4.656840
  H      2.444810    2.041570   -5.674990
  H      2.901750    2.137860   -3.980340
  S      1.879640    0.078590   -4.462970
  O      3.207570   -0.466110   -4.420260
  F      1.075060   -0.056160   -3.268760
  O      1.131660   -0.319960   -5.679030
  H      0.050640    2.401120   -4.963030
  H      1.060430    3.712100   -4.402030
  H      0.562370    2.456840   -3.293270

 Total Charge           Charge          ....    0
 Multiplicity           Mult            ....    1
 Number of Electrons    NEL             ....   58
 Basis Dimension        Dim             ....  176

ORBITAL ENERGIES
----------------

  NO   OCC          E(Eh)            E(eV)
   0   2.0000     -88.621196     -2411.5054
   1   2.0000     -24.540401      -667.7783
   2   2.0000     -18.915636      -514.7206
   3   2.0000     -18.900409      -514.3063
   4   2.0000     -10.060287      -273.7543
   5   2.0000     -10.026310      -272.8298
   6   2.0000      -7.982475      -217.2142
   7   2.0000      -5.972873      -162.5301
   8   2.0000      -5.966191      -162.3483
   9   2.0000      -5.964295      -162.2967
  10   2.0000      -1.290568       -35.1181
  11   2.0000      -1.037105       -28.2211
  12   2.0000      -0.936583       -25.4857
  13   2.0000      -0.762952       -20.7610
  14   2.0000      -0.673444       -18.3253
  15   2.0000      -0.624456       -16.9923
  16   2.0000      -0.544643       -14.8205
  17   2.0000      -0.526937       -14.3387
  18   2.0000      -0.497229       -13.5303
  19   2.0000      -0.453630       -12.3439
  20   2.0000      -0.432494       -11.7688
  21   2.0000      -0.409233       -11.1358
  22   2.0000      -0.397540       -10.8176
  23   2.0000      -0.375151       -10.2084
  24   2.0000      -0.359727        -9.7887
  25   2.0000      -0.343083        -9.3358
  26   2.0000      -0.295610        -8.0439
  27   2.0000      -0.280887        -7.6433
  28   2.0000      -0.266635        -7.2555
  29   0.0000      -0.026331        -0.7165
  30   0.0000       0.010683         0.2907
  31   0.0000       0.023509         0.6397
  32   0.0000       0.025652         0.6980
  33   0.0000       0.029698         0.8081

MULLIKEN ATOMIC CHARGES
-----------------------
   0 C :    0.674922
   1 C :   -0.356808
   2 H :    0.002003
   3 H :    0.037745
   4 S :    1.429512
   5 O :   -0.628379
   6 F :   -0.388558
   7 O :   -0.678616
   8 H :   -0.016171
   9 H :   -0.066330
  10 H :   -0.009321
Sum of atomic charges:    0.0000000

LOEWDIN ATOMIC CHARGES
----------------------
   0 C :    0.135091
   1 C :   -0.079610
   2 H :    0.031785
   3 H :    0.013637
   4 S :    1.101249
   5 O :   -0.446917
   6 F :   -0.252055
   7 O :   -0.470161
   8 H :   -0.006189
   9 H :   -0.009188
  10 H :   -0.017643

  Mayer bond orders larger than 0.100000
B(  0-C ,  1-C ) :   1.3126 B(  0-C ,  8-H ) :   0.8407 B(  0-C ,  9-H ) :   0.7833
B(  0-C , 10-H ) :   0.8333 B(  1-C ,  2-H ) :   0.9913 B(  1-C ,  3-H ) :   0.9892
B(  1-C ,  4-S ) :   0.9627 B(  1-C ,  8-H ) :   0.1720 B(  1-C ,  9-H ) :   0.1950
B(  1-C , 10-H ) :   0.1768 B(  4-S ,  5-O ) :   1.5660 B(  4-S ,  6-F ) :   0.6907
B(  4-S ,  7-O ) :   1.5060

Dispersion correction           -0.011552024
FINAL SINGLE POINT ENERGY      -727.340931453334

DIPOLE MOMENT
-------------
                                X             Y             Z
Electronic contribution:      0.57853      -8.62392       1.99783
Nuclear contribution   :     -0.86540      10.11467      -1.24082
                        -----------------------------------------
Total Dipole Moment    :     -0.28687       1.49075       0.75701
                        -----------------------------------------
Magnitude (a.u.)       :      1.69638
Magnitude (Debye)      :      4.31186

Rotational constants in cm-1:     0.154065     0.083345     0.080357
Rotational constants in MHz :  4618.752213  2498.631937  2409.037217

                             ****ORCA TERMINATED NORMALLY****
TOTAL RUN TIME: 0 days 0 hours 0 minutes 13 seconds 990 msec
