                         Program Version 5.0.0 -  RELEASE  -
|  1> !TPSS D3BJ RIJCOSX def2-SVPD def2/J TightSCF
|  2> *xyz 0 1
|  3> C         -0.46129        2.23469       -4.98962
|  4> C          0.84888        2.66797       -4.30235
|  5> C         -0.42384        2.39877       -6.47432
|  6> N         -0.95947        3.49265       -7.00740
|  7> C          0.14558        1.48689       -7.20399
|  8> H          0.56537        0.69681       -6.72386
|  9> H          0.22068        1.58177       -8.20752
| 10> H         -1.40624        4.18151       -6.40326
| 11> H         -0.93421        3.68160       -7.99947
| 12> H         -1.28888        2.82674       -4.59500
| 13> H         -0.65170        1.18634       -4.75655
| 14> H          1.66208        2.08894       -4.68750
| 15> H          0.76716        2.51042       -3.24717
| 16> H          1.02677        3.70527       -4.49537
| 17> *
| 18>
| 19> %MaxCore 64000
| 20>
| 21> %pal nprocs 4
| 22> end
| 23>
| 24> %scf
| 25>   MaxIter 150
| 26> end
| 27>
| 28>
| 29>                          ****END OF INPUT****

CARTESIAN COORDINATES (ANGSTROEM)
---------------------------------
  C     -0.461290    2.234690   -4.989620
  C      0.848880    2.667970   -4.302350
  C     -0.423840    2.398770   -6.474320
  N     -0.959470    3.492650   -7.007400
  C      0.145580    1.486890   -7.203990
  H      0.565370    0.696810   -6.723860
  H      0.220680    1.581770   -8.207520
  H     -1.406240    4.181510   -6.403260
  H     -0.934210    3.681600   -7.999470
  H     -1.288880    2.826740   -4.595000
  H     -0.651700    1.186340   -4.756550
  H      1.662080    2.088940   -4.687500
  H      0.767160    2.510420   -3.247170
  H      1.026770    3.705270   -4.495370

 Total Charge           Charge          ....    0
 Multiplicity           Mult            ....    1
 Number of Electrons    NEL             ....   40
 Basis Dimension        Dim             ....  172

ORBITAL ENERGIES
----------------

  NO   OCC          E(Eh)            E(eV)
   0   2.0000     -14.119329      -384.2065
   1   2.0000     -10.010430      -272.3976
   2   2.0000      -9.999967      -272.1129
   3   2.0000      -9.987192      -271.7653
   4   2.0000      -9.930697      -270.2280
   5   2.0000      -0.852085       -23.1864
   6   2.0000      -0.716030       -19.4842
   7   2.0000      -0.655332       -17.8325
   8   2.0000      -0.581619       -15.8266
   9   2.0000      -0.515318       -14.0225
  10   2.0000      -0.476690       -12.9714
  11   2.0000      -0.438139       -11.9224
  12   2.0000      -0.398738       -10.8502
  13   2.0000      -0.373775       -10.1709
  14   2.0000      -0.352720        -9.5980
  15   2.0000      -0.343504        -9.3472
  16   2.0000      -0.314856        -8.5677
  17   2.0000      -0.301290        -8.1985
  18   2.0000      -0.288448        -7.8491
  19   2.0000      -0.159972        -4.3531
  20   0.0000       0.004876         0.1327
  21   0.0000       0.023989         0.6528
  22   0.0000       0.040350         1.0980
  23   0.0000       0.048223         1.3122
  24   0.0000       0.056910         1.5486

MULLIKEN ATOMIC CHARGES
-----------------------
   0 C :   -0.182836
   1 C :    0.528581
   2 C :    0.133850
   3 N :    0.041766
   4 C :    0.304153
   5 H :   -0.066049
   6 H :   -0.404474
   7 H :   -0.081168
   8 H :   -0.190294
   9 H :   -0.082623
  10 H :    0.078053
  11 H :   -0.040734
  12 H :    0.010159
  13 H :   -0.048383
Sum of atomic charges:   -0.0000000

LOEWDIN ATOMIC CHARGES
----------------------
   0 C :   -0.023454
   1 C :    0.145164
   2 C :   -0.262691
   3 N :    0.170379
   4 C :    0.171533
   5 H :   -0.075436
   6 H :   -0.083511
   7 H :   -0.001492
   8 H :    0.001948
   9 H :    0.007357
  10 H :    0.020338
  11 H :   -0.022638
  12 H :   -0.025027
  13 H :   -0.022471

  Mayer bond orders larger than 0.100000
B(  0-C ,  1-C ) :   1.2768 B(  0-C ,  2-C ) :   1.0816 B(  0-C ,  3-N ) :   0.1269
B(  0-C ,  4-C ) :   0.1746 B(  0-C ,  9-H ) :   0.8782 B(  0-C , 10-H ) :   0.8529
B(  0-C , 11-H ) :   0.1797 B(  0-C , 12-H ) :   0.1483 B(  0-C , 13-H ) :   0.1837
B(  1-C ,  9-H ) :   0.1012 B(  1-C , 11-H ) :   0.8655 B(  1-C , 12-H ) :   0.8276
B(  1-C , 13-H ) :   0.8607 B(  2-C ,  3-N ) :   1.0931 B(  2-C ,  4-C ) :   1.7101
B(  2-C ,  5-H ) :   0.1344 B(  2-C ,  6-H ) :   0.2012 B(  2-C ,  8-H ) :  -0.1367
B(  2-C ,  9-H ) :   0.1295 B(  2-C , 10-H ) :   0.1068 B(  3-N ,  4-C ) :   0.2860
B(  3-N ,  7-H ) :   1.1115 B(  3-N ,  8-H ) :   1.3175 B(  4-C ,  5-H ) :   0.8274
B(  4-C ,  6-H ) :   0.7745 B(  7-H ,  8-H ) :  -0.1527

Dispersion correction           -0.012934394
FINAL SINGLE POINT ENERGY      -212.466712853606

DIPOLE MOMENT
-------------
                                X             Y             Z
Electronic contribution:     -1.70154       0.57914      -2.43916
Nuclear contribution   :      1.40335       0.04939       2.56207
                        -----------------------------------------
Total Dipole Moment    :     -0.29818       0.62852       0.12291
                        -----------------------------------------
Magnitude (a.u.)       :      0.70644
Magnitude (Debye)      :      1.79564

Rotational constants in cm-1:     0.271383     0.128194     0.101873
Rotational constants in MHz :  8135.853259  3843.152748  3054.074278

                             ****ORCA TERMINATED NORMALLY****
TOTAL RUN TIME: 0 days 0 hours 0 minutes 14 seconds 203 msec
