                         Program Version 5.0.0 -  RELEASE  -
|  1> !TPSS D3BJ RIJCOSX def2-SVPD def2/J TightSCF
|  2> *xyz 0 1
|  3> C          0.84888        2.66797       -4.30235
|  4> C          2.09343        1.86104       -4.65684
|  5> H          2.44481        2.04157       -5.67499
|  6> H          2.90175        2.13786       -3.98034
|  7> S          1.87964        0.07859       -4.46297
|  8> O          3.20757       -0.46611       -4.42026
|  9> O          1.07506       -0.05616       -3.26876
| 10> F          1.13166       -0.31996       -5.67903
| 11> H          0.05064        2.40112       -4.96303
| 12> H          1.06043        3.71210       -4.40203
| 13> H          0.56237        2.45684       -3.29327
| 14> *
| 15>
| 16> %MaxCore 64000
| 17>
| 18> %pal nprocs 4
| 19> end
| 20>
| 21> %scf
| 22>   MaxIter 150
| 23> end
| 24>
| 25>
| 26>                          ****END OF INPUT****

CARTESIAN COORDINATES (ANGSTROEM)
---------------------------------
  C      0.848880    2.667970   -4.302350
  C      2.093430    1.861040   -4.656840
  H      2.444810    2.041570   -5.674990
  H      2.901750    2.137860   -3.980340
  S      1.879640    0.078590   -4.462970
  O      3.207570   -0.466110   -4.420260
  O      1.075060   -0.056160   -3.268760
  F      1.131660   -0.319960   -5.679030
  H      0.050640    2.401120   -4.963030
  H      1.060430    3.712100   -4.402030
  H      0.562370    2.456840   -3.293270

 Total Charge           Charge          ....    0
 Multiplicity           Mult            ....    1
 Number of Electrons    NEL             ....   58
 Basis Dimension        Dim             ....  176

ORBITAL ENERGIES
----------------

  NO   OCC          E(Eh)            E(eV)
   0   2.0000     -88.619334     -2411.4547
   1   2.0000     -24.522690      -667.2963
   2   2.0000     -18.915331      -514.7123
   3   2.0000     -18.912174      -514.6264
   4   2.0000     -10.059294      -273.7273
   5   2.0000     -10.021014      -272.6856
   6   2.0000      -7.980640      -217.1642
   7   2.0000      -5.970706      -162.4712
   8   2.0000      -5.964633      -162.3059
   9   2.0000      -5.962659      -162.2522
  10   2.0000      -1.260608       -34.3029
  11   2.0000      -1.045049       -28.4372
  12   2.0000      -0.955359       -25.9966
  13   2.0000      -0.759098       -20.6561
  14   2.0000      -0.663420       -18.0526
  15   2.0000      -0.616115       -16.7653
  16   2.0000      -0.527808       -14.3624
  17   2.0000      -0.506341       -13.7782
  18   2.0000      -0.497756       -13.5446
  19   2.0000      -0.451958       -12.2984
  20   2.0000      -0.434327       -11.8186
  21   2.0000      -0.412085       -11.2134
  22   2.0000      -0.392079       -10.6690
  23   2.0000      -0.367187        -9.9917
  24   2.0000      -0.363022        -9.8783
  25   2.0000      -0.344055        -9.3622
  26   2.0000      -0.300477        -8.1764
  27   2.0000      -0.292592        -7.9618
  28   2.0000      -0.280121        -7.6225
  29   0.0000      -0.022864        -0.6222
  30   0.0000       0.009443         0.2570
  31   0.0000       0.020920         0.5692
  32   0.0000       0.027698         0.7537
  33   0.0000       0.031191         0.8487

MULLIKEN ATOMIC CHARGES
-----------------------
   0 C :    0.701464
   1 C :   -0.391148
   2 H :   -0.003566
   3 H :    0.047708
   4 S :    1.450211
   5 O :   -0.639957
   6 O :   -0.663111
   7 F :   -0.406639
   8 H :   -0.037850
   9 H :   -0.067657
  10 H :    0.010544
Sum of atomic charges:    0.0000000

LOEWDIN ATOMIC CHARGES
----------------------
   0 C :    0.137058
   1 C :   -0.082539
   2 H :    0.017138
   3 H :    0.024528
   4 S :    1.102112
   5 O :   -0.447872
   6 O :   -0.449471
   7 F :   -0.268229
   8 H :   -0.009642
   9 H :   -0.009946
  10 H :   -0.013137

  Mayer bond orders larger than 0.100000
B(  0-C ,  1-C ) :   1.3275 B(  0-C ,  8-H ) :   0.8271 B(  0-C ,  9-H ) :   0.7778
B(  0-C , 10-H ) :   0.8351 B(  1-C ,  2-H ) :   0.9865 B(  1-C ,  3-H ) :   0.9850
B(  1-C ,  4-S ) :   0.9603 B(  1-C ,  8-H ) :   0.1746 B(  1-C ,  9-H ) :   0.1922
B(  1-C , 10-H ) :   0.1905 B(  4-S ,  5-O ) :   1.5609 B(  4-S ,  6-O ) :   1.5382
B(  4-S ,  7-F ) :   0.6364 B(  5-O ,  6-O ) :   0.1013

Dispersion correction           -0.011584549
FINAL SINGLE POINT ENERGY      -727.356600525246

DIPOLE MOMENT
-------------
                                X             Y             Z
Electronic contribution:      0.65667      -9.09034      -2.01317
Nuclear contribution   :     -0.92438      10.38956       1.27076
                        -----------------------------------------
Total Dipole Moment    :     -0.26771       1.29922      -0.74241
                        -----------------------------------------
Magnitude (a.u.)       :      1.52014
Magnitude (Debye)      :      3.86388

Rotational constants in cm-1:     0.154243     0.082247     0.080562
Rotational constants in MHz :  4624.087322  2465.703680  2415.175852

                             ****ORCA TERMINATED NORMALLY****
TOTAL RUN TIME: 0 days 0 hours 0 minutes 13 seconds 89 msec
