                         Program Version 5.0.0 -  RELEASE  -
|  1> !TPSS D3BJ RIJCOSX def2-SVPD def2/J TightSCF xyzfile
|  2>
|  3> *xyzfile 0 1 D2.xyz
|  4>
|  5> %MaxCore 64000
|  6>
|  7> %pal nprocs 4
|  8> end
|  9>
| 10> %scf
| 11>   MaxIter 150
| 12> end
| 13>
| 14>
| 15>                          ****END OF INPUT****

CARTESIAN COORDINATES (ANGSTROEM)
---------------------------------
  C     -0.461293    2.234686   -4.989619
  C      0.848883    2.667967   -4.302351
  C      2.093434    1.861037   -4.656845
  H      2.444814    2.041567   -5.674990
  H      2.901748    2.137864   -3.980338
  S      1.879644    0.078594   -4.462965
  C     -0.423841    2.398772   -6.474317
  N     -0.959467    3.492647   -7.007401
  C      0.145585    1.486891   -7.203987
  H      0.565371    0.696807   -6.723858
  H      0.220682    1.581768   -8.207520
  H     -1.406243    4.181507   -6.403261
  H     -0.934215    3.681601   -7.999468
  F      3.207574   -0.466111   -4.420259
  O      1.075064   -0.056160   -3.268758
  O      1.131661   -0.319960   -5.679031
  H      0.668432    2.559427   -3.232850
  H      1.034074    3.729426   -4.497081
  H     -1.288884    2.826737   -4.594997
  H     -0.651696    1.186343   -4.756552

 Total Charge           Charge          ....    0
 Multiplicity           Mult            ....    1
 Number of Electrons    NEL             ....   88
 Basis Dimension        Dim             ....  296

ORBITAL ENERGIES
----------------

  NO   OCC          E(Eh)            E(eV)
   0   2.0000     -88.623375     -2411.5646
   1   2.0000     -24.544667      -667.8943
   2   2.0000     -18.912839      -514.6445
   3   2.0000     -18.902828      -514.3721
   4   2.0000     -14.115185      -384.0937
   5   2.0000     -10.055303      -273.6187
   6   2.0000     -10.027523      -272.8628
   7   2.0000     -10.003893      -272.2198
   8   2.0000     -10.003268      -272.2028
   9   2.0000      -9.910285      -269.6726
  10   2.0000      -7.983902      -217.2530
  11   2.0000      -5.974277      -162.5683
  12   2.0000      -5.967935      -162.3958
  13   2.0000      -5.965564      -162.3312
  14   2.0000      -1.297853       -35.3164
  15   2.0000      -1.035875       -28.1876
  16   2.0000      -0.939284       -25.5592
  17   2.0000      -0.848410       -23.0864
  18   2.0000      -0.764434       -20.8013
  19   2.0000      -0.706129       -19.2147
  20   2.0000      -0.664433       -18.0801
  21   2.0000      -0.641879       -17.4664
  22   2.0000      -0.585006       -15.9188
  23   2.0000      -0.537657       -14.6304
  24   2.0000      -0.532220       -14.4824
  25   2.0000      -0.511663       -13.9231
  26   2.0000      -0.511209       -13.9107
  27   2.0000      -0.470661       -12.8073
  28   2.0000      -0.451745       -12.2926
  29   2.0000      -0.442426       -12.0390
  30   2.0000      -0.429080       -11.6759
  31   2.0000      -0.412672       -11.2294
  32   2.0000      -0.398318       -10.8388
  33   2.0000      -0.365401        -9.9431
  34   2.0000      -0.360863        -9.8196
  35   2.0000      -0.347020        -9.4429
  36   2.0000      -0.332297        -9.0423
  37   2.0000      -0.325791        -8.8652
  38   2.0000      -0.300534        -8.1779
  39   2.0000      -0.296528        -8.0689
  40   2.0000      -0.283014        -7.7012
  41   2.0000      -0.272409        -7.4126
  42   2.0000      -0.255326        -6.9478
  43   2.0000      -0.153710        -4.1827
  44   0.0000      -0.019518        -0.5311
  45   0.0000      -0.001739        -0.0473
  46   0.0000       0.013634         0.3710
  47   0.0000       0.019568         0.5325
  48   0.0000       0.026752         0.7280

MULLIKEN ATOMIC CHARGES
-----------------------
   0 C :    0.290391
   1 C :    0.118308
   2 C :    0.019263
   3 H :    0.248563
   4 H :   -0.126484
   5 S :    1.510097
   6 C :    0.260862
   7 N :   -0.039319
   8 C :    0.622284
   9 H :    0.059213
  10 H :   -0.670325
  11 H :   -0.111541
  12 H :   -0.213054
  13 F :   -0.448117
  14 O :   -0.673799
  15 O :   -0.811199
  16 H :    0.171413
  17 H :   -0.171484
  18 H :   -0.173779
  19 H :    0.138706
Sum of atomic charges:   -0.0000000

LOEWDIN ATOMIC CHARGES
----------------------
   0 C :    0.037924
   1 C :   -0.001044
   2 C :   -0.036058
   3 H :    0.018163
   4 H :    0.009674
   5 S :    1.147993
   6 C :   -0.232387
   7 N :    0.165678
   8 C :    0.203821
   9 H :   -0.184197
  10 H :   -0.073388
  11 H :   -0.005842
  12 H :    0.000834
  13 F :   -0.243320
  14 O :   -0.443347
  15 O :   -0.449313
  16 H :    0.021238
  17 H :    0.031773
  18 H :    0.016382
  19 H :    0.015415

  Mayer bond orders larger than 0.100000
B(  0-C ,  1-C ) :   1.1831 B(  0-C ,  6-C ) :   1.0414 B(  0-C ,  7-N ) :   0.1225
B(  0-C ,  8-C ) :   0.2124 B(  0-C , 16-H ) :   0.1183 B(  0-C , 18-H ) :   0.7891
B(  0-C , 19-H ) :   0.8311 B(  1-C ,  2-C ) :   1.3852 B(  1-C ,  3-H ) :   0.1150
B(  1-C ,  4-H ) :   0.2070 B(  1-C , 16-H ) :   0.7616 B(  1-C , 17-H ) :   0.8960
B(  1-C , 18-H ) :   0.1573 B(  1-C , 19-H ) :   0.1435 B(  2-C ,  3-H ) :   0.8410
B(  2-C ,  4-H ) :   0.8361 B(  2-C ,  5-S ) :   0.9211 B(  2-C ,  9-H ) :   0.1096
B(  2-C , 15-O ) :   0.1758 B(  2-C , 16-H ) :   0.1177 B(  4-H ,  9-H ) :  -0.1123
B(  5-S , 13-F ) :   0.6416 B(  5-S , 14-O ) :   1.5136 B(  5-S , 15-O ) :   1.4282
B(  6-C ,  7-N ) :   0.9357 B(  6-C ,  8-C ) :   1.7521 B(  6-C ,  9-H ) :   0.2853
B(  6-C , 10-H ) :   0.2021 B(  6-C , 12-H ) :  -0.1452 B(  6-C , 18-H ) :   0.1377
B(  7-N ,  8-C ) :   0.3359 B(  7-N , 11-H ) :   1.1861 B(  7-N , 12-H ) :   1.3895
B(  8-C ,  9-H ) :   0.5940 B(  8-C , 10-H ) :   0.8804 B(  9-H , 10-H ) :  -0.3029
B( 11-H , 12-H ) :  -0.1497

Dispersion correction           -0.028900209
FINAL SINGLE POINT ENERGY      -899.291989032313

DIPOLE MOMENT
-------------
                                X             Y             Z
Electronic contribution:      9.18253     -12.43718       5.34882
Nuclear contribution   :     -8.42493      13.96425      -5.19491
                        -----------------------------------------
Total Dipole Moment    :      0.75760       1.52708       0.15392
                        -----------------------------------------
Magnitude (a.u.)       :      1.71161
Magnitude (Debye)      :      4.35056

Rotational constants in cm-1:     0.082815     0.024151     0.022015
Rotational constants in MHz :  2482.732265   724.035221   660.002136

                             ****ORCA TERMINATED NORMALLY****
TOTAL RUN TIME: 0 days 0 hours 0 minutes 32 seconds 867 msec
