                         Program Version 5.0.0 -  RELEASE  -
|  1> !LC-PBE RIJCOSX def2-SVP def2/J TightSCF
|  2> *xyz -1 1
|  3> C         -0.90349       -0.87394       -1.98739
|  4> C         -0.96015       -0.52236       -0.48987
|  5> H         -1.69039       -1.20813       -0.02168
|  6> H         -1.41449        0.48633       -0.40668
|  7> O          0.26170       -0.58031        0.13861
|  8> H         -1.88568       -0.80774       -2.40670
|  9> H         -0.53143       -1.87013       -2.10605
| 10> H         -0.25399       -0.18836       -2.49039
| 11> *
| 12>
| 13> %MaxCore 64000
| 14>
| 15> %pal nprocs 4
| 16> end
| 17>
| 18> %scf
| 19>   MaxIter 150
| 20> end
| 21>
| 22>
| 23>                          ****END OF INPUT****

CARTESIAN COORDINATES (ANGSTROEM)
---------------------------------
  C     -0.903490   -0.873940   -1.987390
  C     -0.960150   -0.522360   -0.489870
  H     -1.690390   -1.208130   -0.021680
  H     -1.414490    0.486330   -0.406680
  O      0.261700   -0.580310    0.138610
  H     -1.885680   -0.807740   -2.406700
  H     -0.531430   -1.870130   -2.106050
  H     -0.253990   -0.188360   -2.490390

 Total Charge           Charge          ....   -1
 Multiplicity           Mult            ....    1
 Number of Electrons    NEL             ....   26
 Basis Dimension        Dim             ....   67

ORBITAL ENERGIES
----------------

  NO   OCC          E(Eh)            E(eV)
   0   2.0000     -18.585061      -505.7252
   1   2.0000      -9.913338      -269.7556
   2   2.0000      -9.903090      -269.4768
   3   2.0000      -0.789844       -21.4928
   4   2.0000      -0.668575       -18.1929
   5   2.0000      -0.501620       -13.6498
   6   2.0000      -0.379311       -10.3216
   7   2.0000      -0.352114        -9.5815
   8   2.0000      -0.290743        -7.9115
   9   2.0000      -0.270765        -7.3679
  10   2.0000      -0.197095        -5.3632
  11   2.0000      -0.045785        -1.2459
  12   2.0000      -0.042260        -1.1500
  13   0.0000       0.341808         9.3011
  14   0.0000       0.389580        10.6010
  15   0.0000       0.401922        10.9369
  16   0.0000       0.409117        11.1326
  17   0.0000       0.453765        12.3476

MULLIKEN ATOMIC CHARGES
-----------------------
   0 C :   -0.106426
   1 C :    0.148304
   2 H :   -0.120883
   3 H :   -0.122065
   4 O :   -0.727945
   5 H :   -0.056133
   6 H :   -0.007437
   7 H :   -0.007415
Sum of atomic charges:   -1.0000000

LOEWDIN ATOMIC CHARGES
----------------------
   0 C :   -0.146181
   1 C :   -0.022509
   2 H :   -0.063965
   3 H :   -0.064547
   4 O :   -0.693623
   5 H :   -0.015003
   6 H :    0.002917
   7 H :    0.002910

  Mayer bond orders larger than 0.100000
B(  0-C ,  1-C ) :   0.9805 B(  0-C ,  5-H ) :   0.9503 B(  0-C ,  6-H ) :   0.9711
B(  0-C ,  7-H ) :   0.9712 B(  1-C ,  2-H ) :   0.9048 B(  1-C ,  3-H ) :   0.9036
B(  1-C ,  4-O ) :   1.5012

FINAL SINGLE POINT ENERGY      -153.802824017481

DIPOLE MOMENT
-------------
                                X             Y             Z
Electronic contribution:      2.05083       0.15169       2.16447
Nuclear contribution   :     -2.90669      -0.27617      -3.31210
                        -----------------------------------------
Total Dipole Moment    :     -0.85587      -0.12448      -1.14763
                        -----------------------------------------
Magnitude (a.u.)       :      1.43703
Magnitude (Debye)      :      3.65264

Rotational constants in cm-1:     1.291883     0.321656     0.284469
Rotational constants in MHz : 38729.676116  9643.011620  8528.167295

                             ****ORCA TERMINATED NORMALLY****
TOTAL RUN TIME: 0 days 0 hours 0 minutes 7 seconds 924 msec
