                         Program Version 5.0.0 -  RELEASE  -
|  1> !LC-PBE RIJCOSX def2-SVP def2/J TightSCF
|  2> *xyz 1 1
|  3> C          4.36645       -0.13321       -1.41606
|  4> C          4.50829       -0.93187       -2.72425
|  5> C          3.05650       -0.32080       -0.70738
|  6> N          2.38983        0.71129       -0.24391
|  7> N          2.51600       -1.50772       -0.55023
|  8> H          2.96768       -2.32291       -0.95631
|  9> H          1.54987       -1.49063       -0.24988
| 10> H          2.74307        1.64947       -0.41280
| 11> H          1.44036        0.50278        0.03703
| 12> H          4.48784        0.93300       -1.61157
| 13> H          5.16967       -0.41443       -0.72982
| 14> H          5.46700       -0.73824       -3.15818
| 15> H          3.74074       -0.63528       -3.40821
| 16> H          4.41574       -1.97727       -2.51573
| 17> *
| 18>
| 19> %MaxCore 64000
| 20>
| 21> %pal nprocs 4
| 22> end
| 23>
| 24> %scf
| 25>   MaxIter 150
| 26> end
| 27>
| 28>
| 29>                          ****END OF INPUT****

CARTESIAN COORDINATES (ANGSTROEM)
---------------------------------
  C      4.366450   -0.133210   -1.416060
  C      4.508290   -0.931870   -2.724250
  C      3.056500   -0.320800   -0.707380
  N      2.389830    0.711290   -0.243910
  N      2.516000   -1.507720   -0.550230
  H      2.967680   -2.322910   -0.956310
  H      1.549870   -1.490630   -0.249880
  H      2.743070    1.649470   -0.412800
  H      1.440360    0.502780    0.037030
  H      4.487840    0.933000   -1.611570
  H      5.169670   -0.414430   -0.729820
  H      5.467000   -0.738240   -3.158180
  H      3.740740   -0.635280   -3.408210
  H      4.415740   -1.977270   -2.515730

 Total Charge           Charge          ....    1
 Multiplicity           Mult            ....    1
 Number of Electrons    NEL             ....   40
 Basis Dimension        Dim             ....  115

ORBITAL ENERGIES
----------------

  NO   OCC          E(Eh)            E(eV)
   0   2.0000     -14.475940      -393.9103
   1   2.0000     -14.475003      -393.8849
   2   2.0000     -10.457330      -284.5584
   3   2.0000     -10.328857      -281.0625
   4   2.0000     -10.285448      -279.8813
   5   2.0000      -1.385237       -37.6942
   6   2.0000      -1.267809       -34.4988
   7   2.0000      -1.144044       -31.1310
   8   2.0000      -1.019675       -27.7468
   9   2.0000      -0.973946       -26.5024
  10   2.0000      -0.920240       -25.0410
  11   2.0000      -0.904895       -24.6234
  12   2.0000      -0.845146       -22.9976
  13   2.0000      -0.813796       -22.1445
  14   2.0000      -0.770739       -20.9729
  15   2.0000      -0.746225       -20.3058
  16   2.0000      -0.690236       -18.7823
  17   2.0000      -0.673878       -18.3372
  18   2.0000      -0.657304       -17.8862
  19   2.0000      -0.624646       -16.9975
  20   0.0000      -0.112528        -3.0621
  21   0.0000      -0.052207        -1.4206
  22   0.0000      -0.008180        -0.2226
  23   0.0000      -0.003801        -0.1034
  24   0.0000       0.034739         0.9453

MULLIKEN ATOMIC CHARGES
-----------------------
   0 C :   -0.118977
   1 C :   -0.147687
   2 C :   -0.036424
   3 N :   -0.057768
   4 N :   -0.054779
   5 H :    0.215025
   6 H :    0.200387
   7 H :    0.220507
   8 H :    0.198099
   9 H :    0.107381
  10 H :    0.159900
  11 H :    0.127023
  12 H :    0.104105
  13 H :    0.083208
Sum of atomic charges:    1.0000000

LOEWDIN ATOMIC CHARGES
----------------------
   0 C :   -0.064270
   1 C :   -0.062011
   2 C :    0.159387
   3 N :    0.080969
   4 N :    0.078496
   5 H :    0.128335
   6 H :    0.118350
   7 H :    0.132048
   8 H :    0.117801
   9 H :    0.065575
  10 H :    0.087028
  11 H :    0.067072
  12 H :    0.051542
  13 H :    0.039679

  Mayer bond orders larger than 0.100000
B(  0-C ,  1-C ) :   1.0566 B(  0-C ,  2-C ) :   0.9963 B(  0-C ,  9-H ) :   0.9337
B(  0-C , 10-H ) :   0.9171 B(  1-C , 11-H ) :   0.9595 B(  1-C , 12-H ) :   0.9747
B(  1-C , 13-H ) :   0.9712 B(  2-C ,  3-N ) :   1.5217 B(  2-C ,  4-N ) :   1.5067
B(  3-N ,  7-H ) :   0.9101 B(  3-N ,  8-H ) :   0.9245 B(  4-N ,  5-H ) :   0.9161
B(  4-N ,  6-H ) :   0.9234

FINAL SINGLE POINT ENERGY      -228.116304176168

DIPOLE MOMENT
-------------
                                X             Y             Z
Electronic contribution:     -2.71127       0.63234       3.13725
Nuclear contribution   :      1.78847      -0.48174      -2.67127
                        -----------------------------------------
Total Dipole Moment    :     -0.92280       0.15060       0.46597
                        -----------------------------------------
Magnitude (a.u.)       :      1.04469
Magnitude (Debye)      :      2.65538

Rotational constants in cm-1:     0.286883     0.123210     0.094446
Rotational constants in MHz :  8600.540572  3693.747366  2831.415242

                             ****ORCA TERMINATED NORMALLY****
TOTAL RUN TIME: 0 days 0 hours 0 minutes 14 seconds 565 msec
