                         Program Version 5.0.0 -  RELEASE  -
|  1> !LC-PBE RIJCOSX def2-TZVP def2/J TightSCF xyzfile
|  2>
|  3> *xyzfile 0 1 B.xyz
|  4>
|  5> %MaxCore 64000
|  6>
|  7> %pal nprocs 18
|  8> end
|  9>
| 10> %scf
| 11>   MaxIter 150
| 12> end
| 13>
| 14>
| 15>                          ****END OF INPUT****

CARTESIAN COORDINATES (ANGSTROEM)
---------------------------------
  C      4.366454   -0.133215   -1.416062
  C      4.508292   -0.931872   -2.724249
  H      4.753716   -1.972051   -2.488408
  C      3.294164   -0.918214   -3.656570
  H      5.385637   -0.536236   -3.242640
  H      2.483463   -1.477378   -3.185764
  H      3.553092   -1.478495   -4.560331
  C      2.772335    0.460100   -4.051448
  H      2.608762    1.065107   -3.155194
  C      1.465354    0.410537   -4.853644
  H      3.532940    0.988848   -4.635671
  C      0.326171   -0.375613   -4.192580
  H      1.666704   -0.022269   -5.839323
  H      1.138198    1.439246   -5.035449
  C     -0.017405    0.080588   -2.778406
  H      0.585573   -1.439385   -4.168057
  H     -0.560005   -0.311425   -4.831461
  H      0.902090    0.201296   -2.206729
  C     -0.903495   -0.873945   -1.987388
  H     -0.479549    1.074657   -2.811915
  H     -0.502554   -1.892096   -2.081204
  H     -1.917039   -0.895427   -2.406277
  C     -0.960148   -0.522365   -0.489867
  H     -1.690392   -1.208130   -0.021677
  H     -1.414490    0.486329   -0.406677
  O      0.261703   -0.580307    0.138611
  C      3.056503   -0.320797   -0.707384
  N      2.389825    0.711285   -0.243909
  N      2.515999   -1.507721   -0.550229
  H      2.967683   -2.322915   -0.956305
  H      1.549872   -1.490634   -0.249876
  H      2.743071    1.649471   -0.412802
  H      1.440364    0.502778    0.037031
  H      4.487835    0.932997   -1.611569
  H      5.169672   -0.414432   -0.729817

 Total Charge           Charge          ....    0
 Multiplicity           Mult            ....    1
 Number of Electrons    NEL             ....  104
 Basis Dimension        Dim             ....  535

ORBITAL ENERGIES
----------------

  NO   OCC          E(Eh)            E(eV)
   0   2.0000     -18.840843      -512.6854
   1   2.0000     -14.241091      -387.5198
   2   2.0000     -14.240686      -387.5088
   3   2.0000     -10.248672      -278.8805
   4   2.0000     -10.162860      -276.5455
   5   2.0000     -10.147112      -276.1169
   6   2.0000     -10.124583      -275.5039
   7   2.0000     -10.117999      -275.3247
   8   2.0000     -10.109073      -275.0819
   9   2.0000     -10.097840      -274.7762
  10   2.0000     -10.092629      -274.6344
  11   2.0000     -10.083573      -274.3880
  12   2.0000     -10.070025      -274.0193
  13   2.0000      -1.186649       -32.2904
  14   2.0000      -1.069133       -29.0926
  15   2.0000      -1.051849       -28.6223
  16   2.0000      -1.018173       -27.7059
  17   2.0000      -0.979220       -26.6459
  18   2.0000      -0.935679       -25.4611
  19   2.0000      -0.892058       -24.2741
  20   2.0000      -0.850799       -23.1514
  21   2.0000      -0.799785       -21.7633
  22   2.0000      -0.783310       -21.3150
  23   2.0000      -0.770256       -20.9597
  24   2.0000      -0.723893       -19.6981
  25   2.0000      -0.708553       -19.2807
  26   2.0000      -0.700916       -19.0729
  27   2.0000      -0.679546       -18.4914
  28   2.0000      -0.656098       -17.8533
  29   2.0000      -0.641544       -17.4573
  30   2.0000      -0.631801       -17.1922
  31   2.0000      -0.609598       -16.5880
  32   2.0000      -0.592179       -16.1140
  33   2.0000      -0.571315       -15.5463
  34   2.0000      -0.561263       -15.2727
  35   2.0000      -0.553660       -15.0659
  36   2.0000      -0.547972       -14.9111
  37   2.0000      -0.543546       -14.7906
  38   2.0000      -0.516079       -14.0432
  39   2.0000      -0.505880       -13.7657
  40   2.0000      -0.493581       -13.4310
  41   2.0000      -0.484348       -13.1798
  42   2.0000      -0.472741       -12.8639
  43   2.0000      -0.467249       -12.7145
  44   2.0000      -0.447553       -12.1785
  45   2.0000      -0.439579       -11.9616
  46   2.0000      -0.428749       -11.6668
  47   2.0000      -0.427082       -11.6215
  48   2.0000      -0.419397       -11.4124
  49   2.0000      -0.410763       -11.1774
  50   2.0000      -0.305889        -8.3237
  51   2.0000      -0.301367        -8.2006
  52   0.0000       0.067157         1.8274
  53   0.0000       0.087960         2.3935
  54   0.0000       0.104640         2.8474
  55   0.0000       0.123519         3.3611
  56   0.0000       0.133541         3.6338

MULLIKEN ATOMIC CHARGES
-----------------------
   0 C :   -0.314961
   1 C :   -0.379219
   2 H :    0.186435
   3 C :   -0.301260
   4 H :    0.167746
   5 H :    0.168487
   6 H :    0.164077
   7 C :   -0.352524
   8 H :    0.156581
   9 C :   -0.228292
  10 H :    0.155489
  11 C :   -0.360246
  12 H :    0.149496
  13 H :    0.149229
  14 C :   -0.228113
  15 H :    0.162700
  16 H :    0.152108
  17 H :    0.065109
  18 C :   -0.249482
  19 H :    0.138066
  20 H :    0.108397
  21 H :    0.116956
  22 C :   -0.021994
  23 H :    0.081200
  24 H :    0.066018
  25 O :   -0.769471
  26 C :    0.164953
  27 N :   -0.345037
  28 N :   -0.322034
  29 H :    0.266429
  30 H :    0.300305
  31 H :    0.259522
  32 H :    0.317743
  33 H :    0.180850
  34 H :    0.194736
Sum of atomic charges:   -0.0000000

LOEWDIN ATOMIC CHARGES
----------------------
   0 C :   -0.231896
   1 C :   -0.278084
   2 H :    0.146145
   3 C :   -0.286270
   4 H :    0.152845
   5 H :    0.148217
   6 H :    0.150123
   7 C :   -0.288097
   8 H :    0.140333
   9 C :   -0.283252
  10 H :    0.143510
  11 C :   -0.291673
  12 H :    0.143726
  13 H :    0.145265
  14 C :   -0.292279
  15 H :    0.140599
  16 H :    0.143989
  17 H :    0.140882
  18 C :   -0.306453
  19 H :    0.142237
  20 H :    0.133727
  21 H :    0.136308
  22 C :   -0.484657
  23 H :    0.110843
  24 H :    0.107748
  25 O :   -0.316551
  26 C :   -0.335805
  27 N :    0.081397
  28 N :    0.086604
  29 H :    0.185237
  30 H :    0.154359
  31 H :    0.183741
  32 H :    0.151766
  33 H :    0.157922
  34 H :    0.167495

  Mayer bond orders larger than 0.100000
B(  0-C ,  1-C ) :   0.8971 B(  0-C , 26-C ) :   0.9391 B(  0-C , 33-H ) :   0.9860
B(  0-C , 34-H ) :   0.9577 B(  1-C ,  2-H ) :   0.9971 B(  1-C ,  3-C ) :   0.9108
B(  1-C ,  4-H ) :   0.9726 B(  3-C ,  5-H ) :   0.9814 B(  3-C ,  6-H ) :   0.9725
B(  3-C ,  7-C ) :   0.8791 B(  7-C ,  8-H ) :   0.9841 B(  7-C ,  9-C ) :   0.9427
B(  7-C , 10-H ) :   0.9741 B(  9-C , 11-C ) :   0.9298 B(  9-C , 12-H ) :   0.9881
B(  9-C , 13-H ) :   0.9888 B( 11-C , 14-C ) :   0.9129 B( 11-C , 15-H ) :   0.9941
B( 11-C , 16-H ) :   0.9818 B( 14-C , 17-H ) :   0.9754 B( 14-C , 18-C ) :   0.9629
B( 14-C , 19-H ) :   0.9672 B( 18-C , 20-H ) :   0.9765 B( 18-C , 21-H ) :   0.9669
B( 18-C , 22-C ) :   0.9509 B( 22-C , 23-H ) :   0.9821 B( 22-C , 24-H ) :   0.9805
B( 22-C , 25-O ) :   1.1365 B( 25-O , 30-H ) :   0.2375 B( 25-O , 32-H ) :   0.2340
B( 26-C , 27-N ) :   1.5149 B( 26-C , 28-N ) :   1.4778 B( 27-N , 31-H ) :   0.9081
B( 27-N , 32-H ) :   0.7279 B( 28-N , 29-H ) :   0.9062 B( 28-N , 30-H ) :   0.7340

FINAL SINGLE POINT ENERGY      -577.341652824335

DIPOLE MOMENT
-------------
                                X             Y             Z
Electronic contribution:      2.85391      -0.25856       7.47037
Nuclear contribution   :     -0.17996       0.53390      -8.68067
                        -----------------------------------------
Total Dipole Moment    :      2.67395       0.27534      -1.21029
                        -----------------------------------------
Magnitude (a.u.)       :      2.94798
Magnitude (Debye)      :      7.49318

Rotational constants in cm-1:     0.028240     0.022734     0.014600
Rotational constants in MHz :   846.611263   681.554306   437.693928

                             ****ORCA TERMINATED NORMALLY****
TOTAL RUN TIME: 0 days 0 hours 1 minutes 18 seconds 982 msec
