                         Program Version 5.0.0 -  RELEASE  -
|  1> !LC-PBE RIJCOSX def2-SVP def2/J TightSCF
|  2> *xyz 0 1
|  3> C         -0.90349       -0.87394       -1.98739
|  4> C         -0.96015       -0.52236       -0.48987
|  5> H         -1.69039       -1.20813       -0.02168
|  6> H         -1.41449        0.48633       -0.40668
|  7> F          0.26170       -0.58031        0.13861
|  8> H         -1.88568       -0.80774       -2.40670
|  9> H         -0.53143       -1.87013       -2.10605
| 10> H         -0.25399       -0.18836       -2.49039
| 11> *
| 12>
| 13> %MaxCore 64000
| 14>
| 15> %pal nprocs 4
| 16> end
| 17>
| 18> %scf
| 19>   MaxIter 150
| 20> end
| 21>
| 22>
| 23>                          ****END OF INPUT****

CARTESIAN COORDINATES (ANGSTROEM)
---------------------------------
  C     -0.903490   -0.873940   -1.987390
  C     -0.960150   -0.522360   -0.489870
  H     -1.690390   -1.208130   -0.021680
  H     -1.414490    0.486330   -0.406680
  F      0.261700   -0.580310    0.138610
  H     -1.885680   -0.807740   -2.406700
  H     -0.531430   -1.870130   -2.106050
  H     -0.253990   -0.188360   -2.490390

 Total Charge           Charge          ....    0
 Multiplicity           Mult            ....    1
 Number of Electrons    NEL             ....   26
 Basis Dimension        Dim             ....   67

ORBITAL ENERGIES
----------------

  NO   OCC          E(Eh)            E(eV)
   0   2.0000     -24.469675      -665.8537
   1   2.0000     -10.200689      -277.5749
   2   2.0000     -10.120301      -275.3874
   3   2.0000      -1.320964       -35.9453
   4   2.0000      -0.931049       -25.3351
   5   2.0000      -0.783177       -21.3113
   6   2.0000      -0.645805       -17.5732
   7   2.0000      -0.641275       -17.4500
   8   2.0000      -0.596142       -16.2219
   9   2.0000      -0.539571       -14.6825
  10   2.0000      -0.534686       -14.5495
  11   2.0000      -0.463043       -12.6000
  12   2.0000      -0.455824       -12.4036
  13   0.0000       0.156621         4.2619
  14   0.0000       0.204401         5.5620
  15   0.0000       0.211284         5.7493
  16   0.0000       0.229123         6.2348
  17   0.0000       0.250444         6.8149

MULLIKEN ATOMIC CHARGES
-----------------------
   0 C :   -0.193814
   1 C :    0.119781
   2 H :    0.055209
   3 H :    0.055586
   4 F :   -0.254821
   5 H :    0.065988
   6 H :    0.076013
   7 H :    0.076057
Sum of atomic charges:   -0.0000000

LOEWDIN ATOMIC CHARGES
----------------------
   0 C :   -0.110659
   1 C :    0.078908
   2 H :    0.022808
   3 H :    0.023387
   4 F :   -0.133899
   5 H :    0.042599
   6 H :    0.038429
   7 H :    0.038427

  Mayer bond orders larger than 0.100000
B(  0-C ,  1-C ) :   1.0661 B(  0-C ,  5-H ) :   0.9657 B(  0-C ,  6-H ) :   0.9736
B(  0-C ,  7-H ) :   0.9737 B(  1-C ,  2-H ) :   0.9642 B(  1-C ,  3-H ) :   0.9641
B(  1-C ,  4-F ) :   1.0166

FINAL SINGLE POINT ENERGY      -178.422219948814

DIPOLE MOMENT
-------------
                                X             Y             Z
Electronic contribution:      3.21556       0.38009       3.99358
Nuclear contribution   :     -3.84149      -0.36812      -4.38946
                        -----------------------------------------
Total Dipole Moment    :     -0.62593       0.01197      -0.39588
                        -----------------------------------------
Magnitude (a.u.)       :      0.74071
Magnitude (Debye)      :      1.88274

Rotational constants in cm-1:     1.270659     0.299196     0.265842
Rotational constants in MHz : 38093.410361  8969.665806  7969.741481

                             ****ORCA TERMINATED NORMALLY****
TOTAL RUN TIME: 0 days 0 hours 0 minutes 7 seconds 539 msec
