                         Program Version 5.0.0 -  RELEASE  -
|  1> !LC-PBE RIJCOSX def2-SVP def2/J TightSCF
|  2> *xyz 0 1
|  3> C          4.36645       -0.13321       -1.41606
|  4> C          4.50829       -0.93187       -2.72425
|  5> C          3.05650       -0.32080       -0.70738
|  6> C          2.38983        0.71129       -0.24391
|  7> N          2.51600       -1.50772       -0.55023
|  8> H          2.96768       -2.32291       -0.95631
|  9> H          1.54987       -1.49063       -0.24988
| 10> H          2.74307        1.64947       -0.41280
| 11> H          1.44036        0.50278        0.03703
| 12> H          4.48784        0.93300       -1.61157
| 13> H          5.16967       -0.41443       -0.72982
| 14> H          5.46700       -0.73824       -3.15818
| 15> H          3.74074       -0.63528       -3.40821
| 16> H          4.41574       -1.97727       -2.51573
| 17> *
| 18>
| 19> %MaxCore 64000
| 20>
| 21> %pal nprocs 4
| 22> end
| 23>
| 24> %scf
| 25>   MaxIter 150
| 26> end
| 27>
| 28>
| 29>                          ****END OF INPUT****

CARTESIAN COORDINATES (ANGSTROEM)
---------------------------------
  C      4.366450   -0.133210   -1.416060
  C      4.508290   -0.931870   -2.724250
  C      3.056500   -0.320800   -0.707380
  C      2.389830    0.711290   -0.243910
  N      2.516000   -1.507720   -0.550230
  H      2.967680   -2.322910   -0.956310
  H      1.549870   -1.490630   -0.249880
  H      2.743070    1.649470   -0.412800
  H      1.440360    0.502780    0.037030
  H      4.487840    0.933000   -1.611570
  H      5.169670   -0.414430   -0.729820
  H      5.467000   -0.738240   -3.158180
  H      3.740740   -0.635280   -3.408210
  H      4.415740   -1.977270   -2.515730

 Total Charge           Charge          ....    0
 Multiplicity           Mult            ....    1
 Number of Electrons    NEL             ....   40
 Basis Dimension        Dim             ....  115

ORBITAL ENERGIES
----------------

  NO   OCC          E(Eh)            E(eV)
   0   2.0000     -14.219113      -386.9217
   1   2.0000     -10.143636      -276.0224
   2   2.0000     -10.126200      -275.5479
   3   2.0000     -10.118281      -275.3324
   4   2.0000     -10.052152      -273.5330
   5   2.0000      -1.094830       -29.7918
   6   2.0000      -0.946444       -25.7541
   7   2.0000      -0.882930       -24.0258
   8   2.0000      -0.792661       -21.5694
   9   2.0000      -0.707649       -19.2561
  10   2.0000      -0.676800       -18.4167
  11   2.0000      -0.613846       -16.7036
  12   2.0000      -0.580229       -15.7888
  13   2.0000      -0.569914       -15.5081
  14   2.0000      -0.523897       -14.2560
  15   2.0000      -0.517262       -14.0754
  16   2.0000      -0.487073       -13.2539
  17   2.0000      -0.474362       -12.9080
  18   2.0000      -0.454863       -12.3775
  19   2.0000      -0.302316        -8.2264
  20   0.0000       0.140996         3.8367
  21   0.0000       0.151249         4.1157
  22   0.0000       0.188731         5.1356
  23   0.0000       0.193378         5.2621
  24   0.0000       0.214849         5.8463

MULLIKEN ATOMIC CHARGES
-----------------------
   0 C :   -0.065352
   1 C :   -0.140047
   2 C :   -0.125280
   3 C :   -0.140476
   4 N :   -0.138255
   5 H :    0.136270
   6 H :    0.149008
   7 H :    0.007315
   8 H :   -0.008768
   9 H :    0.062535
  10 H :    0.077198
  11 H :    0.067100
  12 H :    0.071425
  13 H :    0.047328
Sum of atomic charges:    0.0000000

LOEWDIN ATOMIC CHARGES
----------------------
   0 C :   -0.057820
   1 C :   -0.085618
   2 C :    0.005690
   3 C :   -0.203034
   4 N :   -0.029226
   5 H :    0.077253
   6 H :    0.087872
   7 H :    0.009589
   8 H :    0.002312
   9 H :    0.046844
  10 H :    0.044393
  11 H :    0.038239
  12 H :    0.038028
  13 H :    0.025480

  Mayer bond orders larger than 0.100000
B(  0-C ,  1-C ) :   1.0639 B(  0-C ,  2-C ) :   1.0024 B(  0-C ,  9-H ) :   0.9476
B(  0-C , 10-H ) :   0.9460 B(  1-C , 11-H ) :   0.9733 B(  1-C , 12-H ) :   0.9763
B(  1-C , 13-H ) :   0.9759 B(  2-C ,  3-C ) :   1.8816 B(  2-C ,  4-N ) :   1.2559
B(  3-C ,  7-H ) :   0.9557 B(  3-C ,  8-H ) :   0.9603 B(  4-N ,  5-H ) :   0.9532
B(  4-N ,  6-H ) :   0.9443

FINAL SINGLE POINT ENERGY      -211.674616562930

DIPOLE MOMENT
-------------
                                X             Y             Z
Electronic contribution:     -1.47708      -0.50126       2.04922
Nuclear contribution   :      1.56827      -0.21459      -2.46657
                        -----------------------------------------
Total Dipole Moment    :      0.09119      -0.71584      -0.41735
                        -----------------------------------------
Magnitude (a.u.)       :      0.83362
Magnitude (Debye)      :      2.11890

Rotational constants in cm-1:     0.294070     0.127722     0.097792
Rotational constants in MHz :  8815.983970  3829.010547  2931.715816

                             ****ORCA TERMINATED NORMALLY****
TOTAL RUN TIME: 0 days 0 hours 0 minutes 14 seconds 253 msec
