                         Program Version 5.0.0 -  RELEASE  -
|  1> !LC-PBE RIJCOSX def2-SVP def2/J TightSCF
|  2> *xyz 0 1
|  3> C          4.36645       -0.13321       -1.41606
|  4> C          4.50829       -0.93187       -2.72425
|  5> C          3.05650       -0.32080       -0.70738
|  6> N          2.38983        0.71129       -0.24391
|  7> C          2.51600       -1.50772       -0.55023
|  8> H          2.96768       -2.32291       -0.95631
|  9> H          1.54987       -1.49063       -0.24988
| 10> H          2.74307        1.64947       -0.41280
| 11> H          1.44036        0.50278        0.03703
| 12> H          4.48784        0.93300       -1.61157
| 13> H          5.16967       -0.41443       -0.72982
| 14> H          5.46700       -0.73824       -3.15818
| 15> H          3.74074       -0.63528       -3.40821
| 16> H          4.41574       -1.97727       -2.51573
| 17> *
| 18>
| 19> %MaxCore 64000
| 20>
| 21> %pal nprocs 4
| 22> end
| 23>
| 24> %scf
| 25>   MaxIter 150
| 26> end
| 27>
| 28>
| 29>                          ****END OF INPUT****

CARTESIAN COORDINATES (ANGSTROEM)
---------------------------------
  C      4.366450   -0.133210   -1.416060
  C      4.508290   -0.931870   -2.724250
  C      3.056500   -0.320800   -0.707380
  N      2.389830    0.711290   -0.243910
  C      2.516000   -1.507720   -0.550230
  H      2.967680   -2.322910   -0.956310
  H      1.549870   -1.490630   -0.249880
  H      2.743070    1.649470   -0.412800
  H      1.440360    0.502780    0.037030
  H      4.487840    0.933000   -1.611570
  H      5.169670   -0.414430   -0.729820
  H      5.467000   -0.738240   -3.158180
  H      3.740740   -0.635280   -3.408210
  H      4.415740   -1.977270   -2.515730

 Total Charge           Charge          ....    0
 Multiplicity           Mult            ....    1
 Number of Electrons    NEL             ....   40
 Basis Dimension        Dim             ....  115

ORBITAL ENERGIES
----------------

  NO   OCC          E(Eh)            E(eV)
   0   2.0000     -14.219172      -386.9234
   1   2.0000     -10.144038      -276.0333
   2   2.0000     -10.127523      -275.5839
   3   2.0000     -10.111098      -275.1370
   4   2.0000     -10.050406      -273.4855
   5   2.0000      -1.094748       -29.7896
   6   2.0000      -0.948120       -25.7996
   7   2.0000      -0.869965       -23.6729
   8   2.0000      -0.803398       -21.8616
   9   2.0000      -0.696917       -18.9641
  10   2.0000      -0.673662       -18.3313
  11   2.0000      -0.620839       -16.8939
  12   2.0000      -0.594097       -16.1662
  13   2.0000      -0.542614       -14.7653
  14   2.0000      -0.524276       -14.2663
  15   2.0000      -0.514625       -14.0036
  16   2.0000      -0.489170       -13.3110
  17   2.0000      -0.469237       -12.7686
  18   2.0000      -0.457049       -12.4369
  19   2.0000      -0.300703        -8.1826
  20   0.0000       0.147356         4.0098
  21   0.0000       0.148805         4.0492
  22   0.0000       0.187696         5.1075
  23   0.0000       0.192493         5.2380
  24   0.0000       0.219605         5.9758

MULLIKEN ATOMIC CHARGES
-----------------------
   0 C :   -0.066129
   1 C :   -0.126499
   2 C :   -0.127111
   3 N :   -0.146699
   4 C :   -0.139235
   5 H :    0.004774
   6 H :   -0.006147
   7 H :    0.139901
   8 H :    0.146663
   9 H :    0.037956
  10 H :    0.087337
  11 H :    0.058116
  12 H :    0.066379
  13 H :    0.070694
Sum of atomic charges:    0.0000000

LOEWDIN ATOMIC CHARGES
----------------------
   0 C :   -0.059916
   1 C :   -0.076009
   2 C :    0.007049
   3 N :   -0.027531
   4 C :   -0.207630
   5 H :    0.007816
   6 H :    0.002943
   7 H :    0.078883
   8 H :    0.087209
   9 H :    0.029656
  10 H :    0.051549
  11 H :    0.033319
  12 H :    0.036540
  13 H :    0.036121

  Mayer bond orders larger than 0.100000
B(  0-C ,  1-C ) :   1.0839 B(  0-C ,  2-C ) :   0.9767 B(  0-C ,  9-H ) :   0.9528
B(  0-C , 10-H ) :   0.9429 B(  1-C , 11-H ) :   0.9729 B(  1-C , 12-H ) :   0.9781
B(  1-C , 13-H ) :   0.9752 B(  2-C ,  3-N ) :   1.2605 B(  2-C ,  4-C ) :   1.8749
B(  3-N ,  7-H ) :   0.9479 B(  3-N ,  8-H ) :   0.9455 B(  4-C ,  5-H ) :   0.9641
B(  4-C ,  6-H ) :   0.9597

FINAL SINGLE POINT ENERGY      -211.673235019860

DIPOLE MOMENT
-------------
                                X             Y             Z
Electronic contribution:     -1.59227       1.52698       2.34774
Nuclear contribution   :      1.59749      -0.72853      -2.53752
                        -----------------------------------------
Total Dipole Moment    :      0.00522       0.79845      -0.18978
                        -----------------------------------------
Magnitude (a.u.)       :      0.82071
Magnitude (Debye)      :      2.08607

Rotational constants in cm-1:     0.304597     0.124127     0.096828
Rotational constants in MHz :  9131.600925  3721.227051  2902.830760

                             ****ORCA TERMINATED NORMALLY****
TOTAL RUN TIME: 0 days 0 hours 0 minutes 14 seconds 841 msec
