                         Program Version 5.0.0 -  RELEASE  -
|  1> !LC-PBE RIJCOSX def2-TZVP def2/J TightSCF xyzfile
|  2>
|  3> *xyzfile 0 1 D2.xyz
|  4>
|  5> %MaxCore 64000
|  6>
|  7> %pal nprocs 18
|  8> end
|  9>
| 10> %scf
| 11>   MaxIter 150
| 12> end
| 13>
| 14>
| 15>                          ****END OF INPUT****

CARTESIAN COORDINATES (ANGSTROEM)
---------------------------------
  C      4.366454   -0.133215   -1.416062
  C      4.508292   -0.931872   -2.724249
  H      4.753716   -1.972051   -2.488408
  C      3.294164   -0.918214   -3.656570
  H      5.385637   -0.536236   -3.242640
  H      2.483463   -1.477378   -3.185764
  H      3.553092   -1.478495   -4.560331
  C      2.772335    0.460100   -4.051448
  H      2.608762    1.065107   -3.155194
  C      1.465354    0.410537   -4.853644
  H      3.532940    0.988848   -4.635671
  C      0.326171   -0.375613   -4.192580
  H      1.666704   -0.022269   -5.839323
  H      1.138198    1.439246   -5.035449
  C     -0.017405    0.080588   -2.778406
  H      0.585573   -1.439385   -4.168057
  H     -0.560005   -0.311425   -4.831461
  H      0.902090    0.201296   -2.206729
  C     -0.903495   -0.873945   -1.987388
  H     -0.479549    1.074657   -2.811915
  H     -0.502554   -1.892096   -2.081204
  H     -1.917039   -0.895427   -2.406277
  C     -0.960148   -0.522365   -0.489867
  H     -1.690392   -1.208130   -0.021677
  H     -1.414490    0.486329   -0.406677
  F      0.261703   -0.580307    0.138611
  C      3.056503   -0.320797   -0.707384
  N      2.389825    0.711285   -0.243909
  C      2.515999   -1.507721   -0.550229
  H      2.967683   -2.322915   -0.956305
  H      1.549872   -1.490634   -0.249876
  H      2.743071    1.649471   -0.412802
  H      1.440364    0.502778    0.037031
  H      4.487835    0.932997   -1.611569
  H      5.169672   -0.414432   -0.729817

 Total Charge           Charge          ....    0
 Multiplicity           Mult            ....    1
 Number of Electrons    NEL             ....  104
 Basis Dimension        Dim             ....  535

ORBITAL ENERGIES
----------------

  NO   OCC          E(Eh)            E(eV)
   0   2.0000     -24.506394      -666.8529
   1   2.0000     -14.184648      -385.9839
   2   2.0000     -10.207681      -277.7651
   3   2.0000     -10.126080      -275.5447
   4   2.0000     -10.118934      -275.3502
   5   2.0000     -10.107458      -275.0379
   6   2.0000     -10.107222      -275.0315
   7   2.0000     -10.105702      -274.9901
   8   2.0000     -10.104441      -274.9558
   9   2.0000     -10.103559      -274.9318
  10   2.0000     -10.100353      -274.8446
  11   2.0000     -10.094435      -274.6836
  12   2.0000     -10.014620      -272.5117
  13   2.0000      -1.392907       -37.9029
  14   2.0000      -1.090627       -29.6775
  15   2.0000      -1.002098       -27.2685
  16   2.0000      -0.976665       -26.5764
  17   2.0000      -0.949201       -25.8291
  18   2.0000      -0.901678       -24.5359
  19   2.0000      -0.867920       -23.6173
  20   2.0000      -0.856216       -23.2988
  21   2.0000      -0.807001       -21.9596
  22   2.0000      -0.779279       -21.2053
  23   2.0000      -0.747989       -20.3538
  24   2.0000      -0.708598       -19.2819
  25   2.0000      -0.699285       -19.0285
  26   2.0000      -0.681110       -18.5339
  27   2.0000      -0.673567       -18.3287
  28   2.0000      -0.661932       -18.0121
  29   2.0000      -0.631587       -17.1864
  30   2.0000      -0.625212       -17.0129
  31   2.0000      -0.607607       -16.5338
  32   2.0000      -0.595076       -16.1928
  33   2.0000      -0.579082       -15.7576
  34   2.0000      -0.570827       -15.5330
  35   2.0000      -0.554891       -15.0994
  36   2.0000      -0.536099       -14.5880
  37   2.0000      -0.525125       -14.2894
  38   2.0000      -0.514982       -14.0134
  39   2.0000      -0.501341       -13.6422
  40   2.0000      -0.497255       -13.5310
  41   2.0000      -0.491454       -13.3731
  42   2.0000      -0.482151       -13.1200
  43   2.0000      -0.479324       -13.0431
  44   2.0000      -0.460002       -12.5173
  45   2.0000      -0.453916       -12.3517
  46   2.0000      -0.441567       -12.0157
  47   2.0000      -0.435690       -11.8557
  48   2.0000      -0.431104       -11.7309
  49   2.0000      -0.425927       -11.5901
  50   2.0000      -0.421539       -11.4707
  51   2.0000      -0.287836        -7.8324
  52   0.0000       0.112590         3.0637
  53   0.0000       0.121904         3.3172
  54   0.0000       0.128654         3.5008
  55   0.0000       0.134218         3.6522
  56   0.0000       0.137871         3.7516

MULLIKEN ATOMIC CHARGES
-----------------------
   0 C :   -0.296375
   1 C :   -0.345927
   2 H :    0.172256
   3 C :   -0.272643
   4 H :    0.146179
   5 H :    0.169520
   6 H :    0.146948
   7 C :   -0.347048
   8 H :    0.156650
   9 C :   -0.232817
  10 H :    0.151124
  11 C :   -0.370334
  12 H :    0.149606
  13 H :    0.145500
  14 C :   -0.257467
  15 H :    0.172686
  16 H :    0.149959
  17 H :    0.109605
  18 C :   -0.294076
  19 H :    0.147050
  20 H :    0.166447
  21 H :    0.156894
  22 C :   -0.061243
  23 H :    0.154272
  24 H :    0.141565
  25 F :   -0.216895
  26 C :    0.085138
  27 N :   -0.459114
  28 C :   -0.493075
  29 H :    0.128466
  30 H :    0.167482
  31 H :    0.238394
  32 H :    0.271046
  33 H :    0.151740
  34 H :    0.168485
Sum of atomic charges:   -0.0000000

LOEWDIN ATOMIC CHARGES
----------------------
   0 C :   -0.234101
   1 C :   -0.275240
   2 H :    0.146882
   3 C :   -0.286033
   4 H :    0.143875
   5 H :    0.149320
   6 H :    0.143586
   7 C :   -0.285923
   8 H :    0.141760
   9 C :   -0.282950
  10 H :    0.142862
  11 C :   -0.288317
  12 H :    0.144701
  13 H :    0.143250
  14 C :   -0.289289
  15 H :    0.145320
  16 H :    0.142447
  17 H :    0.153874
  18 C :   -0.291174
  19 H :    0.143109
  20 H :    0.152251
  21 H :    0.151246
  22 C :   -0.355342
  23 H :    0.136110
  24 H :    0.135385
  25 F :    0.148819
  26 C :   -0.392813
  27 N :   -0.018464
  28 C :   -0.300720
  29 H :    0.107967
  30 H :    0.100108
  31 H :    0.167752
  32 H :    0.157964
  33 H :    0.143449
  34 H :    0.158328

  Mayer bond orders larger than 0.100000
B(  0-C ,  1-C ) :   0.9262 B(  0-C , 26-C ) :   0.8903 B(  0-C , 33-H ) :   1.0049
B(  0-C , 34-H ) :   0.9724 B(  1-C ,  2-H ) :   0.9907 B(  1-C ,  3-C ) :   0.9392
B(  1-C ,  4-H ) :   0.9814 B(  3-C ,  5-H ) :   0.9732 B(  3-C ,  6-H ) :   0.9733
B(  3-C ,  7-C ) :   0.8811 B(  7-C ,  8-H ) :   0.9848 B(  7-C ,  9-C ) :   0.9411
B(  7-C , 10-H ) :   0.9780 B(  9-C , 11-C ) :   0.9410 B(  9-C , 12-H ) :   0.9869
B(  9-C , 13-H ) :   0.9907 B( 11-C , 14-C ) :   0.9251 B( 11-C , 15-H ) :   0.9881
B( 11-C , 16-H ) :   0.9808 B( 14-C , 17-H ) :   0.9820 B( 14-C , 18-C ) :   0.9332
B( 14-C , 19-H ) :   0.9716 B( 18-C , 20-H ) :   0.9675 B( 18-C , 21-H ) :   0.9592
B( 18-C , 22-C ) :   0.9732 B( 22-C , 23-H ) :   0.9829 B( 22-C , 24-H ) :   0.9787
B( 22-C , 25-F ) :   0.9248 B( 26-C , 27-N ) :   1.1571 B( 26-C , 28-C ) :   1.7166
B( 27-N , 31-H ) :   0.9264 B( 27-N , 32-H ) :   0.8831 B( 28-C , 29-H ) :   1.0046
B( 28-C , 30-H ) :   0.9803

FINAL SINGLE POINT ENERGY      -585.263631230378

DIPOLE MOMENT
-------------
                                X             Y             Z
Electronic contribution:     -2.81498       0.02894      10.63830
Nuclear contribution   :      1.85154       0.58682     -11.15333
                        -----------------------------------------
Total Dipole Moment    :     -0.96345       0.61576      -0.51503
                        -----------------------------------------
Magnitude (a.u.)       :      1.25405
Magnitude (Debye)      :      3.18755

Rotational constants in cm-1:     0.028379     0.022321     0.014415
Rotational constants in MHz :   850.785777   669.176075   432.155504

                             ****ORCA TERMINATED NORMALLY****
TOTAL RUN TIME: 0 days 0 hours 1 minutes 21 seconds 92 msec
