                         Program Version 5.0.0 -  RELEASE  -
|  1> !wB97X-D3 RIJCOSX def2-SVPD def2/J TightSCF
|  2> *xyz -1 1
|  3> C          1.44442        5.26658       -0.97546
|  4> O          1.56525        4.23349       -1.86489
|  5> H          1.76623        6.17572       -1.43893
|  6> H          2.05096        5.07018       -0.11614
|  7> H          0.42160        5.36155       -0.67592
|  8> *
|  9> %MaxCore 64000
| 10>
| 11> %pal nprocs 8
| 12> end
| 13>
| 14> %scf
| 15>   MaxIter 150
| 16> end
| 17>
| 18>
| 19>                          ****END OF INPUT****

CARTESIAN COORDINATES (ANGSTROEM)
---------------------------------
  C      1.444420    5.266580   -0.975460
  O      1.565250    4.233490   -1.864890
  H      1.766230    6.175720   -1.438930
  H      2.050960    5.070180   -0.116140
  H      0.421600    5.361550   -0.675920

 Total Charge           Charge          ....   -1
 Multiplicity           Mult            ....    1
 Number of Electrons    NEL             ....   18
 Basis Dimension        Dim             ....   67

ORBITAL ENERGIES
----------------

  NO   OCC          E(Eh)            E(eV)
   0   2.0000     -18.887434      -513.9532
   1   2.0000     -10.074109      -274.1304
   2   2.0000      -0.762023       -20.7357
   3   2.0000      -0.500032       -13.6066
   4   2.0000      -0.295353        -8.0370
   5   2.0000      -0.295317        -8.0360
   6   2.0000      -0.193825        -5.2743
   7   2.0000      -0.040572        -1.1040
   8   2.0000      -0.040561        -1.1037
   9   0.0000       0.264341         7.1931
  10   0.0000       0.340114         9.2550
  11   0.0000       0.340119         9.2551
  12   0.0000       0.347866         9.4659
  13   0.0000       0.385520        10.4905

MULLIKEN ATOMIC CHARGES
-----------------------
   0 C :    0.777677
   1 O :   -1.042754
   2 H :   -0.244989
   3 H :   -0.245030
   4 H :   -0.244904
Sum of atomic charges:   -1.0000000

LOEWDIN ATOMIC CHARGES
----------------------
   0 C :   -0.115817
   1 O :   -0.659971
   2 H :   -0.074712
   3 H :   -0.074742
   4 H :   -0.074758

  Mayer bond orders larger than 0.100000
B(  0-C ,  1-O ) :   1.2010 B(  0-C ,  2-H ) :   0.9176 B(  0-C ,  3-H ) :   0.9173
B(  0-C ,  4-H ) :   0.9171

Dispersion correction           -0.000090124
FINAL SINGLE POINT ENERGY      -114.980401214559

DIPOLE MOMENT
-------------
                                X             Y             Z
Electronic contribution:      0.15903      -1.35887      -1.17008
Nuclear contribution   :     -0.25440       2.17514       1.87266
                        -----------------------------------------
Total Dipole Moment    :     -0.09537       0.81627       0.70258
                        -----------------------------------------
Magnitude (a.u.)       :      1.08121
Magnitude (Debye)      :      2.74822

Rotational constants in cm-1:     5.477715     0.940444     0.940443
Rotational constants in MHz : 164217.753846 28193.799011 28193.774483

                             ****ORCA TERMINATED NORMALLY****
TOTAL RUN TIME: 0 days 0 hours 0 minutes 3 seconds 247 msec
