                         Program Version 5.0.0 -  RELEASE  -
|  1> !wB97X-D3 RIJCOSX def2-SVPD def2/J TightSCF
|  2> *xyz 1 1
|  3> C         -0.70169        4.07250       -4.00392
|  4> N          0.68053        4.61482       -4.04800
|  5> H          0.69993        5.58489       -4.38827
|  6> H          1.27804        4.05598       -4.66824
|  7> H          1.08573        4.53358       -3.10652
|  8> H         -1.14500        4.14653       -4.97495
|  9> H         -1.28296        4.63405       -3.30271
| 10> H         -0.67274        3.04629       -3.70235
| 11> *
| 12> %MaxCore 64000
| 13>
| 14> %pal nprocs 8
| 15> end
| 16>
| 17> %scf
| 18>   MaxIter 150
| 19> end
| 20>
| 21>
| 22>                          ****END OF INPUT****

CARTESIAN COORDINATES (ANGSTROEM)
---------------------------------
  C     -0.701690    4.072500   -4.003920
  N      0.680530    4.614820   -4.048000
  H      0.699930    5.584890   -4.388270
  H      1.278040    4.055980   -4.668240
  H      1.085730    4.533580   -3.106520
  H     -1.145000    4.146530   -4.974950
  H     -1.282960    4.634050   -3.302710
  H     -0.672740    3.046290   -3.702350

 Total Charge           Charge          ....    1
 Multiplicity           Mult            ....    1
 Number of Electrons    NEL             ....   18
 Basis Dimension        Dim             ....   88

ORBITAL ENERGIES
----------------

  NO   OCC          E(Eh)            E(eV)
   0   2.0000     -14.788757      -402.4225
   1   2.0000     -10.547779      -287.0197
   2   2.0000      -1.336518       -36.3685
   3   2.0000      -1.047037       -28.4913
   4   2.0000      -0.920043       -25.0356
   5   2.0000      -0.909826       -24.7576
   6   2.0000      -0.814544       -22.1649
   7   2.0000      -0.725599       -19.7446
   8   2.0000      -0.723889       -19.6980
   9   0.0000      -0.121962        -3.3187
  10   0.0000      -0.054064        -1.4712
  11   0.0000      -0.050387        -1.3711
  12   0.0000      -0.049015        -1.3338
  13   0.0000      -0.002898        -0.0788

MULLIKEN ATOMIC CHARGES
-----------------------
   0 C :    0.749514
   1 N :   -0.881145
   2 H :    0.391260
   3 H :    0.385916
   4 H :    0.405368
   5 H :   -0.024107
   6 H :   -0.014607
   7 H :   -0.012198
Sum of atomic charges:    1.0000000

LOEWDIN ATOMIC CHARGES
----------------------
   0 C :    0.278268
   1 N :    0.307004
   2 H :    0.113960
   3 H :    0.109584
   4 H :    0.111048
   5 H :    0.025975
   6 H :    0.026921
   7 H :    0.027240

  Mayer bond orders larger than 0.100000
B(  0-C ,  1-N ) :   0.7925 B(  0-C ,  5-H ) :   0.9315 B(  0-C ,  6-H ) :   0.9205
B(  0-C ,  7-H ) :   0.9171 B(  1-N ,  2-H ) :   0.7597 B(  1-N ,  3-H ) :   0.7718
B(  1-N ,  4-H ) :   0.7443

Dispersion correction           -0.000499704
FINAL SINGLE POINT ENERGY       -96.124350095222

DIPOLE MOMENT
-------------
                                X             Y             Z
Electronic contribution:      1.02207       0.42674      -0.03897
Nuclear contribution   :     -0.21844      -0.13976       0.01729
                        -----------------------------------------
Total Dipole Moment    :      0.80363       0.28698      -0.02168
                        -----------------------------------------
Magnitude (a.u.)       :      0.85361
Magnitude (Debye)      :      2.16971

Rotational constants in cm-1:     2.865765     0.688517     0.685249
Rotational constants in MHz : 85913.460223 20641.211162 20543.252263

                             ****ORCA TERMINATED NORMALLY****
TOTAL RUN TIME: 0 days 0 hours 0 minutes 4 seconds 408 msec
