                         Program Version 5.0.0 -  RELEASE  -
|  1> !wB97X-D3 RIJCOSX def2-SVPD def2/J TightSCF
|  2> *xyz 0 1
|  3> C         -0.70169        4.07250       -4.00392
|  4> C          0.68053        4.61482       -4.04800
|  5> H          0.69993        5.58489       -4.38827
|  6> H          1.27804        4.05598       -4.66824
|  7> H          1.08573        4.53358       -3.10652
|  8> H         -1.14500        4.14653       -4.97495
|  9> H         -1.28296        4.63405       -3.30271
| 10> H         -0.67274        3.04629       -3.70235
| 11> *
| 12> %MaxCore 64000
| 13>
| 14> %pal nprocs 8
| 15> end
| 16>
| 17> %scf
| 18>   MaxIter 150
| 19> end
| 20>
| 21>
| 22>                          ****END OF INPUT****

CARTESIAN COORDINATES (ANGSTROEM)
---------------------------------
  C     -0.701690    4.072500   -4.003920
  C      0.680530    4.614820   -4.048000
  H      0.699930    5.584890   -4.388270
  H      1.278040    4.055980   -4.668240
  H      1.085730    4.533580   -3.106520
  H     -1.145000    4.146530   -4.974950
  H     -1.282960    4.634050   -3.302710
  H     -0.672740    3.046290   -3.702350

 Total Charge           Charge          ....    0
 Multiplicity           Mult            ....    1
 Number of Electrons    NEL             ....   18
 Basis Dimension        Dim             ....   88

ORBITAL ENERGIES
----------------

  NO   OCC          E(Eh)            E(eV)
   0   2.0000     -10.265525      -279.3391
   1   2.0000     -10.251930      -278.9692
   2   2.0000      -0.879744       -23.9391
   3   2.0000      -0.726089       -19.7579
   4   2.0000      -0.553164       -15.0524
   5   2.0000      -0.547032       -14.8855
   6   2.0000      -0.464027       -12.6268
   7   2.0000      -0.442885       -12.0515
   8   2.0000      -0.437141       -11.8952
   9   0.0000       0.099038         2.6950
  10   0.0000       0.129070         3.5122
  11   0.0000       0.180922         4.9231
  12   0.0000       0.182440         4.9645
  13   0.0000       0.201828         5.4920

MULLIKEN ATOMIC CHARGES
-----------------------
   0 C :    0.141304
   1 C :    0.454482
   2 H :   -0.156163
   3 H :   -0.157448
   4 H :   -0.138503
   5 H :   -0.052675
   6 H :   -0.049248
   7 H :   -0.041748
Sum of atomic charges:    0.0000000

LOEWDIN ATOMIC CHARGES
----------------------
   0 C :    0.069254
   1 C :    0.073713
   2 H :   -0.030294
   3 H :   -0.034344
   4 H :   -0.032065
   5 H :   -0.016446
   6 H :   -0.015272
   7 H :   -0.014545

  Mayer bond orders larger than 0.100000
B(  0-C ,  1-C ) :   1.4282 B(  0-C ,  2-H ) :   0.1478 B(  0-C ,  3-H ) :   0.1482
B(  0-C ,  4-H ) :   0.1641 B(  0-C ,  5-H ) :   0.8978 B(  0-C ,  6-H ) :   0.8827
B(  0-C ,  7-H ) :   0.8810 B(  1-C ,  2-H ) :   0.8290 B(  1-C ,  3-H ) :   0.8112
B(  1-C ,  4-H ) :   0.8126 B(  1-C ,  5-H ) :   0.1282 B(  1-C ,  6-H ) :   0.1346
B(  1-C ,  7-H ) :   0.1357

Dispersion correction           -0.000488889
FINAL SINGLE POINT ENERGY       -79.736437942048

DIPOLE MOMENT
-------------
                                X             Y             Z
Electronic contribution:      0.00783       0.04564      -0.01106
Nuclear contribution   :      0.01985      -0.04545       0.00953
                        -----------------------------------------
Total Dipole Moment    :      0.02768       0.00019      -0.00153
                        -----------------------------------------
Magnitude (a.u.)       :      0.02772
Magnitude (Debye)      :      0.07046

Rotational constants in cm-1:     2.865782     0.718825     0.715264
Rotational constants in MHz : 85913.996449 21549.842906 21443.078705

                             ****ORCA TERMINATED NORMALLY****
TOTAL RUN TIME: 0 days 0 hours 0 minutes 4 seconds 248 msec
