                         Program Version 5.0.0 -  RELEASE  -
|  1> !PBE0 D3BJ RIJCOSX def2-SVPD def2/J TightSCF
|  2> *xyz -1 1
|  3> C         -0.96015       -0.52236       -0.48987
|  4> O          0.26170       -0.58031        0.13861
|  5> H         -0.85050       -0.82220       -1.51113
|  6> H         -1.33436        0.47929       -0.45044
|  7> H         -1.64624       -1.17908        0.00297
|  8> *
|  9>
| 10> %MaxCore 64000
| 11>
| 12> %pal nprocs 4
| 13> end
| 14>
| 15> %scf
| 16>   MaxIter 150
| 17> end
| 18>
| 19>
| 20>                          ****END OF INPUT****

CARTESIAN COORDINATES (ANGSTROEM)
---------------------------------
  C     -0.960150   -0.522360   -0.489870
  O      0.261700   -0.580310    0.138610
  H     -0.850500   -0.822200   -1.511130
  H     -1.334360    0.479290   -0.450440
  H     -1.646240   -1.179080    0.002970

 Total Charge           Charge          ....   -1
 Multiplicity           Mult            ....    1
 Number of Electrons    NEL             ....   18
 Basis Dimension        Dim             ....   67

ORBITAL ENERGIES
----------------

  NO   OCC          E(Eh)            E(eV)
   0   2.0000     -18.861236      -513.2403
   1   2.0000     -10.015714      -272.5414
   2   2.0000      -0.671259       -18.2659
   3   2.0000      -0.409004       -11.1296
   4   2.0000      -0.207492        -5.6461
   5   2.0000      -0.207474        -5.6456
   6   2.0000      -0.110577        -3.0089
   7   2.0000       0.041104         1.1185
   8   2.0000       0.041115         1.1188
   9   0.0000       0.205108         5.5813
  10   0.0000       0.277441         7.5496
  11   0.0000       0.277443         7.5496
  12   0.0000       0.285455         7.7676
  13   0.0000       0.321086         8.7372

MULLIKEN ATOMIC CHARGES
-----------------------
   0 C :    0.706287
   1 O :   -1.063387
   2 H :   -0.214399
   3 H :   -0.214228
   4 H :   -0.214273
Sum of atomic charges:   -1.0000000

LOEWDIN ATOMIC CHARGES
----------------------
   0 C :   -0.113015
   1 O :   -0.654690
   2 H :   -0.077453
   3 H :   -0.077404
   4 H :   -0.077438

  Mayer bond orders larger than 0.100000
B(  0-C ,  1-O ) :   1.1230 B(  0-C ,  2-H ) :   0.9382 B(  0-C ,  3-H ) :   0.9385
B(  0-C ,  4-H ) :   0.9384

Dispersion correction           -0.001163122
FINAL SINGLE POINT ENERGY      -114.883645127773

DIPOLE MOMENT
-------------
                                X             Y             Z
Electronic contribution:      1.65786      -0.07860       0.85259
Nuclear contribution   :     -2.56864       0.12183      -1.32123
                        -----------------------------------------
Total Dipole Moment    :     -0.91077       0.04323      -0.46864
                        -----------------------------------------
Magnitude (a.u.)       :      1.02518
Magnitude (Debye)      :      2.60580

Rotational constants in cm-1:     5.477744     0.932677     0.932677
Rotational constants in MHz : 164218.635293 27960.967920 27960.945417

                             ****ORCA TERMINATED NORMALLY****
TOTAL RUN TIME: 0 days 0 hours 0 minutes 3 seconds 453 msec
