                         Program Version 5.0.0 -  RELEASE  -
|  1> !PBE0 D3BJ RIJCOSX def2-SVPD def2/J TightSCF
|  2> *xyz 1 1
|  3> C          4.36645       -0.13321       -1.41606
|  4> C          3.05650       -0.32080       -0.70738
|  5> N          2.38983        0.71129       -0.24391
|  6> N          2.51600       -1.50772       -0.55023
|  7> H          2.96768       -2.32291       -0.95631
|  8> H          1.54987       -1.49063       -0.24988
|  9> H          2.74307        1.64947       -0.41280
| 10> H          1.44036        0.50278        0.03703
| 11> H          4.74975       -1.08632       -1.71533
| 12> H          5.06373        0.34075       -0.75722
| 13> H          4.21960        0.47966       -2.28077
| 14> *
| 15>
| 16> %MaxCore 64000
| 17>
| 18> %pal nprocs 4
| 19> end
| 20>
| 21> %scf
| 22>   MaxIter 150
| 23> end
| 24>
| 25>
| 26>                          ****END OF INPUT****

CARTESIAN COORDINATES (ANGSTROEM)
---------------------------------
  C      4.366450   -0.133210   -1.416060
  C      3.056500   -0.320800   -0.707380
  N      2.389830    0.711290   -0.243910
  N      2.516000   -1.507720   -0.550230
  H      2.967680   -2.322910   -0.956310
  H      1.549870   -1.490630   -0.249880
  H      2.743070    1.649470   -0.412800
  H      1.440360    0.502780    0.037030
  H      4.749750   -1.086320   -1.715330
  H      5.063730    0.340750   -0.757220
  H      4.219600    0.479660   -2.280770

 Total Charge           Charge          ....    1
 Multiplicity           Mult            ....    1
 Number of Electrons    NEL             ....   32
 Basis Dimension        Dim             ....  136

ORBITAL ENERGIES
----------------

  NO   OCC          E(Eh)            E(eV)
   0   2.0000     -14.650838      -398.6696
   1   2.0000     -14.648380      -398.6027
   2   2.0000     -10.565621      -287.5052
   3   2.0000     -10.435015      -283.9512
   4   2.0000      -1.240049       -33.7434
   5   2.0000      -1.131477       -30.7891
   6   2.0000      -0.975356       -26.5408
   7   2.0000      -0.857914       -23.3450
   8   2.0000      -0.801400       -21.8072
   9   2.0000      -0.790457       -21.5094
  10   2.0000      -0.727112       -19.7857
  11   2.0000      -0.680383       -18.5142
  12   2.0000      -0.637370       -17.3437
  13   2.0000      -0.618404       -16.8276
  14   2.0000      -0.595175       -16.1955
  15   2.0000      -0.514256       -13.9936
  16   0.0000      -0.216085        -5.8800
  17   0.0000      -0.161002        -4.3811
  18   0.0000      -0.115223        -3.1354
  19   0.0000      -0.105656        -2.8751
  20   0.0000      -0.088347        -2.4040

MULLIKEN ATOMIC CHARGES
-----------------------
   0 C :    0.458056
   1 C :    0.397104
   2 N :   -0.017290
   3 N :   -0.118968
   4 H :    0.053055
   5 H :   -0.017594
   6 H :    0.034227
   7 H :   -0.062921
   8 H :    0.101372
   9 H :    0.094104
  10 H :    0.078856
Sum of atomic charges:    1.0000000

LOEWDIN ATOMIC CHARGES
----------------------
   0 C :    0.236263
   1 C :   -0.064146
   2 N :    0.272465
   3 N :    0.276595
   4 H :    0.061933
   5 H :    0.045852
   6 H :    0.066028
   7 H :    0.044711
   8 H :    0.009342
   9 H :    0.025143
  10 H :    0.025813

  Mayer bond orders larger than 0.100000
B(  0-C ,  1-C ) :   1.3294 B(  0-C ,  8-H ) :   0.7837 B(  0-C ,  9-H ) :   0.7442
B(  0-C , 10-H ) :   0.8188 B(  1-C ,  2-N ) :   1.0939 B(  1-C ,  3-N ) :   0.9667
B(  1-C ,  5-H ) :  -0.1495 B(  1-C ,  7-H ) :  -0.1201 B(  1-C ,  8-H ) :   0.2286
B(  1-C ,  9-H ) :   0.1868 B(  1-C , 10-H ) :   0.1328 B(  2-N ,  3-N ) :   0.2253
B(  2-N ,  6-H ) :   1.1068 B(  2-N ,  7-H ) :   1.2007 B(  3-N ,  4-H ) :   1.0920
B(  3-N ,  5-H ) :   1.2207 B(  4-H ,  5-H ) :  -0.1447 B(  6-H ,  7-H ) :  -0.1362
B(  8-H ,  9-H ) :   0.1082 B(  8-H , 10-H ) :   0.1012

Dispersion correction           -0.005741014
FINAL SINGLE POINT ENERGY      -189.369732082259

DIPOLE MOMENT
-------------
                                X             Y             Z
Electronic contribution:     -1.74098      -0.26584       1.10511
Nuclear contribution   :      1.22976       0.25273      -1.15956
                        -----------------------------------------
Total Dipole Moment    :     -0.51122      -0.01311      -0.05445
                        -----------------------------------------
Magnitude (a.u.)       :      0.51428
Magnitude (Debye)      :      1.30719

Rotational constants in cm-1:     0.347067     0.291236     0.163306
Rotational constants in MHz : 10404.811357  8731.035118  4895.793931

                             ****ORCA TERMINATED NORMALLY****
TOTAL RUN TIME: 0 days 0 hours 0 minutes 9 seconds 599 msec
