                         Program Version 5.0.0 -  RELEASE  -
|  1> !PBE0 D3BJ RIJCOSX def2-SVPD def2/J TightSCF
|  2> *xyz 0 1
|  3> C         -0.96015       -0.52236       -0.48987
|  4> F          0.26170       -0.58031        0.13861
|  5> H         -0.85050       -0.82220       -1.51113
|  6> H         -1.33436        0.47929       -0.45044
|  7> H         -1.64624       -1.17908        0.00297
|  8> *
|  9>
| 10> %MaxCore 64000
| 11>
| 12> %pal nprocs 4
| 13> end
| 14>
| 15> %scf
| 16>   MaxIter 150
| 17> end
| 18>
| 19>
| 20>                          ****END OF INPUT****

CARTESIAN COORDINATES (ANGSTROEM)
---------------------------------
  C     -0.960150   -0.522360   -0.489870
  F      0.261700   -0.580310    0.138610
  H     -0.850500   -0.822200   -1.511130
  H     -1.334360    0.479290   -0.450440
  H     -1.646240   -1.179080    0.002970

 Total Charge           Charge          ....    0
 Multiplicity           Mult            ....    1
 Number of Electrons    NEL             ....   18
 Basis Dimension        Dim             ....   67

ORBITAL ENERGIES
----------------

  NO   OCC          E(Eh)            E(eV)
   0   2.0000     -24.768391      -673.9822
   1   2.0000     -10.302961      -280.3578
   2   2.0000      -1.212020       -32.9807
   3   2.0000      -0.723568       -19.6893
   4   2.0000      -0.514948       -14.0125
   5   2.0000      -0.506788       -13.7904
   6   2.0000      -0.506777       -13.7901
   7   2.0000      -0.366903        -9.9839
   8   2.0000      -0.366897        -9.9838
   9   0.0000       0.033571         0.9135
  10   0.0000       0.068514         1.8644
  11   0.0000       0.110324         3.0021
  12   0.0000       0.110331         3.0022
  13   0.0000       0.154150         4.1946

MULLIKEN ATOMIC CHARGES
-----------------------
   0 C :    0.778043
   1 F :   -0.507546
   2 H :   -0.090272
   3 H :   -0.090072
   4 H :   -0.090153
Sum of atomic charges:   -0.0000000

LOEWDIN ATOMIC CHARGES
----------------------
   0 C :    0.271975
   1 F :   -0.258282
   2 H :   -0.004587
   3 H :   -0.004544
   4 H :   -0.004562

  Mayer bond orders larger than 0.100000
B(  0-C ,  1-F ) :   0.8089 B(  0-C ,  2-H ) :   0.9570 B(  0-C ,  3-H ) :   0.9571
B(  0-C ,  4-H ) :   0.9568

Dispersion correction           -0.001017685
FINAL SINGLE POINT ENERGY      -139.497418455569

DIPOLE MOMENT
-------------
                                X             Y             Z
Electronic contribution:      2.60685      -0.12368       1.34068
Nuclear contribution   :     -3.25854       0.15455      -1.67609
                        -----------------------------------------
Total Dipole Moment    :     -0.65168       0.03086      -0.33542
                        -----------------------------------------
Magnitude (a.u.)       :      0.73359
Magnitude (Debye)      :      1.86463

Rotational constants in cm-1:     5.477744     0.868130     0.868129
Rotational constants in MHz : 164218.635293 26025.869915 26025.850419

                             ****ORCA TERMINATED NORMALLY****
TOTAL RUN TIME: 0 days 0 hours 0 minutes 3 seconds 279 msec
