                         Program Version 5.0.0 -  RELEASE  -
|  1> !PBE0 D3BJ RIJCOSX def2-SVPD def2/J TightSCF
|  2> *xyz 0 1
|  3> C          4.36645       -0.13321       -1.41606
|  4> C          3.05650       -0.32080       -0.70738
|  5> C          2.38983        0.71129       -0.24391
|  6> N          2.51600       -1.50772       -0.55023
|  7> H          2.96768       -2.32291       -0.95631
|  8> H          1.54987       -1.49063       -0.24988
|  9> H          2.74307        1.64947       -0.41280
| 10> H          1.44036        0.50278        0.03703
| 11> H          4.74975       -1.08632       -1.71533
| 12> H          5.06373        0.34075       -0.75722
| 13> H          4.21960        0.47966       -2.28077
| 14> *
| 15>
| 16> %MaxCore 64000
| 17>
| 18> %pal nprocs 4
| 19> end
| 20>
| 21> %scf
| 22>   MaxIter 150
| 23> end
| 24>
| 25>
| 26>                          ****END OF INPUT****

CARTESIAN COORDINATES (ANGSTROEM)
---------------------------------
  C      4.366450   -0.133210   -1.416060
  C      3.056500   -0.320800   -0.707380
  C      2.389830    0.711290   -0.243910
  N      2.516000   -1.507720   -0.550230
  H      2.967680   -2.322910   -0.956310
  H      1.549870   -1.490630   -0.249880
  H      2.743070    1.649470   -0.412800
  H      1.440360    0.502780    0.037030
  H      4.749750   -1.086320   -1.715330
  H      5.063730    0.340750   -0.757220
  H      4.219600    0.479660   -2.280770

 Total Charge           Charge          ....    0
 Multiplicity           Mult            ....    1
 Number of Electrons    NEL             ....   32
 Basis Dimension        Dim             ....  136

ORBITAL ENERGIES
----------------

  NO   OCC          E(Eh)            E(eV)
   0   2.0000     -14.397012      -391.7626
   1   2.0000     -10.252392      -278.9818
   2   2.0000     -10.225551      -278.2514
   3   2.0000     -10.160503      -276.4813
   4   2.0000      -0.952357       -25.9149
   5   2.0000      -0.772257       -21.0142
   6   2.0000      -0.708446       -19.2778
   7   2.0000      -0.580319       -15.7913
   8   2.0000      -0.548976       -14.9384
   9   2.0000      -0.483041       -13.1442
  10   2.0000      -0.445703       -12.1282
  11   2.0000      -0.414290       -11.2734
  12   2.0000      -0.403582       -10.9820
  13   2.0000      -0.371589       -10.1115
  14   2.0000      -0.350266        -9.5312
  15   2.0000      -0.197576        -5.3763
  16   0.0000       0.025442         0.6923
  17   0.0000       0.048466         1.3188
  18   0.0000       0.063455         1.7267
  19   0.0000       0.069494         1.8910
  20   0.0000       0.098416         2.6780

MULLIKEN ATOMIC CHARGES
-----------------------
   0 C :    0.642754
   1 C :   -0.412328
   2 C :    0.317097
   3 N :    0.009353
   4 H :   -0.086934
   5 H :   -0.042749
   6 H :   -0.159387
   7 H :   -0.307060
   8 H :   -0.038498
   9 H :    0.052152
  10 H :    0.025601
Sum of atomic charges:   -0.0000000

LOEWDIN ATOMIC CHARGES
----------------------
   0 C :    0.168207
   1 C :   -0.290224
   2 C :    0.152803
   3 N :    0.153052
   4 H :    0.004350
   5 H :    0.005483
   6 H :   -0.072306
   7 H :   -0.086570
   8 H :   -0.025365
   9 H :   -0.004765
  10 H :   -0.004664

  Mayer bond orders larger than 0.100000
B(  0-C ,  1-C ) :   1.1741 B(  0-C ,  8-H ) :   0.7415 B(  0-C ,  9-H ) :   0.7531
B(  0-C , 10-H ) :   0.8232 B(  1-C ,  2-C ) :   1.8577 B(  1-C ,  3-N ) :   1.0236
B(  1-C ,  6-H ) :   0.1397 B(  1-C ,  7-H ) :   0.2228 B(  1-C ,  8-H ) :   0.2777
B(  1-C ,  9-H ) :   0.1912 B(  1-C , 10-H ) :   0.1332 B(  2-C ,  3-N ) :   0.2689
B(  2-C ,  6-H ) :   0.8691 B(  2-C ,  7-H ) :   0.8325 B(  3-N ,  4-H ) :   1.1468
B(  3-N ,  5-H ) :   1.1483 B(  4-H ,  5-H ) :  -0.1280

Dispersion correction           -0.006031168
FINAL SINGLE POINT ENERGY      -172.921850957093

DIPOLE MOMENT
-------------
                                X             Y             Z
Electronic contribution:     -1.00962      -1.15854       0.67017
Nuclear contribution   :      1.07959       0.48266      -1.05101
                        -----------------------------------------
Total Dipole Moment    :      0.06996      -0.67588      -0.38085
                        -----------------------------------------
Magnitude (a.u.)       :      0.77894
Magnitude (Debye)      :      1.97991

Rotational constants in cm-1:     0.369235     0.294626     0.169175
Rotational constants in MHz : 11069.394850  8832.653024  5071.734673

                             ****ORCA TERMINATED NORMALLY****
TOTAL RUN TIME: 0 days 0 hours 0 minutes 9 seconds 793 msec
