                         Program Version 5.0.0 -  RELEASE  -
|  1> !PBE0 D3BJ RIJCOSX def2-SVPD def2/J TightSCF
|  2> *xyz 0 1
|  3> C          4.36645       -0.13321       -1.41606
|  4> C          3.05650       -0.32080       -0.70738
|  5> N          2.38983        0.71129       -0.24391
|  6> C          2.51600       -1.50772       -0.55023
|  7> H          2.96768       -2.32291       -0.95631
|  8> H          1.54987       -1.49063       -0.24988
|  9> H          2.74307        1.64947       -0.41280
| 10> H          1.44036        0.50278        0.03703
| 11> H          4.74975       -1.08632       -1.71533
| 12> H          5.06373        0.34075       -0.75722
| 13> H          4.21960        0.47966       -2.28077
| 14> *
| 15>
| 16> %MaxCore 64000
| 17>
| 18> %pal nprocs 4
| 19> end
| 20>
| 21> %scf
| 22>   MaxIter 150
| 23> end
| 24>
| 25>
| 26>                          ****END OF INPUT****

CARTESIAN COORDINATES (ANGSTROEM)
---------------------------------
  C      4.366450   -0.133210   -1.416060
  C      3.056500   -0.320800   -0.707380
  N      2.389830    0.711290   -0.243910
  C      2.516000   -1.507720   -0.550230
  H      2.967680   -2.322910   -0.956310
  H      1.549870   -1.490630   -0.249880
  H      2.743070    1.649470   -0.412800
  H      1.440360    0.502780    0.037030
  H      4.749750   -1.086320   -1.715330
  H      5.063730    0.340750   -0.757220
  H      4.219600    0.479660   -2.280770

 Total Charge           Charge          ....    0
 Multiplicity           Mult            ....    1
 Number of Electrons    NEL             ....   32
 Basis Dimension        Dim             ....  136

ORBITAL ENERGIES
----------------

  NO   OCC          E(Eh)            E(eV)
   0   2.0000     -14.395626      -391.7249
   1   2.0000     -10.253146      -279.0023
   2   2.0000     -10.225125      -278.2398
   3   2.0000     -10.164613      -276.5932
   4   2.0000      -0.952467       -25.9180
   5   2.0000      -0.771386       -20.9905
   6   2.0000      -0.709975       -19.3194
   7   2.0000      -0.580366       -15.7926
   8   2.0000      -0.549183       -14.9440
   9   2.0000      -0.483319       -13.1518
  10   2.0000      -0.447331       -12.1725
  11   2.0000      -0.412389       -11.2217
  12   2.0000      -0.406036       -11.0488
  13   2.0000      -0.371696       -10.1144
  14   2.0000      -0.348861        -9.4930
  15   2.0000      -0.201210        -5.4752
  16   0.0000       0.025736         0.7003
  17   0.0000       0.051773         1.4088
  18   0.0000       0.063709         1.7336
  19   0.0000       0.070751         1.9252
  20   0.0000       0.098820         2.6890

MULLIKEN ATOMIC CHARGES
-----------------------
   0 C :    0.655082
   1 C :   -0.536938
   2 N :    0.114547
   3 C :    0.330667
   4 H :   -0.103674
   5 H :   -0.328861
   6 H :   -0.124285
   7 H :   -0.097121
   8 H :    0.071204
   9 H :    0.015044
  10 H :    0.004336
Sum of atomic charges:    0.0000000

LOEWDIN ATOMIC CHARGES
----------------------
   0 C :    0.166393
   1 C :   -0.298174
   2 N :    0.151120
   3 C :    0.162481
   4 H :   -0.077011
   5 H :   -0.084484
   6 H :    0.008637
   7 H :    0.004438
   8 H :   -0.012159
   9 H :   -0.011827
  10 H :   -0.009415

  Mayer bond orders larger than 0.100000
B(  0-C ,  1-C ) :   1.3477 B(  0-C ,  8-H ) :   0.8084 B(  0-C ,  9-H ) :   0.6988
B(  0-C , 10-H ) :   0.7276 B(  1-C ,  2-N ) :   1.1409 B(  1-C ,  3-C ) :   1.8087
B(  1-C ,  5-H ) :   0.2107 B(  1-C ,  8-H ) :   0.2158 B(  1-C ,  9-H ) :   0.2487
B(  1-C , 10-H ) :   0.2446 B(  2-N ,  3-C ) :   0.2574 B(  2-N ,  6-H ) :   1.1639
B(  2-N ,  7-H ) :   1.1404 B(  3-C ,  4-H ) :   0.9566 B(  3-C ,  5-H ) :   0.8037
B(  6-H ,  7-H ) :  -0.1128 B(  8-H , 10-H ) :   0.1072

Dispersion correction           -0.006031326
FINAL SINGLE POINT ENERGY      -172.924890911247

DIPOLE MOMENT
-------------
                                X             Y             Z
Electronic contribution:     -1.14331       0.76380       0.95057
Nuclear contribution   :      1.10788      -0.01499      -1.11971
                        -----------------------------------------
Total Dipole Moment    :     -0.03543       0.74881      -0.16914
                        -----------------------------------------
Magnitude (a.u.)       :      0.76849
Magnitude (Debye)      :      1.95335

Rotational constants in cm-1:     0.367851     0.295709     0.169239
Rotational constants in MHz : 11027.892768  8865.123922  5073.656136

                             ****ORCA TERMINATED NORMALLY****
TOTAL RUN TIME: 0 days 0 hours 0 minutes 9 seconds 496 msec
