                         Program Version 5.0.0 -  RELEASE  -
|  1> !PBE0 D3BJ RIJCOSX def2-SVPD def2/J TightSCF xyzfile
|  2>
|  3> *xyzfile 0 1 D2.xyz
|  4>
|  5> %MaxCore 64000
|  6>
|  7> %pal nprocs 4
|  8> end
|  9>
| 10> %scf
| 11>   MaxIter 150
| 12> end
| 13>
| 14>
| 15>                          ****END OF INPUT****

CARTESIAN COORDINATES (ANGSTROEM)
---------------------------------
  C      4.366454   -0.133215   -1.416062
  C      4.508292   -0.931872   -2.724249
  H      4.753716   -1.972051   -2.488408
  C      3.294164   -0.918214   -3.656570
  H      5.385637   -0.536236   -3.242640
  H      2.483463   -1.477378   -3.185764
  H      3.553092   -1.478495   -4.560331
  C      2.772335    0.460100   -4.051448
  H      2.608762    1.065107   -3.155194
  C      1.465354    0.410537   -4.853644
  H      3.532940    0.988848   -4.635671
  C      0.326171   -0.375613   -4.192580
  H      1.666704   -0.022269   -5.839323
  H      1.138198    1.439246   -5.035449
  C     -0.017405    0.080588   -2.778406
  H      0.585573   -1.439385   -4.168057
  H     -0.560005   -0.311425   -4.831461
  H      0.902090    0.201296   -2.206729
  C     -0.903495   -0.873945   -1.987388
  H     -0.479549    1.074657   -2.811915
  H     -0.502554   -1.892096   -2.081204
  H     -1.917039   -0.895427   -2.406277
  C     -0.960148   -0.522365   -0.489867
  H     -1.690392   -1.208130   -0.021677
  H     -1.414490    0.486329   -0.406677
  F      0.261703   -0.580307    0.138611
  C      3.056503   -0.320797   -0.707384
  N      2.389825    0.711285   -0.243909
  C      2.515999   -1.507721   -0.550229
  H      2.967683   -2.322915   -0.956305
  H      1.549872   -1.490634   -0.249876
  H      2.743071    1.649471   -0.412802
  H      1.440364    0.502778    0.037031
  H      4.487835    0.932997   -1.611569
  H      5.169672   -0.414432   -0.729817

 Total Charge           Charge          ....    0
 Multiplicity           Mult            ....    1
 Number of Electrons    NEL             ....  104
 Basis Dimension        Dim             ....  439

ORBITAL ENERGIES
----------------

  NO   OCC          E(Eh)            E(eV)
   0   2.0000     -24.804502      -674.9648
   1   2.0000     -14.372042      -391.0831
   2   2.0000     -10.326190      -280.9899
   3   2.0000     -10.244657      -278.7713
   4   2.0000     -10.233885      -278.4782
   5   2.0000     -10.226714      -278.2830
   6   2.0000     -10.226162      -278.2680
   7   2.0000     -10.224440      -278.2212
   8   2.0000     -10.222780      -278.1760
   9   2.0000     -10.222087      -278.1571
  10   2.0000     -10.219489      -278.0864
  11   2.0000     -10.213550      -277.9248
  12   2.0000     -10.137760      -275.8625
  13   2.0000      -1.254549       -34.1380
  14   2.0000      -0.934982       -25.4421
  15   2.0000      -0.836543       -22.7635
  16   2.0000      -0.813722       -22.1425
  17   2.0000      -0.788386       -21.4531
  18   2.0000      -0.745953       -20.2984
  19   2.0000      -0.714783       -19.4502
  20   2.0000      -0.702943       -19.1281
  21   2.0000      -0.656593       -17.8668
  22   2.0000      -0.632885       -17.2217
  23   2.0000      -0.601540       -16.3687
  24   2.0000      -0.570191       -15.5157
  25   2.0000      -0.559861       -15.2346
  26   2.0000      -0.547098       -14.8873
  27   2.0000      -0.540792       -14.7157
  28   2.0000      -0.526985       -14.3400
  29   2.0000      -0.500404       -13.6167
  30   2.0000      -0.490392       -13.3442
  31   2.0000      -0.476612       -12.9693
  32   2.0000      -0.463956       -12.6249
  33   2.0000      -0.450588       -12.2611
  34   2.0000      -0.443220       -12.0606
  35   2.0000      -0.428576       -11.6622
  36   2.0000      -0.412520       -11.2252
  37   2.0000      -0.402901       -10.9635
  38   2.0000      -0.394316       -10.7299
  39   2.0000      -0.380729       -10.3602
  40   2.0000      -0.377573       -10.2743
  41   2.0000      -0.371720       -10.1150
  42   2.0000      -0.364055        -9.9064
  43   2.0000      -0.360120        -9.7994
  44   2.0000      -0.345115        -9.3911
  45   2.0000      -0.339088        -9.2270
  46   2.0000      -0.328441        -8.9373
  47   2.0000      -0.320466        -8.7203
  48   2.0000      -0.318935        -8.6787
  49   2.0000      -0.313109        -8.5201
  50   2.0000      -0.310100        -8.4382
  51   2.0000      -0.181432        -4.9370
  52   0.0000       0.023987         0.6527
  53   0.0000       0.032788         0.8922
  54   0.0000       0.038108         1.0370
  55   0.0000       0.041815         1.1378
  56   0.0000       0.051339         1.3970

MULLIKEN ATOMIC CHARGES
-----------------------
   0 C :    0.435321
   1 C :    0.257749
   2 H :    0.152259
   3 C :   -0.193729
   4 H :   -0.131504
   5 H :    0.058589
   6 H :   -0.138089
   7 C :   -0.198073
   8 H :    0.158952
   9 C :    0.602955
  10 H :   -0.304233
  11 C :   -0.096147
  12 H :    0.033430
  13 H :    0.057362
  14 C :    0.364742
  15 H :    0.211704
  16 H :   -0.341687
  17 H :   -0.600273
  18 C :   -0.169431
  19 H :    0.051728
  20 H :    0.091943
  21 H :   -0.102428
  22 C :    1.023419
  23 H :   -0.040885
  24 H :    0.017767
  25 F :   -0.840661
  26 C :   -0.450102
  27 N :    0.264196
  28 C :    0.573298
  29 H :   -0.145595
  30 H :   -0.410184
  31 H :   -0.105940
  32 H :   -0.115779
  33 H :    0.252509
  34 H :   -0.223186
Sum of atomic charges:   -0.0000000

LOEWDIN ATOMIC CHARGES
----------------------
   0 C :    0.015908
   1 C :   -0.021918
   2 H :    0.020862
   3 C :   -0.032650
   4 H :    0.019262
   5 H :   -0.008151
   6 H :    0.027794
   7 C :   -0.033784
   8 H :    0.002223
   9 C :   -0.029630
  10 H :    0.025158
  11 C :   -0.036491
  12 H :    0.023174
  13 H :    0.022036
  14 C :   -0.034029
  15 H :    0.015563
  16 H :    0.022377
  17 H :   -0.021664
  18 C :   -0.015462
  19 H :    0.036300
  20 H :    0.033652
  21 H :    0.035350
  22 C :    0.168850
  23 H :    0.038246
  24 H :    0.042469
  25 F :   -0.229696
  26 C :   -0.238735
  27 N :    0.184342
  28 C :    0.190299
  29 H :   -0.070900
  30 H :   -0.130195
  31 H :    0.005980
  32 H :   -0.064733
  33 H :    0.010082
  34 H :    0.028110

  Mayer bond orders larger than 0.100000
B(  0-C ,  1-C ) :   1.2043 B(  0-C ,  4-H ) :   0.1571 B(  0-C , 26-C ) :   1.1505
B(  0-C , 29-H ) :  -0.1034 B(  0-C , 33-H ) :   0.6054 B(  0-C , 34-H ) :   0.8119
B(  1-C ,  2-H ) :   0.6742 B(  1-C ,  3-C ) :   1.3196 B(  1-C ,  4-H ) :   0.8570
B(  1-C ,  5-H ) :   0.1226 B(  1-C , 33-H ) :   0.1023 B(  1-C , 34-H ) :   0.1152
B(  2-H ,  3-C ) :   0.2181 B(  2-H ,  4-H ) :  -0.1424 B(  3-C ,  4-H ) :   0.2128
B(  3-C ,  5-H ) :   0.8325 B(  3-C ,  6-H ) :   0.8889 B(  3-C ,  7-C ) :   1.2703
B(  3-C , 10-H ) :   0.1702 B(  4-H , 29-H ) :  -0.1151 B(  5-H , 15-H ) :   0.1376
B(  5-H , 29-H ) :   0.1207 B(  6-H ,  7-C ) :   0.1602 B(  7-C ,  8-H ) :   0.8400
B(  7-C ,  9-C ) :   1.1545 B(  7-C , 10-H ) :   1.0331 B(  7-C , 11-C ) :   0.1103
B(  7-C , 12-H ) :   0.1211 B(  7-C , 13-H ) :   0.2214 B(  8-H , 17-H ) :   0.1879
B(  9-C , 11-C ) :   1.1554 B(  9-C , 12-H ) :   0.7436 B(  9-C , 13-H ) :   0.7061
B( 11-C , 12-H ) :   0.1615 B( 11-C , 13-H ) :   0.1351 B( 11-C , 14-C ) :   1.2001
B( 11-C , 15-H ) :   0.8131 B( 11-C , 16-H ) :   1.0506 B( 11-C , 17-H ) :   0.1493
B( 11-C , 19-H ) :   0.1101 B( 14-C , 15-H ) :   0.1345 B( 14-C , 16-H ) :   0.2134
B( 14-C , 17-H ) :   0.5083 B( 14-C , 18-C ) :   1.1673 B( 14-C , 19-H ) :   0.6625
B( 14-C , 20-H ) :   0.1234 B( 14-C , 21-H ) :   0.2014 B( 17-H , 18-C ) :   0.1181
B( 17-H , 19-H ) :   0.3049 B( 17-H , 29-H ) :   0.1040 B( 18-C , 19-H ) :   0.1055
B( 18-C , 20-H ) :   0.9130 B( 18-C , 21-H ) :   0.9091 B( 18-C , 22-C ) :   1.1570
B( 18-C , 23-H ) :   0.1815 B( 18-C , 24-H ) :   0.1152 B( 18-C , 25-F ) :   0.1474
B( 22-C , 23-H ) :   0.7590 B( 22-C , 24-H ) :   0.8167 B( 22-C , 25-F ) :   0.6197
B( 24-H , 25-F ) :   0.1444 B( 25-F , 26-C ) :   0.1073 B( 25-F , 30-H ) :   0.1616
B( 26-C , 27-N ) :   0.9449 B( 26-C , 28-C ) :   2.0553 B( 26-C , 29-H ) :   0.1418
B( 26-C , 30-H ) :   0.4794 B( 26-C , 33-H ) :   0.1960 B( 26-C , 34-H ) :   0.2731
B( 27-N , 28-C ) :   0.3719 B( 27-N , 29-H ) :   0.1202 B( 27-N , 31-H ) :   1.1298
B( 27-N , 32-H ) :   1.0573 B( 28-C , 29-H ) :   0.8124 B( 28-C , 30-H ) :   0.3154
B( 29-H , 30-H ) :  -0.2485 B( 31-H , 32-H ) :  -0.1664

Dispersion correction           -0.034623063
FINAL SINGLE POINT ENERGY      -585.911008707367

DIPOLE MOMENT
-------------
                                X             Y             Z
Electronic contribution:     -2.80087       0.01286      10.68541
Nuclear contribution   :      1.85154       0.58682     -11.15333
                        -----------------------------------------
Total Dipole Moment    :     -0.94933       0.59968      -0.46792
                        -----------------------------------------
Magnitude (a.u.)       :      1.21647
Magnitude (Debye)      :      3.09202

Rotational constants in cm-1:     0.028379     0.022321     0.014415
Rotational constants in MHz :   850.785777   669.176075   432.155504

                             ****ORCA TERMINATED NORMALLY****
TOTAL RUN TIME: 0 days 0 hours 2 minutes 46 seconds 579 msec
