                         Program Version 5.0.0 -  RELEASE  -
|  1> !PBE D3BJ RIJCOSX def2-SVPD def2/J TightSCF
|  2> *xyz -1 1
|  3> C         -0.46129        2.23469       -4.98962
|  4> C          0.84888        2.66797       -4.30235
|  5> C          2.09343        1.86104       -4.65684
|  6> H          2.44481        2.04157       -5.67499
|  7> H          2.90175        2.13786       -3.98034
|  8> S          1.87964        0.07859       -4.46297
|  9> O          3.20757       -0.46611       -4.42026
| 10> O          1.07506       -0.05616       -3.26876
| 11> O          1.13166       -0.31996       -5.67903
| 12> H          0.66843        2.55943       -3.23285
| 13> H          1.03407        3.72943       -4.49708
| 14> H         -0.35183        2.31783       -6.05075
| 15> H         -1.26108        2.86600       -4.66300
| 16> H         -0.68032        1.21949       -4.73211
| 17> *
| 18>
| 19> %MaxCore 64000
| 20>
| 21> %pal nprocs 8
| 22> end
| 23>
| 24> %scf
| 25>   MaxIter 150
| 26> end
| 27>
| 28>
| 29>                          ****END OF INPUT****

CARTESIAN COORDINATES (ANGSTROEM)
---------------------------------
  C     -0.461290    2.234690   -4.989620
  C      0.848880    2.667970   -4.302350
  C      2.093430    1.861040   -4.656840
  H      2.444810    2.041570   -5.674990
  H      2.901750    2.137860   -3.980340
  S      1.879640    0.078590   -4.462970
  O      3.207570   -0.466110   -4.420260
  O      1.075060   -0.056160   -3.268760
  O      1.131660   -0.319960   -5.679030
  H      0.668430    2.559430   -3.232850
  H      1.034070    3.729430   -4.497080
  H     -0.351830    2.317830   -6.050750
  H     -1.261080    2.866000   -4.663000
  H     -0.680320    1.219490   -4.732110

 Total Charge           Charge          ....   -1
 Multiplicity           Mult            ....    1
 Number of Electrons    NEL             ....   66
 Basis Dimension        Dim             ....  212

ORBITAL ENERGIES
----------------

  NO   OCC          E(Eh)            E(eV)
   0   2.0000     -88.056808     -2396.1476
   1   2.0000     -18.551288      -504.8062
   2   2.0000     -18.549366      -504.7539
   3   2.0000     -18.536503      -504.4039
   4   2.0000      -9.762747      -265.6579
   5   2.0000      -9.754316      -265.4284
   6   2.0000      -9.741545      -265.0809
   7   2.0000      -7.660964      -208.4654
   8   2.0000      -5.688022      -154.7790
   9   2.0000      -5.687809      -154.7731
  10   2.0000      -5.687212      -154.7569
  11   2.0000      -0.846070       -23.0227
  12   2.0000      -0.713550       -19.4167
  13   2.0000      -0.688336       -18.7306
  14   2.0000      -0.572812       -15.5870
  15   2.0000      -0.489098       -13.3090
  16   2.0000      -0.400935       -10.9100
  17   2.0000      -0.321641        -8.7523
  18   2.0000      -0.279410        -7.6031
  19   2.0000      -0.266324        -7.2470
  20   2.0000      -0.244309        -6.6480
  21   2.0000      -0.230517        -6.2727
  22   2.0000      -0.212071        -5.7708
  23   2.0000      -0.202619        -5.5135
  24   2.0000      -0.178456        -4.8560
  25   2.0000      -0.171869        -4.6768
  26   2.0000      -0.153721        -4.1830
  27   2.0000      -0.108799        -2.9606
  28   2.0000      -0.106223        -2.8905
  29   2.0000      -0.076754        -2.0886
  30   2.0000      -0.069969        -1.9040
  31   2.0000      -0.057725        -1.5708
  32   2.0000      -0.024977        -0.6797
  33   0.0000       0.121865         3.3161
  34   0.0000       0.147508         4.0139
  35   0.0000       0.154319         4.1992
  36   0.0000       0.160229         4.3600
  37   0.0000       0.181686         4.9439

MULLIKEN ATOMIC CHARGES
-----------------------
   0 C :    0.765745
   1 C :   -0.280861
   2 C :    0.092313
   3 H :   -0.026619
   4 H :   -0.026273
   5 S :    1.143235
   6 O :   -0.765185
   7 O :   -0.751004
   8 O :   -0.763255
   9 H :    0.072589
  10 H :   -0.220058
  11 H :   -0.066313
  12 H :   -0.136889
  13 H :   -0.037427
Sum of atomic charges:   -1.0000000

LOEWDIN ATOMIC CHARGES
----------------------
   0 C :    0.117631
   1 C :   -0.100227
   2 C :   -0.098173
   3 H :    0.005141
   4 H :   -0.002896
   5 S :    0.807298
   6 O :   -0.545357
   7 O :   -0.540977
   8 O :   -0.562713
   9 H :    0.010288
  10 H :    0.003221
  11 H :   -0.021316
  12 H :   -0.036347
  13 H :   -0.035575

  Mayer bond orders larger than 0.100000
B(  0-C ,  1-C ) :   1.3267 B(  0-C ,  9-H ) :   0.1083 B(  0-C , 11-H ) :   0.7566
B(  0-C , 12-H ) :   0.7533 B(  0-C , 13-H ) :   0.8065 B(  1-C ,  2-C ) :   1.2859
B(  1-C ,  3-H ) :   0.1402 B(  1-C ,  4-H ) :   0.1471 B(  1-C ,  9-H ) :   0.8304
B(  1-C , 10-H ) :   0.9199 B(  1-C , 11-H ) :   0.2237 B(  1-C , 12-H ) :   0.2279
B(  1-C , 13-H ) :   0.2198 B(  2-C ,  3-H ) :   0.9147 B(  2-C ,  4-H ) :   0.8986
B(  2-C ,  5-S ) :   0.8915 B(  2-C ,  9-H ) :   0.1342 B(  2-C , 10-H ) :   0.1350
B(  5-S ,  6-O ) :   1.4013 B(  5-S ,  7-O ) :   1.3184 B(  5-S ,  8-O ) :   1.2983

Dispersion correction           -0.013563662
FINAL SINGLE POINT ENERGY      -741.519708612900

DIPOLE MOMENT
-------------
                                X             Y             Z
Electronic contribution:      4.87618      -9.14006       1.04218
Nuclear contribution   :     -5.21326      11.14780      -1.06438
                        -----------------------------------------
Total Dipole Moment    :     -0.33708       2.00774      -0.02219
                        -----------------------------------------
Magnitude (a.u.)       :      2.03596
Magnitude (Debye)      :      5.17501

Rotational constants in cm-1:     0.135673     0.057896     0.054396
Rotational constants in MHz :  4067.361083  1735.682437  1630.763840

                             ****ORCA TERMINATED NORMALLY****
TOTAL RUN TIME: 0 days 0 hours 0 minutes 5 seconds 822 msec
