                         Program Version 5.0.0 -  RELEASE  -
|  1> !PBE D3BJ RIJCOSX def2-SVPD def2/J TightSCF
|  2> *xyz 1 1
|  3> C         -0.46129        2.23469       -4.98962
|  4> C          0.84888        2.66797       -4.30235
|  5> C          2.09343        1.86104       -4.65684
|  6> C         -0.42384        2.39877       -6.47432
|  7> N         -0.95947        3.49265       -7.00740
|  8> N          0.14558        1.48689       -7.20399
|  9> H          0.56537        0.69681       -6.72386
| 10> H          0.22068        1.58177       -8.20752
| 11> H         -1.40624        4.18151       -6.40326
| 12> H         -0.93421        3.68160       -7.99947
| 13> H          0.66843        2.55943       -3.23285
| 14> H          1.03407        3.72943       -4.49708
| 15> H         -1.28888        2.82674       -4.59500
| 16> H         -0.65170        1.18634       -4.75655
| 17> H          2.29129        1.95234       -5.70442
| 18> H          1.93270        0.83176       -4.41261
| 19> H          2.92953        2.23285       -4.10223
| 20> *
| 21>
| 22> %MaxCore 64000
| 23>
| 24> %pal nprocs 8
| 25> end
| 26>
| 27> %scf
| 28>   MaxIter 150
| 29> end
| 30>
| 31>
| 32>                          ****END OF INPUT****

CARTESIAN COORDINATES (ANGSTROEM)
---------------------------------
  C     -0.461290    2.234690   -4.989620
  C      0.848880    2.667970   -4.302350
  C      2.093430    1.861040   -4.656840
  C     -0.423840    2.398770   -6.474320
  N     -0.959470    3.492650   -7.007400
  N      0.145580    1.486890   -7.203990
  H      0.565370    0.696810   -6.723860
  H      0.220680    1.581770   -8.207520
  H     -1.406240    4.181510   -6.403260
  H     -0.934210    3.681600   -7.999470
  H      0.668430    2.559430   -3.232850
  H      1.034070    3.729430   -4.497080
  H     -1.288880    2.826740   -4.595000
  H     -0.651700    1.186340   -4.756550
  H      2.291290    1.952340   -5.704420
  H      1.932700    0.831760   -4.412610
  H      2.929530    2.232850   -4.102230

 Total Charge           Charge          ....    1
 Multiplicity           Mult            ....    1
 Number of Electrons    NEL             ....   48
 Basis Dimension        Dim             ....  208

ORBITAL ENERGIES
----------------

  NO   OCC          E(Eh)            E(eV)
   0   2.0000     -14.243895      -387.5961
   1   2.0000     -14.240734      -387.5101
   2   2.0000     -10.204425      -277.6765
   3   2.0000     -10.089802      -274.5575
   4   2.0000     -10.058397      -273.7029
   5   2.0000     -10.026060      -272.8230
   6   2.0000      -1.110937       -30.2301
   7   2.0000      -1.021861       -27.8062
   8   2.0000      -0.895626       -24.3712
   9   2.0000      -0.818370       -22.2690
  10   2.0000      -0.770465       -20.9654
  11   2.0000      -0.729111       -19.8401
  12   2.0000      -0.718117       -19.5410
  13   2.0000      -0.673064       -18.3150
  14   2.0000      -0.650855       -17.7107
  15   2.0000      -0.604279       -16.4433
  16   2.0000      -0.575076       -15.6486
  17   2.0000      -0.560237       -15.2448
  18   2.0000      -0.529082       -14.3971
  19   2.0000      -0.516482       -14.0542
  20   2.0000      -0.469886       -12.7863
  21   2.0000      -0.458083       -12.4651
  22   2.0000      -0.456380       -12.4187
  23   2.0000      -0.445358       -12.1188
  24   0.0000      -0.240915        -6.5556
  25   0.0000      -0.178458        -4.8561
  26   0.0000      -0.136800        -3.7225
  27   0.0000      -0.134996        -3.6734
  28   0.0000      -0.111586        -3.0364

MULLIKEN ATOMIC CHARGES
-----------------------
   0 C :    0.060713
   1 C :   -0.323275
   2 C :    0.790012
   3 C :    0.874334
   4 N :   -0.006955
   5 N :    0.075301
   6 H :    0.090015
   7 H :   -0.152528
   8 H :    0.039820
   9 H :   -0.141811
  10 H :   -0.025067
  11 H :   -0.061751
  12 H :   -0.045598
  13 H :    0.040348
  14 H :   -0.088476
  15 H :   -0.005381
  16 H :   -0.119700
Sum of atomic charges:    1.0000000

LOEWDIN ATOMIC CHARGES
----------------------
   0 C :    0.043994
   1 C :   -0.041525
   2 C :    0.136695
   3 C :   -0.060633
   4 N :    0.293339
   5 N :    0.300452
   6 H :    0.048567
   7 H :    0.052900
   8 H :    0.052739
   9 H :    0.041802
  10 H :    0.040587
  11 H :    0.034964
  12 H :    0.040329
  13 H :    0.047791
  14 H :   -0.030052
  15 H :   -0.005603
  16 H :    0.003653

  Mayer bond orders larger than 0.100000
B(  0-C ,  1-C ) :   1.2195 B(  0-C ,  3-C ) :   1.0486 B(  0-C ,  4-N ) :   0.1403
B(  0-C ,  5-N ) :   0.1394 B(  0-C , 10-H ) :   0.1230 B(  0-C , 11-H ) :   0.1040
B(  0-C , 12-H ) :   0.8822 B(  0-C , 13-H ) :   0.8208 B(  1-C ,  2-C ) :   1.3625
B(  1-C , 10-H ) :   0.8823 B(  1-C , 11-H ) :   0.9580 B(  1-C , 12-H ) :   0.1191
B(  1-C , 13-H ) :   0.1394 B(  1-C , 14-H ) :   0.2210 B(  1-C , 15-H ) :   0.2239
B(  1-C , 16-H ) :   0.2296 B(  2-C , 10-H ) :   0.1056 B(  2-C , 14-H ) :   0.7981
B(  2-C , 15-H ) :   0.7685 B(  2-C , 16-H ) :   0.7716 B(  3-C ,  4-N ) :   0.9920
B(  3-C ,  5-N ) :   1.0979 B(  3-C ,  7-H ) :  -0.2098 B(  3-C ,  9-H ) :  -0.1904
B(  4-N ,  5-N ) :   0.2083 B(  4-N ,  8-H ) :   1.0896 B(  4-N ,  9-H ) :   1.3103
B(  5-N ,  6-H ) :   1.0127 B(  5-N ,  7-H ) :   1.3553 B(  6-H ,  7-H ) :  -0.1960
B(  8-H ,  9-H ) :  -0.1832

Dispersion correction           -0.013745218
FINAL SINGLE POINT ENERGY      -267.829278146527

DIPOLE MOMENT
-------------
                                X             Y             Z
Electronic contribution:     -3.53332       0.63635      -4.29365
Nuclear contribution   :      2.80679      -0.44323       2.95915
                        -----------------------------------------
Total Dipole Moment    :     -0.72653       0.19311      -1.33450
                        -----------------------------------------
Magnitude (a.u.)       :      1.53167
Magnitude (Debye)      :      3.89320

Rotational constants in cm-1:     0.187834     0.079484     0.065778
Rotational constants in MHz :  5631.136036  2382.861517  1971.985559

                             ****ORCA TERMINATED NORMALLY****
TOTAL RUN TIME: 0 days 0 hours 0 minutes 5 seconds 308 msec
