                         Program Version 5.0.0 -  RELEASE  -
|  1> !PBE D3BJ RIJCOSX def2-SVPD def2/J TightSCF
|  2> *xyz 0 1
|  3> C         -0.46129        2.23469       -4.98962
|  4> C          0.84888        2.66797       -4.30235
|  5> C          2.09343        1.86104       -4.65684
|  6> H          2.44481        2.04157       -5.67499
|  7> H          2.90175        2.13786       -3.98034
|  8> S          1.87964        0.07859       -4.46297
|  9> F          3.20757       -0.46611       -4.42026
| 10> O          1.07506       -0.05616       -3.26876
| 11> O          1.13166       -0.31996       -5.67903
| 12> H          0.66843        2.55943       -3.23285
| 13> H          1.03407        3.72943       -4.49708
| 14> H         -0.35183        2.31783       -6.05075
| 15> H         -1.26108        2.86600       -4.66300
| 16> H         -0.68032        1.21949       -4.73211
| 17> *
| 18>
| 19> %MaxCore 64000
| 20>
| 21> %pal nprocs 8
| 22> end
| 23>
| 24> %scf
| 25>   MaxIter 150
| 26> end
| 27>
| 28>
| 29>                          ****END OF INPUT****

CARTESIAN COORDINATES (ANGSTROEM)
---------------------------------
  C     -0.461290    2.234690   -4.989620
  C      0.848880    2.667970   -4.302350
  C      2.093430    1.861040   -4.656840
  H      2.444810    2.041570   -5.674990
  H      2.901750    2.137860   -3.980340
  S      1.879640    0.078590   -4.462970
  F      3.207570   -0.466110   -4.420260
  O      1.075060   -0.056160   -3.268760
  O      1.131660   -0.319960   -5.679030
  H      0.668430    2.559430   -3.232850
  H      1.034070    3.729430   -4.497080
  H     -0.351830    2.317830   -6.050750
  H     -1.261080    2.866000   -4.663000
  H     -0.680320    1.219490   -4.732110

 Total Charge           Charge          ....    0
 Multiplicity           Mult            ....    1
 Number of Electrons    NEL             ....   66
 Basis Dimension        Dim             ....  212

ORBITAL ENERGIES
----------------

  NO   OCC          E(Eh)            E(eV)
   0   2.0000     -88.310180     -2403.0422
   1   2.0000     -24.392123      -663.7434
   2   2.0000     -18.778659      -510.9933
   3   2.0000     -18.766365      -510.6588
   4   2.0000      -9.952557      -270.8228
   5   2.0000      -9.921939      -269.9897
   6   2.0000      -9.884288      -268.9651
   7   2.0000      -7.915368      -215.3881
   8   2.0000      -5.946555      -161.8140
   9   2.0000      -5.940172      -161.6403
  10   2.0000      -5.938546      -161.5960
  11   2.0000      -1.277303       -34.7572
  12   2.0000      -1.019439       -27.7403
  13   2.0000      -0.918651       -24.9978
  14   2.0000      -0.749354       -20.3910
  15   2.0000      -0.683868       -18.6090
  16   2.0000      -0.640628       -17.4324
  17   2.0000      -0.571551       -15.5527
  18   2.0000      -0.527590       -14.3565
  19   2.0000      -0.518815       -14.1177
  20   2.0000      -0.497615       -13.5408
  21   2.0000      -0.442579       -12.0432
  22   2.0000      -0.433527       -11.7969
  23   2.0000      -0.407162       -11.0794
  24   2.0000      -0.399035       -10.8583
  25   2.0000      -0.377377       -10.2690
  26   2.0000      -0.342985        -9.3331
  27   2.0000      -0.331963        -9.0332
  28   2.0000      -0.324985        -8.8433
  29   2.0000      -0.307940        -8.3795
  30   2.0000      -0.291624        -7.9355
  31   2.0000      -0.275768        -7.5040
  32   2.0000      -0.261929        -7.1274
  33   0.0000      -0.028415        -0.7732
  34   0.0000      -0.006234        -0.1696
  35   0.0000       0.014443         0.3930
  36   0.0000       0.021454         0.5838
  37   0.0000       0.021903         0.5960

MULLIKEN ATOMIC CHARGES
-----------------------
   0 C :    0.791599
   1 C :   -0.261601
   2 C :    0.066178
   3 H :    0.020352
   4 H :    0.021900
   5 S :    1.356853
   6 F :   -0.400358
   7 O :   -0.619295
   8 O :   -0.630943
   9 H :    0.087201
  10 H :   -0.196085
  11 H :   -0.054050
  12 H :   -0.123196
  13 H :   -0.058554
Sum of atomic charges:   -0.0000000

LOEWDIN ATOMIC CHARGES
----------------------
   0 C :    0.140941
   1 C :   -0.068786
   2 C :   -0.063981
   3 H :    0.025120
   4 H :    0.014788
   5 S :    1.072494
   6 F :   -0.237152
   7 O :   -0.435392
   8 O :   -0.453389
   9 H :    0.024969
  10 H :    0.032309
  11 H :   -0.008832
  12 H :   -0.013518
  13 H :   -0.029571

  Mayer bond orders larger than 0.100000
B(  0-C ,  1-C ) :   1.3464 B(  0-C ,  9-H ) :   0.1043 B(  0-C , 11-H ) :   0.7564
B(  0-C , 12-H ) :   0.7503 B(  0-C , 13-H ) :   0.8129 B(  1-C ,  2-C ) :   1.3415
B(  1-C ,  3-H ) :   0.1342 B(  1-C ,  4-H ) :   0.1548 B(  1-C ,  9-H ) :   0.8250
B(  1-C , 10-H ) :   0.9079 B(  1-C , 11-H ) :   0.2171 B(  1-C , 12-H ) :   0.2182
B(  1-C , 13-H ) :   0.2059 B(  2-C ,  3-H ) :   0.9088 B(  2-C ,  4-H ) :   0.8549
B(  2-C ,  5-S ) :   0.9412 B(  2-C ,  9-H ) :   0.1321 B(  2-C , 10-H ) :   0.1281
B(  5-S ,  6-F ) :   0.7322 B(  5-S ,  7-O ) :   1.5060 B(  5-S ,  8-O ) :   1.4831

Dispersion correction           -0.013138500
FINAL SINGLE POINT ENERGY      -765.988378224002

DIPOLE MOMENT
-------------
                                X             Y             Z
Electronic contribution:      8.02852     -11.25743       1.23164
Nuclear contribution   :     -7.07796      12.41139      -1.18012
                        -----------------------------------------
Total Dipole Moment    :      0.95056       1.15395       0.05151
                        -----------------------------------------
Magnitude (a.u.)       :      1.49594
Magnitude (Debye)      :      3.80238

Rotational constants in cm-1:     0.134396     0.055628     0.052255
Rotational constants in MHz :  4029.100214  1667.685325  1566.551712

                             ****ORCA TERMINATED NORMALLY****
TOTAL RUN TIME: 0 days 0 hours 0 minutes 5 seconds 928 msec
