                         Program Version 5.0.0 -  RELEASE  -
|  1> !PBE D3BJ RIJCOSX def2-SVPD def2/J TightSCF
|  2> *xyz 0 1
|  3> C         -0.46129        2.23469       -4.98962
|  4> C          0.84888        2.66797       -4.30235
|  5> C          2.09343        1.86104       -4.65684
|  6> C         -0.42384        2.39877       -6.47432
|  7> C         -0.95947        3.49265       -7.00740
|  8> N          0.14558        1.48689       -7.20399
|  9> H          0.56537        0.69681       -6.72386
| 10> H          0.22068        1.58177       -8.20752
| 11> H         -1.40624        4.18151       -6.40326
| 12> H         -0.93421        3.68160       -7.99947
| 13> H          0.66843        2.55943       -3.23285
| 14> H          1.03407        3.72943       -4.49708
| 15> H         -1.28888        2.82674       -4.59500
| 16> H         -0.65170        1.18634       -4.75655
| 17> H          2.29129        1.95234       -5.70442
| 18> H          1.93270        0.83176       -4.41261
| 19> H          2.92953        2.23285       -4.10223
| 20> *
| 21>
| 22> %MaxCore 64000
| 23>
| 24> %pal nprocs 8
| 25> end
| 26>
| 27> %scf
| 28>   MaxIter 150
| 29> end
| 30>
| 31>
| 32>                          ****END OF INPUT****

CARTESIAN COORDINATES (ANGSTROEM)
---------------------------------
  C     -0.461290    2.234690   -4.989620
  C      0.848880    2.667970   -4.302350
  C      2.093430    1.861040   -4.656840
  C     -0.423840    2.398770   -6.474320
  C     -0.959470    3.492650   -7.007400
  N      0.145580    1.486890   -7.203990
  H      0.565370    0.696810   -6.723860
  H      0.220680    1.581770   -8.207520
  H     -1.406240    4.181510   -6.403260
  H     -0.934210    3.681600   -7.999470
  H      0.668430    2.559430   -3.232850
  H      1.034070    3.729430   -4.497080
  H     -1.288880    2.826740   -4.595000
  H     -0.651700    1.186340   -4.756550
  H      2.291290    1.952340   -5.704420
  H      1.932700    0.831760   -4.412610
  H      2.929530    2.232850   -4.102230

 Total Charge           Charge          ....    0
 Multiplicity           Mult            ....    1
 Number of Electrons    NEL             ....   48
 Basis Dimension        Dim             ....  208

ORBITAL ENERGIES
----------------

  NO   OCC          E(Eh)            E(eV)
   0   2.0000     -14.004886      -381.0923
   1   2.0000      -9.910819      -269.6871
   2   2.0000      -9.894109      -269.2324
   3   2.0000      -9.892982      -269.2017
   4   2.0000      -9.880764      -268.8692
   5   2.0000      -9.827649      -267.4239
   6   2.0000      -0.849362       -23.1123
   7   2.0000      -0.714878       -19.4528
   8   2.0000      -0.659920       -17.9573
   9   2.0000      -0.609031       -16.5726
  10   2.0000      -0.543679       -14.7943
  11   2.0000      -0.507795       -13.8178
  12   2.0000      -0.475578       -12.9411
  13   2.0000      -0.434861       -11.8332
  14   2.0000      -0.402765       -10.9598
  15   2.0000      -0.385879       -10.5003
  16   2.0000      -0.365290        -9.9401
  17   2.0000      -0.344288        -9.3686
  18   2.0000      -0.330483        -8.9929
  19   2.0000      -0.316947        -8.6246
  20   2.0000      -0.298379        -8.1193
  21   2.0000      -0.285134        -7.7589
  22   2.0000      -0.282734        -7.6936
  23   2.0000      -0.156968        -4.2713
  24   0.0000      -0.004953        -0.1348
  25   0.0000       0.013688         0.3725
  26   0.0000       0.027647         0.7523
  27   0.0000       0.031686         0.8622
  28   0.0000       0.046076         1.2538

MULLIKEN ATOMIC CHARGES
-----------------------
   0 C :    0.274602
   1 C :   -0.360119
   2 C :    0.764095
   3 C :   -0.053398
   4 C :    0.452706
   5 N :    0.230917
   6 H :   -0.058841
   7 H :   -0.215697
   8 H :   -0.111104
   9 H :   -0.520436
  10 H :   -0.050500
  11 H :   -0.097336
  12 H :    0.035787
  13 H :   -0.058041
  14 H :   -0.076494
  15 H :   -0.015143
  16 H :   -0.140998
Sum of atomic charges:    0.0000000

LOEWDIN ATOMIC CHARGES
----------------------
   0 C :    0.003602
   1 C :   -0.064654
   2 C :    0.114460
   3 C :   -0.272952
   4 C :    0.178472
   5 N :    0.187640
   6 H :   -0.000717
   7 H :    0.013331
   8 H :   -0.081975
   9 H :   -0.091116
  10 H :    0.015587
  11 H :    0.025327
  12 H :    0.024005
  13 H :    0.020370
  14 H :   -0.033175
  15 H :   -0.019411
  16 H :   -0.018793

  Mayer bond orders larger than 0.100000
B(  0-C ,  1-C ) :   1.1921 B(  0-C ,  3-C ) :   1.1241 B(  0-C ,  4-C ) :   0.1929
B(  0-C ,  5-N ) :   0.1501 B(  0-C , 10-H ) :   0.1120 B(  0-C , 11-H ) :   0.1289
B(  0-C , 12-H ) :   0.8256 B(  0-C , 13-H ) :   0.7262 B(  1-C ,  2-C ) :   1.3404
B(  1-C , 10-H ) :   0.8833 B(  1-C , 11-H ) :   0.9774 B(  1-C , 12-H ) :   0.1273
B(  1-C , 13-H ) :   0.1632 B(  1-C , 14-H ) :   0.2279 B(  1-C , 15-H ) :   0.2339
B(  1-C , 16-H ) :   0.2383 B(  2-C , 10-H ) :   0.1062 B(  2-C , 14-H ) :   0.8185
B(  2-C , 15-H ) :   0.7641 B(  2-C , 16-H ) :   0.7556 B(  3-C ,  4-C ) :   1.5714
B(  3-C ,  5-N ) :   1.1650 B(  3-C ,  7-H ) :  -0.1259 B(  3-C ,  9-H ) :   0.1800
B(  3-C , 12-H ) :   0.1447 B(  3-C , 13-H ) :   0.1758 B(  4-C ,  5-N ) :   0.3261
B(  4-C ,  8-H ) :   0.9112 B(  4-C ,  9-H ) :   0.6726 B(  5-N ,  6-H ) :   1.0100
B(  5-N ,  7-H ) :   1.3141 B(  6-H ,  7-H ) :  -0.1731

Dispersion correction           -0.014144263
FINAL SINGLE POINT ENERGY      -251.372713602020

DIPOLE MOMENT
-------------
                                X             Y             Z
Electronic contribution:     -2.08669      -0.44649      -2.65459
Nuclear contribution   :      2.52905      -0.17478       2.67366
                        -----------------------------------------
Total Dipole Moment    :      0.44236      -0.62126       0.01907
                        -----------------------------------------
Magnitude (a.u.)       :      0.76290
Magnitude (Debye)      :      1.93914

Rotational constants in cm-1:     0.190920     0.082419     0.067855
Rotational constants in MHz :  5723.626725  2470.870287  2034.242308

                             ****ORCA TERMINATED NORMALLY****
TOTAL RUN TIME: 0 days 0 hours 0 minutes 5 seconds 905 msec
