                         Program Version 5.0.0 -  RELEASE  -
|  1> !PBE D3BJ RIJCOSX def2-SVPD def2/J TightSCF
|  2> *xyz 0 1
|  3> C         -0.46129        2.23469       -4.98962
|  4> C          0.84888        2.66797       -4.30235
|  5> C          2.09343        1.86104       -4.65684
|  6> H          2.44481        2.04157       -5.67499
|  7> H          2.90175        2.13786       -3.98034
|  8> S          1.87964        0.07859       -4.46297
|  9> O          3.20757       -0.46611       -4.42026
| 10> F          1.07506       -0.05616       -3.26876
| 11> O          1.13166       -0.31996       -5.67903
| 12> H          0.66843        2.55943       -3.23285
| 13> H          1.03407        3.72943       -4.49708
| 14> H         -0.35183        2.31783       -6.05075
| 15> H         -1.26108        2.86600       -4.66300
| 16> H         -0.68032        1.21949       -4.73211
| 17> *
| 18>
| 19> %MaxCore 64000
| 20>
| 21> %pal nprocs 8
| 22> end
| 23>
| 24> %scf
| 25>   MaxIter 150
| 26> end
| 27>
| 28>
| 29>                          ****END OF INPUT****

CARTESIAN COORDINATES (ANGSTROEM)
---------------------------------
  C     -0.461290    2.234690   -4.989620
  C      0.848880    2.667970   -4.302350
  C      2.093430    1.861040   -4.656840
  H      2.444810    2.041570   -5.674990
  H      2.901750    2.137860   -3.980340
  S      1.879640    0.078590   -4.462970
  O      3.207570   -0.466110   -4.420260
  F      1.075060   -0.056160   -3.268760
  O      1.131660   -0.319960   -5.679030
  H      0.668430    2.559430   -3.232850
  H      1.034070    3.729430   -4.497080
  H     -0.351830    2.317830   -6.050750
  H     -1.261080    2.866000   -4.663000
  H     -0.680320    1.219490   -4.732110

 Total Charge           Charge          ....    0
 Multiplicity           Mult            ....    1
 Number of Electrons    NEL             ....   66
 Basis Dimension        Dim             ....  212

ORBITAL ENERGIES
----------------

  NO   OCC          E(Eh)            E(eV)
   0   2.0000     -88.309277     -2403.0176
   1   2.0000     -24.387555      -663.6191
   2   2.0000     -18.780935      -511.0552
   3   2.0000     -18.765148      -510.6256
   4   2.0000      -9.952274      -270.8152
   5   2.0000      -9.927812      -270.1495
   6   2.0000      -9.894923      -269.2545
   7   2.0000      -7.914420      -215.3623
   8   2.0000      -5.945793      -161.7933
   9   2.0000      -5.939125      -161.6118
  10   2.0000      -5.937562      -161.5693
  11   2.0000      -1.269329       -34.5402
  12   2.0000      -1.022125       -27.8134
  13   2.0000      -0.920957       -25.0605
  14   2.0000      -0.755560       -20.5598
  15   2.0000      -0.680532       -18.5182
  16   2.0000      -0.643883       -17.5210
  17   2.0000      -0.573468       -15.6049
  18   2.0000      -0.531195       -14.4546
  19   2.0000      -0.522229       -14.2106
  20   2.0000      -0.487852       -13.2751
  21   2.0000      -0.442489       -12.0407
  22   2.0000      -0.432031       -11.7562
  23   2.0000      -0.414599       -11.2818
  24   2.0000      -0.397582       -10.8188
  25   2.0000      -0.387338       -10.5400
  26   2.0000      -0.344741        -9.3809
  27   2.0000      -0.342091        -9.3088
  28   2.0000      -0.336596        -9.1592
  29   2.0000      -0.317287        -8.6338
  30   2.0000      -0.290576        -7.9070
  31   2.0000      -0.276584        -7.5262
  32   2.0000      -0.261965        -7.1284
  33   0.0000      -0.032924        -0.8959
  34   0.0000       0.000866         0.0236
  35   0.0000       0.012389         0.3371
  36   0.0000       0.018813         0.5119
  37   0.0000       0.019654         0.5348

MULLIKEN ATOMIC CHARGES
-----------------------
   0 C :    0.817617
   1 C :   -0.253358
   2 C :    0.109007
   3 H :    0.011754
   4 H :    0.006602
   5 S :    1.304452
   6 O :   -0.622213
   7 F :   -0.360434
   8 O :   -0.631017
   9 H :    0.059907
  10 H :   -0.198903
  11 H :   -0.052052
  12 H :   -0.118776
  13 H :   -0.072584
Sum of atomic charges:    0.0000000

LOEWDIN ATOMIC CHARGES
----------------------
   0 C :    0.136433
   1 C :   -0.082960
   2 C :   -0.050994
   3 H :    0.037767
   4 H :    0.018911
   5 S :    1.065789
   6 O :   -0.431272
   7 F :   -0.238104
   8 O :   -0.451590
   9 H :    0.019674
  10 H :    0.030126
  11 H :   -0.005375
  12 H :   -0.013362
  13 H :   -0.035042

  Mayer bond orders larger than 0.100000
B(  0-C ,  1-C ) :   1.3460 B(  0-C ,  9-H ) :   0.1011 B(  0-C , 11-H ) :   0.7578
B(  0-C , 12-H ) :   0.7499 B(  0-C , 13-H ) :   0.8075 B(  1-C ,  2-C ) :   1.2847
B(  1-C ,  3-H ) :   0.1367 B(  1-C ,  4-H ) :   0.1413 B(  1-C ,  9-H ) :   0.8359
B(  1-C , 10-H ) :   0.9151 B(  1-C , 11-H ) :   0.2237 B(  1-C , 12-H ) :   0.2182
B(  1-C , 13-H ) :   0.2120 B(  2-C ,  3-H ) :   0.9043 B(  2-C ,  4-H ) :   0.8974
B(  2-C ,  5-S ) :   0.9668 B(  2-C ,  9-H ) :   0.1244 B(  2-C , 10-H ) :   0.1254
B(  5-S ,  6-O ) :   1.6035 B(  5-S ,  7-F ) :   0.7035 B(  5-S ,  8-O ) :   1.5133

Dispersion correction           -0.013022616
FINAL SINGLE POINT ENERGY      -765.991738105719

DIPOLE MOMENT
-------------
                                X             Y             Z
Electronic contribution:      4.41904     -10.51383       3.12942
Nuclear contribution   :     -4.78457      11.97051      -2.41849
                        -----------------------------------------
Total Dipole Moment    :     -0.36553       1.45668       0.71093
                        -----------------------------------------
Magnitude (a.u.)       :      1.66161
Magnitude (Debye)      :      4.22348

Rotational constants in cm-1:     0.129206     0.056639     0.054229
Rotational constants in MHz :  3873.509495  1697.990779  1625.734877

                             ****ORCA TERMINATED NORMALLY****
TOTAL RUN TIME: 0 days 0 hours 0 minutes 6 seconds 58 msec
