                         Program Version 5.0.0 -  RELEASE  -
|  1> !PBE D3BJ RIJCOSX def2-SVPD def2/J TightSCF
|  2> *xyz 0 1
|  3> C         -0.46129        2.23469       -4.98962
|  4> C          0.84888        2.66797       -4.30235
|  5> C          2.09343        1.86104       -4.65684
|  6> C         -0.42384        2.39877       -6.47432
|  7> N         -0.95947        3.49265       -7.00740
|  8> C          0.14558        1.48689       -7.20399
|  9> H          0.56537        0.69681       -6.72386
| 10> H          0.22068        1.58177       -8.20752
| 11> H         -1.40624        4.18151       -6.40326
| 12> H         -0.93421        3.68160       -7.99947
| 13> H          0.66843        2.55943       -3.23285
| 14> H          1.03407        3.72943       -4.49708
| 15> H         -1.28888        2.82674       -4.59500
| 16> H         -0.65170        1.18634       -4.75655
| 17> H          2.29129        1.95234       -5.70442
| 18> H          1.93270        0.83176       -4.41261
| 19> H          2.92953        2.23285       -4.10223
| 20> *
| 21>
| 22> %MaxCore 64000
| 23>
| 24> %pal nprocs 8
| 25> end
| 26>
| 27> %scf
| 28>   MaxIter 150
| 29> end
| 30>
| 31>
| 32>                          ****END OF INPUT****

CARTESIAN COORDINATES (ANGSTROEM)
---------------------------------
  C     -0.461290    2.234690   -4.989620
  C      0.848880    2.667970   -4.302350
  C      2.093430    1.861040   -4.656840
  C     -0.423840    2.398770   -6.474320
  N     -0.959470    3.492650   -7.007400
  C      0.145580    1.486890   -7.203990
  H      0.565370    0.696810   -6.723860
  H      0.220680    1.581770   -8.207520
  H     -1.406240    4.181510   -6.403260
  H     -0.934210    3.681600   -7.999470
  H      0.668430    2.559430   -3.232850
  H      1.034070    3.729430   -4.497080
  H     -1.288880    2.826740   -4.595000
  H     -0.651700    1.186340   -4.756550
  H      2.291290    1.952340   -5.704420
  H      1.932700    0.831760   -4.412610
  H      2.929530    2.232850   -4.102230

 Total Charge           Charge          ....    0
 Multiplicity           Mult            ....    1
 Number of Electrons    NEL             ....   48
 Basis Dimension        Dim             ....  208

ORBITAL ENERGIES
----------------

  NO   OCC          E(Eh)            E(eV)
   0   2.0000     -14.002225      -381.0199
   1   2.0000      -9.908981      -269.6371
   2   2.0000      -9.893813      -269.2243
   3   2.0000      -9.891744      -269.1680
   4   2.0000      -9.870764      -268.5971
   5   2.0000      -9.826827      -267.4016
   6   2.0000      -0.837488       -22.7892
   7   2.0000      -0.714848       -19.4520
   8   2.0000      -0.656794       -17.8723
   9   2.0000      -0.614135       -16.7115
  10   2.0000      -0.534129       -14.5344
  11   2.0000      -0.507024       -13.7968
  12   2.0000      -0.469231       -12.7684
  13   2.0000      -0.428942       -11.6721
  14   2.0000      -0.403109       -10.9691
  15   2.0000      -0.387924       -10.5560
  16   2.0000      -0.350033        -9.5249
  17   2.0000      -0.346197        -9.4205
  18   2.0000      -0.330191        -8.9849
  19   2.0000      -0.318255        -8.6602
  20   2.0000      -0.292970        -7.9721
  21   2.0000      -0.283186        -7.7059
  22   2.0000      -0.277230        -7.5438
  23   2.0000      -0.161098        -4.3837
  24   0.0000      -0.004192        -0.1141
  25   0.0000       0.014276         0.3885
  26   0.0000       0.027094         0.7373
  27   0.0000       0.034292         0.9331
  28   0.0000       0.048819         1.3284

MULLIKEN ATOMIC CHARGES
-----------------------
   0 C :    0.261853
   1 C :   -0.344316
   2 C :    0.731577
   3 C :    0.071875
   4 N :    0.087417
   5 C :    0.444260
   6 H :    0.081488
   7 H :   -0.614854
   8 H :   -0.103968
   9 H :   -0.193930
  10 H :   -0.049622
  11 H :   -0.095532
  12 H :   -0.131332
  13 H :    0.073060
  14 H :   -0.033688
  15 H :   -0.012158
  16 H :   -0.172130
Sum of atomic charges:   -0.0000000

LOEWDIN ATOMIC CHARGES
----------------------
   0 C :    0.003435
   1 C :   -0.066806
   2 C :    0.118239
   3 C :   -0.261631
   4 N :    0.183334
   5 C :    0.169015
   6 H :   -0.074518
   7 H :   -0.079730
   8 H :   -0.003048
   9 H :    0.000944
  10 H :    0.015205
  11 H :    0.021244
  12 H :    0.013388
  13 H :    0.028274
  14 H :   -0.031638
  15 H :   -0.015181
  16 H :   -0.020526

  Mayer bond orders larger than 0.100000
B(  0-C ,  1-C ) :   1.2109 B(  0-C ,  3-C ) :   1.0085 B(  0-C ,  4-N ) :   0.1551
B(  0-C ,  5-C ) :   0.2269 B(  0-C , 10-H ) :   0.1355 B(  0-C , 11-H ) :   0.1271
B(  0-C , 12-H ) :   0.8141 B(  0-C , 13-H ) :   0.7817 B(  1-C ,  2-C ) :   1.3550
B(  1-C , 10-H ) :   0.8487 B(  1-C , 11-H ) :   0.9532 B(  1-C , 12-H ) :   0.1439
B(  1-C , 13-H ) :   0.1530 B(  1-C , 14-H ) :   0.2256 B(  1-C , 15-H ) :   0.2293
B(  1-C , 16-H ) :   0.2481 B(  2-C , 10-H ) :   0.1102 B(  2-C , 14-H ) :   0.8089
B(  2-C , 15-H ) :   0.7692 B(  2-C , 16-H ) :   0.7740 B(  3-C ,  4-N ) :   1.1100
B(  3-C ,  5-C ) :   1.7336 B(  3-C ,  6-H ) :   0.2160 B(  3-C ,  7-H ) :   0.2212
B(  3-C ,  9-H ) :  -0.1103 B(  3-C , 12-H ) :   0.1321 B(  4-N ,  5-C ) :   0.2919
B(  4-N ,  8-H ) :   1.1304 B(  4-N ,  9-H ) :   1.2894 B(  5-C ,  6-H ) :   0.6884
B(  5-C ,  7-H ) :   0.7348 B(  6-H ,  7-H ) :  -0.1113 B(  8-H ,  9-H ) :  -0.1642

Dispersion correction           -0.014192013
FINAL SINGLE POINT ENERGY      -251.372203400648

DIPOLE MOMENT
-------------
                                X             Y             Z
Electronic contribution:     -3.08439       1.29662      -2.51341
Nuclear contribution   :      2.79043      -0.64920       2.62716
                        -----------------------------------------
Total Dipole Moment    :     -0.29396       0.64741       0.11375
                        -----------------------------------------
Magnitude (a.u.)       :      0.72007
Magnitude (Debye)      :      1.83026

Rotational constants in cm-1:     0.196182     0.080190     0.067215
Rotational constants in MHz :  5881.393438  2404.041106  2015.067205

                             ****ORCA TERMINATED NORMALLY****
TOTAL RUN TIME: 0 days 0 hours 0 minutes 5 seconds 749 msec
