                         Program Version 5.0.0 -  RELEASE  -
|  1> !PBE D3BJ RIJCOSX def2-SVPD def2/J TightSCF
|  2> *xyz 0 1
|  3> C         -0.46129        2.23469       -4.98962
|  4> C          0.84888        2.66797       -4.30235
|  5> C          2.09343        1.86104       -4.65684
|  6> H          2.44481        2.04157       -5.67499
|  7> H          2.90175        2.13786       -3.98034
|  8> S          1.87964        0.07859       -4.46297
|  9> O          3.20757       -0.46611       -4.42026
| 10> O          1.07506       -0.05616       -3.26876
| 11> F          1.13166       -0.31996       -5.67903
| 12> H          0.66843        2.55943       -3.23285
| 13> H          1.03407        3.72943       -4.49708
| 14> H         -0.35183        2.31783       -6.05075
| 15> H         -1.26108        2.86600       -4.66300
| 16> H         -0.68032        1.21949       -4.73211
| 17> *
| 18>
| 19> %MaxCore 64000
| 20>
| 21> %pal nprocs 8
| 22> end
| 23>
| 24> %scf
| 25>   MaxIter 150
| 26> end
| 27>
| 28>
| 29>                          ****END OF INPUT****

CARTESIAN COORDINATES (ANGSTROEM)
---------------------------------
  C     -0.461290    2.234690   -4.989620
  C      0.848880    2.667970   -4.302350
  C      2.093430    1.861040   -4.656840
  H      2.444810    2.041570   -5.674990
  H      2.901750    2.137860   -3.980340
  S      1.879640    0.078590   -4.462970
  O      3.207570   -0.466110   -4.420260
  O      1.075060   -0.056160   -3.268760
  F      1.131660   -0.319960   -5.679030
  H      0.668430    2.559430   -3.232850
  H      1.034070    3.729430   -4.497080
  H     -0.351830    2.317830   -6.050750
  H     -1.261080    2.866000   -4.663000
  H     -0.680320    1.219490   -4.732110

 Total Charge           Charge          ....    0
 Multiplicity           Mult            ....    1
 Number of Electrons    NEL             ....   66
 Basis Dimension        Dim             ....  212

ORBITAL ENERGIES
----------------

  NO   OCC          E(Eh)            E(eV)
   0   2.0000     -88.307443     -2402.9677
   1   2.0000     -24.368969      -663.1134
   2   2.0000     -18.780885      -511.0539
   3   2.0000     -18.777662      -510.9662
   4   2.0000      -9.951649      -270.7981
   5   2.0000      -9.923175      -270.0233
   6   2.0000      -9.897417      -269.3224
   7   2.0000      -7.912632      -215.3137
   8   2.0000      -5.943678      -161.7357
   9   2.0000      -5.937610      -161.5706
  10   2.0000      -5.935972      -161.5260
  11   2.0000      -1.239059       -33.7165
  12   2.0000      -1.029981       -28.0272
  13   2.0000      -0.939780       -25.5727
  14   2.0000      -0.752616       -20.4797
  15   2.0000      -0.676500       -18.4085
  16   2.0000      -0.633859       -17.2482
  17   2.0000      -0.571555       -15.5528
  18   2.0000      -0.510208       -13.8835
  19   2.0000      -0.501514       -13.6469
  20   2.0000      -0.492083       -13.3903
  21   2.0000      -0.447105       -12.1664
  22   2.0000      -0.428519       -11.6606
  23   2.0000      -0.410227       -11.1628
  24   2.0000      -0.403133       -10.9698
  25   2.0000      -0.389140       -10.5890
  26   2.0000      -0.350840        -9.5468
  27   2.0000      -0.341611        -9.2957
  28   2.0000      -0.331897        -9.0314
  29   2.0000      -0.315567        -8.5870
  30   2.0000      -0.296818        -8.0768
  31   2.0000      -0.287617        -7.8265
  32   2.0000      -0.277265        -7.5448
  33   0.0000      -0.026668        -0.7257
  34   0.0000      -0.001561        -0.0425
  35   0.0000       0.010482         0.2852
  36   0.0000       0.017318         0.4712
  37   0.0000       0.025199         0.6857

MULLIKEN ATOMIC CHARGES
-----------------------
   0 C :    0.778524
   1 C :   -0.215745
   2 C :    0.075256
   3 H :    0.022723
   4 H :    0.013256
   5 S :    1.313837
   6 O :   -0.628435
   7 O :   -0.630178
   8 F :   -0.362734
   9 H :    0.089076
  10 H :   -0.194519
  11 H :   -0.059383
  12 H :   -0.115492
  13 H :   -0.086186
Sum of atomic charges:   -0.0000000

LOEWDIN ATOMIC CHARGES
----------------------
   0 C :    0.135878
   1 C :   -0.077724
   2 C :   -0.053401
   3 H :    0.023747
   4 H :    0.029641
   5 S :    1.063511
   6 O :   -0.431636
   7 O :   -0.432940
   8 F :   -0.255752
   9 H :    0.025719
  10 H :    0.029932
  11 H :   -0.012309
  12 H :   -0.011233
  13 H :   -0.033432

  Mayer bond orders larger than 0.100000
B(  0-C ,  1-C ) :   1.3415 B(  0-C ,  9-H ) :   0.1066 B(  0-C , 11-H ) :   0.7585
B(  0-C , 12-H ) :   0.7595 B(  0-C , 13-H ) :   0.8181 B(  1-C ,  2-C ) :   1.3251
B(  1-C ,  3-H ) :   0.1376 B(  1-C ,  4-H ) :   0.1339 B(  1-C ,  9-H ) :   0.8322
B(  1-C , 10-H ) :   0.9022 B(  1-C , 11-H ) :   0.2167 B(  1-C , 12-H ) :   0.2159
B(  1-C , 13-H ) :   0.2038 B(  2-C ,  3-H ) :   0.9082 B(  2-C ,  4-H ) :   0.8847
B(  2-C ,  5-S ) :   0.9627 B(  2-C ,  9-H ) :   0.1349 B(  2-C , 10-H ) :   0.1228
B(  5-S ,  6-O ) :   1.5987 B(  5-S ,  7-O ) :   1.5378 B(  5-S ,  8-F ) :   0.6547
B(  6-O ,  7-O ) :   0.1008

Dispersion correction           -0.013032333
FINAL SINGLE POINT ENERGY      -766.008128122270

DIPOLE MOMENT
-------------
                                X             Y             Z
Electronic contribution:      4.50064     -10.96609      -0.89079
Nuclear contribution   :     -4.84544      12.25421       0.17361
                        -----------------------------------------
Total Dipole Moment    :     -0.34480       1.28812      -0.71718
                        -----------------------------------------
Magnitude (a.u.)       :      1.51409
Magnitude (Debye)      :      3.84852

Rotational constants in cm-1:     0.128954     0.057447     0.053381
Rotational constants in MHz :  3865.954571  1722.226669  1600.330369

                             ****ORCA TERMINATED NORMALLY****
TOTAL RUN TIME: 0 days 0 hours 0 minutes 5 seconds 729 msec
