                         Program Version 5.0.0 -  RELEASE  -
|  1> !PBE D3BJ RIJCOSX def2-SVPD def2/J TightSCF xyzfile
|  2>
|  3> *xyzfile 0 1 D1.xyz
|  4>
|  5> %MaxCore 64000
|  6>
|  7> %pal nprocs 4
|  8> end
|  9>
| 10> %scf
| 11>   MaxIter 150
| 12> end
| 13>
| 14>
| 15>                          ****END OF INPUT****

CARTESIAN COORDINATES (ANGSTROEM)
---------------------------------
  C     -0.461293    2.234686   -4.989619
  C      0.848883    2.667967   -4.302351
  C      2.093434    1.861037   -4.656845
  H      2.444814    2.041567   -5.674990
  H      2.901748    2.137864   -3.980338
  S      1.879644    0.078594   -4.462965
  C     -0.423841    2.398772   -6.474317
  C     -0.959467    3.492647   -7.007401
  N      0.145585    1.486891   -7.203987
  H      0.565371    0.696807   -6.723858
  H      0.220682    1.581768   -8.207520
  H     -1.406243    4.181507   -6.403261
  H     -0.934215    3.681601   -7.999468
  F      3.207574   -0.466111   -4.420259
  O      1.075064   -0.056160   -3.268758
  O      1.131661   -0.319960   -5.679031
  H      0.668432    2.559427   -3.232850
  H      1.034074    3.729426   -4.497081
  H     -1.288884    2.826737   -4.594997
  H     -0.651696    1.186343   -4.756552

 Total Charge           Charge          ....    0
 Multiplicity           Mult            ....    1
 Number of Electrons    NEL             ....   88
 Basis Dimension        Dim             ....  296

ORBITAL ENERGIES
----------------

  NO   OCC          E(Eh)            E(eV)
   0   2.0000     -88.329871     -2403.5780
   1   2.0000     -24.407769      -664.1692
   2   2.0000     -18.794546      -511.4256
   3   2.0000     -18.791678      -511.3476
   4   2.0000     -13.977584      -380.3494
   5   2.0000      -9.961091      -271.0551
   6   2.0000      -9.925294      -270.0810
   7   2.0000      -9.904768      -269.5224
   8   2.0000      -9.897829      -269.3336
   9   2.0000      -9.821677      -267.2614
  10   2.0000      -7.934490      -215.9085
  11   2.0000      -5.965669      -162.3341
  12   2.0000      -5.959600      -162.1690
  13   2.0000      -5.957485      -162.1114
  14   2.0000      -1.292779       -35.1783
  15   2.0000      -1.039701       -28.2917
  16   2.0000      -0.944036       -25.6885
  17   2.0000      -0.834305       -22.7026
  18   2.0000      -0.758531       -20.6407
  19   2.0000      -0.698747       -19.0139
  20   2.0000      -0.668283       -18.1849
  21   2.0000      -0.624850       -17.0030
  22   2.0000      -0.583308       -15.8726
  23   2.0000      -0.546605       -14.8739
  24   2.0000      -0.536769       -14.6062
  25   2.0000      -0.523264       -14.2387
  26   2.0000      -0.501290       -13.6408
  27   2.0000      -0.474409       -12.9093
  28   2.0000      -0.452678       -12.3180
  29   2.0000      -0.442139       -12.0312
  30   2.0000      -0.423979       -11.5371
  31   2.0000      -0.410303       -11.1649
  32   2.0000      -0.402708       -10.9582
  33   2.0000      -0.368019       -10.0143
  34   2.0000      -0.354659        -9.6508
  35   2.0000      -0.351344        -9.5606
  36   2.0000      -0.335188        -9.1209
  37   2.0000      -0.323548        -8.8042
  38   2.0000      -0.307843        -8.3768
  39   2.0000      -0.302368        -8.2279
  40   2.0000      -0.288363        -7.8468
  41   2.0000      -0.285644        -7.7728
  42   2.0000      -0.279170        -7.5966
  43   2.0000      -0.148868        -4.0509
  44   0.0000      -0.042180        -1.1478
  45   0.0000      -0.010836        -0.2949
  46   0.0000       0.003378         0.0919
  47   0.0000       0.006815         0.1854
  48   0.0000       0.017243         0.4692

MULLIKEN ATOMIC CHARGES
-----------------------
   0 C :    0.455968
   1 C :    0.125195
   2 C :    0.096252
   3 H :    0.162767
   4 H :   -0.131885
   5 S :    1.473981
   6 C :   -0.090949
   7 C :    0.341295
   8 N :    0.652455
   9 H :   -0.381406
  10 H :   -0.254075
  11 H :   -0.087224
  12 H :   -0.461605
  13 F :   -0.414967
  14 O :   -0.620826
  15 O :   -0.780195
  16 H :    0.181926
  17 H :   -0.205417
  18 H :   -0.005595
  19 H :   -0.055696
Sum of atomic charges:   -0.0000000

LOEWDIN ATOMIC CHARGES
----------------------
   0 C :    0.028077
   1 C :   -0.007540
   2 C :   -0.047432
   3 H :    0.023198
   4 H :    0.016219
   5 S :    1.123674
   6 C :   -0.255857
   7 C :    0.171798
   8 N :    0.213860
   9 H :   -0.139223
  10 H :    0.015764
  11 H :   -0.087295
  12 H :   -0.092201
  13 F :   -0.226366
  14 O :   -0.418786
  15 O :   -0.430708
  16 H :    0.026978
  17 H :    0.040640
  18 H :    0.031898
  19 H :    0.013302

  Mayer bond orders larger than 0.100000
B(  0-C ,  1-C ) :   1.1927 B(  0-C ,  6-C ) :   1.1431 B(  0-C ,  8-N ) :   0.1439
B(  0-C , 16-H ) :   0.1547 B(  0-C , 17-H ) :   0.1116 B(  0-C , 18-H ) :   0.7097
B(  0-C , 19-H ) :   0.6986 B(  1-C ,  2-C ) :   1.4129 B(  1-C ,  3-H ) :   0.1350
B(  1-C ,  4-H ) :   0.2257 B(  1-C , 16-H ) :   0.7407 B(  1-C , 17-H ) :   0.8854
B(  1-C , 18-H ) :   0.1522 B(  1-C , 19-H ) :   0.1687 B(  2-C ,  3-H ) :   0.8532
B(  2-C ,  4-H ) :   0.7777 B(  2-C ,  5-S ) :   0.9205 B(  2-C , 15-O ) :   0.1522
B(  2-C , 16-H ) :   0.1357 B(  2-C , 17-H ) :   0.1183 B(  5-S , 13-F ) :   0.6917
B(  5-S , 14-O ) :   1.5455 B(  5-S , 15-O ) :   1.3818 B(  6-C ,  7-C ) :   1.5096
B(  6-C ,  8-N ) :   1.1767 B(  6-C , 10-H ) :  -0.1402 B(  6-C , 12-H ) :   0.1911
B(  6-C , 18-H ) :   0.1686 B(  6-C , 19-H ) :   0.1735 B(  7-C ,  8-N ) :   0.2294
B(  7-C , 11-H ) :   0.9229 B(  7-C , 12-H ) :   0.6359 B(  8-N ,  9-H ) :   0.9384
B(  8-N , 10-H ) :   1.2520 B(  9-H , 10-H ) :  -0.2268 B(  9-H , 15-O ) :   0.1503

Dispersion correction           -0.022824120
FINAL SINGLE POINT ENERGY      -898.482741687404

DIPOLE MOMENT
-------------
                                X             Y             Z
Electronic contribution:     10.09574     -13.93460       5.43227
Nuclear contribution   :     -8.53047      14.15581      -5.17613
                        -----------------------------------------
Total Dipole Moment    :      1.56527       0.22121       0.25614
                        -----------------------------------------
Magnitude (a.u.)       :      1.60144
Magnitude (Debye)      :      4.07054

Rotational constants in cm-1:     0.081196     0.024861     0.022477
Rotational constants in MHz :  2434.181666   745.320670   673.846846

                             ****ORCA TERMINATED NORMALLY****
TOTAL RUN TIME: 0 days 0 hours 0 minutes 18 seconds 484 msec
