                         Program Version 5.0.0 -  RELEASE  -
|  1> !PBE D3BJ RIJCOSX def2-TZVPD def2/J TightSCF
|  2>
|  3> *xyz -1 1
|  4> C          2.95263        1.86308       -3.57485
|  5> C          4.12921        0.89839       -3.41895
|  6> H          3.73369       -0.10060       -3.23763
|  7> H          4.71910        0.86256       -4.33901
|  8> C          5.01734        1.31521       -2.22130
|  9> O          4.73706        0.85411       -1.12283
| 10> O          5.92815        2.16811       -2.49136
| 11> H          2.35067        1.56005       -4.40594
| 12> H          3.32277        2.85258       -3.74453
| 13> H          2.36134        1.85149       -2.68315
| 14> *
| 15> %MaxCore 64000
| 16>
| 17> %pal nprocs 4
| 18> end
| 19>
| 20> %scf
| 21>   MaxIter 150
| 22> end
| 23>
| 24>
| 25>                          ****END OF INPUT****

CARTESIAN COORDINATES (ANGSTROEM)
---------------------------------
  C      2.952630    1.863080   -3.574850
  C      4.129210    0.898390   -3.418950
  H      3.733690   -0.100600   -3.237630
  H      4.719100    0.862560   -4.339010
  C      5.017340    1.315210   -2.221300
  O      4.737060    0.854110   -1.122830
  O      5.928150    2.168110   -2.491360
  H      2.350670    1.560050   -4.405940
  H      3.322770    2.852580   -3.744530
  H      2.361340    1.851490   -2.683150

 Total Charge           Charge          ....   -1
 Multiplicity           Mult            ....    1
 Number of Electrons    NEL             ....   40
 Basis Dimension        Dim             ....  236

ORBITAL ENERGIES
----------------

  NO   OCC          E(Eh)            E(eV)
   0   2.0000     -18.493804      -503.2420
   1   2.0000     -18.484761      -502.9959
   2   2.0000      -9.754668      -265.4380
   3   2.0000      -9.716677      -264.4042
   4   2.0000      -9.703681      -264.0506
   5   2.0000      -0.738990       -20.1089
   6   2.0000      -0.647410       -17.6169
   7   2.0000      -0.532777       -14.4976
   8   2.0000      -0.405267       -11.0279
   9   2.0000      -0.267367        -7.2754
  10   2.0000      -0.241081        -6.5601
  11   2.0000      -0.209610        -5.7038
  12   2.0000      -0.183679        -4.9982
  13   2.0000      -0.162853        -4.4315
  14   2.0000      -0.162274        -4.4157
  15   2.0000      -0.131257        -3.5717
  16   2.0000      -0.124596        -3.3904
  17   2.0000      -0.013773        -0.3748
  18   2.0000       0.002723         0.0741
  19   2.0000       0.016602         0.4518
  20   0.0000       0.121019         3.2931
  21   0.0000       0.147040         4.0012
  22   0.0000       0.158969         4.3258
  23   0.0000       0.168461         4.5841
  24   0.0000       0.194934         5.3044

MULLIKEN ATOMIC CHARGES
-----------------------
   0 C :   -0.937567
   1 C :    0.018802
   2 H :    0.147261
   3 H :    0.153917
   4 C :    0.280099
   5 O :   -0.617109
   6 O :   -0.691211
   7 H :    0.180277
   8 H :    0.234899
   9 H :    0.230633
Sum of atomic charges:   -1.0000000

LOEWDIN ATOMIC CHARGES
----------------------
   0 C :   -0.135689
   1 C :   -0.219814
   2 H :    0.082144
   3 H :    0.085726
   4 C :   -0.803656
   5 O :   -0.053537
   6 O :   -0.112802
   7 H :    0.040318
   8 H :    0.058401
   9 H :    0.058909

  Mayer bond orders larger than 0.100000
B(  0-C ,  1-C ) :   0.6847 B(  0-C ,  4-C ) :   0.2300 B(  0-C ,  7-H ) :   0.9732
B(  0-C ,  8-H ) :   1.0012 B(  0-C ,  9-H ) :   0.9985 B(  1-C ,  2-H ) :   0.9928
B(  1-C ,  3-H ) :   0.9803 B(  1-C ,  4-C ) :   0.8836 B(  4-C ,  5-O ) :   1.5275
B(  4-C ,  6-O ) :   1.4244

Dispersion correction           -0.006556637
FINAL SINGLE POINT ENERGY      -267.641958321906

DIPOLE MOMENT
-------------
                                X             Y             Z
Electronic contribution:      4.48918      -0.18294       3.97397
Nuclear contribution   :     -5.85873      -0.10793      -5.24103
                        -----------------------------------------
Total Dipole Moment    :     -1.36955      -0.29087      -1.26706
                        -----------------------------------------
Magnitude (a.u.)       :      1.88831
Magnitude (Debye)      :      4.79969

Rotational constants in cm-1:     0.292505     0.135951     0.110253
Rotational constants in MHz :  8769.065873  4075.717001  3305.311891

                             ****ORCA TERMINATED NORMALLY****
TOTAL RUN TIME: 0 days 0 hours 0 minutes 13 seconds 521 msec
