                         Program Version 5.0.0 -  RELEASE  -
|  1> !PBE D3BJ RIJCOSX def2-TZVPD def2/J TightSCF
|  2>
|  3> *xyz 1 1
|  4> C          3.34350        3.35457       -3.59200
|  5> C          2.95263        1.86308       -3.57485
|  6> C          4.25587        3.70385       -4.72605
|  7> N          3.73403        4.29378       -5.80077
|  8> N          5.51504        3.40725       -4.63718
|  9> H          6.14919        3.60120       -5.39905
| 10> H          5.81358        2.89950       -3.80879
| 11> H          2.74138        4.51311       -5.82470
| 12> H          4.28755        4.52126       -6.61434
| 13> H          3.86125        3.59725       -2.66298
| 14> H          2.44649        3.97346       -3.65656
| 15> H          2.44395        1.61721       -4.48352
| 16> H          2.30781        1.67290       -2.74242
| 17> H          3.83491        1.26414       -3.48670
| 18> *
| 19> %MaxCore 64000
| 20>
| 21> %pal nprocs 4
| 22> end
| 23>
| 24> %scf
| 25>   MaxIter 150
| 26> end
| 27>
| 28>
| 29>                          ****END OF INPUT****

CARTESIAN COORDINATES (ANGSTROEM)
---------------------------------
  C      3.343500    3.354570   -3.592000
  C      2.952630    1.863080   -3.574850
  C      4.255870    3.703850   -4.726050
  N      3.734030    4.293780   -5.800770
  N      5.515040    3.407250   -4.637180
  H      6.149190    3.601200   -5.399050
  H      5.813580    2.899500   -3.808790
  H      2.741380    4.513110   -5.824700
  H      4.287550    4.521260   -6.614340
  H      3.861250    3.597250   -2.662980
  H      2.446490    3.973460   -3.656560
  H      2.443950    1.617210   -4.483520
  H      2.307810    1.672900   -2.742420
  H      3.834910    1.264140   -3.486700

 Total Charge           Charge          ....    1
 Multiplicity           Mult            ....    1
 Number of Electrons    NEL             ....   40
 Basis Dimension        Dim             ....  266

ORBITAL ENERGIES
----------------

  NO   OCC          E(Eh)            E(eV)
   0   2.0000     -14.231483      -387.2583
   1   2.0000     -14.227720      -387.1559
   2   2.0000     -10.193853      -277.3888
   3   2.0000     -10.080216      -274.2966
   4   2.0000     -10.036208      -273.0991
   5   2.0000      -1.121624       -30.5209
   6   2.0000      -1.033385       -28.1198
   7   2.0000      -0.897317       -24.4172
   8   2.0000      -0.799281       -21.7495
   9   2.0000      -0.757749       -20.6194
  10   2.0000      -0.725318       -19.7369
  11   2.0000      -0.697457       -18.9788
  12   2.0000      -0.654335       -17.8054
  13   2.0000      -0.600960       -16.3530
  14   2.0000      -0.576908       -15.6985
  15   2.0000      -0.567186       -15.4339
  16   2.0000      -0.503501       -13.7010
  17   2.0000      -0.493974       -13.4417
  18   2.0000      -0.485987       -13.2244
  19   2.0000      -0.454861       -12.3774
  20   0.0000      -0.243718        -6.6319
  21   0.0000      -0.190295        -5.1782
  22   0.0000      -0.147418        -4.0115
  23   0.0000      -0.143394        -3.9019
  24   0.0000      -0.117682        -3.2023

MULLIKEN ATOMIC CHARGES
-----------------------
   0 C :   -0.262512
   1 C :   -0.830780
   2 C :    0.531571
   3 N :   -0.181233
   4 N :   -0.164609
   5 H :    0.173842
   6 H :    0.212911
   7 H :    0.200066
   8 H :    0.159952
   9 H :    0.206253
  10 H :    0.182820
  11 H :    0.268420
  12 H :    0.234125
  13 H :    0.269176
Sum of atomic charges:    1.0000000

LOEWDIN ATOMIC CHARGES
----------------------
   0 C :   -0.149168
   1 C :   -0.048908
   2 C :   -0.381322
   3 N :    0.238512
   4 N :    0.247133
   5 H :    0.149957
   6 H :    0.154713
   7 H :    0.146356
   8 H :    0.140195
   9 H :    0.132192
  10 H :    0.126750
  11 H :    0.082165
  12 H :    0.086299
  13 H :    0.075125

  Mayer bond orders larger than 0.100000
B(  0-C ,  1-C ) :   0.7650 B(  0-C ,  2-C ) :   0.8637 B(  0-C ,  4-N ) :   0.1011
B(  0-C ,  9-H ) :   0.9486 B(  0-C , 10-H ) :   0.9787 B(  1-C ,  2-C ) :   0.1478
B(  1-C , 11-H ) :   0.9781 B(  1-C , 12-H ) :   0.9912 B(  1-C , 13-H ) :   0.9215
B(  2-C ,  3-N ) :   1.2026 B(  2-C ,  4-N ) :   1.3143 B(  3-N ,  4-N ) :   0.1221
B(  3-N ,  7-H ) :   0.9535 B(  3-N ,  8-H ) :   1.0333 B(  4-N ,  5-H ) :   1.0054
B(  4-N ,  6-H ) :   0.9326

Dispersion correction           -0.010122729
FINAL SINGLE POINT ENERGY      -228.829731437870

DIPOLE MOMENT
-------------
                                X             Y             Z
Electronic contribution:      2.36708       2.56668      -2.28077
Nuclear contribution   :     -1.74195      -2.09431       1.58516
                        -----------------------------------------
Total Dipole Moment    :      0.62513       0.47238      -0.69561
                        -----------------------------------------
Magnitude (a.u.)       :      1.04776
Magnitude (Debye)      :      2.66320

Rotational constants in cm-1:     0.258965     0.126500     0.098780
Rotational constants in MHz :  7763.584551  3792.383135  2961.336502

                             ****ORCA TERMINATED NORMALLY****
TOTAL RUN TIME: 0 days 0 hours 0 minutes 18 seconds 662 msec
