                         Program Version 5.0.0 -  RELEASE  -
|  1> !PBE D3BJ RIJCOSX def2-TZVPD def2/J TightSCF xyzfile
|  2>
|  3> *xyzfile 0 1 B.xyz
|  4>
|  5> %MaxCore 64000
|  6>
|  7> %pal nprocs 4
|  8> end
|  9>
| 10> %scf
| 11>   MaxIter 150
| 12> end
| 13>
| 14>
| 15>                          ****END OF INPUT****

CARTESIAN COORDINATES (ANGSTROEM)
---------------------------------
  C      3.343500    3.354571   -3.591998
  C      2.952633    1.863077   -3.574849
  C      4.129209    0.898394   -3.418950
  H      3.733687   -0.100605   -3.237633
  H      4.719095    0.862556   -4.339005
  C      5.017344    1.315212   -2.221305
  C      4.255868    3.703851   -4.726054
  N      3.734032    4.293783   -5.800770
  N      5.515039    3.407255   -4.637185
  H      6.149187    3.601203   -5.399053
  H      5.813584    2.899504   -3.808785
  H      2.741380    4.513109   -5.824701
  H      4.287548    4.521260   -6.614341
  H      2.278938    1.735250   -2.725496
  H      2.377466    1.625787   -4.475869
  O      4.737055    0.854112   -1.122825
  O      5.928146    2.168108   -2.491365
  H      3.861246    3.597252   -2.662979
  H      2.446493    3.973461   -3.656556

 Total Charge           Charge          ....    0
 Multiplicity           Mult            ....    1
 Number of Electrons    NEL             ....   70
 Basis Dimension        Dim             ....  429

ORBITAL ENERGIES
----------------

  NO   OCC          E(Eh)            E(eV)
   0   2.0000     -18.665383      -507.9109
   1   2.0000     -18.650059      -507.4939
   2   2.0000     -14.080808      -383.1583
   3   2.0000     -14.041373      -382.0852
   4   2.0000     -10.032593      -273.0007
   5   2.0000      -9.924868      -270.0694
   6   2.0000      -9.921072      -269.9661
   7   2.0000      -9.901197      -269.4253
   8   2.0000      -9.860507      -268.3180
   9   2.0000      -0.960834       -26.1456
  10   2.0000      -0.907449       -24.6929
  11   2.0000      -0.871592       -23.7172
  12   2.0000      -0.823156       -22.3992
  13   2.0000      -0.750303       -20.4168
  14   2.0000      -0.670399       -18.2425
  15   2.0000      -0.616586       -16.7782
  16   2.0000      -0.573654       -15.6099
  17   2.0000      -0.566089       -15.4041
  18   2.0000      -0.530911       -14.4468
  19   2.0000      -0.492006       -13.3882
  20   2.0000      -0.451680       -12.2908
  21   2.0000      -0.434066       -11.8115
  22   2.0000      -0.415087       -11.2951
  23   2.0000      -0.398345       -10.8395
  24   2.0000      -0.377946       -10.2844
  25   2.0000      -0.351278        -9.5588
  26   2.0000      -0.335947        -9.1416
  27   2.0000      -0.325414        -8.8550
  28   2.0000      -0.321377        -8.7451
  29   2.0000      -0.297820        -8.1041
  30   2.0000      -0.289397        -7.8749
  31   2.0000      -0.286841        -7.8054
  32   2.0000      -0.184804        -5.0288
  33   2.0000      -0.172181        -4.6853
  34   2.0000      -0.149082        -4.0567
  35   0.0000      -0.086716        -2.3597
  36   0.0000      -0.062308        -1.6955
  37   0.0000      -0.024997        -0.6802
  38   0.0000      -0.005836        -0.1588
  39   0.0000       0.003911         0.1064

MULLIKEN ATOMIC CHARGES
-----------------------
   0 C :   -0.283691
   1 C :   -0.360459
   2 C :   -0.195143
   3 H :    0.105623
   4 H :    0.209281
   5 C :    0.333881
   6 C :    0.297989
   7 N :   -0.196273
   8 N :   -0.076733
   9 H :    0.139198
  10 H :    0.258192
  11 H :    0.187543
  12 H :    0.137897
  13 H :    0.193979
  14 H :    0.098306
  15 O :   -0.557711
  16 O :   -0.702607
  17 H :    0.258325
  18 H :    0.152402
Sum of atomic charges:    0.0000000

LOEWDIN ATOMIC CHARGES
----------------------
   0 C :   -0.108436
   1 C :   -0.177376
   2 C :   -0.132462
   3 H :    0.110917
   4 H :    0.101018
   5 C :   -0.715433
   6 C :   -0.380220
   7 N :    0.195879
   8 N :    0.239038
   9 H :    0.137003
  10 H :    0.018023
  11 H :    0.126299
  12 H :    0.121713
  13 H :    0.121196
  14 H :    0.109166
  15 O :    0.035294
  16 O :   -0.053283
  17 H :    0.133817
  18 H :    0.117847

  Mayer bond orders larger than 0.100000
B(  0-C ,  1-C ) :   0.8484 B(  0-C ,  6-C ) :   0.8267 B(  0-C ,  7-N ) :   0.1001
B(  0-C , 17-H ) :   0.9033 B(  0-C , 18-H ) :   0.9850 B(  1-C ,  2-C ) :   0.9793
B(  1-C ,  5-C ) :   0.1529 B(  1-C ,  6-C ) :   0.2589 B(  1-C , 13-H ) :   0.8973
B(  1-C , 14-H ) :   0.9670 B(  2-C ,  3-H ) :   1.0090 B(  2-C ,  4-H ) :   0.9032
B(  2-C ,  5-C ) :   0.8942 B(  2-C ,  8-N ) :   0.1389 B(  5-C , 15-O ) :   1.6171
B(  5-C , 16-O ) :   1.3035 B(  6-C ,  7-N ) :   1.1226 B(  6-C ,  8-N ) :   1.3860
B(  7-N ,  8-N ) :   0.1154 B(  7-N , 11-H ) :   0.9743 B(  7-N , 12-H ) :   1.0286
B(  8-N ,  9-H ) :   1.0008 B(  8-N , 10-H ) :   0.7641 B( 10-H , 16-O ) :   0.1754

Dispersion correction           -0.018873300
FINAL SINGLE POINT ENERGY      -456.175482243910

DIPOLE MOMENT
-------------
                                X             Y             Z
Electronic contribution:      3.97128      -0.04384       2.75880
Nuclear contribution   :     -5.42217       2.65262      -7.07590
                        -----------------------------------------
Total Dipole Moment    :     -1.45089       2.60878      -4.31711
                        -----------------------------------------
Magnitude (a.u.)       :      5.24864
Magnitude (Debye)      :     13.34099

Rotational constants in cm-1:     0.107541     0.035862     0.030371
Rotational constants in MHz :  3223.996852  1075.120464   910.508313

                             ****ORCA TERMINATED NORMALLY****
TOTAL RUN TIME: 0 days 0 hours 0 minutes 42 seconds 756 msec
