                         Program Version 5.0.0 -  RELEASE  -
|  1> !PBE D3BJ RIJCOSX def2-TZVPD def2/J TightSCF
|  2>
|  3> *xyz 0 1
|  4> C          2.95263        1.86308       -3.57485
|  5> C          4.12921        0.89839       -3.41895
|  6> H          3.73369       -0.10060       -3.23763
|  7> H          4.71910        0.86256       -4.33901
|  8> C          5.01734        1.31521       -2.22130
|  9> F          4.73706        0.85411       -1.12283
| 10> O          5.92815        2.16811       -2.49136
| 11> H          2.35067        1.56005       -4.40594
| 12> H          3.32277        2.85258       -3.74453
| 13> H          2.36134        1.85149       -2.68315
| 14> *
| 15> %MaxCore 64000
| 16>
| 17> %pal nprocs 4
| 18> end
| 19>
| 20> %scf
| 21>   MaxIter 150
| 22> end
| 23>
| 24>
| 25>                          ****END OF INPUT****

CARTESIAN COORDINATES (ANGSTROEM)
---------------------------------
  C      2.952630    1.863080   -3.574850
  C      4.129210    0.898390   -3.418950
  H      3.733690   -0.100600   -3.237630
  H      4.719100    0.862560   -4.339010
  C      5.017340    1.315210   -2.221300
  F      4.737060    0.854110   -1.122830
  O      5.928150    2.168110   -2.491360
  H      2.350670    1.560050   -4.405940
  H      3.322770    2.852580   -3.744530
  H      2.361340    1.851490   -2.683150

 Total Charge           Charge          ....    0
 Multiplicity           Mult            ....    1
 Number of Electrons    NEL             ....   40
 Basis Dimension        Dim             ....  236

ORBITAL ENERGIES
----------------

  NO   OCC          E(Eh)            E(eV)
   0   2.0000     -24.340054      -662.3265
   1   2.0000     -18.751329      -510.2496
   2   2.0000     -10.050855      -273.4977
   3   2.0000      -9.910733      -269.6847
   4   2.0000      -9.887584      -269.0549
   5   2.0000      -1.240754       -33.7626
   6   2.0000      -0.933477       -25.4012
   7   2.0000      -0.728375       -19.8201
   8   2.0000      -0.627133       -17.0652
   9   2.0000      -0.585057       -15.9202
  10   2.0000      -0.502852       -13.6833
  11   2.0000      -0.486897       -13.2491
  12   2.0000      -0.451218       -12.2783
  13   2.0000      -0.415665       -11.3108
  14   2.0000      -0.386415       -10.5149
  15   2.0000      -0.356094        -9.6898
  16   2.0000      -0.331761        -9.0277
  17   2.0000      -0.327316        -8.9067
  18   2.0000      -0.304271        -8.2796
  19   2.0000      -0.236728        -6.4417
  20   0.0000      -0.068156        -1.8546
  21   0.0000      -0.014306        -0.3893
  22   0.0000       0.014942         0.4066
  23   0.0000       0.024401         0.6640
  24   0.0000       0.033619         0.9148

MULLIKEN ATOMIC CHARGES
-----------------------
   0 C :   -0.919336
   1 C :    0.050686
   2 H :    0.167171
   3 H :    0.159548
   4 C :    0.407132
   5 F :   -0.132686
   6 O :   -0.445075
   7 H :    0.190974
   8 H :    0.258879
   9 H :    0.262709
Sum of atomic charges:    0.0000000

LOEWDIN ATOMIC CHARGES
----------------------
   0 C :   -0.091118
   1 C :   -0.161231
   2 H :    0.105075
   3 H :    0.116807
   4 C :   -0.529390
   5 F :    0.265717
   6 O :    0.076991
   7 H :    0.069234
   8 H :    0.075420
   9 H :    0.072495

  Mayer bond orders larger than 0.100000
B(  0-C ,  1-C ) :   0.7332 B(  0-C ,  4-C ) :   0.2186 B(  0-C ,  7-H ) :   0.9884
B(  0-C ,  8-H ) :   0.9899 B(  0-C ,  9-H ) :   0.9491 B(  1-C ,  2-H ) :   0.9628
B(  1-C ,  3-H ) :   0.9649 B(  1-C ,  4-C ) :   0.8743 B(  4-C ,  5-F ) :   1.1000
B(  4-C ,  6-O ) :   1.7603

Dispersion correction           -0.006212636
FINAL SINGLE POINT ENERGY      -292.182534599992

DIPOLE MOMENT
-------------
                                X             Y             Z
Electronic contribution:      5.08707      -1.15311       6.54361
Nuclear contribution   :     -6.06116       0.51860      -6.80802
                        -----------------------------------------
Total Dipole Moment    :     -0.97409      -0.63451      -0.26441
                        -----------------------------------------
Magnitude (a.u.)       :      1.19221
Magnitude (Debye)      :      3.03036

Rotational constants in cm-1:     0.276196     0.132056     0.105465
Rotational constants in MHz :  8280.156449  3958.940601  3161.775929

                             ****ORCA TERMINATED NORMALLY****
TOTAL RUN TIME: 0 days 0 hours 0 minutes 12 seconds 661 msec
