                         Program Version 5.0.0 -  RELEASE  -
|  1> !PBE D3BJ RIJCOSX def2-TZVPD def2/J TightSCF
|  2>
|  3> *xyz 0 1
|  4> C          3.34350        3.35457       -3.59200
|  5> C          2.95263        1.86308       -3.57485
|  6> C          4.25587        3.70385       -4.72605
|  7> C          3.73403        4.29378       -5.80077
|  8> N          5.51504        3.40725       -4.63718
|  9> H          6.14919        3.60120       -5.39905
| 10> H          5.81358        2.89950       -3.80879
| 11> H          2.74138        4.51311       -5.82470
| 12> H          4.28755        4.52126       -6.61434
| 13> H          3.86125        3.59725       -2.66298
| 14> H          2.44649        3.97346       -3.65656
| 15> H          2.44395        1.61721       -4.48352
| 16> H          2.30781        1.67290       -2.74242
| 17> H          3.83491        1.26414       -3.48670
| 18> *
| 19> %MaxCore 64000
| 20>
| 21> %pal nprocs 4
| 22> end
| 23>
| 24> %scf
| 25>   MaxIter 150
| 26> end
| 27>
| 28>
| 29>                          ****END OF INPUT****

CARTESIAN COORDINATES (ANGSTROEM)
---------------------------------
  C      3.343500    3.354570   -3.592000
  C      2.952630    1.863080   -3.574850
  C      4.255870    3.703850   -4.726050
  C      3.734030    4.293780   -5.800770
  N      5.515040    3.407250   -4.637180
  H      6.149190    3.601200   -5.399050
  H      5.813580    2.899500   -3.808790
  H      2.741380    4.513110   -5.824700
  H      4.287550    4.521260   -6.614340
  H      3.861250    3.597250   -2.662980
  H      2.446490    3.973460   -3.656560
  H      2.443950    1.617210   -4.483520
  H      2.307810    1.672900   -2.742420
  H      3.834910    1.264140   -3.486700

 Total Charge           Charge          ....    0
 Multiplicity           Mult            ....    1
 Number of Electrons    NEL             ....   40
 Basis Dimension        Dim             ....  266

ORBITAL ENERGIES
----------------

  NO   OCC          E(Eh)            E(eV)
   0   2.0000     -13.990116      -380.6904
   1   2.0000      -9.897212      -269.3168
   2   2.0000      -9.880968      -268.8748
   3   2.0000      -9.866131      -268.4711
   4   2.0000      -9.812627      -267.0151
   5   2.0000      -0.858618       -23.3642
   6   2.0000      -0.706367       -19.2212
   7   2.0000      -0.644803       -17.5460
   8   2.0000      -0.573680       -15.6106
   9   2.0000      -0.515436       -14.0257
  10   2.0000      -0.482149       -13.1200
  11   2.0000      -0.428882       -11.6705
  12   2.0000      -0.390764       -10.6332
  13   2.0000      -0.374436       -10.1889
  14   2.0000      -0.347850        -9.4655
  15   2.0000      -0.337549        -9.1852
  16   2.0000      -0.311255        -8.4697
  17   2.0000      -0.292082        -7.9479
  18   2.0000      -0.289738        -7.8842
  19   2.0000      -0.158044        -4.3006
  20   0.0000      -0.016963        -0.4616
  21   0.0000       0.007403         0.2015
  22   0.0000       0.018965         0.5161
  23   0.0000       0.024800         0.6749
  24   0.0000       0.032254         0.8777

MULLIKEN ATOMIC CHARGES
-----------------------
   0 C :   -0.300910
   1 C :   -0.809816
   2 C :    0.779461
   3 C :   -1.192410
   4 N :   -0.257840
   5 H :    0.137012
   6 H :    0.145769
   7 H :    0.224193
   8 H :    0.233343
   9 H :    0.201177
  10 H :    0.138819
  11 H :    0.252202
  12 H :    0.214126
  13 H :    0.234872
Sum of atomic charges:    0.0000000

LOEWDIN ATOMIC CHARGES
----------------------
   0 C :   -0.203099
   1 C :   -0.089459
   2 C :   -0.518270
   3 C :    0.023601
   4 N :    0.120956
   5 H :    0.115345
   6 H :    0.111040
   7 H :    0.018686
   8 H :    0.013610
   9 H :    0.107483
  10 H :    0.109533
  11 H :    0.069928
  12 H :    0.061249
  13 H :    0.059397

  Mayer bond orders larger than 0.100000
B(  0-C ,  1-C ) :   0.7496 B(  0-C ,  2-C ) :   0.8141 B(  0-C ,  4-N ) :   0.1301
B(  0-C ,  9-H ) :   0.9882 B(  0-C , 10-H ) :   0.9703 B(  1-C ,  2-C ) :   0.1186
B(  1-C , 11-H ) :   1.0050 B(  1-C , 12-H ) :   0.9853 B(  1-C , 13-H ) :   0.9505
B(  2-C ,  3-C ) :   1.1482 B(  2-C ,  4-N ) :   1.0983 B(  3-C ,  4-N ) :   0.1317
B(  3-C ,  7-H ) :   1.0015 B(  3-C ,  8-H ) :   1.0528 B(  4-N ,  5-H ) :   1.0096
B(  4-N ,  6-H ) :   1.0089

Dispersion correction           -0.010495245
FINAL SINGLE POINT ENERGY      -212.361276466877

DIPOLE MOMENT
-------------
                                X             Y             Z
Electronic contribution:      2.34360       1.48462      -0.86661
Nuclear contribution   :     -1.79713      -1.86925       1.28073
                        -----------------------------------------
Total Dipole Moment    :      0.54647      -0.38463       0.41412
                        -----------------------------------------
Magnitude (a.u.)       :      0.78617
Magnitude (Debye)      :      1.99828

Rotational constants in cm-1:     0.269040     0.129645     0.102087
Rotational constants in MHz :  8065.609820  3886.645139  3060.489045

                             ****ORCA TERMINATED NORMALLY****
TOTAL RUN TIME: 0 days 0 hours 0 minutes 18 seconds 632 msec
