                         Program Version 5.0.0 -  RELEASE  -
|  1> !PBE D3BJ RIJCOSX def2-TZVPD def2/J TightSCF
|  2>
|  3> *xyz 0 1
|  4> C          2.95263        1.86308       -3.57485
|  5> C          4.12921        0.89839       -3.41895
|  6> H          3.73369       -0.10060       -3.23763
|  7> H          4.71910        0.86256       -4.33901
|  8> C          5.01734        1.31521       -2.22130
|  9> O          4.73706        0.85411       -1.12283
| 10> F          5.92815        2.16811       -2.49136
| 11> H          2.35067        1.56005       -4.40594
| 12> H          3.32277        2.85258       -3.74453
| 13> H          2.36134        1.85149       -2.68315
| 14> *
| 15> %MaxCore 64000
| 16>
| 17> %pal nprocs 4
| 18> end
| 19>
| 20> %scf
| 21>   MaxIter 150
| 22> end
| 23>
| 24>
| 25>                          ****END OF INPUT****

CARTESIAN COORDINATES (ANGSTROEM)
---------------------------------
  C      2.952630    1.863080   -3.574850
  C      4.129210    0.898390   -3.418950
  H      3.733690   -0.100600   -3.237630
  H      4.719100    0.862560   -4.339010
  C      5.017340    1.315210   -2.221300
  O      4.737060    0.854110   -1.122830
  F      5.928150    2.168110   -2.491360
  H      2.350670    1.560050   -4.405940
  H      3.322770    2.852580   -3.744530
  H      2.361340    1.851490   -2.683150

 Total Charge           Charge          ....    0
 Multiplicity           Mult            ....    1
 Number of Electrons    NEL             ....   40
 Basis Dimension        Dim             ....  236

ORBITAL ENERGIES
----------------

  NO   OCC          E(Eh)            E(eV)
   0   2.0000     -24.319662      -661.7716
   1   2.0000     -18.759731      -510.4782
   2   2.0000     -10.046414      -273.3768
   3   2.0000      -9.910416      -269.6761
   4   2.0000      -9.887888      -269.0631
   5   2.0000      -1.201397       -32.6917
   6   2.0000      -0.965488       -26.2723
   7   2.0000      -0.728203       -19.8154
   8   2.0000      -0.616788       -16.7836
   9   2.0000      -0.573438       -15.6040
  10   2.0000      -0.484492       -13.1837
  11   2.0000      -0.469101       -12.7649
  12   2.0000      -0.449036       -12.2189
  13   2.0000      -0.414447       -11.2777
  14   2.0000      -0.387941       -10.5564
  15   2.0000      -0.358181        -9.7466
  16   2.0000      -0.338472        -9.2103
  17   2.0000      -0.328051        -8.9267
  18   2.0000      -0.319026        -8.6811
  19   2.0000      -0.248590        -6.7645
  20   0.0000      -0.063325        -1.7232
  21   0.0000      -0.013661        -0.3717
  22   0.0000       0.015175         0.4129
  23   0.0000       0.025311         0.6887
  24   0.0000       0.033652         0.9157

MULLIKEN ATOMIC CHARGES
-----------------------
   0 C :   -0.918253
   1 C :    0.049820
   2 H :    0.151380
   3 H :    0.175787
   4 C :    0.383814
   5 O :   -0.392844
   6 F :   -0.160821
   7 H :    0.189795
   8 H :    0.260657
   9 H :    0.260664
Sum of atomic charges:   -0.0000000

LOEWDIN ATOMIC CHARGES
----------------------
   0 C :   -0.091039
   1 C :   -0.159204
   2 H :    0.113390
   3 H :    0.109324
   4 C :   -0.522690
   5 O :    0.129643
   6 F :    0.203318
   7 H :    0.069239
   8 H :    0.072091
   9 H :    0.075928

  Mayer bond orders larger than 0.100000
B(  0-C ,  1-C ) :   0.7335 B(  0-C ,  4-C ) :   0.2152 B(  0-C ,  7-H ) :   0.9884
B(  0-C ,  8-H ) :   0.9521 B(  0-C ,  9-H ) :   0.9867 B(  1-C ,  2-H ) :   0.9703
B(  1-C ,  3-H ) :   0.9557 B(  1-C ,  4-C ) :   0.8699 B(  4-C ,  5-O ) :   1.8379
B(  4-C ,  6-F ) :   1.0333

Dispersion correction           -0.006212327
FINAL SINGLE POINT ENERGY      -292.198017549542

DIPOLE MOMENT
-------------
                                X             Y             Z
Electronic contribution:      7.04989       1.01422       4.27671
Nuclear contribution   :     -7.35982      -0.91407      -5.31589
                        -----------------------------------------
Total Dipole Moment    :     -0.30993       0.10014      -1.03919
                        -----------------------------------------
Magnitude (a.u.)       :      1.08903
Magnitude (Debye)      :      2.76810

Rotational constants in cm-1:     0.275433     0.132201     0.105422
Rotational constants in MHz :  8257.268192  3963.279062  3160.465566

                             ****ORCA TERMINATED NORMALLY****
TOTAL RUN TIME: 0 days 0 hours 0 minutes 12 seconds 173 msec
