                         Program Version 5.0.0 -  RELEASE  -
|  1> !PBE D3BJ RIJCOSX def2-TZVPD def2/J TightSCF
|  2>
|  3> *xyz 0 1
|  4> C          3.34350        3.35457       -3.59200
|  5> C          2.95263        1.86308       -3.57485
|  6> C          4.25587        3.70385       -4.72605
|  7> N          3.73403        4.29378       -5.80077
|  8> C          5.51504        3.40725       -4.63718
|  9> H          6.14919        3.60120       -5.39905
| 10> H          5.81358        2.89950       -3.80879
| 11> H          2.74138        4.51311       -5.82470
| 12> H          4.28755        4.52126       -6.61434
| 13> H          3.86125        3.59725       -2.66298
| 14> H          2.44649        3.97346       -3.65656
| 15> H          2.44395        1.61721       -4.48352
| 16> H          2.30781        1.67290       -2.74242
| 17> H          3.83491        1.26414       -3.48670
| 18> *
| 19> %MaxCore 64000
| 20>
| 21> %pal nprocs 4
| 22> end
| 23>
| 24> %scf
| 25>   MaxIter 150
| 26> end
| 27>
| 28>
| 29>                          ****END OF INPUT****

CARTESIAN COORDINATES (ANGSTROEM)
---------------------------------
  C      3.343500    3.354570   -3.592000
  C      2.952630    1.863080   -3.574850
  C      4.255870    3.703850   -4.726050
  N      3.734030    4.293780   -5.800770
  C      5.515040    3.407250   -4.637180
  H      6.149190    3.601200   -5.399050
  H      5.813580    2.899500   -3.808790
  H      2.741380    4.513110   -5.824700
  H      4.287550    4.521260   -6.614340
  H      3.861250    3.597250   -2.662980
  H      2.446490    3.973460   -3.656560
  H      2.443950    1.617210   -4.483520
  H      2.307810    1.672900   -2.742420
  H      3.834910    1.264140   -3.486700

 Total Charge           Charge          ....    0
 Multiplicity           Mult            ....    1
 Number of Electrons    NEL             ....   40
 Basis Dimension        Dim             ....  266

ORBITAL ENERGIES
----------------

  NO   OCC          E(Eh)            E(eV)
   0   2.0000     -13.986760      -380.5991
   1   2.0000      -9.895039      -269.2577
   2   2.0000      -9.880669      -268.8667
   3   2.0000      -9.864065      -268.4148
   4   2.0000      -9.810590      -266.9597
   5   2.0000      -0.844680       -22.9849
   6   2.0000      -0.708800       -19.2874
   7   2.0000      -0.648320       -17.6417
   8   2.0000      -0.574525       -15.6336
   9   2.0000      -0.509771       -13.8716
  10   2.0000      -0.470880       -12.8133
  11   2.0000      -0.432289       -11.7632
  12   2.0000      -0.392289       -10.6747
  13   2.0000      -0.367383        -9.9970
  14   2.0000      -0.347976        -9.4689
  15   2.0000      -0.339097        -9.2273
  16   2.0000      -0.307027        -8.3546
  17   2.0000      -0.295667        -8.0455
  18   2.0000      -0.286172        -7.7871
  19   2.0000      -0.161469        -4.3938
  20   0.0000      -0.014902        -0.4055
  21   0.0000       0.007440         0.2025
  22   0.0000       0.018775         0.5109
  23   0.0000       0.025121         0.6836
  24   0.0000       0.034208         0.9308

MULLIKEN ATOMIC CHARGES
-----------------------
   0 C :   -0.273132
   1 C :   -0.829977
   2 C :    0.785031
   3 N :   -0.261564
   4 C :   -1.176144
   5 H :    0.233828
   6 H :    0.237338
   7 H :    0.139852
   8 H :    0.114923
   9 H :    0.172525
  10 H :    0.163967
  11 H :    0.226150
  12 H :    0.213534
  13 H :    0.253670
Sum of atomic charges:   -0.0000000

LOEWDIN ATOMIC CHARGES
----------------------
   0 C :   -0.201926
   1 C :   -0.088307
   2 C :   -0.506480
   3 N :    0.114268
   4 C :    0.013351
   5 H :    0.024386
   6 H :    0.031790
   7 H :    0.100170
   8 H :    0.104361
   9 H :    0.112008
  10 H :    0.103441
  11 H :    0.067208
  12 H :    0.060612
  13 H :    0.065119

  Mayer bond orders larger than 0.100000
B(  0-C ,  1-C ) :   0.7260 B(  0-C ,  2-C ) :   0.7696 B(  0-C ,  4-C ) :   0.1075
B(  0-C ,  9-H ) :   0.9438 B(  0-C , 10-H ) :   1.0474 B(  1-C ,  2-C ) :   0.1433
B(  1-C , 11-H ) :   0.9890 B(  1-C , 12-H ) :   0.9792 B(  1-C , 13-H ) :   0.9651
B(  2-C ,  3-N ) :   0.9768 B(  2-C ,  4-C ) :   1.2557 B(  3-N ,  4-C ) :   0.1334
B(  3-N ,  7-H ) :   1.0275 B(  3-N ,  8-H ) :   1.0498 B(  4-C ,  5-H ) :   1.0360
B(  4-C ,  6-H ) :   0.9742

Dispersion correction           -0.010504787
FINAL SINGLE POINT ENERGY      -212.361237861703

DIPOLE MOMENT
-------------
                                X             Y             Z
Electronic contribution:      0.78532       2.27638      -1.87514
Nuclear contribution   :     -1.38463      -2.07457       1.55023
                        -----------------------------------------
Total Dipole Moment    :     -0.59931       0.20181      -0.32491
                        -----------------------------------------
Magnitude (a.u.)       :      0.71096
Magnitude (Debye)      :      1.80712

Rotational constants in cm-1:     0.272312     0.128195     0.101724
Rotational constants in MHz :  8163.717141  3843.180148  3049.598073

                             ****ORCA TERMINATED NORMALLY****
TOTAL RUN TIME: 0 days 0 hours 0 minutes 21 seconds 276 msec
