                         Program Version 5.0.0 -  RELEASE  -
|  1> !PBE D3BJ RIJCOSX def2-TZVPD def2/J TightSCF xyzfile
|  2>
|  3> *xyzfile 0 1 D1.xyz
|  4>
|  5> %MaxCore 64000
|  6>
|  7> %pal nprocs 4
|  8> end
|  9>
| 10> %scf
| 11>   MaxIter 150
| 12> end
| 13>
| 14>
| 15>                          ****END OF INPUT****

CARTESIAN COORDINATES (ANGSTROEM)
---------------------------------
  C      3.343500    3.354571   -3.591998
  C      2.952633    1.863077   -3.574849
  C      4.129209    0.898394   -3.418950
  H      3.733687   -0.100605   -3.237633
  H      4.719095    0.862556   -4.339005
  C      5.017344    1.315212   -2.221305
  C      4.255868    3.703851   -4.726054
  C      3.734032    4.293783   -5.800770
  N      5.515039    3.407255   -4.637185
  H      6.149187    3.601203   -5.399053
  H      5.813584    2.899504   -3.808785
  H      2.741380    4.513109   -5.824701
  H      4.287548    4.521260   -6.614341
  H      2.278938    1.735250   -2.725496
  H      2.377466    1.625787   -4.475869
  F      4.737055    0.854112   -1.122825
  O      5.928146    2.168108   -2.491365
  H      3.861246    3.597252   -2.662979
  H      2.446493    3.973461   -3.656556

 Total Charge           Charge          ....    0
 Multiplicity           Mult            ....    1
 Number of Electrons    NEL             ....   70
 Basis Dimension        Dim             ....  429

ORBITAL ENERGIES
----------------

  NO   OCC          E(Eh)            E(eV)
   0   2.0000     -24.361838      -662.9193
   1   2.0000     -18.780695      -511.0487
   2   2.0000     -13.953884      -379.7045
   3   2.0000     -10.078190      -274.2415
   4   2.0000      -9.920181      -269.9418
   5   2.0000      -9.904742      -269.5217
   6   2.0000      -9.887820      -269.0613
   7   2.0000      -9.883588      -268.9461
   8   2.0000      -9.803238      -266.7597
   9   2.0000      -1.261844       -34.3365
  10   2.0000      -0.971781       -26.4435
  11   2.0000      -0.837774       -22.7970
  12   2.0000      -0.749619       -20.3982
  13   2.0000      -0.681337       -18.5401
  14   2.0000      -0.643384       -17.5074
  15   2.0000      -0.614178       -16.7126
  16   2.0000      -0.569662       -15.5013
  17   2.0000      -0.524373       -14.2689
  18   2.0000      -0.515830       -14.0364
  19   2.0000      -0.495233       -13.4760
  20   2.0000      -0.488863       -13.3026
  21   2.0000      -0.453794       -12.3484
  22   2.0000      -0.433685       -11.8012
  23   2.0000      -0.411005       -11.1840
  24   2.0000      -0.396699       -10.7947
  25   2.0000      -0.381530       -10.3820
  26   2.0000      -0.349772        -9.5178
  27   2.0000      -0.341135        -9.2827
  28   2.0000      -0.332480        -9.0472
  29   2.0000      -0.328601        -8.9417
  30   2.0000      -0.316770        -8.6198
  31   2.0000      -0.286563        -7.7978
  32   2.0000      -0.282166        -7.6781
  33   2.0000      -0.260736        -7.0950
  34   2.0000      -0.145042        -3.9468
  35   0.0000      -0.093945        -2.5564
  36   0.0000      -0.020329        -0.5532
  37   0.0000       0.002926         0.0796
  38   0.0000       0.010042         0.2733
  39   0.0000       0.012096         0.3291

MULLIKEN ATOMIC CHARGES
-----------------------
   0 C :   -0.263526
   1 C :   -0.342905
   2 C :   -0.121854
   3 H :    0.138776
   4 H :    0.228379
   5 C :    0.402396
   6 C :    0.573963
   7 C :   -1.266797
   8 N :   -0.189248
   9 H :    0.091779
  10 H :    0.247864
  11 H :    0.244630
  12 H :    0.243282
  13 H :    0.153585
  14 H :    0.155179
  15 F :   -0.150316
  16 O :   -0.509813
  17 H :    0.238227
  18 H :    0.126397
Sum of atomic charges:    0.0000000

LOEWDIN ATOMIC CHARGES
----------------------
   0 C :   -0.144169
   1 C :   -0.174414
   2 C :   -0.095268
   3 H :    0.113379
   4 H :    0.124026
   5 C :   -0.471253
   6 C :   -0.496300
   7 C :    0.019685
   8 N :    0.132556
   9 H :    0.119478
  10 H :    0.013650
  11 H :    0.013506
  12 H :    0.012337
  13 H :    0.111563
  14 H :    0.123000
  15 F :    0.290219
  16 O :    0.075723
  17 H :    0.113968
  18 H :    0.118314

  Mayer bond orders larger than 0.100000
B(  0-C ,  1-C ) :   0.8980 B(  0-C ,  6-C ) :   0.8797 B(  0-C , 17-H ) :   0.8484
B(  0-C , 18-H ) :   1.0066 B(  1-C ,  2-C ) :   0.9705 B(  1-C ,  5-C ) :   0.1911
B(  1-C ,  6-C ) :   0.1980 B(  1-C , 13-H ) :   0.9210 B(  1-C , 14-H ) :   0.9382
B(  2-C ,  3-H ) :   0.9868 B(  2-C ,  4-H ) :   0.9301 B(  2-C ,  5-C ) :   0.8868
B(  2-C ,  8-N ) :   0.1968 B(  5-C , 15-F ) :   1.1075 B(  5-C , 16-O ) :   1.6722
B(  6-C ,  7-C ) :   1.1909 B(  6-C ,  8-N ) :   1.1054 B(  7-C ,  8-N ) :   0.1295
B(  7-C , 11-H ) :   1.0137 B(  7-C , 12-H ) :   1.0229 B(  8-N ,  9-H ) :   1.0188
B(  8-N , 10-H ) :   0.8560

Dispersion correction           -0.018864051
FINAL SINGLE POINT ENERGY      -464.079939656356

DIPOLE MOMENT
-------------
                                X             Y             Z
Electronic contribution:      5.58545      -5.91343      10.56262
Nuclear contribution   :     -5.86483       4.68058     -10.07545
                        -----------------------------------------
Total Dipole Moment    :     -0.27938      -1.23285       0.48718
                        -----------------------------------------
Magnitude (a.u.)       :      1.35474
Magnitude (Debye)      :      3.44347

Rotational constants in cm-1:     0.107256     0.035474     0.030113
Rotational constants in MHz :  3215.453922  1063.481574   902.777619

                             ****ORCA TERMINATED NORMALLY****
TOTAL RUN TIME: 0 days 0 hours 0 minutes 37 seconds 392 msec
