                         Program Version 5.0.0 -  RELEASE  -
|  1> !PBE D3BJ RIJCOSX def2-TZVPD def2/J TightSCF xyzfile
|  2>
|  3> *xyzfile 0 1 D2.xyz
|  4>
|  5> %MaxCore 64000
|  6>
|  7> %pal nprocs 4
|  8> end
|  9>
| 10> %scf
| 11>   MaxIter 150
| 12> end
| 13>
| 14>
| 15>                          ****END OF INPUT****

CARTESIAN COORDINATES (ANGSTROEM)
---------------------------------
  C      3.343500    3.354571   -3.591998
  C      2.952633    1.863077   -3.574849
  C      4.129209    0.898394   -3.418950
  H      3.733687   -0.100605   -3.237633
  H      4.719095    0.862556   -4.339005
  C      5.017344    1.315212   -2.221305
  C      4.255868    3.703851   -4.726054
  N      3.734032    4.293783   -5.800770
  C      5.515039    3.407255   -4.637185
  H      6.149187    3.601203   -5.399053
  H      5.813584    2.899504   -3.808785
  H      2.741380    4.513109   -5.824701
  H      4.287548    4.521260   -6.614341
  H      2.278938    1.735250   -2.725496
  H      2.377466    1.625787   -4.475869
  F      4.737055    0.854112   -1.122825
  O      5.928146    2.168108   -2.491365
  H      3.861246    3.597252   -2.662979
  H      2.446493    3.973461   -3.656556

 Total Charge           Charge          ....    0
 Multiplicity           Mult            ....    1
 Number of Electrons    NEL             ....   70
 Basis Dimension        Dim             ....  429

ORBITAL ENERGIES
----------------

  NO   OCC          E(Eh)            E(eV)
   0   2.0000     -24.343014      -662.4071
   1   2.0000     -18.754504      -510.3360
   2   2.0000     -13.978316      -380.3693
   3   2.0000     -10.056069      -273.6395
   4   2.0000      -9.907360      -269.5930
   5   2.0000      -9.900929      -269.4180
   6   2.0000      -9.884435      -268.9692
   7   2.0000      -9.883442      -268.9421
   8   2.0000      -9.782094      -266.1843
   9   2.0000      -1.243628       -33.8408
  10   2.0000      -0.946578       -25.7577
  11   2.0000      -0.836989       -22.7756
  12   2.0000      -0.743359       -20.2278
  13   2.0000      -0.679358       -18.4863
  14   2.0000      -0.633651       -17.2425
  15   2.0000      -0.612851       -16.6765
  16   2.0000      -0.559753       -15.2317
  17   2.0000      -0.514985       -14.0134
  18   2.0000      -0.502804       -13.6820
  19   2.0000      -0.484792       -13.1919
  20   2.0000      -0.475824       -12.9478
  21   2.0000      -0.446870       -12.1599
  22   2.0000      -0.428306       -11.6548
  23   2.0000      -0.415391       -11.3034
  24   2.0000      -0.397814       -10.8251
  25   2.0000      -0.367053        -9.9880
  26   2.0000      -0.346532        -9.4296
  27   2.0000      -0.345639        -9.4053
  28   2.0000      -0.320600        -8.7240
  29   2.0000      -0.312519        -8.5041
  30   2.0000      -0.305806        -8.3214
  31   2.0000      -0.284477        -7.7410
  32   2.0000      -0.277621        -7.5544
  33   2.0000      -0.222265        -6.0481
  34   2.0000      -0.150354        -4.0913
  35   0.0000      -0.074560        -2.0289
  36   0.0000      -0.017994        -0.4896
  37   0.0000      -0.000267        -0.0073
  38   0.0000       0.006425         0.1748
  39   0.0000       0.014772         0.4020

MULLIKEN ATOMIC CHARGES
-----------------------
   0 C :   -0.350732
   1 C :   -0.310557
   2 C :   -0.180502
   3 H :    0.136432
   4 H :    0.310572
   5 C :    0.354321
   6 C :    0.677265
   7 N :   -0.267673
   8 C :   -1.473887
   9 H :    0.171444
  10 H :    0.659359
  11 H :    0.140966
  12 H :    0.113538
  13 H :    0.150582
  14 H :    0.114990
  15 F :   -0.163541
  16 O :   -0.448217
  17 H :    0.205291
  18 H :    0.160349
Sum of atomic charges:   -0.0000000

LOEWDIN ATOMIC CHARGES
----------------------
   0 C :   -0.141438
   1 C :   -0.176404
   2 C :   -0.096621
   3 H :    0.111368
   4 H :    0.122384
   5 C :   -0.480655
   6 C :   -0.476465
   7 N :    0.109310
   8 C :    0.028667
   9 H :    0.036443
  10 H :   -0.040052
  11 H :    0.095555
  12 H :    0.102843
  13 H :    0.110899
  14 H :    0.119040
  15 F :    0.279202
  16 O :    0.067010
  17 H :    0.116886
  18 H :    0.112026

  Mayer bond orders larger than 0.100000
B(  0-C ,  1-C ) :   0.9085 B(  0-C ,  6-C ) :   0.8148 B(  0-C ,  7-N ) :   0.1214
B(  0-C , 17-H ) :   0.8683 B(  0-C , 18-H ) :   1.0428 B(  1-C ,  2-C ) :   0.9534
B(  1-C ,  5-C ) :   0.1985 B(  1-C ,  6-C ) :   0.1736 B(  1-C , 13-H ) :   0.9158
B(  1-C , 14-H ) :   0.9553 B(  2-C ,  3-H ) :   0.9846 B(  2-C ,  4-H ) :   0.8909
B(  2-C ,  5-C ) :   0.8788 B(  2-C ,  8-C ) :   0.1978 B(  5-C , 15-F ) :   1.0962
B(  5-C , 16-O ) :   1.7441 B(  6-C ,  7-N ) :   0.9273 B(  6-C ,  8-C ) :   1.0440
B(  6-C ,  9-H ) :  -0.1298 B(  7-N ,  8-C ) :   0.1354 B(  7-N , 11-H ) :   1.0395
B(  7-N , 12-H ) :   1.0471 B(  8-C ,  9-H ) :   1.1713 B(  8-C , 10-H ) :   0.7487
B( 10-H , 16-O ) :  -0.2586

Dispersion correction           -0.018966248
FINAL SINGLE POINT ENERGY      -464.055470394003

DIPOLE MOMENT
-------------
                                X             Y             Z
Electronic contribution:      4.33927      -5.08559       9.55582
Nuclear contribution   :     -5.64491       4.57111      -9.93176
                        -----------------------------------------
Total Dipole Moment    :     -1.30563      -0.51448      -0.37594
                        -----------------------------------------
Magnitude (a.u.)       :      1.45282
Magnitude (Debye)      :      3.69278

Rotational constants in cm-1:     0.109825     0.034347     0.029470
Rotational constants in MHz :  3292.465653  1029.684117   883.494260

                             ****ORCA TERMINATED NORMALLY****
TOTAL RUN TIME: 0 days 0 hours 0 minutes 32 seconds 162 msec
