                         Program Version 5.0.0 -  RELEASE  -
|  1> !PBE D3BJ RIJCOSX def2-TZVPD def2/J TightSCF xyzfile
|  2>
|  3> *xyzfile 0 1 D3.xyz
|  4>
|  5> %MaxCore 64000
|  6>
|  7> %pal nprocs 4
|  8> end
|  9>
| 10> %scf
| 11>   MaxIter 150
| 12> end
| 13>
| 14>
| 15>                          ****END OF INPUT****

CARTESIAN COORDINATES (ANGSTROEM)
---------------------------------
  C      3.343500    3.354571   -3.591998
  C      2.952633    1.863077   -3.574849
  C      4.129209    0.898394   -3.418950
  H      3.733687   -0.100605   -3.237633
  H      4.719095    0.862556   -4.339005
  C      5.017344    1.315212   -2.221305
  C      4.255868    3.703851   -4.726054
  C      3.734032    4.293783   -5.800770
  N      5.515039    3.407255   -4.637185
  H      6.149187    3.601203   -5.399053
  H      5.813584    2.899504   -3.808785
  H      2.741380    4.513109   -5.824701
  H      4.287548    4.521260   -6.614341
  H      2.278938    1.735250   -2.725496
  H      2.377466    1.625787   -4.475869
  O      4.737055    0.854112   -1.122825
  F      5.928146    2.168108   -2.491365
  H      3.861246    3.597252   -2.662979
  H      2.446493    3.973461   -3.656556

 Total Charge           Charge          ....    0
 Multiplicity           Mult            ....    1
 Number of Electrons    NEL             ....   70
 Basis Dimension        Dim             ....  429

ORBITAL ENERGIES
----------------

  NO   OCC          E(Eh)            E(eV)
   0   2.0000     -24.351072      -662.6264
   1   2.0000     -18.776714      -510.9404
   2   2.0000     -13.979644      -380.4054
   3   2.0000     -10.064075      -273.8574
   4   2.0000      -9.916739      -269.8482
   5   2.0000      -9.903893      -269.4986
   6   2.0000      -9.901002      -269.4200
   7   2.0000      -9.892226      -269.1811
   8   2.0000      -9.816009      -267.1072
   9   2.0000      -1.238064       -33.6894
  10   2.0000      -0.982298       -26.7297
  11   2.0000      -0.859043       -23.3757
  12   2.0000      -0.750106       -20.4114
  13   2.0000      -0.687231       -18.7005
  14   2.0000      -0.651239       -17.7211
  15   2.0000      -0.615289       -16.7429
  16   2.0000      -0.578030       -15.7290
  17   2.0000      -0.528464       -14.3802
  18   2.0000      -0.512888       -13.9564
  19   2.0000      -0.495008       -13.4698
  20   2.0000      -0.473383       -12.8814
  21   2.0000      -0.453154       -12.3310
  22   2.0000      -0.434424       -11.8213
  23   2.0000      -0.421317       -11.4646
  24   2.0000      -0.400615       -10.9013
  25   2.0000      -0.376067       -10.2333
  26   2.0000      -0.357323        -9.7233
  27   2.0000      -0.352042        -9.5795
  28   2.0000      -0.342692        -9.3251
  29   2.0000      -0.333918        -9.0864
  30   2.0000      -0.320421        -8.7191
  31   2.0000      -0.295199        -8.0328
  32   2.0000      -0.293893        -7.9972
  33   2.0000      -0.262600        -7.1457
  34   2.0000      -0.160110        -4.3568
  35   0.0000      -0.080602        -2.1933
  36   0.0000      -0.018326        -0.4987
  37   0.0000      -0.002575        -0.0701
  38   0.0000       0.007920         0.2155
  39   0.0000       0.009070         0.2468

MULLIKEN ATOMIC CHARGES
-----------------------
   0 C :   -0.316676
   1 C :   -0.309203
   2 C :   -0.126646
   3 H :    0.099195
   4 H :    0.252527
   5 C :    0.347159
   6 C :    0.624489
   7 C :   -1.248069
   8 N :   -0.226815
   9 H :    0.094912
  10 H :    0.300366
  11 H :    0.243609
  12 H :    0.237445
  13 H :    0.165175
  14 H :    0.158024
  15 O :   -0.396599
  16 F :   -0.247564
  17 H :    0.225681
  18 H :    0.122988
Sum of atomic charges:    0.0000000

LOEWDIN ATOMIC CHARGES
----------------------
   0 C :   -0.142438
   1 C :   -0.173402
   2 C :   -0.101806
   3 H :    0.120521
   4 H :    0.115710
   5 C :   -0.497432
   6 C :   -0.494965
   7 C :    0.028204
   8 N :    0.134231
   9 H :    0.122654
  10 H :    0.046798
  11 H :    0.018203
  12 H :    0.015044
  13 H :    0.116113
  14 H :    0.122157
  15 O :    0.152953
  16 F :    0.181884
  17 H :    0.115664
  18 H :    0.119909

  Mayer bond orders larger than 0.100000
B(  0-C ,  1-C ) :   0.8857 B(  0-C ,  6-C ) :   0.8430 B(  0-C , 17-H ) :   0.8764
B(  0-C , 18-H ) :   1.0012 B(  1-C ,  2-C ) :   0.9544 B(  1-C ,  5-C ) :   0.1907
B(  1-C ,  6-C ) :   0.1874 B(  1-C , 13-H ) :   0.9214 B(  1-C , 14-H ) :   0.9397
B(  2-C ,  3-H ) :   0.9915 B(  2-C ,  4-H ) :   0.9196 B(  2-C ,  5-C ) :   0.8707
B(  2-C ,  8-N ) :   0.2024 B(  5-C , 15-O ) :   1.8492 B(  5-C , 16-F ) :   0.9511
B(  6-C ,  7-C ) :   1.1710 B(  6-C ,  8-N ) :   1.0823 B(  7-C ,  8-N ) :   0.1245
B(  7-C , 11-H ) :   1.0083 B(  7-C , 12-H ) :   1.0304 B(  8-N ,  9-H ) :   1.0264
B(  8-N , 10-H ) :   0.8682

Dispersion correction           -0.018696242
FINAL SINGLE POINT ENERGY      -464.084236160265

DIPOLE MOMENT
-------------
                                X             Y             Z
Electronic contribution:      7.47373      -3.57804       8.08520
Nuclear contribution   :     -7.21688       3.18902      -8.52197
                        -----------------------------------------
Total Dipole Moment    :      0.25685      -0.38902      -0.43677
                        -----------------------------------------
Magnitude (a.u.)       :      0.63881
Magnitude (Debye)      :      1.62372

Rotational constants in cm-1:     0.103917     0.036987     0.030872
Rotational constants in MHz :  3115.342573  1108.839114   925.506342

                             ****ORCA TERMINATED NORMALLY****
TOTAL RUN TIME: 0 days 0 hours 0 minutes 36 seconds 646 msec
