                         Program Version 5.0.0 -  RELEASE  -
|  1> !PBE D3BJ RIJCOSX def2-TZVPD def2/J TightSCF xyzfile
|  2>
|  3> *xyzfile 0 1 D4.xyz
|  4>
|  5> %MaxCore 64000
|  6>
|  7> %pal nprocs 4
|  8> end
|  9>
| 10> %scf
| 11>   MaxIter 150
| 12> end
| 13>
| 14>
| 15>                          ****END OF INPUT****

CARTESIAN COORDINATES (ANGSTROEM)
---------------------------------
  C      3.343500    3.354571   -3.591998
  C      2.952633    1.863077   -3.574849
  C      4.129209    0.898394   -3.418950
  H      3.733687   -0.100605   -3.237633
  H      4.719095    0.862556   -4.339005
  C      5.017344    1.315212   -2.221305
  C      4.255868    3.703851   -4.726054
  N      3.734032    4.293783   -5.800770
  C      5.515039    3.407255   -4.637185
  H      6.149187    3.601203   -5.399053
  H      5.813584    2.899504   -3.808785
  H      2.741380    4.513109   -5.824701
  H      4.287548    4.521260   -6.614341
  H      2.278938    1.735250   -2.725496
  H      2.377466    1.625787   -4.475869
  O      4.737055    0.854112   -1.122825
  F      5.928146    2.168108   -2.491365
  H      3.861246    3.597252   -2.662979
  H      2.446493    3.973461   -3.656556

 Total Charge           Charge          ....    0
 Multiplicity           Mult            ....    1
 Number of Electrons    NEL             ....   70
 Basis Dimension        Dim             ....  429

ORBITAL ENERGIES
----------------

  NO   OCC          E(Eh)            E(eV)
   0   2.0000     -24.322539      -661.8499
   1   2.0000     -18.761136      -510.5165
   2   2.0000     -13.990355      -380.6969
   3   2.0000     -10.047946      -273.4185
   4   2.0000      -9.905047      -269.5300
   5   2.0000      -9.901328      -269.4288
   6   2.0000      -9.899132      -269.3691
   7   2.0000      -9.892309      -269.1834
   8   2.0000      -9.803386      -266.7637
   9   2.0000      -1.211536       -32.9676
  10   2.0000      -0.967088       -26.3158
  11   2.0000      -0.849227       -23.1086
  12   2.0000      -0.746677       -20.3181
  13   2.0000      -0.684830       -18.6352
  14   2.0000      -0.642589       -17.4857
  15   2.0000      -0.610527       -16.6133
  16   2.0000      -0.559314       -15.2197
  17   2.0000      -0.527649       -14.3581
  18   2.0000      -0.486501       -13.2384
  19   2.0000      -0.478771       -13.0280
  20   2.0000      -0.471879       -12.8405
  21   2.0000      -0.451673       -12.2906
  22   2.0000      -0.431550       -11.7431
  23   2.0000      -0.413267       -11.2456
  24   2.0000      -0.398939       -10.8557
  25   2.0000      -0.371347       -10.1049
  26   2.0000      -0.353984        -9.6324
  27   2.0000      -0.341135        -9.2828
  28   2.0000      -0.332592        -9.0503
  29   2.0000      -0.321733        -8.7548
  30   2.0000      -0.310149        -8.4396
  31   2.0000      -0.291820        -7.9408
  32   2.0000      -0.288053        -7.8383
  33   2.0000      -0.248675        -6.7668
  34   2.0000      -0.165068        -4.4917
  35   0.0000      -0.065650        -1.7864
  36   0.0000      -0.020069        -0.5461
  37   0.0000      -0.001349        -0.0367
  38   0.0000       0.003644         0.0992
  39   0.0000       0.012218         0.3325

MULLIKEN ATOMIC CHARGES
-----------------------
   0 C :   -0.394182
   1 C :   -0.285224
   2 C :   -0.166785
   3 H :    0.094639
   4 H :    0.336557
   5 C :    0.313288
   6 C :    0.724036
   7 N :   -0.259596
   8 C :   -1.591813
   9 H :    0.171682
  10 H :    0.752665
  11 H :    0.144790
  12 H :    0.115055
  13 H :    0.166452
  14 H :    0.117604
  15 O :   -0.414774
  16 F :   -0.178861
  17 H :    0.199067
  18 H :    0.155400
Sum of atomic charges:   -0.0000000

LOEWDIN ATOMIC CHARGES
----------------------
   0 C :   -0.139114
   1 C :   -0.174845
   2 C :   -0.101728
   3 H :    0.118935
   4 H :    0.115145
   5 C :   -0.499939
   6 C :   -0.475505
   7 N :    0.116853
   8 C :    0.028465
   9 H :    0.037392
  10 H :   -0.012393
  11 H :    0.099726
  12 H :    0.105279
  13 H :    0.115624
  14 H :    0.118498
  15 O :    0.143263
  16 F :    0.171195
  17 H :    0.119273
  18 H :    0.113875

  Mayer bond orders larger than 0.100000
B(  0-C ,  1-C ) :   0.9035 B(  0-C ,  6-C ) :   0.7899 B(  0-C ,  7-N ) :   0.1224
B(  0-C , 17-H ) :   0.8818 B(  0-C , 18-H ) :   1.0416 B(  1-C ,  2-C ) :   0.9392
B(  1-C ,  5-C ) :   0.2035 B(  1-C ,  6-C ) :   0.1624 B(  1-C , 13-H ) :   0.9197
B(  1-C , 14-H ) :   0.9534 B(  2-C ,  3-H ) :   0.9923 B(  2-C ,  4-H ) :   0.8720
B(  2-C ,  5-C ) :   0.8563 B(  2-C ,  8-C ) :   0.2159 B(  5-C , 15-O ) :   1.8387
B(  5-C , 16-F ) :   1.0115 B(  6-C ,  7-N ) :   0.9349 B(  6-C ,  8-C ) :   1.0544
B(  6-C ,  9-H ) :  -0.1160 B(  7-N ,  8-C ) :   0.1295 B(  7-N , 11-H ) :   1.0322
B(  7-N , 12-H ) :   1.0457 B(  8-C ,  9-H ) :   1.1425 B(  8-C , 10-H ) :   0.5810
B( 10-H , 16-F ) :  -0.2673

Dispersion correction           -0.018792496
FINAL SINGLE POINT ENERGY      -464.071400892541

DIPOLE MOMENT
-------------
                                X             Y             Z
Electronic contribution:      6.20120      -2.80050       7.12915
Nuclear contribution   :     -6.99695       3.07955      -8.37829
                        -----------------------------------------
Total Dipole Moment    :     -0.79575       0.27905      -1.24914
                        -----------------------------------------
Magnitude (a.u.)       :      1.50713
Magnitude (Debye)      :      3.83081

Rotational constants in cm-1:     0.106302     0.035771     0.030198
Rotational constants in MHz :  3186.860872  1072.397550   905.318354

                             ****ORCA TERMINATED NORMALLY****
TOTAL RUN TIME: 0 days 0 hours 0 minutes 33 seconds 5 msec
