                         Program Version 5.0.0 -  RELEASE  -
|  1> !BLYP D3BJ RIJCOSX def2-SVP def2/J TightSCF
|  2> *xyz -1 1
|  3> C         -0.77455        2.78833       -0.54394
|  4> C          0.69721        3.22791       -0.52513
|  5> O          1.48929        2.37470        0.19919
|  6> H          0.71600        4.26403       -0.13077
|  7> H          1.03615        3.33092       -1.58367
|  8> H         -1.34746        3.48478       -1.11982
|  9> H         -1.15078        2.75876        0.45729
| 10> H         -0.85058        1.81526       -0.98241
| 11> *
| 12>
| 13> %MaxCore 64000
| 14> %pal nprocs 4
| 15> end
| 16>
| 17> %scf
| 18>   MaxIter 150
| 19> end
| 20>
| 21>
| 22>                          ****END OF INPUT****

CARTESIAN COORDINATES (ANGSTROEM)
---------------------------------
  C     -0.774550    2.788330   -0.543940
  C      0.697210    3.227910   -0.525130
  O      1.489290    2.374700    0.199190
  H      0.716000    4.264030   -0.130770
  H      1.036150    3.330920   -1.583670
  H     -1.347460    3.484780   -1.119820
  H     -1.150780    2.758760    0.457290
  H     -0.850580    1.815260   -0.982410

 Total Charge           Charge          ....   -1
 Multiplicity           Mult            ....    1
 Number of Electrons    NEL             ....   26
 Basis Dimension        Dim             ....   67

ORBITAL ENERGIES
----------------

  NO   OCC          E(Eh)            E(eV)
   0   2.0000     -18.405979      -500.8521
   1   2.0000      -9.709736      -264.2153
   2   2.0000      -9.696928      -263.8668
   3   2.0000      -0.538926       -14.6649
   4   2.0000      -0.420073       -11.4308
   5   2.0000      -0.278177        -7.5696
   6   2.0000      -0.176401        -4.8001
   7   2.0000      -0.155386        -4.2283
   8   2.0000      -0.102660        -2.7935
   9   2.0000      -0.085702        -2.3321
  10   2.0000      -0.020106        -0.5471
  11   2.0000       0.120268         3.2727
  12   2.0000       0.124898         3.3986
  13   0.0000       0.233296         6.3483
  14   0.0000       0.273607         7.4452
  15   0.0000       0.286335         7.7916
  16   0.0000       0.295291         8.0353
  17   0.0000       0.335747         9.1361

MULLIKEN ATOMIC CHARGES
-----------------------
   0 C :    0.184312
   1 C :    0.272375
   2 O :   -0.629790
   3 H :   -0.211494
   4 H :   -0.212092
   5 H :   -0.179451
   6 H :   -0.111325
   7 H :   -0.112536
Sum of atomic charges:   -1.0000000

LOEWDIN ATOMIC CHARGES
----------------------
   0 C :   -0.096441
   1 C :    0.010099
   2 O :   -0.611146
   3 H :   -0.094754
   4 H :   -0.095849
   5 H :   -0.055296
   6 H :   -0.027933
   7 H :   -0.028680

  Mayer bond orders larger than 0.100000
B(  0-C ,  1-C ) :   1.0148 B(  0-C ,  2-O ) :  -0.1196 B(  0-C ,  5-H ) :   0.8649
B(  0-C ,  6-H ) :   0.9332 B(  0-C ,  7-H ) :   0.9321 B(  1-C ,  2-O ) :   1.5635
B(  1-C ,  3-H ) :   0.8266 B(  1-C ,  4-H ) :   0.8252 B(  2-O ,  5-H ) :   0.1187

Dispersion correction           -0.007745486
FINAL SINGLE POINT ENERGY      -154.215259660016

DIPOLE MOMENT
-------------
                                X             Y             Z
Electronic contribution:      2.82504      -1.36912       1.48755
Nuclear contribution   :     -3.69910       1.55962      -1.78699
                        -----------------------------------------
Total Dipole Moment    :     -0.87406       0.19051      -0.29944
                        -----------------------------------------
Magnitude (a.u.)       :      0.94336
Magnitude (Debye)      :      2.39784

Rotational constants in cm-1:     1.268893     0.327436     0.287754
Rotational constants in MHz : 38040.440181  9816.269339  8626.646564

                             ****ORCA TERMINATED NORMALLY****
TOTAL RUN TIME: 0 days 0 hours 0 minutes 6 seconds 899 msec
