                         Program Version 5.0.0 -  RELEASE  -
|  1> !BLYP D3BJ RIJCOSX def2-SVP def2/J TightSCF
|  2> *xyz 1 1
|  3> C          3.95643        0.50147       -0.37910
|  4> H          3.16840        0.02920        0.20738
|  5> N          3.80389        1.96157       -0.15675
|  6> C          3.84232        0.14849       -1.85406
|  7> H          4.92323        0.17798        0.00937
|  8> H          4.20643        2.24441        0.74536
|  9> H          2.80827        2.21132       -0.09610
| 10> H          4.28076        2.50155       -0.89104
| 11> H          4.62951        0.62800       -2.39748
| 12> H          2.89665        0.48102       -2.22825
| 13> H          3.92053       -0.91187       -1.97413
| 14> *
| 15>
| 16> %MaxCore 64000
| 17> %pal nprocs 4
| 18> end
| 19>
| 20> %scf
| 21>   MaxIter 150
| 22> end
| 23>
| 24>
| 25>                          ****END OF INPUT****

CARTESIAN COORDINATES (ANGSTROEM)
---------------------------------
  C      3.956430    0.501470   -0.379100
  H      3.168400    0.029200    0.207380
  N      3.803890    1.961570   -0.156750
  C      3.842320    0.148490   -1.854060
  H      4.923230    0.177980    0.009370
  H      4.206430    2.244410    0.745360
  H      2.808270    2.211320   -0.096100
  H      4.280760    2.501550   -0.891040
  H      4.629510    0.628000   -2.397480
  H      2.896650    0.481020   -2.228250
  H      3.920530   -0.911870   -1.974130

 Total Charge           Charge          ....    1
 Multiplicity           Mult            ....    1
 Number of Electrons    NEL             ....   26
 Basis Dimension        Dim             ....   82

ORBITAL ENERGIES
----------------

  NO   OCC          E(Eh)            E(eV)
   0   2.0000     -14.360486      -390.7687
   1   2.0000     -10.175468      -276.8885
   2   2.0000     -10.099711      -274.8271
   3   2.0000      -1.123781       -30.5796
   4   2.0000      -0.884325       -24.0637
   5   2.0000      -0.775669       -21.1070
   6   2.0000      -0.748697       -20.3731
   7   2.0000      -0.730547       -19.8792
   8   2.0000      -0.645199       -17.5567
   9   2.0000      -0.590721       -16.0743
  10   2.0000      -0.534548       -14.5458
  11   2.0000      -0.520903       -14.1745
  12   2.0000      -0.503974       -13.7138
  13   0.0000      -0.212137        -5.7725
  14   0.0000      -0.158208        -4.3050
  15   0.0000      -0.151847        -4.1320
  16   0.0000      -0.117209        -3.1894
  17   0.0000      -0.079165        -2.1542

MULLIKEN ATOMIC CHARGES
-----------------------
   0 C :   -0.003147
   1 H :    0.070335
   2 N :    0.082361
   3 C :    0.046305
   4 H :    0.077560
   5 H :    0.195275
   6 H :    0.198454
   7 H :    0.192743
   8 H :    0.037641
   9 H :    0.032391
  10 H :    0.070082
Sum of atomic charges:    1.0000000

LOEWDIN ATOMIC CHARGES
----------------------
   0 C :    0.054754
   1 H :    0.049866
   2 N :    0.310151
   3 C :   -0.026621
   4 H :    0.051792
   5 H :    0.144159
   6 H :    0.144125
   7 H :    0.139083
   8 H :    0.036324
   9 H :    0.035252
  10 H :    0.061114

  Mayer bond orders larger than 0.100000
B(  0-C ,  1-H ) :   0.9453 B(  0-C ,  2-N ) :   0.9601 B(  0-C ,  3-C ) :   1.1320
B(  0-C ,  4-H ) :   0.9475 B(  2-N ,  5-H ) :   0.9368 B(  2-N ,  6-H ) :   0.9407
B(  2-N ,  7-H ) :   0.9358 B(  3-C ,  8-H ) :   0.9614 B(  3-C ,  9-H ) :   0.9664
B(  3-C , 10-H ) :   0.9499

Dispersion correction           -0.012450835
FINAL SINGLE POINT ENERGY      -135.357429696333

DIPOLE MOMENT
-------------
                                X             Y             Z
Electronic contribution:     -0.01588       1.38344       1.26750
Nuclear contribution   :     -0.06214      -0.04120      -0.39947
                        -----------------------------------------
Total Dipole Moment    :     -0.07802       1.34224       0.86803
                        -----------------------------------------
Magnitude (a.u.)       :      1.60037
Magnitude (Debye)      :      4.06781

Rotational constants in cm-1:     1.011771     0.281435     0.249812
Rotational constants in MHz : 30332.138762  8437.210602  7489.166323

                             ****ORCA TERMINATED NORMALLY****
TOTAL RUN TIME: 0 days 0 hours 0 minutes 6 seconds 660 msec
