                         Program Version 5.0.0 -  RELEASE  -
|  1> !BLYP D3BJ RIJCOSX def2-SVP def2/J TightSCF
|  2> *xyz 0 1
|  3> C         -0.77455        2.78833       -0.54394
|  4> C          0.69721        3.22791       -0.52513
|  5> F          1.48929        2.37470        0.19919
|  6> H          0.71600        4.26403       -0.13077
|  7> H          1.03615        3.33092       -1.58367
|  8> H         -1.34746        3.48478       -1.11982
|  9> H         -1.15078        2.75876        0.45729
| 10> H         -0.85058        1.81526       -0.98241
| 11> *
| 12>
| 13> %MaxCore 64000
| 14> %pal nprocs 4
| 15> end
| 16>
| 17> %scf
| 18>   MaxIter 150
| 19> end
| 20>
| 21>
| 22>                          ****END OF INPUT****

CARTESIAN COORDINATES (ANGSTROEM)
---------------------------------
  C     -0.774550    2.788330   -0.543940
  C      0.697210    3.227910   -0.525130
  F      1.489290    2.374700    0.199190
  H      0.716000    4.264030   -0.130770
  H      1.036150    3.330920   -1.583670
  H     -1.347460    3.484780   -1.119820
  H     -1.150780    2.758760    0.457290
  H     -0.850580    1.815260   -0.982410

 Total Charge           Charge          ....    0
 Multiplicity           Mult            ....    1
 Number of Electrons    NEL             ....   26
 Basis Dimension        Dim             ....   67

ORBITAL ENERGIES
----------------

  NO   OCC          E(Eh)            E(eV)
   0   2.0000     -24.267033      -660.3395
   1   2.0000      -9.993079      -271.9255
   2   2.0000      -9.916199      -269.8335
   3   2.0000      -1.056784       -28.7566
   4   2.0000      -0.673838       -18.3361
   5   2.0000      -0.549303       -14.9473
   6   2.0000      -0.437523       -11.9056
   7   2.0000      -0.425784       -11.5862
   8   2.0000      -0.386883       -10.5276
   9   2.0000      -0.345943        -9.4136
  10   2.0000      -0.340696        -9.2708
  11   2.0000      -0.271869        -7.3979
  12   2.0000      -0.268231        -7.2989
  13   0.0000       0.042250         1.1497
  14   0.0000       0.085338         2.3222
  15   0.0000       0.090988         2.4759
  16   0.0000       0.102857         2.7989
  17   0.0000       0.118704         3.2301

MULLIKEN ATOMIC CHARGES
-----------------------
   0 C :    0.038786
   1 C :    0.238999
   2 F :   -0.228134
   3 H :   -0.019398
   4 H :   -0.017779
   5 H :   -0.012137
   6 H :   -0.000050
   7 H :   -0.000288
Sum of atomic charges:   -0.0000000

LOEWDIN ATOMIC CHARGES
----------------------
   0 C :   -0.059920
   1 C :    0.105836
   2 F :   -0.116511
   3 H :    0.002855
   4 H :    0.003756
   5 H :    0.024553
   6 H :    0.019874
   7 H :    0.019557

  Mayer bond orders larger than 0.100000
B(  0-C ,  1-C ) :   1.1206 B(  0-C ,  5-H ) :   0.9501 B(  0-C ,  6-H ) :   0.9649
B(  0-C ,  7-H ) :   0.9650 B(  1-C ,  2-F ) :   1.0503 B(  1-C ,  3-H ) :   0.9459
B(  1-C ,  4-H ) :   0.9457

Dispersion correction           -0.007136014
FINAL SINGLE POINT ENERGY      -178.859262128674

DIPOLE MOMENT
-------------
                                X             Y             Z
Electronic contribution:      4.49288      -1.71796       2.05957
Nuclear contribution   :     -4.89513       2.05627      -2.36166
                        -----------------------------------------
Total Dipole Moment    :     -0.40225       0.33831      -0.30209
                        -----------------------------------------
Magnitude (a.u.)       :      0.60623
Magnitude (Debye)      :      1.54092

Rotational constants in cm-1:     1.247826     0.304622     0.269019
Rotational constants in MHz : 37408.889506  9132.346906  8064.979146

                             ****ORCA TERMINATED NORMALLY****
TOTAL RUN TIME: 0 days 0 hours 0 minutes 6 seconds 119 msec
