                         Program Version 5.0.0 -  RELEASE  -
|  1> !BLYP D3BJ RIJCOSX def2-SVP def2/J TightSCF
|  2> *xyz 0 1
|  3> C          3.95643        0.50147       -0.37910
|  4> H          3.16840        0.02920        0.20738
|  5> C          3.80389        1.96157       -0.15675
|  6> C          3.84232        0.14849       -1.85406
|  7> H          4.92323        0.17798        0.00937
|  8> H          4.20643        2.24441        0.74536
|  9> H          2.80827        2.21132       -0.09610
| 10> H          4.28076        2.50155       -0.89104
| 11> H          4.62951        0.62800       -2.39748
| 12> H          2.89665        0.48102       -2.22825
| 13> H          3.92053       -0.91187       -1.97413
| 14> *
| 15>
| 16> %MaxCore 64000
| 17> %pal nprocs 4
| 18> end
| 19>
| 20> %scf
| 21>   MaxIter 150
| 22> end
| 23>
| 24>
| 25>                          ****END OF INPUT****

CARTESIAN COORDINATES (ANGSTROEM)
---------------------------------
  C      3.956430    0.501470   -0.379100
  H      3.168400    0.029200    0.207380
  C      3.803890    1.961570   -0.156750
  C      3.842320    0.148490   -1.854060
  H      4.923230    0.177980    0.009370
  H      4.206430    2.244410    0.745360
  H      2.808270    2.211320   -0.096100
  H      4.280760    2.501550   -0.891040
  H      4.629510    0.628000   -2.397480
  H      2.896650    0.481020   -2.228250
  H      3.920530   -0.911870   -1.974130

 Total Charge           Charge          ....    0
 Multiplicity           Mult            ....    1
 Number of Electrons    NEL             ....   26
 Basis Dimension        Dim             ....   82

ORBITAL ENERGIES
----------------

  NO   OCC          E(Eh)            E(eV)
   0   2.0000      -9.906871      -269.5797
   1   2.0000      -9.900950      -269.4186
   2   2.0000      -9.885185      -268.9896
   3   2.0000      -0.701808       -19.0972
   4   2.0000      -0.607636       -16.5346
   5   2.0000      -0.511643       -13.9225
   6   2.0000      -0.410891       -11.1809
   7   2.0000      -0.389003       -10.5853
   8   2.0000      -0.348920        -9.4946
   9   2.0000      -0.338008        -9.1977
  10   2.0000      -0.289086        -7.8664
  11   2.0000      -0.286874        -7.8062
  12   2.0000      -0.277726        -7.5573
  13   0.0000       0.042783         1.1642
  14   0.0000       0.087190         2.3726
  15   0.0000       0.089759         2.4425
  16   0.0000       0.094746         2.5782
  17   0.0000       0.122092         3.3223

MULLIKEN ATOMIC CHARGES
-----------------------
   0 C :    0.003238
   1 H :   -0.027482
   2 C :    0.147306
   3 C :    0.084442
   4 H :   -0.026246
   5 H :   -0.045789
   6 H :   -0.037121
   7 H :   -0.040608
   8 H :   -0.017202
   9 H :   -0.019960
  10 H :   -0.020580
Sum of atomic charges:    0.0000000

LOEWDIN ATOMIC CHARGES
----------------------
   0 C :   -0.027469
   1 H :    0.014316
   2 C :   -0.033248
   3 C :   -0.038805
   4 H :    0.012428
   5 H :    0.011351
   6 H :    0.010724
   7 H :    0.007412
   8 H :    0.014344
   9 H :    0.014036
  10 H :    0.014909

  Mayer bond orders larger than 0.100000
B(  0-C ,  1-H ) :   0.9411 B(  0-C ,  2-C ) :   1.1437 B(  0-C ,  3-C ) :   1.1352
B(  0-C ,  4-H ) :   0.9428 B(  2-C ,  5-H ) :   0.9436 B(  2-C ,  6-H ) :   0.9582
B(  2-C ,  7-H ) :   0.9592 B(  3-C ,  8-H ) :   0.9646 B(  3-C ,  9-H ) :   0.9680
B(  3-C , 10-H ) :   0.9586

Dispersion correction           -0.012534118
FINAL SINGLE POINT ENERGY      -118.949866498172

DIPOLE MOMENT
-------------
                                X             Y             Z
Electronic contribution:      0.07869      -0.29126       0.22338
Nuclear contribution   :     -0.08172       0.30475      -0.19303
                        -----------------------------------------
Total Dipole Moment    :     -0.00302       0.01350       0.03035
                        -----------------------------------------
Magnitude (a.u.)       :      0.03335
Magnitude (Debye)      :      0.08477

Rotational constants in cm-1:     1.020248     0.295755     0.261591
Rotational constants in MHz : 30586.266829  8866.511639  7842.297953

                             ****ORCA TERMINATED NORMALLY****
TOTAL RUN TIME: 0 days 0 hours 0 minutes 6 seconds 958 msec
