                         Program Version 5.0.0 -  RELEASE  -
|  1> !BLYP D3BJ RIJCOSX def2-TZVP def2/J TightSCF xyzfile
|  2>
|  3> *xyzfile 0 1 D.xyz
|  4>
|  5> %MaxCore 64000
|  6>
|  7> %pal nprocs 18
|  8> end
|  9>
| 10> %scf
| 11>   MaxIter 150
| 12> end
| 13>
| 14>
| 15>                          ****END OF INPUT****

CARTESIAN COORDINATES (ANGSTROEM)
---------------------------------
  C      3.956426    0.501466   -0.379100
  H      3.168398    0.029201    0.207383
  C      3.803893    1.961572   -0.156747
  C      3.842322    0.148490   -1.854058
  H      4.923231    0.177982    0.009371
  H      4.620021    0.694502   -2.402150
  H      4.096015   -0.910930   -1.955103
  C      2.475619    0.412708   -2.485377
  H      2.174689    1.445076   -2.287971
  C      1.383931   -0.532740   -1.995203
  H      2.575613    0.318574   -3.571460
  H      1.264698   -0.412309   -0.915491
  H      1.705223   -1.566885   -2.164984
  C      0.031398   -0.317260   -2.677791
  C     -0.587292    1.060853   -2.436460
  H     -0.662815   -1.089530   -2.329985
  H      0.149465   -0.478040   -3.755648
  H      0.104376    1.828590   -2.793130
  C     -0.951213    1.334978   -0.972500
  H     -1.478832    1.161355   -3.062484
  H     -0.317007    0.741648   -0.311389
  H     -1.980916    1.012842   -0.788958
  C     -0.774550    2.788332   -0.543943
  H     -1.352609    3.459372   -1.192585
  H     -1.171014    2.902331    0.469968
  C      0.697208    3.227911   -0.525126
  F      1.489294    2.374703    0.199189
  H      0.715998    4.264030   -0.130774
  H      1.036148    3.330920   -1.583669
  H      4.206425    2.244406    0.745359
  H      2.808269    2.211323   -0.096097
  H      4.280757    2.501552   -0.891037

 Total Charge           Charge          ....    0
 Multiplicity           Mult            ....    1
 Number of Electrons    NEL             ....   90
 Basis Dimension        Dim             ....  467

ORBITAL ENERGIES
----------------

  NO   OCC          E(Eh)            E(eV)
   0   2.0000     -24.292396      -661.0297
   1   2.0000      -9.988867      -271.8109
   2   2.0000      -9.913839      -269.7693
   3   2.0000      -9.900777      -269.4138
   4   2.0000      -9.897340      -269.3203
   5   2.0000      -9.894334      -269.2385
   6   2.0000      -9.888637      -269.0835
   7   2.0000      -9.886494      -269.0252
   8   2.0000      -9.880742      -268.8687
   9   2.0000      -9.870406      -268.5874
  10   2.0000      -9.819287      -267.1964
  11   2.0000      -1.124393       -30.5963
  12   2.0000      -0.737799       -20.0765
  13   2.0000      -0.719268       -19.5723
  14   2.0000      -0.688638       -18.7388
  15   2.0000      -0.660465       -17.9722
  16   2.0000      -0.616469       -16.7750
  17   2.0000      -0.593431       -16.1481
  18   2.0000      -0.554396       -15.0859
  19   2.0000      -0.534960       -14.5570
  20   2.0000      -0.500987       -13.6326
  21   2.0000      -0.489935       -13.3318
  22   2.0000      -0.468433       -12.7467
  23   2.0000      -0.453213       -12.3325
  24   2.0000      -0.436057       -11.8657
  25   2.0000      -0.413896       -11.2627
  26   2.0000      -0.402577       -10.9547
  27   2.0000      -0.395456       -10.7609
  28   2.0000      -0.377825       -10.2811
  29   2.0000      -0.372696       -10.1416
  30   2.0000      -0.359639        -9.7863
  31   2.0000      -0.343912        -9.3583
  32   2.0000      -0.336335        -9.1521
  33   2.0000      -0.327239        -8.9046
  34   2.0000      -0.318489        -8.6665
  35   2.0000      -0.307668        -8.3721
  36   2.0000      -0.303099        -8.2477
  37   2.0000      -0.296353        -8.0642
  38   2.0000      -0.280556        -7.6343
  39   2.0000      -0.276721        -7.5300
  40   2.0000      -0.270362        -7.3569
  41   2.0000      -0.269626        -7.3369
  42   2.0000      -0.255876        -6.9628
  43   2.0000      -0.254811        -6.9338
  44   2.0000      -0.228981        -6.2309
  45   0.0000       0.011072         0.3013
  46   0.0000       0.020849         0.5673
  47   0.0000       0.028714         0.7814
  48   0.0000       0.036548         0.9945
  49   0.0000       0.045857         1.2478

MULLIKEN ATOMIC CHARGES
-----------------------
   0 C :   -0.116448
   1 H :    0.059913
   2 C :   -0.402263
   3 C :   -0.105662
   4 H :    0.060989
   5 H :    0.069844
   6 H :    0.056491
   7 C :   -0.143966
   8 H :    0.071433
   9 C :   -0.183022
  10 H :    0.061131
  11 H :    0.083403
  12 H :    0.069607
  13 C :   -0.091364
  14 C :   -0.193880
  15 H :    0.068321
  16 H :    0.070269
  17 H :    0.084305
  18 C :   -0.122268
  19 H :    0.075171
  20 H :    0.085890
  21 H :    0.080705
  22 C :   -0.146731
  23 H :    0.079016
  24 H :    0.084991
  25 C :    0.002378
  26 F :   -0.180964
  27 H :    0.095564
  28 H :    0.090940
  29 H :    0.078660
  30 H :    0.188311
  31 H :    0.069236
Sum of atomic charges:    0.0000000

LOEWDIN ATOMIC CHARGES
----------------------
   0 C :   -0.297070
   1 H :    0.127847
   2 C :   -0.318617
   3 C :   -0.262737
   4 H :    0.126294
   5 H :    0.130939
   6 H :    0.129577
   7 C :   -0.259705
   8 H :    0.129194
   9 C :   -0.262420
  10 H :    0.130941
  11 H :    0.128397
  12 H :    0.133109
  13 C :   -0.261410
  14 C :   -0.259466
  15 H :    0.132302
  16 H :    0.132054
  17 H :    0.129221
  18 C :   -0.261230
  19 H :    0.130861
  20 H :    0.136081
  21 H :    0.132880
  22 C :   -0.270562
  23 H :    0.139054
  24 H :    0.134975
  25 C :   -0.346903
  26 F :    0.191769
  27 H :    0.122386
  28 H :    0.118626
  29 H :    0.101151
  30 H :    0.062625
  31 H :    0.099837

  Mayer bond orders larger than 0.100000
B(  0-C ,  1-H ) :   0.9777 B(  0-C ,  2-C ) :   0.9267 B(  0-C ,  3-C ) :   0.9826
B(  0-C ,  4-H ) :   0.9616 B(  2-C , 29-H ) :   0.9764 B(  2-C , 30-H ) :   0.9534
B(  2-C , 31-H ) :   0.9693 B(  3-C ,  5-H ) :   0.9667 B(  3-C ,  6-H ) :   0.9581
B(  3-C ,  7-C ) :   0.9742 B(  7-C ,  8-H ) :   0.9683 B(  7-C ,  9-C ) :   0.9619
B(  7-C , 10-H ) :   0.9545 B(  9-C , 11-H ) :   0.9747 B(  9-C , 12-H ) :   0.9580
B(  9-C , 13-C ) :   0.9774 B( 13-C , 14-C ) :   0.9587 B( 13-C , 15-H ) :   0.9602
B( 13-C , 16-H ) :   0.9590 B( 14-C , 17-H ) :   0.9852 B( 14-C , 18-C ) :   0.9431
B( 14-C , 19-H ) :   0.9560 B( 18-C , 20-H ) :   0.9704 B( 18-C , 21-H ) :   0.9603
B( 18-C , 22-C ) :   0.9686 B( 22-C , 23-H ) :   0.9431 B( 22-C , 24-H ) :   0.9593
B( 22-C , 25-C ) :   0.9867 B( 25-C , 26-F ) :   0.9350 B( 25-C , 27-H ) :   0.9657
B( 25-C , 28-H ) :   0.9661

Dispersion correction           -0.064249733
FINAL SINGLE POINT ENERGY      -493.472551049132

DIPOLE MOMENT
-------------
                                X             Y             Z
Electronic contribution:     -1.93860       3.26640       4.30360
Nuclear contribution   :      1.09293      -2.80761      -4.51228
                        -----------------------------------------
Total Dipole Moment    :     -0.84567       0.45879      -0.20868
                        -----------------------------------------
Magnitude (a.u.)       :      0.98448
Magnitude (Debye)      :      2.50235

Rotational constants in cm-1:     0.040502     0.027818     0.018259
Rotational constants in MHz :  1214.218058   833.972871   547.398614

                             ****ORCA TERMINATED NORMALLY****
TOTAL RUN TIME: 0 days 0 hours 0 minutes 17 seconds 455 msec
