                         Program Version 5.0.0 -  RELEASE  -
|  1> !BLYP D3BJ RIJCOSX def2-SVPD def2/J TightSCF
|  2> *xyz -1 1
|  3> C         -0.91495        0.61511        2.50554
|  4> C         -0.05915        1.50352        3.41058
|  5> H          0.36536        2.34431        2.86116
|  6> H         -0.69226        1.92021        4.19898
|  7> C          1.08303        0.74964        4.08571
|  8> O          2.22817        1.26348        4.01983
|  9> O          0.81003       -0.34541        4.63627
| 10> H         -0.30401        0.20228        1.73015
| 11> H         -1.69811        1.19946        2.06954
| 12> H         -1.34124       -0.17772        3.08397
| 13> *
| 14>
| 15> %MaxCore 64000
| 16>
| 17> %pal nprocs 4
| 18> end
| 19>
| 20> %scf
| 21>   MaxIter 150
| 22> end
| 23>
| 24>
| 25>                          ****END OF INPUT****

CARTESIAN COORDINATES (ANGSTROEM)
---------------------------------
  C     -0.914950    0.615110    2.505540
  C     -0.059150    1.503520    3.410580
  H      0.365360    2.344310    2.861160
  H     -0.692260    1.920210    4.198980
  C      1.083030    0.749640    4.085710
  O      2.228170    1.263480    4.019830
  O      0.810030   -0.345410    4.636270
  H     -0.304010    0.202280    1.730150
  H     -1.698110    1.199460    2.069540
  H     -1.341240   -0.177720    3.083970

 Total Charge           Charge          ....   -1
 Multiplicity           Mult            ....    1
 Number of Electrons    NEL             ....   40
 Basis Dimension        Dim             ....  146

ORBITAL ENERGIES
----------------

  NO   OCC          E(Eh)            E(eV)
   0   2.0000     -18.532323      -504.2901
   1   2.0000     -18.531386      -504.2646
   2   2.0000      -9.802243      -266.7326
   3   2.0000      -9.759895      -265.5802
   4   2.0000      -9.747910      -265.2541
   5   2.0000      -0.718123       -19.5411
   6   2.0000      -0.630334       -17.1522
   7   2.0000      -0.521240       -14.1837
   8   2.0000      -0.400355       -10.8942
   9   2.0000      -0.260541        -7.0897
  10   2.0000      -0.240255        -6.5377
  11   2.0000      -0.203090        -5.5264
  12   2.0000      -0.179513        -4.8848
  13   2.0000      -0.165266        -4.4971
  14   2.0000      -0.155445        -4.2299
  15   2.0000      -0.129240        -3.5168
  16   2.0000      -0.116267        -3.1638
  17   2.0000      -0.010603        -0.2885
  18   2.0000       0.002626         0.0715
  19   2.0000       0.019759         0.5377
  20   0.0000       0.137963         3.7542
  21   0.0000       0.171968         4.6795
  22   0.0000       0.188674         5.1341
  23   0.0000       0.195781         5.3275
  24   0.0000       0.216967         5.9040

MULLIKEN ATOMIC CHARGES
-----------------------
   0 C :    0.947028
   1 C :   -0.005076
   2 H :   -0.212373
   3 H :   -0.139432
   4 C :    0.224074
   5 O :   -0.593233
   6 O :   -0.626871
   7 H :   -0.208513
   8 H :   -0.232506
   9 H :   -0.153098
Sum of atomic charges:   -1.0000000

LOEWDIN ATOMIC CHARGES
----------------------
   0 C :    0.109494
   1 C :   -0.032766
   2 H :   -0.009978
   3 H :    0.001974
   4 C :   -0.333160
   5 O :   -0.313717
   6 O :   -0.302334
   7 H :   -0.030141
   8 H :   -0.052711
   9 H :   -0.036661

  Mayer bond orders larger than 0.100000
B(  0-C ,  1-C ) :   1.2710 B(  0-C ,  2-H ) :   0.1131 B(  0-C ,  3-H ) :   0.1192
B(  0-C ,  7-H ) :   0.7504 B(  0-C ,  8-H ) :   0.7418 B(  0-C ,  9-H ) :   0.7408
B(  1-C ,  2-H ) :   0.8984 B(  1-C ,  3-H ) :   0.8073 B(  1-C ,  4-C ) :   1.0551
B(  1-C ,  7-H ) :   0.2212 B(  1-C ,  8-H ) :   0.2381 B(  1-C ,  9-H ) :   0.2531
B(  2-H ,  4-C ) :   0.2412 B(  3-H ,  4-C ) :   0.1044 B(  4-C ,  5-O ) :   1.5244
B(  4-C ,  6-O ) :   1.5574

Dispersion correction           -0.013546664
FINAL SINGLE POINT ENERGY      -267.591393377606

DIPOLE MOMENT
-------------
                                X             Y             Z
Electronic contribution:      4.77450      -1.02969       3.39115
Nuclear contribution   :     -6.38408       1.63097      -4.40540
                        -----------------------------------------
Total Dipole Moment    :     -1.60958       0.60128      -1.01425
                        -----------------------------------------
Magnitude (a.u.)       :      1.99524
Magnitude (Debye)      :      5.07149

Rotational constants in cm-1:     0.319732     0.134414     0.104753
Rotational constants in MHz :  9585.336550  4029.633034  3140.404334

                             ****ORCA TERMINATED NORMALLY****
TOTAL RUN TIME: 0 days 0 hours 0 minutes 10 seconds 374 msec
