                         Program Version 5.0.0 -  RELEASE  -
|  1> !BLYP D3BJ RIJCOSX def2-SVPD def2/J TightSCF
|  2> *xyz 1 1
|  3> C          4.60295       -2.44010        2.63478
|  4> C          3.86085       -1.59157        3.62289
|  5> N          2.75650       -2.04616        4.16633
|  6> N          4.25433       -0.36291        3.86046
|  7> H          3.56526        0.31099        4.16898
|  8> H          5.05429       -0.01606        3.33784
|  9> H          2.43970       -2.97389        3.89740
| 10> H          2.06687       -1.41253        4.54981
| 11> C          3.74469       -2.58056        1.36188
| 12> H          5.56156       -1.97135        2.40708
| 13> H          4.81050       -3.42255        3.06310
| 14> H          4.26314       -3.18477        0.64702
| 15> H          3.56325       -1.61180        0.94535
| 16> H          2.81197       -3.04259        1.60980
| 17> *
| 18>
| 19> %MaxCore 64000
| 20>
| 21> %pal nprocs 4
| 22> end
| 23>
| 24> %scf
| 25>   MaxIter 150
| 26> end
| 27>
| 28>
| 29>                          ****END OF INPUT****

CARTESIAN COORDINATES (ANGSTROEM)
---------------------------------
  C      4.602950   -2.440100    2.634780
  C      3.860850   -1.591570    3.622890
  N      2.756500   -2.046160    4.166330
  N      4.254330   -0.362910    3.860460
  H      3.565260    0.310990    4.168980
  H      5.054290   -0.016060    3.337840
  H      2.439700   -2.973890    3.897400
  H      2.066870   -1.412530    4.549810
  C      3.744690   -2.580560    1.361880
  H      5.561560   -1.971350    2.407080
  H      4.810500   -3.422550    3.063100
  H      4.263140   -3.184770    0.647020
  H      3.563250   -1.611800    0.945350
  H      2.811970   -3.042590    1.609800

 Total Charge           Charge          ....    1
 Multiplicity           Mult            ....    1
 Number of Electrons    NEL             ....   40
 Basis Dimension        Dim             ....  172

ORBITAL ENERGIES
----------------

  NO   OCC          E(Eh)            E(eV)
   0   2.0000     -14.270970      -388.3328
   1   2.0000     -14.270055      -388.3079
   2   2.0000     -10.237408      -278.5740
   3   2.0000     -10.124531      -275.5025
   4   2.0000     -10.086033      -274.4549
   5   2.0000      -1.111331       -30.2408
   6   2.0000      -1.020710       -27.7749
   7   2.0000      -0.888928       -24.1890
   8   2.0000      -0.790963       -21.5232
   9   2.0000      -0.752442       -20.4750
  10   2.0000      -0.718161       -19.5422
  11   2.0000      -0.693979       -18.8841
  12   2.0000      -0.648498       -17.6465
  13   2.0000      -0.611869       -16.6498
  14   2.0000      -0.575739       -15.6667
  15   2.0000      -0.553925       -15.0731
  16   2.0000      -0.506184       -13.7740
  17   2.0000      -0.499012       -13.5788
  18   2.0000      -0.487211       -13.2577
  19   2.0000      -0.455115       -12.3843
  20   0.0000      -0.249122        -6.7790
  21   0.0000      -0.185519        -5.0482
  22   0.0000      -0.143212        -3.8970
  23   0.0000      -0.141380        -3.8471
  24   0.0000      -0.111562        -3.0358

MULLIKEN ATOMIC CHARGES
-----------------------
   0 C :    0.119902
   1 C :    0.234084
   2 N :    0.386303
   3 N :    0.304142
   4 H :   -0.147123
   5 H :    0.004672
   6 H :    0.003863
   7 H :   -0.217902
   8 C :    1.036408
   9 H :   -0.152838
  10 H :   -0.086046
  11 H :   -0.150766
  12 H :   -0.161150
  13 H :   -0.173549
Sum of atomic charges:    1.0000000

LOEWDIN ATOMIC CHARGES
----------------------
   0 C :    0.029315
   1 C :   -0.075752
   2 N :    0.304388
   3 N :    0.304069
   4 H :    0.044921
   5 H :    0.049154
   6 H :    0.048201
   7 H :    0.046915
   8 C :    0.187449
   9 H :    0.033134
  10 H :    0.045479
  11 H :    0.005266
  12 H :   -0.003898
  13 H :   -0.018642

  Mayer bond orders larger than 0.100000
B(  0-C ,  1-C ) :   1.2365 B(  0-C ,  8-C ) :   1.2726 B(  0-C ,  9-H ) :   0.8150
B(  0-C , 10-H ) :   0.7461 B(  0-C , 11-H ) :   0.1995 B(  0-C , 12-H ) :   0.1915
B(  0-C , 13-H ) :   0.2347 B(  1-C ,  2-N ) :   1.2398 B(  1-C ,  3-N ) :   1.1794
B(  1-C ,  4-H ) :  -0.1243 B(  1-C ,  7-H ) :  -0.1323 B(  1-C ,  9-H ) :   0.2240
B(  1-C , 10-H ) :   0.1994 B(  2-N ,  3-N ) :   0.1881 B(  2-N ,  6-H ) :   1.0245
B(  2-N ,  7-H ) :   1.2464 B(  3-N ,  4-H ) :   1.2091 B(  3-N ,  5-H ) :   1.0221
B(  4-H ,  5-H ) :  -0.1489 B(  6-H ,  7-H ) :  -0.1677 B(  8-C ,  9-H ) :   0.1039
B(  8-C , 11-H ) :   0.7849 B(  8-C , 12-H ) :   0.7473 B(  8-C , 13-H ) :   0.7135

Dispersion correction           -0.020880617
FINAL SINGLE POINT ENERGY      -228.783736358408

DIPOLE MOMENT
-------------
                                X             Y             Z
Electronic contribution:     -0.23929       1.79098       3.74400
Nuclear contribution   :     -0.22400      -1.16268      -3.30447
                        -----------------------------------------
Total Dipole Moment    :     -0.46330       0.62830       0.43953
                        -----------------------------------------
Magnitude (a.u.)       :      0.89587
Magnitude (Debye)      :      2.27713

Rotational constants in cm-1:     0.258103     0.130571     0.102508
Rotational constants in MHz :  7737.732062  3914.431392  3073.119154

                             ****ORCA TERMINATED NORMALLY****
TOTAL RUN TIME: 0 days 0 hours 0 minutes 9 seconds 369 msec
