                         Program Version 5.0.0 -  RELEASE  -
|  1> !BLYP D3BJ RIJCOSX def2-SVPD def2/J TightSCF
|  2> *xyz 0 1
|  3> C         -0.91495        0.61511        2.50554
|  4> C         -0.05915        1.50352        3.41058
|  5> H          0.36536        2.34431        2.86116
|  6> H         -0.69226        1.92021        4.19898
|  7> C          1.08303        0.74964        4.08571
|  8> F          2.22817        1.26348        4.01983
|  9> O          0.81003       -0.34541        4.63627
| 10> H         -0.30401        0.20228        1.73015
| 11> H         -1.69811        1.19946        2.06954
| 12> H         -1.34124       -0.17772        3.08397
| 13> *
| 14>
| 15> %MaxCore 64000
| 16>
| 17> %pal nprocs 4
| 18> end
| 19>
| 20> %scf
| 21>   MaxIter 150
| 22> end
| 23>
| 24>
| 25>                          ****END OF INPUT****

CARTESIAN COORDINATES (ANGSTROEM)
---------------------------------
  C     -0.914950    0.615110    2.505540
  C     -0.059150    1.503520    3.410580
  H      0.365360    2.344310    2.861160
  H     -0.692260    1.920210    4.198980
  C      1.083030    0.749640    4.085710
  F      2.228170    1.263480    4.019830
  O      0.810030   -0.345410    4.636270
  H     -0.304010    0.202280    1.730150
  H     -1.698110    1.199460    2.069540
  H     -1.341240   -0.177720    3.083970

 Total Charge           Charge          ....    0
 Multiplicity           Mult            ....    1
 Number of Electrons    NEL             ....   40
 Basis Dimension        Dim             ....  146

ORBITAL ENERGIES
----------------

  NO   OCC          E(Eh)            E(eV)
   0   2.0000     -24.375287      -663.2853
   1   2.0000     -18.799468      -511.5595
   2   2.0000     -10.096705      -274.7453
   3   2.0000      -9.955401      -270.9002
   4   2.0000      -9.928427      -270.1662
   5   2.0000      -1.196704       -32.5640
   6   2.0000      -0.932680       -25.3795
   7   2.0000      -0.716774       -19.5044
   8   2.0000      -0.615785       -16.7564
   9   2.0000      -0.569796       -15.5049
  10   2.0000      -0.488314       -13.2877
  11   2.0000      -0.472577       -12.8595
  12   2.0000      -0.445779       -12.1303
  13   2.0000      -0.414069       -11.2674
  14   2.0000      -0.381824       -10.3900
  15   2.0000      -0.352259        -9.5855
  16   2.0000      -0.331837        -9.0298
  17   2.0000      -0.329185        -8.9576
  18   2.0000      -0.307098        -8.3566
  19   2.0000      -0.245476        -6.6797
  20   0.0000      -0.069013        -1.8779
  21   0.0000      -0.004666        -0.1270
  22   0.0000       0.025681         0.6988
  23   0.0000       0.039007         1.0614
  24   0.0000       0.051679         1.4063

MULLIKEN ATOMIC CHARGES
-----------------------
   0 C :    0.981819
   1 C :   -0.044532
   2 H :   -0.187388
   3 H :   -0.068804
   4 C :    0.541252
   5 F :   -0.298362
   6 O :   -0.400315
   7 H :   -0.182625
   8 H :   -0.198763
   9 H :   -0.142283
Sum of atomic charges:    0.0000000

LOEWDIN ATOMIC CHARGES
----------------------
   0 C :    0.154533
   1 C :    0.010462
   2 H :    0.015855
   3 H :    0.036228
   4 C :   -0.043406
   5 F :   -0.015643
   6 O :   -0.111344
   7 H :   -0.013527
   8 H :   -0.018297
   9 H :   -0.014862

  Mayer bond orders larger than 0.100000
B(  0-C ,  1-C ) :   1.3252 B(  0-C ,  2-H ) :   0.1127 B(  0-C ,  3-H ) :   0.1127
B(  0-C ,  7-H ) :   0.7511 B(  0-C ,  8-H ) :   0.7362 B(  0-C ,  9-H ) :   0.7384
B(  1-C ,  2-H ) :   0.8982 B(  1-C ,  3-H ) :   0.7948 B(  1-C ,  4-C ) :   1.0897
B(  1-C ,  7-H ) :   0.2099 B(  1-C ,  8-H ) :   0.2275 B(  1-C ,  9-H ) :   0.2319
B(  2-H ,  4-C ) :   0.1342 B(  4-C ,  5-F ) :   0.8317 B(  4-C ,  6-O ) :   1.8834
B(  5-F ,  6-O ) :   0.1240

Dispersion correction           -0.012859532
FINAL SINGLE POINT ENERGY      -292.128092133736

DIPOLE MOMENT
-------------
                                X             Y             Z
Electronic contribution:      7.73608      -0.18806       4.10588
Nuclear contribution   :     -8.12386       1.06915      -4.71960
                        -----------------------------------------
Total Dipole Moment    :     -0.38778       0.88108      -0.61371
                        -----------------------------------------
Magnitude (a.u.)       :      1.14163
Magnitude (Debye)      :      2.90180

Rotational constants in cm-1:     0.309513     0.127560     0.099675
Rotational constants in MHz :  9278.979128  3824.146597  2988.174827

                             ****ORCA TERMINATED NORMALLY****
TOTAL RUN TIME: 0 days 0 hours 0 minutes 8 seconds 522 msec
