                         Program Version 5.0.0 -  RELEASE  -
|  1> !BLYP D3BJ RIJCOSX def2-SVPD def2/J TightSCF
|  2> *xyz 0 1
|  3> C          4.60295       -2.44010        2.63478
|  4> C          3.86085       -1.59157        3.62289
|  5> C          2.75650       -2.04616        4.16633
|  6> N          4.25433       -0.36291        3.86046
|  7> H          3.56526        0.31099        4.16898
|  8> H          5.05429       -0.01606        3.33784
|  9> H          2.43970       -2.97389        3.89740
| 10> H          2.06687       -1.41253        4.54981
| 11> C          3.74469       -2.58056        1.36188
| 12> H          5.56156       -1.97135        2.40708
| 13> H          4.81050       -3.42255        3.06310
| 14> H          4.26314       -3.18477        0.64702
| 15> H          3.56325       -1.61180        0.94535
| 16> H          2.81197       -3.04259        1.60980
| 17> *
| 18>
| 19> %MaxCore 64000
| 20>
| 21> %pal nprocs 4
| 22> end
| 23>
| 24> %scf
| 25>   MaxIter 150
| 26> end
| 27>
| 28>
| 29>                          ****END OF INPUT****

CARTESIAN COORDINATES (ANGSTROEM)
---------------------------------
  C      4.602950   -2.440100    2.634780
  C      3.860850   -1.591570    3.622890
  C      2.756500   -2.046160    4.166330
  N      4.254330   -0.362910    3.860460
  H      3.565260    0.310990    4.168980
  H      5.054290   -0.016060    3.337840
  H      2.439700   -2.973890    3.897400
  H      2.066870   -1.412530    4.549810
  C      3.744690   -2.580560    1.361880
  H      5.561560   -1.971350    2.407080
  H      4.810500   -3.422550    3.063100
  H      4.263140   -3.184770    0.647020
  H      3.563250   -1.611800    0.945350
  H      2.811970   -3.042590    1.609800

 Total Charge           Charge          ....    0
 Multiplicity           Mult            ....    1
 Number of Electrons    NEL             ....   40
 Basis Dimension        Dim             ....  172

ORBITAL ENERGIES
----------------

  NO   OCC          E(Eh)            E(eV)
   0   2.0000     -14.027580      -381.7099
   1   2.0000      -9.936409      -270.3834
   2   2.0000      -9.924444      -270.0579
   3   2.0000      -9.909503      -269.6513
   4   2.0000      -9.853663      -268.1318
   5   2.0000      -0.839361       -22.8402
   6   2.0000      -0.697286       -18.9741
   7   2.0000      -0.631697       -17.1894
   8   2.0000      -0.567547       -15.4437
   9   2.0000      -0.501711       -13.6522
  10   2.0000      -0.469466       -12.7748
  11   2.0000      -0.426875       -11.6159
  12   2.0000      -0.396326       -10.7846
  13   2.0000      -0.362940        -9.8761
  14   2.0000      -0.340965        -9.2781
  15   2.0000      -0.330775        -9.0008
  16   2.0000      -0.308462        -8.3937
  17   2.0000      -0.298560        -8.1242
  18   2.0000      -0.283308        -7.7092
  19   2.0000      -0.155495        -4.2312
  20   0.0000      -0.003605        -0.0981
  21   0.0000       0.008038         0.2187
  22   0.0000       0.031030         0.8444
  23   0.0000       0.038975         1.0606
  24   0.0000       0.048185         1.3112

MULLIKEN ATOMIC CHARGES
-----------------------
   0 C :    0.279336
   1 C :   -0.248335
   2 C :    0.611248
   3 N :    0.412085
   4 H :   -0.170464
   5 H :   -0.140916
   6 H :   -0.244133
   7 H :   -0.591592
   8 C :    1.013051
   9 H :   -0.236076
  10 H :   -0.102581
  11 H :   -0.158255
  12 H :   -0.206798
  13 H :   -0.216569
Sum of atomic charges:    0.0000000

LOEWDIN ATOMIC CHARGES
----------------------
   0 C :   -0.013541
   1 C :   -0.273782
   2 C :    0.179343
   3 N :    0.191297
   4 H :    0.002496
   5 H :   -0.008177
   6 H :   -0.084931
   7 H :   -0.089964
   8 C :    0.148912
   9 H :    0.004229
  10 H :    0.021544
  11 H :   -0.027479
  12 H :   -0.019928
  13 H :   -0.030019

  Mayer bond orders larger than 0.100000
B(  0-C ,  1-C ) :   1.2236 B(  0-C ,  2-C ) :   0.1376 B(  0-C ,  8-C ) :   1.2812
B(  0-C ,  9-H ) :   0.6748 B(  0-C , 10-H ) :   0.7256 B(  0-C , 11-H ) :   0.2161
B(  0-C , 12-H ) :   0.2207 B(  0-C , 13-H ) :   0.2344 B(  1-C ,  2-C ) :   1.6909
B(  1-C ,  3-N ) :   1.1867 B(  1-C ,  6-H ) :   0.1456 B(  1-C ,  7-H ) :   0.1604
B(  1-C ,  9-H ) :   0.2637 B(  1-C , 10-H ) :   0.2482 B(  2-C ,  3-N ) :   0.3030
B(  2-C ,  6-H ) :   0.6273 B(  2-C ,  7-H ) :   0.7072 B(  3-N ,  4-H ) :   1.1025
B(  3-N ,  5-H ) :   1.0019 B(  4-H ,  5-H ) :  -0.1322 B(  8-C ,  9-H ) :   0.1251
B(  8-C , 11-H ) :   0.7314 B(  8-C , 12-H ) :   0.7407 B(  8-C , 13-H ) :   0.7653

Dispersion correction           -0.021816687
FINAL SINGLE POINT ENERGY      -212.314331156574

DIPOLE MOMENT
-------------
                                X             Y             Z
Electronic contribution:      0.80288       1.78269       2.57663
Nuclear contribution   :     -0.47010      -1.22282      -3.06417
                        -----------------------------------------
Total Dipole Moment    :      0.33278       0.55987      -0.48754
                        -----------------------------------------
Magnitude (a.u.)       :      0.81357
Magnitude (Debye)      :      2.06793

Rotational constants in cm-1:     0.271862     0.131962     0.105499
Rotational constants in MHz :  8150.219120  3956.123671  3162.785522

                             ****ORCA TERMINATED NORMALLY****
TOTAL RUN TIME: 0 days 0 hours 0 minutes 9 seconds 890 msec
