                         Program Version 5.0.0 -  RELEASE  -
|  1> !BLYP D3BJ RIJCOSX def2-SVPD def2/J TightSCF
|  2> *xyz 0 1
|  3> C         -0.91495        0.61511        2.50554
|  4> C         -0.05915        1.50352        3.41058
|  5> H          0.36536        2.34431        2.86116
|  6> H         -0.69226        1.92021        4.19898
|  7> C          1.08303        0.74964        4.08571
|  8> O          2.22817        1.26348        4.01983
|  9> F          0.81003       -0.34541        4.63627
| 10> H         -0.30401        0.20228        1.73015
| 11> H         -1.69811        1.19946        2.06954
| 12> H         -1.34124       -0.17772        3.08397
| 13> *
| 14>
| 15> %MaxCore 64000
| 16>
| 17> %pal nprocs 4
| 18> end
| 19>
| 20> %scf
| 21>   MaxIter 150
| 22> end
| 23>
| 24>
| 25>                          ****END OF INPUT****

CARTESIAN COORDINATES (ANGSTROEM)
---------------------------------
  C     -0.914950    0.615110    2.505540
  C     -0.059150    1.503520    3.410580
  H      0.365360    2.344310    2.861160
  H     -0.692260    1.920210    4.198980
  C      1.083030    0.749640    4.085710
  O      2.228170    1.263480    4.019830
  F      0.810030   -0.345410    4.636270
  H     -0.304010    0.202280    1.730150
  H     -1.698110    1.199460    2.069540
  H     -1.341240   -0.177720    3.083970

 Total Charge           Charge          ....    0
 Multiplicity           Mult            ....    1
 Number of Electrons    NEL             ....   40
 Basis Dimension        Dim             ....  146

ORBITAL ENERGIES
----------------

  NO   OCC          E(Eh)            E(eV)
   0   2.0000     -24.376597      -663.3209
   1   2.0000     -18.798208      -511.5252
   2   2.0000     -10.096192      -274.7314
   3   2.0000      -9.954868      -270.8857
   4   2.0000      -9.933773      -270.3117
   5   2.0000      -1.198376       -32.6095
   6   2.0000      -0.930647       -25.3242
   7   2.0000      -0.720816       -19.6144
   8   2.0000      -0.612118       -16.6566
   9   2.0000      -0.576082       -15.6760
  10   2.0000      -0.490492       -13.3470
  11   2.0000      -0.478993       -13.0341
  12   2.0000      -0.438912       -11.9434
  13   2.0000      -0.414299       -11.2737
  14   2.0000      -0.383549       -10.4369
  15   2.0000      -0.355860        -9.6834
  16   2.0000      -0.337396        -9.1810
  17   2.0000      -0.333136        -9.0651
  18   2.0000      -0.309209        -8.4140
  19   2.0000      -0.240340        -6.5400
  20   0.0000      -0.066791        -1.8175
  21   0.0000      -0.007772        -0.2115
  22   0.0000       0.027702         0.7538
  23   0.0000       0.037181         1.0118
  24   0.0000       0.052419         1.4264

MULLIKEN ATOMIC CHARGES
-----------------------
   0 C :    0.980006
   1 C :   -0.019146
   2 H :   -0.197587
   3 H :   -0.083016
   4 C :    0.549570
   5 O :   -0.369001
   6 F :   -0.324502
   7 H :   -0.185321
   8 H :   -0.195678
   9 H :   -0.155326
Sum of atomic charges:   -0.0000000

LOEWDIN ATOMIC CHARGES
----------------------
   0 C :    0.147596
   1 C :    0.016422
   2 H :    0.028293
   3 H :    0.033106
   4 C :   -0.047322
   5 O :   -0.115416
   6 F :   -0.011017
   7 H :   -0.013550
   8 H :   -0.018030
   9 H :   -0.020082

  Mayer bond orders larger than 0.100000
B(  0-C ,  1-C ) :   1.3013 B(  0-C ,  3-H ) :   0.1089 B(  0-C ,  7-H ) :   0.7587
B(  0-C ,  8-H ) :   0.7446 B(  0-C ,  9-H ) :   0.7313 B(  1-C ,  2-H ) :   0.9127
B(  1-C ,  3-H ) :   0.7947 B(  1-C ,  4-C ) :   1.0596 B(  1-C ,  7-H ) :   0.2038
B(  1-C ,  8-H ) :   0.2273 B(  1-C ,  9-H ) :   0.2237 B(  2-H ,  4-C ) :   0.1795
B(  4-C ,  5-O ) :   1.8757 B(  4-C ,  6-F ) :   0.8028 B(  5-O ,  6-F ) :   0.1336

Dispersion correction           -0.012756721
FINAL SINGLE POINT ENERGY      -292.127004917720

DIPOLE MOMENT
-------------
                                X             Y             Z
Electronic contribution:      5.36573      -2.83832       5.10849
Nuclear contribution   :     -6.57765       2.82334      -5.39171
                        -----------------------------------------
Total Dipole Moment    :     -1.21192      -0.01498      -0.28322
                        -----------------------------------------
Magnitude (a.u.)       :      1.24466
Magnitude (Debye)      :      3.16369

Rotational constants in cm-1:     0.294245     0.132994     0.101060
Rotational constants in MHz :  8821.228602  3987.049251  3029.696815

                             ****ORCA TERMINATED NORMALLY****
TOTAL RUN TIME: 0 days 0 hours 0 minutes 8 seconds 498 msec
