                         Program Version 5.0.0 -  RELEASE  -
|  1> !BLYP D3BJ RIJCOSX def2-SVPD def2/J TightSCF
|  2> *xyz 0 1
|  3> C          4.60295       -2.44010        2.63478
|  4> C          3.86085       -1.59157        3.62289
|  5> N          2.75650       -2.04616        4.16633
|  6> C          4.25433       -0.36291        3.86046
|  7> H          3.56526        0.31099        4.16898
|  8> H          5.05429       -0.01606        3.33784
|  9> H          2.43970       -2.97389        3.89740
| 10> H          2.06687       -1.41253        4.54981
| 11> C          3.74469       -2.58056        1.36188
| 12> H          5.56156       -1.97135        2.40708
| 13> H          4.81050       -3.42255        3.06310
| 14> H          4.26314       -3.18477        0.64702
| 15> H          3.56325       -1.61180        0.94535
| 16> H          2.81197       -3.04259        1.60980
| 17> *
| 18>
| 19> %MaxCore 64000
| 20>
| 21> %pal nprocs 4
| 22> end
| 23>
| 24> %scf
| 25>   MaxIter 150
| 26> end
| 27>
| 28>
| 29>                          ****END OF INPUT****

CARTESIAN COORDINATES (ANGSTROEM)
---------------------------------
  C      4.602950   -2.440100    2.634780
  C      3.860850   -1.591570    3.622890
  N      2.756500   -2.046160    4.166330
  C      4.254330   -0.362910    3.860460
  H      3.565260    0.310990    4.168980
  H      5.054290   -0.016060    3.337840
  H      2.439700   -2.973890    3.897400
  H      2.066870   -1.412530    4.549810
  C      3.744690   -2.580560    1.361880
  H      5.561560   -1.971350    2.407080
  H      4.810500   -3.422550    3.063100
  H      4.263140   -3.184770    0.647020
  H      3.563250   -1.611800    0.945350
  H      2.811970   -3.042590    1.609800

 Total Charge           Charge          ....    0
 Multiplicity           Mult            ....    1
 Number of Electrons    NEL             ....   40
 Basis Dimension        Dim             ....  172

ORBITAL ENERGIES
----------------

  NO   OCC          E(Eh)            E(eV)
   0   2.0000     -14.027424      -381.7056
   1   2.0000      -9.937273      -270.4070
   2   2.0000      -9.923764      -270.0394
   3   2.0000      -9.913264      -269.7536
   4   2.0000      -9.854899      -268.1654
   5   2.0000      -0.839023       -22.8310
   6   2.0000      -0.695620       -18.9288
   7   2.0000      -0.639278       -17.3956
   8   2.0000      -0.563030       -15.3208
   9   2.0000      -0.508500       -13.8370
  10   2.0000      -0.470572       -12.8049
  11   2.0000      -0.422330       -11.4922
  12   2.0000      -0.388627       -10.5751
  13   2.0000      -0.378235       -10.2923
  14   2.0000      -0.340277        -9.2594
  15   2.0000      -0.333282        -9.0691
  16   2.0000      -0.312060        -8.4916
  17   2.0000      -0.295826        -8.0498
  18   2.0000      -0.280021        -7.6198
  19   2.0000      -0.158160        -4.3038
  20   0.0000      -0.005708        -0.1553
  21   0.0000       0.010019         0.2726
  22   0.0000       0.034855         0.9485
  23   0.0000       0.037501         1.0204
  24   0.0000       0.045477         1.2375

MULLIKEN ATOMIC CHARGES
-----------------------
   0 C :    0.124366
   1 C :   -0.335119
   2 N :    0.536369
   3 C :    0.610465
   4 H :   -0.521201
   5 H :   -0.203485
   6 H :   -0.158424
   7 H :   -0.271314
   8 C :    1.096033
   9 H :   -0.089443
  10 H :   -0.182112
  11 H :   -0.239255
  12 H :   -0.183468
  13 H :   -0.183413
Sum of atomic charges:   -0.0000000

LOEWDIN ATOMIC CHARGES
----------------------
   0 C :   -0.014565
   1 C :   -0.278421
   2 N :    0.193997
   3 C :    0.181668
   4 H :   -0.090932
   5 H :   -0.088870
   6 H :   -0.005790
   7 H :    0.004362
   8 C :    0.148367
   9 H :    0.016832
  10 H :    0.012867
  11 H :   -0.025844
  12 H :   -0.017020
  13 H :   -0.036652

  Mayer bond orders larger than 0.100000
B(  0-C ,  1-C ) :   1.3302 B(  0-C ,  3-C ) :   0.1331 B(  0-C ,  8-C ) :   1.2331
B(  0-C ,  9-H ) :   0.8177 B(  0-C , 10-H ) :   0.7258 B(  0-C , 11-H ) :   0.2664
B(  0-C , 12-H ) :   0.2018 B(  0-C , 13-H ) :   0.2697 B(  1-C ,  2-N ) :   1.2435
B(  1-C ,  3-C ) :   1.8163 B(  1-C ,  4-H ) :   0.2872 B(  1-C ,  5-H ) :   0.1537
B(  1-C ,  9-H ) :   0.2619 B(  1-C , 10-H ) :   0.2341 B(  2-N ,  3-C ) :   0.2976
B(  2-N ,  6-H ) :   1.0237 B(  2-N ,  7-H ) :   1.1246 B(  3-C ,  4-H ) :   0.6024
B(  3-C ,  5-H ) :   0.8086 B(  3-C ,  9-H ) :  -0.1128 B(  6-H ,  7-H ) :  -0.1299
B(  8-C ,  9-H ) :   0.1260 B(  8-C , 11-H ) :   0.7354 B(  8-C , 12-H ) :   0.7497
B(  8-C , 13-H ) :   0.7027

Dispersion correction           -0.021770423
FINAL SINGLE POINT ENERGY      -212.314994306712

DIPOLE MOMENT
-------------
                                X             Y             Z
Electronic contribution:     -0.49115       0.32225       2.84947
Nuclear contribution   :     -0.12319      -0.83296      -3.13501
                        -----------------------------------------
Total Dipole Moment    :     -0.61434      -0.51072      -0.28554
                        -----------------------------------------
Magnitude (a.u.)       :      0.84840
Magnitude (Debye)      :      2.15646

Rotational constants in cm-1:     0.266453     0.134423     0.106086
Rotational constants in MHz :  7988.053142  4029.892766  3180.375228

                             ****ORCA TERMINATED NORMALLY****
TOTAL RUN TIME: 0 days 0 hours 0 minutes 9 seconds 862 msec
