                         Program Version 5.0.0 -  RELEASE  -
|  1> !BLYP D3BJ RIJCOSX def2-SVPD def2/J TightSCF xyzfile
|  2>
|  3> *xyzfile 0 1 D3.xyz
|  4>
|  5> %MaxCore 64000
|  6>
|  7> %pal nprocs 4
|  8> end
|  9>
| 10> %scf
| 11>   MaxIter 150
| 12> end
| 13>
| 14>
| 15>                          ****END OF INPUT****

CARTESIAN COORDINATES (ANGSTROEM)
---------------------------------
  C      4.602954   -2.440100    2.634780
  C     -0.914947    0.615112    2.505538
  C     -0.059146    1.503524    3.410578
  H      0.365364    2.344315    2.861161
  H     -0.692261    1.920207    4.198985
  C      1.083027    0.749640    4.085705
  C      3.860851   -1.591565    3.622893
  C      2.756502   -2.046159    4.166333
  N      4.254325   -0.362905    3.860455
  H      3.565256    0.310994    4.168983
  H      5.054292   -0.016059    3.337838
  H      2.439696   -2.973894    3.897395
  H      2.066869   -1.412532    4.549813
  O      2.228167    1.263475    4.019826
  F      0.810034   -0.345411    4.636269
  C      3.744685   -2.580557    1.361882
  C      0.772139    0.636882    0.562129
  C     -0.130740   -0.193985    1.470763
  H     -0.840563   -0.760165    0.856377
  H      0.466691   -0.938942    2.006959
  H     -1.647961    1.245963    1.991076
  H     -1.478180   -0.081046    3.130424
  C      3.203721   -1.256004    0.826211
  H      2.898939   -3.239289    1.583074
  H      4.334962   -3.095523    0.600188
  C      2.107815   -1.442385   -0.216865
  H      2.786775   -0.672760    1.650711
  H      4.021008   -0.652993    0.414046
  C      1.390662   -0.145912   -0.602422
  H      1.372179   -2.152184    0.176151
  H      2.523302   -1.906787   -1.117115
  H      1.561361    1.100094    1.161831
  H      0.195516    1.468325    0.142758
  H      0.602893   -0.398214   -1.319716
  H      2.087247    0.508272   -1.137335
  H      5.561557   -1.971347    2.407084
  H      4.810498   -3.422552    3.063099

 Total Charge           Charge          ....    0
 Multiplicity           Mult            ....    1
 Number of Electrons    NEL             ....  118
 Basis Dimension        Dim             ....  482

ORBITAL ENERGIES
----------------

  NO   OCC          E(Eh)            E(eV)
   0   2.0000     -24.389043      -663.6596
   1   2.0000     -18.819316      -512.0996
   2   2.0000     -13.991436      -380.7263
   3   2.0000     -10.113928      -275.2140
   4   2.0000      -9.959081      -271.0004
   5   2.0000      -9.941798      -270.5301
   6   2.0000      -9.926344      -270.1095
   7   2.0000      -9.920355      -269.9466
   8   2.0000      -9.918412      -269.8937
   9   2.0000      -9.916073      -269.8301
  10   2.0000      -9.910298      -269.6729
  11   2.0000      -9.908852      -269.6336
  12   2.0000      -9.908327      -269.6193
  13   2.0000      -9.905071      -269.5307
  14   2.0000      -9.831265      -267.5223
  15   2.0000      -1.215234       -33.0682
  16   2.0000      -0.956690       -26.0329
  17   2.0000      -0.814171       -22.1547
  18   2.0000      -0.747108       -20.3298
  19   2.0000      -0.719704       -19.5842
  20   2.0000      -0.695226       -18.9181
  21   2.0000      -0.663209       -18.0468
  22   2.0000      -0.632980       -17.2243
  23   2.0000      -0.618906       -16.8413
  24   2.0000      -0.596955       -16.2440
  25   2.0000      -0.575293       -15.6545
  26   2.0000      -0.545066       -14.8320
  27   2.0000      -0.522005       -14.2045
  28   2.0000      -0.506632       -13.7862
  29   2.0000      -0.500326       -13.6146
  30   2.0000      -0.489927       -13.3316
  31   2.0000      -0.480175       -13.0662
  32   2.0000      -0.462145       -12.5756
  33   2.0000      -0.437318       -11.9000
  34   2.0000      -0.429577       -11.6894
  35   2.0000      -0.424898       -11.5621
  36   2.0000      -0.413078       -11.2404
  37   2.0000      -0.396061       -10.7774
  38   2.0000      -0.392013       -10.6672
  39   2.0000      -0.379709       -10.3324
  40   2.0000      -0.373398       -10.1607
  41   2.0000      -0.360883        -9.8201
  42   2.0000      -0.358013        -9.7420
  43   2.0000      -0.344540        -9.3754
  44   2.0000      -0.339376        -9.2349
  45   2.0000      -0.330634        -8.9970
  46   2.0000      -0.326195        -8.8762
  47   2.0000      -0.320235        -8.7140
  48   2.0000      -0.308515        -8.3951
  49   2.0000      -0.299590        -8.1523
  50   2.0000      -0.295610        -8.0439
  51   2.0000      -0.289321        -7.8728
  52   2.0000      -0.279967        -7.6183
  53   2.0000      -0.276894        -7.5347
  54   2.0000      -0.271073        -7.3763
  55   2.0000      -0.267007        -7.2656
  56   2.0000      -0.257712        -7.0127
  57   2.0000      -0.249829        -6.7982
  58   2.0000      -0.137236        -3.7344
  59   0.0000      -0.084462        -2.2983
  60   0.0000      -0.009448        -0.2571
  61   0.0000       0.010036         0.2731
  62   0.0000       0.011568         0.3148
  63   0.0000       0.014049         0.3823

MULLIKEN ATOMIC CHARGES
-----------------------
   0 C :    1.217580
   1 C :    0.855415
   2 C :    0.471605
   3 H :    0.041560
   4 H :   -0.347017
   5 C :    0.515303
   6 C :   -0.633353
   7 C :    1.335505
   8 N :    0.738635
   9 H :   -0.557297
  10 H :    0.033935
  11 H :   -0.329236
  12 H :   -1.150267
  13 O :   -0.430758
  14 F :   -0.421178
  15 C :    0.338023
  16 C :    0.084498
  17 C :    0.161792
  18 H :   -0.316979
  19 H :   -0.234795
  20 H :   -0.231502
  21 H :   -0.122363
  22 C :    0.504128
  23 H :   -0.042716
  24 H :   -0.453597
  25 C :    0.279080
  26 H :   -0.594434
  27 H :   -0.102884
  28 C :    1.139558
  29 H :    0.073267
  30 H :   -0.544989
  31 H :    0.047251
  32 H :   -0.722314
  33 H :   -0.074485
  34 H :   -0.163722
  35 H :   -0.209507
  36 H :   -0.153744
Sum of atomic charges:   -0.0000000

LOEWDIN ATOMIC CHARGES
----------------------
   0 C :    0.027373
   1 C :   -0.012679
   2 C :    0.068244
   3 H :    0.028981
   4 H :    0.036770
   5 C :    0.020944
   6 C :   -0.256820
   7 C :    0.201996
   8 N :    0.224869
   9 H :   -0.112179
  10 H :   -0.001367
  11 H :   -0.079675
  12 H :   -0.149223
  13 O :   -0.091154
  14 F :   -0.012353
  15 C :   -0.011650
  16 C :   -0.024598
  17 C :   -0.020945
  18 H :    0.027564
  19 H :    0.007401
  20 H :    0.023528
  21 H :    0.020417
  22 C :   -0.022822
  23 H :    0.012463
  24 H :    0.014872
  25 C :   -0.029033
  26 H :   -0.018733
  27 H :    0.029261
  28 C :   -0.019056
  29 H :    0.011500
  30 H :    0.019119
  31 H :    0.006815
  32 H :    0.018861
  33 H :    0.015576
  34 H :    0.017902
  35 H :    0.007215
  36 H :    0.020619

  Mayer bond orders larger than 0.100000
B(  0-C ,  6-C ) :   1.1796 B(  0-C ,  8-N ) :   0.1353 B(  0-C , 15-C ) :   1.0471
B(  0-C , 23-H ) :   0.1114 B(  0-C , 35-H ) :   0.2537 B(  0-C , 36-H ) :   0.4599
B(  1-C ,  2-C ) :   1.1223 B(  1-C ,  3-H ) :   0.1167 B(  1-C ,  4-H ) :   0.2170
B(  1-C ,  5-C ) :   0.1262 B(  1-C , 17-C ) :   1.1647 B(  1-C , 19-H ) :   0.1462
B(  1-C , 20-H ) :   0.6080 B(  1-C , 21-H ) :   0.4608 B(  1-C , 28-C ) :   0.1320
B(  2-C ,  3-H ) :   0.7869 B(  2-C ,  4-H ) :   0.5140 B(  2-C ,  5-C ) :   1.1773
B(  2-C , 17-C ) :   0.2029 B(  2-C , 20-H ) :   0.2071 B(  2-C , 21-H ) :   0.1355
B(  3-H ,  4-H ) :  -0.1358 B(  3-H ,  5-C ) :   0.2038 B(  4-H ,  5-C ) :   0.2965
B(  5-C , 13-O ) :   1.7334 B(  5-C , 14-F ) :   0.7174 B(  6-C ,  7-C ) :   1.8485
B(  6-C ,  8-N ) :   0.9765 B(  6-C , 10-H ) :   0.1946 B(  6-C , 12-H ) :   0.3906
B(  6-C , 15-C ) :   0.2131 B(  6-C , 35-H ) :   0.5129 B(  6-C , 36-H ) :   0.3134
B(  7-C ,  8-N ) :   0.4839 B(  7-C , 11-H ) :   0.4430 B(  7-C , 12-H ) :  -0.6620
B(  8-N ,  9-H ) :   0.9270 B(  8-N , 10-H ) :   0.8674 B(  8-N , 11-H ) :   0.3171
B(  8-N , 12-H ) :  -0.2856 B(  9-H , 10-H ) :  -0.2743 B(  9-H , 13-O ) :   0.1423
B( 11-H , 12-H ) :  -0.1219 B( 12-H , 14-F ) :   0.2964 B( 13-O , 14-F ) :   0.1490
B( 15-C , 22-C ) :   1.0988 B( 15-C , 23-H ) :   0.7744 B( 15-C , 24-H ) :   0.7599
B( 15-C , 25-C ) :   0.1515 B( 15-C , 26-H ) :   0.2549 B( 15-C , 27-H ) :   0.1230
B( 15-C , 35-H ) :   0.2609 B( 15-C , 36-H ) :   0.2276 B( 16-C , 17-C ) :   1.2765
B( 16-C , 18-H ) :   0.2118 B( 16-C , 19-H ) :   0.1845 B( 16-C , 25-C ) :   0.2645
B( 16-C , 28-C ) :   0.9935 B( 16-C , 31-H ) :   0.7624 B( 16-C , 32-H ) :   0.9101
B( 16-C , 33-H ) :   0.2001 B( 16-C , 34-H ) :   0.3928 B( 17-C , 18-H ) :   0.7247
B( 17-C , 19-H ) :   0.7703 B( 17-C , 20-H ) :   0.2499 B( 17-C , 21-H ) :   0.3568
B( 17-C , 31-H ) :   0.1385 B( 17-C , 32-H ) :   0.1324 B( 20-H , 21-H ) :  -0.1962
B( 22-C , 23-H ) :   0.1846 B( 22-C , 24-H ) :   0.2906 B( 22-C , 25-C ) :   1.1523
B( 22-C , 26-H ) :   0.7288 B( 22-C , 27-H ) :   0.5737 B( 22-C , 29-H ) :   0.1781
B( 22-C , 30-H ) :   0.2747 B( 22-C , 31-H ) :  -0.1105 B( 23-H , 24-H ) :  -0.1401
B( 23-H , 30-H ) :  -0.1247 B( 25-C , 26-H ) :   0.1560 B( 25-C , 27-H ) :   0.1383
B( 25-C , 28-C ) :   1.0858 B( 25-C , 29-H ) :   0.7466 B( 25-C , 30-H ) :   0.7528
B( 25-C , 33-H ) :   0.3094 B( 25-C , 34-H ) :   0.1987 B( 26-H , 27-H ) :   0.1614
B( 26-H , 31-H ) :   0.2341 B( 26-H , 32-H ) :  -0.1799 B( 28-C , 29-H ) :   0.1311
B( 28-C , 33-H ) :   0.4823 B( 28-C , 34-H ) :   0.4192 B( 29-H , 30-H ) :  -0.1041
B( 33-H , 34-H ) :  -0.1804

Dispersion correction           -0.085421308
FINAL SINGLE POINT ENERGY      -699.576179764483

DIPOLE MOMENT
-------------
                                X             Y             Z
Electronic contribution:     -1.16679       4.73822      16.00749
Nuclear contribution   :      0.05905      -3.94566     -16.70013
                        -----------------------------------------
Total Dipole Moment    :     -1.10774       0.79256      -0.69265
                        -----------------------------------------
Magnitude (a.u.)       :      1.52807
Magnitude (Debye)      :      3.88404

Rotational constants in cm-1:     0.021602     0.017295     0.011353
Rotational constants in MHz :   647.614981   518.478934   340.359556

                             ****ORCA TERMINATED NORMALLY****
TOTAL RUN TIME: 0 days 0 hours 1 minutes 7 seconds 486 msec
