                         Program Version 5.0.0 -  RELEASE  -
|  1> !BLYP D3BJ RIJCOSX def2-SVPD def2/J TightSCF xyzfile
|  2>
|  3> *xyzfile 0 1 D4.xyz
|  4>
|  5> %MaxCore 64000
|  6>
|  7> %pal nprocs 4
|  8> end
|  9>
| 10> %scf
| 11>   MaxIter 150
| 12> end
| 13>
| 14>
| 15>                          ****END OF INPUT****

CARTESIAN COORDINATES (ANGSTROEM)
---------------------------------
  C      4.602954   -2.440100    2.634780
  C     -0.914947    0.615112    2.505538
  C     -0.059146    1.503524    3.410578
  H      0.365364    2.344315    2.861161
  H     -0.692261    1.920207    4.198985
  C      1.083027    0.749640    4.085705
  C      3.860851   -1.591565    3.622893
  N      2.756502   -2.046159    4.166333
  C      4.254325   -0.362905    3.860455
  H      3.565256    0.310994    4.168983
  H      5.054292   -0.016059    3.337838
  H      2.439696   -2.973894    3.897395
  H      2.066869   -1.412532    4.549813
  O      2.228167    1.263475    4.019826
  F      0.810034   -0.345411    4.636269
  C      3.744685   -2.580557    1.361882
  C      0.772139    0.636882    0.562129
  C     -0.130740   -0.193985    1.470763
  H     -0.840563   -0.760165    0.856377
  H      0.466691   -0.938942    2.006959
  H     -1.647961    1.245963    1.991076
  H     -1.478180   -0.081046    3.130424
  C      3.203721   -1.256004    0.826211
  H      2.898939   -3.239289    1.583074
  H      4.334962   -3.095523    0.600188
  C      2.107815   -1.442385   -0.216865
  H      2.786775   -0.672760    1.650711
  H      4.021008   -0.652993    0.414046
  C      1.390662   -0.145912   -0.602422
  H      1.372179   -2.152184    0.176151
  H      2.523302   -1.906787   -1.117115
  H      1.561361    1.100094    1.161831
  H      0.195516    1.468325    0.142758
  H      0.602893   -0.398214   -1.319716
  H      2.087247    0.508272   -1.137335
  H      5.561557   -1.971347    2.407084
  H      4.810498   -3.422552    3.063099

 Total Charge           Charge          ....    0
 Multiplicity           Mult            ....    1
 Number of Electrons    NEL             ....  118
 Basis Dimension        Dim             ....  482

ORBITAL ENERGIES
----------------

  NO   OCC          E(Eh)            E(eV)
   0   2.0000     -24.401036      -663.9859
   1   2.0000     -18.810543      -511.8609
   2   2.0000     -14.006041      -381.1237
   3   2.0000     -10.109395      -275.0906
   4   2.0000      -9.958497      -270.9845
   5   2.0000      -9.942819      -270.5579
   6   2.0000      -9.929151      -270.1859
   7   2.0000      -9.920488      -269.9502
   8   2.0000      -9.916121      -269.8314
   9   2.0000      -9.915053      -269.8023
  10   2.0000      -9.911472      -269.7049
  11   2.0000      -9.910635      -269.6821
  12   2.0000      -9.906619      -269.5728
  13   2.0000      -9.903557      -269.4895
  14   2.0000      -9.821357      -267.2527
  15   2.0000      -1.225636       -33.3512
  16   2.0000      -0.949333       -25.8327
  17   2.0000      -0.822270       -22.3751
  18   2.0000      -0.747930       -20.3522
  19   2.0000      -0.719711       -19.5843
  20   2.0000      -0.696161       -18.9435
  21   2.0000      -0.661993       -18.0137
  22   2.0000      -0.639695       -17.4070
  23   2.0000      -0.617063       -16.7911
  24   2.0000      -0.606253       -16.4970
  25   2.0000      -0.573764       -15.6129
  26   2.0000      -0.545540       -14.8449
  27   2.0000      -0.522585       -14.2203
  28   2.0000      -0.514281       -13.9943
  29   2.0000      -0.506852       -13.7922
  30   2.0000      -0.489265       -13.3136
  31   2.0000      -0.482117       -13.1191
  32   2.0000      -0.459127       -12.4935
  33   2.0000      -0.445785       -12.1304
  34   2.0000      -0.431513       -11.7421
  35   2.0000      -0.428596       -11.6627
  36   2.0000      -0.408346       -11.1117
  37   2.0000      -0.394307       -10.7296
  38   2.0000      -0.388865       -10.5816
  39   2.0000      -0.385015       -10.4768
  40   2.0000      -0.369970       -10.0674
  41   2.0000      -0.364574        -9.9206
  42   2.0000      -0.358352        -9.7513
  43   2.0000      -0.343764        -9.3543
  44   2.0000      -0.336829        -9.1656
  45   2.0000      -0.330383        -8.9902
  46   2.0000      -0.327293        -8.9061
  47   2.0000      -0.314385        -8.5548
  48   2.0000      -0.311603        -8.4792
  49   2.0000      -0.304886        -8.2964
  50   2.0000      -0.300870        -8.1871
  51   2.0000      -0.284518        -7.7421
  52   2.0000      -0.282141        -7.6775
  53   2.0000      -0.279304        -7.6002
  54   2.0000      -0.271287        -7.3821
  55   2.0000      -0.266625        -7.2552
  56   2.0000      -0.259930        -7.0731
  57   2.0000      -0.225735        -6.1426
  58   2.0000      -0.137383        -3.7384
  59   0.0000      -0.082098        -2.2340
  60   0.0000      -0.013331        -0.3627
  61   0.0000       0.003183         0.0866
  62   0.0000       0.010116         0.2753
  63   0.0000       0.015517         0.4222

MULLIKEN ATOMIC CHARGES
-----------------------
   0 C :    0.970367
   1 C :    0.849683
   2 C :    0.483185
   3 H :    0.036431
   4 H :   -0.338910
   5 C :    0.498837
   6 C :   -0.582904
   7 N :    0.794740
   8 C :    1.235483
   9 H :   -0.965953
  10 H :   -0.254983
  11 H :   -0.041812
  12 H :   -0.646378
  13 O :   -0.393596
  14 F :   -0.409986
  15 C :    0.465831
  16 C :    0.089530
  17 C :    0.158944
  18 H :   -0.325875
  19 H :   -0.247858
  20 H :   -0.238720
  21 H :   -0.131120
  22 C :    0.613352
  23 H :   -0.038072
  24 H :   -0.522524
  25 C :    0.304515
  26 H :   -0.717595
  27 H :   -0.133671
  28 C :    1.136347
  29 H :    0.042440
  30 H :   -0.559785
  31 H :    0.025897
  32 H :   -0.690199
  33 H :   -0.067089
  34 H :   -0.161999
  35 H :    0.012778
  36 H :   -0.249331
Sum of atomic charges:   -0.0000000

LOEWDIN ATOMIC CHARGES
----------------------
   0 C :    0.024740
   1 C :   -0.015312
   2 C :    0.068318
   3 H :    0.030109
   4 H :    0.035782
   5 C :    0.016847
   6 C :   -0.263678
   7 N :    0.224279
   8 C :    0.203718
   9 H :   -0.176533
  10 H :   -0.076525
  11 H :   -0.001527
  12 H :   -0.077245
  13 O :   -0.087696
  14 F :   -0.007995
  15 C :   -0.013723
  16 C :   -0.023030
  17 C :   -0.023629
  18 H :    0.027039
  19 H :    0.003845
  20 H :    0.023470
  21 H :    0.018617
  22 C :   -0.017832
  23 H :    0.004542
  24 H :    0.016213
  25 C :   -0.031664
  26 H :   -0.018126
  27 H :    0.035080
  28 C :   -0.018537
  29 H :    0.008843
  30 H :    0.018415
  31 H :    0.009119
  32 H :    0.019566
  33 H :    0.015305
  34 H :    0.018903
  35 H :    0.018538
  36 H :    0.011762

  Mayer bond orders larger than 0.100000
B(  0-C ,  6-C ) :   1.2925 B(  0-C ,  8-C ) :   0.1592 B(  0-C , 15-C ) :   1.0474
B(  0-C , 22-C ) :   0.1065 B(  0-C , 23-H ) :   0.1408 B(  0-C , 24-H ) :   0.1817
B(  0-C , 35-H ) :   0.6219 B(  0-C , 36-H ) :   0.2965 B(  1-C ,  2-C ) :   1.1195
B(  1-C ,  3-H ) :   0.1159 B(  1-C ,  4-H ) :   0.2118 B(  1-C ,  5-C ) :   0.1317
B(  1-C , 17-C ) :   1.1616 B(  1-C , 19-H ) :   0.1440 B(  1-C , 20-H ) :   0.6055
B(  1-C , 21-H ) :   0.4643 B(  1-C , 28-C ) :   0.1323 B(  2-C ,  3-H ) :   0.8091
B(  2-C ,  4-H ) :   0.5102 B(  2-C ,  5-C ) :   1.1384 B(  2-C , 17-C ) :   0.1957
B(  2-C , 20-H ) :   0.2095 B(  2-C , 21-H ) :   0.1421 B(  3-H ,  4-H ) :  -0.1290
B(  3-H ,  5-C ) :   0.1935 B(  4-H ,  5-C ) :   0.2930 B(  5-C , 13-O ) :   1.8520
B(  5-C , 14-F ) :   0.6370 B(  6-C ,  7-N ) :   1.0511 B(  6-C ,  8-C ) :   1.8258
B(  6-C ,  9-H ) :   0.4269 B(  6-C , 10-H ) :   0.3605 B(  6-C , 15-C ) :   0.1484
B(  6-C , 24-H ) :  -0.1524 B(  6-C , 35-H ) :   0.2494 B(  6-C , 36-H ) :   0.3908
B(  7-N ,  8-C ) :   0.4641 B(  7-N , 11-H ) :   0.9737 B(  7-N , 12-H ) :   0.9201
B(  8-C ,  9-H ) :  -0.2985 B(  8-C , 10-H ) :   0.5248 B(  8-C , 35-H ) :  -0.1041
B(  9-H , 13-O ) :   0.1733 B(  9-H , 24-H ) :  -0.1399 B( 10-H , 23-H ) :  -0.1239
B( 10-H , 24-H ) :   0.1052 B( 11-H , 12-H ) :  -0.2520 B( 12-H , 14-F ) :   0.1386
B( 13-O , 14-F ) :   0.1462 B( 15-C , 22-C ) :   1.0995 B( 15-C , 23-H ) :   0.7295
B( 15-C , 24-H ) :   0.7057 B( 15-C , 25-C ) :   0.1687 B( 15-C , 26-H ) :   0.2203
B( 15-C , 27-H ) :   0.1172 B( 15-C , 35-H ) :   0.1737 B( 15-C , 36-H ) :   0.2638
B( 16-C , 17-C ) :   1.2770 B( 16-C , 18-H ) :   0.2085 B( 16-C , 19-H ) :   0.1808
B( 16-C , 25-C ) :   0.2674 B( 16-C , 28-C ) :   1.0029 B( 16-C , 31-H ) :   0.7620
B( 16-C , 32-H ) :   0.9007 B( 16-C , 33-H ) :   0.1983 B( 16-C , 34-H ) :   0.3969
B( 17-C , 18-H ) :   0.7280 B( 17-C , 19-H ) :   0.7781 B( 17-C , 20-H ) :   0.2516
B( 17-C , 21-H ) :   0.3503 B( 17-C , 31-H ) :   0.1363 B( 17-C , 32-H ) :   0.1368
B( 20-H , 21-H ) :  -0.1972 B( 22-C , 23-H ) :   0.1715 B( 22-C , 24-H ) :   0.2259
B( 22-C , 25-C ) :   1.1197 B( 22-C , 26-H ) :   0.6378 B( 22-C , 27-H ) :   0.5689
B( 22-C , 29-H ) :   0.1805 B( 22-C , 30-H ) :   0.2784 B( 22-C , 31-H ) :  -0.1099
B( 23-H , 24-H ) :  -0.1086 B( 25-C , 26-H ) :   0.1359 B( 25-C , 27-H ) :   0.1474
B( 25-C , 28-C ) :   1.0922 B( 25-C , 29-H ) :   0.7467 B( 25-C , 30-H ) :   0.7408
B( 25-C , 33-H ) :   0.3058 B( 25-C , 34-H ) :   0.1915 B( 26-H , 27-H ) :   0.2101
B( 26-H , 31-H ) :   0.2330 B( 26-H , 32-H ) :  -0.1605 B( 28-C , 29-H ) :   0.1296
B( 28-C , 33-H ) :   0.4900 B( 28-C , 34-H ) :   0.4162 B( 29-H , 30-H ) :  -0.1237
B( 33-H , 34-H ) :  -0.1766

Dispersion correction           -0.085325890
FINAL SINGLE POINT ENERGY      -699.563561041324

DIPOLE MOMENT
-------------
                                X             Y             Z
Electronic contribution:     -2.20587       3.56815      16.23898
Nuclear contribution   :      0.32481      -3.64700     -16.75441
                        -----------------------------------------
Total Dipole Moment    :     -1.88106      -0.07885      -0.51543
                        -----------------------------------------
Magnitude (a.u.)       :      1.95200
Magnitude (Debye)      :      4.96158

Rotational constants in cm-1:     0.021629     0.017327     0.011372
Rotational constants in MHz :   648.414821   519.443407   340.925013

                             ****ORCA TERMINATED NORMALLY****
TOTAL RUN TIME: 0 days 0 hours 1 minutes 10 seconds 345 msec
