                         Program Version 5.0.0 -  RELEASE  -
|  1> !B3LYP D3BJ RIJCOSX def2-SVPD def2/J TightSCF
|  2> *xyz -1 1
|  3> C          3.84189       -6.95161       -3.63283
|  4> S          4.31812       -6.91593       -5.36869
|  5> O          5.40615       -5.89948       -5.51297
|  6> O          3.11191       -6.44508       -6.04379
|  7> O          4.76340       -8.23942       -5.69863
|  8> H          3.06224       -7.67071       -3.49159
|  9> H          3.49217       -5.98401       -3.33897
| 10> H          4.68822       -7.22131       -3.03626
| 11> *
| 12>
| 13> %MaxCore 64000
| 14>
| 15> %pal nprocs 8
| 16> end
| 17>
| 18> %scf
| 19>   MaxIter 150
| 20> end
| 21>
| 22>
| 23>                          ****END OF INPUT****

CARTESIAN COORDINATES (ANGSTROEM)
---------------------------------
  C      3.841890   -6.951610   -3.632830
  S      4.318120   -6.915930   -5.368690
  O      5.406150   -5.899480   -5.512970
  O      3.111910   -6.445080   -6.043790
  O      4.763400   -8.239420   -5.698630
  H      3.062240   -7.670710   -3.491590
  H      3.492170   -5.984010   -3.338970
  H      4.688220   -7.221310   -3.036260

 Total Charge           Charge          ....   -1
 Multiplicity           Mult            ....    1
 Number of Electrons    NEL             ....   50
 Basis Dimension        Dim             ....  140

ORBITAL ENERGIES
----------------

  NO   OCC          E(Eh)            E(eV)
   0   2.0000     -88.882496     -2418.6157
   1   2.0000     -18.923293      -514.9290
   2   2.0000     -18.913094      -514.6515
   3   2.0000     -18.906807      -514.4804
   4   2.0000     -10.039502      -273.1887
   5   2.0000      -7.935940      -215.9479
   6   2.0000      -5.904855      -160.6793
   7   2.0000      -5.904730      -160.6759
   8   2.0000      -5.904358      -160.6658
   9   2.0000      -0.927323       -25.2337
  10   2.0000      -0.790771       -21.5180
  11   2.0000      -0.760394       -20.6914
  12   2.0000      -0.580949       -15.8084
  13   2.0000      -0.388576       -10.5737
  14   2.0000      -0.301259        -8.1977
  15   2.0000      -0.292127        -7.9492
  16   2.0000      -0.290074        -7.8933
  17   2.0000      -0.249423        -6.7872
  18   2.0000      -0.246246        -6.7007
  19   2.0000      -0.150632        -4.0989
  20   2.0000      -0.149317        -4.0631
  21   2.0000      -0.117501        -3.1974
  22   2.0000      -0.109271        -2.9734
  23   2.0000      -0.099092        -2.6964
  24   2.0000      -0.062940        -1.7127
  25   0.0000       0.149395         4.0652
  26   0.0000       0.185884         5.0582
  27   0.0000       0.186174         5.0660
  28   0.0000       0.189970         5.1694
  29   0.0000       0.212694         5.7877

MULLIKEN ATOMIC CHARGES
-----------------------
   0 C :    0.719745
   1 S :    1.104497
   2 O :   -0.811074
   3 O :   -0.783165
   4 O :   -0.750679
   5 H :   -0.152451
   6 H :   -0.154836
   7 H :   -0.172036
Sum of atomic charges:   -1.0000000

LOEWDIN ATOMIC CHARGES
----------------------
   0 C :    0.064740
   1 S :    0.841455
   2 O :   -0.606006
   3 O :   -0.595574
   4 O :   -0.578425
   5 H :   -0.042020
   6 H :   -0.040709
   7 H :   -0.043462

  Mayer bond orders larger than 0.100000
B(  0-C ,  1-S ) :   0.9228 B(  0-C ,  5-H ) :   0.8779 B(  0-C ,  6-H ) :   0.8839
B(  0-C ,  7-H ) :   0.8835 B(  1-S ,  2-O ) :   1.2824 B(  1-S ,  3-O ) :   1.3185
B(  1-S ,  4-O ) :   1.3408 B(  1-S ,  5-H ) :   0.1216 B(  1-S ,  6-H ) :   0.1337
B(  1-S ,  7-H ) :   0.1282

Dispersion correction           -0.011062483
FINAL SINGLE POINT ENERGY      -663.324166184755

DIPOLE MOMENT
-------------
                                X             Y             Z
Electronic contribution:      1.08445      -0.06312      -4.11245
Nuclear contribution   :     -1.53523      -0.17928       5.57610
                        -----------------------------------------
Total Dipole Moment    :     -0.45078      -0.24240       1.46365
                        -----------------------------------------
Magnitude (a.u.)       :      1.55056
Magnitude (Debye)      :      3.94121

Rotational constants in cm-1:     0.172657     0.156250     0.152500
Rotational constants in MHz :  5176.120042  4684.252187  4571.835124

                             ****ORCA TERMINATED NORMALLY****
TOTAL RUN TIME: 0 days 0 hours 0 minutes 6 seconds 898 msec
