                         Program Version 5.0.0 -  RELEASE  -
|  1> !B3LYP D3BJ RIJCOSX def2-SVPD def2/J TightSCF
|  2> *xyz 1 1
|  3> C          5.55821       -1.99291       -6.21505
|  4> C          4.18188       -2.58967       -6.29891
|  5> N          3.14587       -1.76843       -6.48675
|  6> N          4.01910       -3.86431       -6.22743
|  7> H          4.76849       -4.59115       -5.99077
|  8> H          3.12241       -4.33339       -6.31462
|  9> H          3.28164       -0.77779       -6.56655
| 10> H          2.21255       -2.13419       -6.56225
| 11> H          5.49055       -0.92791       -6.29315
| 12> H          6.16046       -2.37160       -7.01429
| 13> H          6.00378       -2.25423       -5.27799
| 14> *
| 15>
| 16> %MaxCore 64000
| 17>
| 18> %pal nprocs 8
| 19> end
| 20>
| 21> %scf
| 22>   MaxIter 150
| 23> end
| 24>
| 25>
| 26>                          ****END OF INPUT****

CARTESIAN COORDINATES (ANGSTROEM)
---------------------------------
  C      5.558210   -1.992910   -6.215050
  C      4.181880   -2.589670   -6.298910
  N      3.145870   -1.768430   -6.486750
  N      4.019100   -3.864310   -6.227430
  H      4.768490   -4.591150   -5.990770
  H      3.122410   -4.333390   -6.314620
  H      3.281640   -0.777790   -6.566550
  H      2.212550   -2.134190   -6.562250
  H      5.490550   -0.927910   -6.293150
  H      6.160460   -2.371600   -7.014290
  H      6.003780   -2.254230   -5.277990

 Total Charge           Charge          ....    1
 Multiplicity           Mult            ....    1
 Number of Electrons    NEL             ....   32
 Basis Dimension        Dim             ....  136

ORBITAL ENERGIES
----------------

  NO   OCC          E(Eh)            E(eV)
   0   2.0000     -14.588655      -396.9775
   1   2.0000     -14.578308      -396.6959
   2   2.0000     -10.516735      -286.1749
   3   2.0000     -10.381964      -282.5076
   4   2.0000      -1.201794       -32.7025
   5   2.0000      -1.104485       -30.0546
   6   2.0000      -0.948399       -25.8072
   7   2.0000      -0.847772       -23.0690
   8   2.0000      -0.784640       -21.3512
   9   2.0000      -0.764673       -20.8078
  10   2.0000      -0.704167       -19.1614
  11   2.0000      -0.660991       -17.9865
  12   2.0000      -0.616628       -16.7793
  13   2.0000      -0.601220       -16.3600
  14   2.0000      -0.578453       -15.7405
  15   2.0000      -0.500356       -13.6154
  16   0.0000      -0.217213        -5.9107
  17   0.0000      -0.167329        -4.5532
  18   0.0000      -0.125136        -3.4051
  19   0.0000      -0.121077        -3.2947
  20   0.0000      -0.097926        -2.6647

MULLIKEN ATOMIC CHARGES
-----------------------
   0 C :    0.789554
   1 C :    0.387378
   2 N :    0.123845
   3 N :    0.198211
   4 H :    0.032720
   5 H :   -0.185181
   6 H :   -0.025395
   7 H :   -0.161054
   8 H :   -0.055594
   9 H :   -0.059766
  10 H :   -0.044718
Sum of atomic charges:    1.0000000

LOEWDIN ATOMIC CHARGES
----------------------
   0 C :    0.243186
   1 C :   -0.069539
   2 N :    0.291735
   3 N :    0.257417
   4 H :    0.110441
   5 H :    0.047490
   6 H :    0.039701
   7 H :    0.039085
   8 H :    0.002784
   9 H :    0.019612
  10 H :    0.018088

  Mayer bond orders larger than 0.100000
B(  0-C ,  1-C ) :   1.2750 B(  0-C ,  8-H ) :   0.7536 B(  0-C ,  9-H ) :   0.7382
B(  0-C , 10-H ) :   0.7207 B(  1-C ,  2-N ) :   0.9944 B(  1-C ,  3-N ) :   1.1773
B(  1-C ,  4-H ) :  -0.1079 B(  1-C ,  5-H ) :  -0.2096 B(  1-C ,  7-H ) :  -0.2438
B(  1-C ,  8-H ) :   0.2697 B(  1-C ,  9-H ) :   0.1880 B(  1-C , 10-H ) :   0.1981
B(  2-N ,  3-N ) :   0.1570 B(  2-N ,  6-H ) :   1.1263 B(  2-N ,  7-H ) :   1.3326
B(  3-N ,  4-H ) :   1.1565 B(  3-N ,  5-H ) :   1.2544 B(  4-H ,  5-H ) :  -0.1629
B(  6-H ,  7-H ) :  -0.1897 B(  8-H , 10-H ) :   0.1110 B(  9-H , 10-H ) :   0.1003

Dispersion correction           -0.011337716
FINAL SINGLE POINT ENERGY      -189.483285050358

DIPOLE MOMENT
-------------
                                X             Y             Z
Electronic contribution:     -1.91752      -0.89039      -0.11716
Nuclear contribution   :      1.48163       0.51565       0.12876
                        -----------------------------------------
Total Dipole Moment    :     -0.43589      -0.37473       0.01160
                        -----------------------------------------
Magnitude (a.u.)       :      0.57495
Magnitude (Debye)      :      1.46140

Rotational constants in cm-1:     0.329497     0.300036     0.161709
Rotational constants in MHz :  9878.065920  8994.849253  4847.907140

                             ****ORCA TERMINATED NORMALLY****
TOTAL RUN TIME: 0 days 0 hours 0 minutes 6 seconds 298 msec
