                         Program Version 5.0.0 -  RELEASE  -
|  1> !B3LYP D3BJ RIJCOSX def2-SVPD def2/J TightSCF xyzfile
|  2>
|  3> *xyzfile 0 1 B.xyz
|  4>
|  5> %MaxCore 64000
|  6>
|  7> %pal nprocs 4
|  8> end
|  9>
| 10> %scf
| 11>   MaxIter 150
| 12> end
| 13>
| 14>
| 15>                          ****END OF INPUT****

CARTESIAN COORDINATES (ANGSTROEM)
---------------------------------
  C      5.558206   -1.992914   -6.215054
  C      4.930199   -7.375319   -2.649623
  C      3.841892   -6.951611   -3.632829
  H      3.458144   -5.954425   -3.407121
  H      2.988484   -7.643606   -3.567078
  S      4.318115   -6.915930   -5.368692
  C      4.181880   -2.589671   -6.298911
  N      3.145873   -1.768431   -6.486753
  N      4.019102   -3.864307   -6.227427
  H      4.768490   -4.591153   -5.990773
  H      3.122405   -4.333392   -6.314620
  H      3.281635   -0.777786   -6.566549
  H      2.212549   -2.134193   -6.562246
  O      5.406154   -5.899480   -5.512972
  O      3.111910   -6.445079   -6.043792
  C      6.419260   -2.542944   -5.077630
  C      5.872267   -5.002756   -2.427819
  C      6.173994   -6.485522   -2.606315
  H      6.734852   -6.613767   -3.534015
  H      6.821463   -6.831018   -1.793617
  H      4.469612   -7.406168   -1.655876
  H      5.230134   -8.398678   -2.885906
  C      5.896512   -2.169314   -3.694552
  H      7.428880   -2.143665   -5.208078
  H      6.505894   -3.627541   -5.175502
  C      6.807804   -2.623428   -2.551019
  H      4.894708   -2.589732   -3.557501
  H      5.778823   -1.081255   -3.635790
  C      7.111544   -4.122463   -2.520363
  H      7.751615   -2.071393   -2.614406
  H      6.345837   -2.326401   -1.604086
  H      5.362882   -4.828697   -1.471335
  H      5.174429   -4.702577   -3.211298
  H      7.778329   -4.329347   -1.677651
  H      7.673189   -4.402845   -3.417586
  O      4.763396   -8.239424   -5.698629
  H      6.036826   -2.198189   -7.176852
  H      5.467610   -0.907371   -6.127968

 Total Charge           Charge          ....    0
 Multiplicity           Mult            ....    1
 Number of Electrons    NEL             ....  136
 Basis Dimension        Dim             ....  512

ORBITAL ENERGIES
----------------

  NO   OCC          E(Eh)            E(eV)
   0   2.0000     -89.037206     -2422.8255
   1   2.0000     -19.083650      -519.2925
   2   2.0000     -19.072440      -518.9875
   3   2.0000     -19.066495      -518.8257
   4   2.0000     -14.422118      -392.4458
   5   2.0000     -14.381860      -391.3503
   6   2.0000     -10.341143      -281.3968
   7   2.0000     -10.240776      -278.6657
   8   2.0000     -10.207889      -277.7708
   9   2.0000     -10.196336      -277.4564
  10   2.0000     -10.184749      -277.1411
  11   2.0000     -10.179148      -276.9887
  12   2.0000     -10.172604      -276.8106
  13   2.0000     -10.166757      -276.6515
  14   2.0000     -10.164619      -276.5933
  15   2.0000     -10.157387      -276.3965
  16   2.0000      -8.089830      -220.1355
  17   2.0000      -6.059642      -164.8912
  18   2.0000      -6.058540      -164.8613
  19   2.0000      -6.057453      -164.8317
  20   2.0000      -1.086589       -29.5676
  21   2.0000      -1.030933       -28.0531
  22   2.0000      -0.946374       -25.7521
  23   2.0000      -0.937960       -25.5232
  24   2.0000      -0.927453       -25.2373
  25   2.0000      -0.834772       -22.7153
  26   2.0000      -0.799788       -21.7633
  27   2.0000      -0.777107       -21.1462
  28   2.0000      -0.737964       -20.0810
  29   2.0000      -0.704416       -19.1681
  30   2.0000      -0.673253       -18.3201
  31   2.0000      -0.652601       -17.7582
  32   2.0000      -0.625483       -17.0203
  33   2.0000      -0.610454       -16.6113
  34   2.0000      -0.596274       -16.2254
  35   2.0000      -0.574650       -15.6370
  36   2.0000      -0.557834       -15.1794
  37   2.0000      -0.541504       -14.7351
  38   2.0000      -0.513730       -13.9793
  39   2.0000      -0.503009       -13.6876
  40   2.0000      -0.488744       -13.2994
  41   2.0000      -0.473137       -12.8747
  42   2.0000      -0.468679       -12.7534
  43   2.0000      -0.454875       -12.3778
  44   2.0000      -0.447729       -12.1833
  45   2.0000      -0.439911       -11.9706
  46   2.0000      -0.431522       -11.7423
  47   2.0000      -0.426376       -11.6023
  48   2.0000      -0.412791       -11.2326
  49   2.0000      -0.402560       -10.9542
  50   2.0000      -0.397532       -10.8174
  51   2.0000      -0.395770       -10.7694
  52   2.0000      -0.376017       -10.2319
  53   2.0000      -0.369818       -10.0633
  54   2.0000      -0.363787        -9.8991
  55   2.0000      -0.346984        -9.4419
  56   2.0000      -0.338034        -9.1984
  57   2.0000      -0.331267        -9.0142
  58   2.0000      -0.328570        -8.9408
  59   2.0000      -0.318940        -8.6788
  60   2.0000      -0.314990        -8.5713
  61   2.0000      -0.308618        -8.3979
  62   2.0000      -0.304221        -8.2783
  63   2.0000      -0.301658        -8.2085
  64   2.0000      -0.267536        -7.2800
  65   2.0000      -0.264245        -7.1905
  66   2.0000      -0.254099        -6.9144
  67   2.0000      -0.232232        -6.3194
  68   0.0000      -0.052705        -1.4342
  69   0.0000      -0.027252        -0.7416
  70   0.0000       0.007601         0.2068
  71   0.0000       0.017750         0.4830
  72   0.0000       0.024515         0.6671

MULLIKEN ATOMIC CHARGES
-----------------------
   0 C :    0.652032
   1 C :    0.663366
   2 C :    0.202416
   3 H :    0.109613
   4 H :   -0.355334
   5 S :    1.419724
   6 C :    0.567672
   7 N :    0.244707
   8 N :    0.713000
   9 H :   -0.080917
  10 H :   -0.309340
  11 H :   -0.132989
  12 H :   -0.209008
  13 O :   -1.040476
  14 O :   -0.862787
  15 C :    0.585824
  16 C :    0.151891
  17 C :    0.397046
  18 H :    0.026663
  19 H :   -0.439945
  20 H :   -0.023448
  21 H :   -0.099027
  22 C :    0.077685
  23 H :   -0.210945
  24 H :   -0.663460
  25 C :    0.786231
  26 H :    0.067878
  27 H :   -0.446995
  28 C :    0.279213
  29 H :   -0.059295
  30 H :   -0.137075
  31 H :   -0.060748
  32 H :   -0.415960
  33 H :   -0.416421
  34 H :    0.025953
  35 O :   -0.834662
  36 H :   -0.180050
  37 H :    0.007968
Sum of atomic charges:   -0.0000000

LOEWDIN ATOMIC CHARGES
----------------------
   0 C :    0.049194
   1 C :   -0.025068
   2 C :   -0.065395
   3 H :   -0.001430
   4 H :    0.022828
   5 S :    0.956097
   6 C :   -0.052563
   7 N :    0.257538
   8 N :    0.304980
   9 H :   -0.089002
  10 H :   -0.000919
  11 H :    0.013338
  12 H :    0.022087
  13 O :   -0.518762
  14 O :   -0.542435
  15 C :   -0.002017
  16 C :   -0.030616
  17 C :   -0.022606
  18 H :    0.012570
  19 H :    0.022070
  20 H :    0.021652
  21 H :    0.025386
  22 C :   -0.028781
  23 H :    0.035141
  24 H :    0.000530
  25 C :   -0.022772
  26 H :    0.010522
  27 H :    0.018112
  28 C :   -0.024587
  29 H :    0.018933
  30 H :    0.020360
  31 H :    0.032519
  32 H :   -0.021991
  33 H :    0.022356
  34 H :    0.018636
  35 O :   -0.502173
  36 H :    0.044722
  37 H :    0.021548

  Mayer bond orders larger than 0.100000
B(  0-C ,  6-C ) :   0.9877 B(  0-C , 15-C ) :   1.1829 B(  0-C , 24-H ) :   0.1540
B(  0-C , 36-H ) :   0.5523 B(  0-C , 37-H ) :   0.7014 B(  1-C ,  2-C ) :   1.2038
B(  1-C ,  3-H ) :   0.1156 B(  1-C ,  4-H ) :   0.1736 B(  1-C , 17-C ) :   1.2111
B(  1-C , 20-H ) :   0.6407 B(  1-C , 21-H ) :   0.6003 B(  2-C ,  3-H ) :   0.8054
B(  2-C ,  4-H ) :   0.7720 B(  2-C ,  5-S ) :   0.9408 B(  2-C , 20-H ) :   0.2181
B(  2-C , 21-H ) :   0.1336 B(  2-C , 35-O ) :   0.1496 B(  3-H , 17-C ) :  -0.1064
B(  4-H ,  5-S ) :   0.1483 B(  5-S , 13-O ) :   0.9699 B(  5-S , 14-O ) :   1.2391
B(  5-S , 35-O ) :   1.3154 B(  6-C ,  7-N ) :   0.9702 B(  6-C ,  8-N ) :   1.3173
B(  6-C ,  9-H ) :  -0.2503 B(  6-C , 10-H ) :  -0.3628 B(  6-C , 12-H ) :  -0.1895
B(  6-C , 36-H ) :   0.2208 B(  6-C , 37-H ) :   0.1828 B(  7-N ,  8-N ) :   0.1623
B(  7-N , 11-H ) :   1.1943 B(  7-N , 12-H ) :   1.3204 B(  8-N ,  9-H ) :   0.9097
B(  8-N , 10-H ) :   1.1469 B(  8-N , 24-H ) :   0.1103 B(  9-H , 10-H ) :  -0.2465
B(  9-H , 13-O ) :   0.2004 B( 10-H , 14-O ) :   0.1824 B( 11-H , 12-H ) :  -0.1821
B( 13-O , 14-O ) :   0.1419 B( 13-O , 18-H ) :   0.1056 B( 13-O , 24-H ) :   0.2076
B( 13-O , 35-O ) :   0.1213 B( 15-C , 22-C ) :   1.1750 B( 15-C , 23-H ) :   0.6756
B( 15-C , 24-H ) :   0.5000 B( 15-C , 26-H ) :   0.1524 B( 15-C , 27-H ) :   0.1789
B( 15-C , 36-H ) :   0.3285 B( 15-C , 37-H ) :   0.1835 B( 16-C , 17-C ) :   1.2013
B( 16-C , 18-H ) :   0.1540 B( 16-C , 19-H ) :   0.1809 B( 16-C , 28-C ) :   1.1970
B( 16-C , 31-H ) :   0.7192 B( 16-C , 32-H ) :   0.9381 B( 16-C , 33-H ) :   0.2233
B( 16-C , 34-H ) :   0.1599 B( 17-C , 18-H ) :   0.7970 B( 17-C , 19-H ) :   0.7480
B( 17-C , 20-H ) :   0.1148 B( 17-C , 21-H ) :   0.2761 B( 17-C , 28-C ) :   0.1592
B( 17-C , 31-H ) :   0.1090 B( 17-C , 32-H ) :   0.1123 B( 20-H , 21-H ) :  -0.1207
B( 22-C , 23-H ) :   0.1691 B( 22-C , 24-H ) :   0.2370 B( 22-C , 25-C ) :   1.0658
B( 22-C , 26-H ) :   0.8104 B( 22-C , 27-H ) :   0.9583 B( 22-C , 28-C ) :   0.1502
B( 22-C , 29-H ) :   0.1556 B( 22-C , 30-H ) :   0.2797 B( 24-H , 34-H ) :   0.1023
B( 25-C , 28-C ) :   1.1057 B( 25-C , 29-H ) :   0.6129 B( 25-C , 30-H ) :   0.6280
B( 26-H , 32-H ) :   0.1548 B( 28-C , 29-H ) :   0.2517 B( 28-C , 30-H ) :   0.1420
B( 28-C , 31-H ) :   0.1203 B( 28-C , 33-H ) :   0.8716 B( 28-C , 34-H ) :   0.7861
B( 29-H , 30-H ) :  -0.1335 B( 31-H , 32-H ) :   0.1144 B( 36-H , 37-H ) :  -0.1063

Dispersion correction           -0.075799948
FINAL SINGLE POINT ENERGY     -1126.639669914706

DIPOLE MOMENT
-------------
                                X             Y             Z
Electronic contribution:     -9.19764     -11.43472     -14.13392
Nuclear contribution   :      8.53517      16.50844      14.36520
                        -----------------------------------------
Total Dipole Moment    :     -0.66247       5.07372       0.23128
                        -----------------------------------------
Magnitude (a.u.)       :      5.12201
Magnitude (Debye)      :     13.01912

Rotational constants in cm-1:     0.017951     0.012436     0.008288
Rotational constants in MHz :   538.163255   372.824050   248.467077

                             ****ORCA TERMINATED NORMALLY****
TOTAL RUN TIME: 0 days 0 hours 3 minutes 58 seconds 133 msec
