                         Program Version 5.0.0 -  RELEASE  -
|  1> !B3LYP D3BJ RIJCOSX def2-SVPD def2/J TightSCF
|  2> *xyz 0 1
|  3> C          3.84189       -6.95161       -3.63283
|  4> S          4.31812       -6.91593       -5.36869
|  5> F          5.40615       -5.89948       -5.51297
|  6> O          3.11191       -6.44508       -6.04379
|  7> O          4.76340       -8.23942       -5.69863
|  8> H          3.06224       -7.67071       -3.49159
|  9> H          3.49217       -5.98401       -3.33897
| 10> H          4.68822       -7.22131       -3.03626
| 11> *
| 12>
| 13> %MaxCore 64000
| 14>
| 15> %pal nprocs 8
| 16> end
| 17>
| 18> %scf
| 19>   MaxIter 150
| 20> end
| 21>
| 22>
| 23>                          ****END OF INPUT****

CARTESIAN COORDINATES (ANGSTROEM)
---------------------------------
  C      3.841890   -6.951610   -3.632830
  S      4.318120   -6.915930   -5.368690
  F      5.406150   -5.899480   -5.512970
  O      3.111910   -6.445080   -6.043790
  O      4.763400   -8.239420   -5.698630
  H      3.062240   -7.670710   -3.491590
  H      3.492170   -5.984010   -3.338970
  H      4.688220   -7.221310   -3.036260

 Total Charge           Charge          ....    0
 Multiplicity           Mult            ....    1
 Number of Electrons    NEL             ....   50
 Basis Dimension        Dim             ....  140

ORBITAL ENERGIES
----------------

  NO   OCC          E(Eh)            E(eV)
   0   2.0000     -89.145072     -2425.7607
   1   2.0000     -24.798131      -674.7915
   2   2.0000     -19.162315      -521.4331
   3   2.0000     -19.151663      -521.1432
   4   2.0000     -10.248480      -278.8753
   5   2.0000      -8.199139      -223.1099
   6   2.0000      -6.171863      -167.9449
   7   2.0000      -6.165864      -167.7817
   8   2.0000      -6.164927      -167.7562
   9   2.0000      -1.340220       -36.4692
  10   2.0000      -1.121321       -30.5127
  11   2.0000      -1.024476       -27.8774
  12   2.0000      -0.800476       -21.7820
  13   2.0000      -0.704795       -19.1785
  14   2.0000      -0.592869       -16.1328
  15   2.0000      -0.566294       -15.4096
  16   2.0000      -0.556073       -15.1315
  17   2.0000      -0.484117       -13.1735
  18   2.0000      -0.482434       -13.1277
  19   2.0000      -0.473242       -12.8776
  20   2.0000      -0.449457       -12.2304
  21   2.0000      -0.396280       -10.7833
  22   2.0000      -0.350671        -9.5423
  23   2.0000      -0.339468        -9.2374
  24   2.0000      -0.325100        -8.8464
  25   0.0000      -0.014014        -0.3813
  26   0.0000       0.020651         0.5619
  27   0.0000       0.031637         0.8609
  28   0.0000       0.045262         1.2316
  29   0.0000       0.045599         1.2408

MULLIKEN ATOMIC CHARGES
-----------------------
   0 C :    0.684584
   1 S :    1.269081
   2 F :   -0.400835
   3 O :   -0.649290
   4 O :   -0.619786
   5 H :   -0.091456
   6 H :   -0.087740
   7 H :   -0.104559
Sum of atomic charges:    0.0000000

LOEWDIN ATOMIC CHARGES
----------------------
   0 C :    0.134019
   1 S :    1.111726
   2 F :   -0.277517
   3 O :   -0.476368
   4 O :   -0.459990
   5 H :   -0.001292
   6 H :   -0.013955
   7 H :   -0.016623

  Mayer bond orders larger than 0.100000
B(  0-C ,  1-S ) :   0.9801 B(  0-C ,  5-H ) :   0.8768 B(  0-C ,  6-H ) :   0.8861
B(  0-C ,  7-H ) :   0.8857 B(  1-S ,  2-F ) :   0.6465 B(  1-S ,  3-O ) :   1.5247
B(  1-S ,  4-O ) :   1.5453 B(  1-S ,  5-H ) :   0.1226 B(  1-S ,  6-H ) :   0.1071
B(  1-S ,  7-H ) :   0.1018

Dispersion correction           -0.010366506
FINAL SINGLE POINT ENERGY      -687.825580123793

DIPOLE MOMENT
-------------
                                X             Y             Z
Electronic contribution:      2.88912       1.60184      -4.28649
Nuclear contribution   :     -2.64549      -1.17311       5.81218
                        -----------------------------------------
Total Dipole Moment    :      0.24363       0.42873       1.52569
                        -----------------------------------------
Magnitude (a.u.)       :      1.60340
Magnitude (Debye)      :      4.07553

Rotational constants in cm-1:     0.165958     0.149400     0.146699
Rotational constants in MHz :  4975.281722  4478.884828  4397.931002

                             ****ORCA TERMINATED NORMALLY****
TOTAL RUN TIME: 0 days 0 hours 0 minutes 6 seconds 920 msec
