                         Program Version 5.0.0 -  RELEASE  -
|  1> !B3LYP D3BJ RIJCOSX def2-SVPD def2/J TightSCF
|  2> *xyz 0 1
|  3> C          5.55821       -1.99291       -6.21505
|  4> C          4.18188       -2.58967       -6.29891
|  5> C          3.14587       -1.76843       -6.48675
|  6> N          4.01910       -3.86431       -6.22743
|  7> H          4.76849       -4.59115       -5.99077
|  8> H          3.12241       -4.33339       -6.31462
|  9> H          3.28164       -0.77779       -6.56655
| 10> H          2.21255       -2.13419       -6.56225
| 11> H          5.49055       -0.92791       -6.29315
| 12> H          6.16046       -2.37160       -7.01429
| 13> H          6.00378       -2.25423       -5.27799
| 14> *
| 15>
| 16> %MaxCore 64000
| 17>
| 18> %pal nprocs 8
| 19> end
| 20>
| 21> %scf
| 22>   MaxIter 150
| 23> end
| 24>
| 25>
| 26>                          ****END OF INPUT****

CARTESIAN COORDINATES (ANGSTROEM)
---------------------------------
  C      5.558210   -1.992910   -6.215050
  C      4.181880   -2.589670   -6.298910
  C      3.145870   -1.768430   -6.486750
  N      4.019100   -3.864310   -6.227430
  H      4.768490   -4.591150   -5.990770
  H      3.122410   -4.333390   -6.314620
  H      3.281640   -0.777790   -6.566550
  H      2.212550   -2.134190   -6.562250
  H      5.490550   -0.927910   -6.293150
  H      6.160460   -2.371600   -7.014290
  H      6.003780   -2.254230   -5.277990

 Total Charge           Charge          ....    0
 Multiplicity           Mult            ....    1
 Number of Electrons    NEL             ....   32
 Basis Dimension        Dim             ....  136

ORBITAL ENERGIES
----------------

  NO   OCC          E(Eh)            E(eV)
   0   2.0000     -14.339653      -390.2018
   1   2.0000     -10.206663      -277.7374
   2   2.0000     -10.173210      -276.8271
   3   2.0000     -10.113258      -275.1958
   4   2.0000      -0.925335       -25.1796
   5   2.0000      -0.747662       -20.3449
   6   2.0000      -0.678060       -18.4509
   7   2.0000      -0.585305       -15.9270
   8   2.0000      -0.512273       -13.9397
   9   2.0000      -0.472669       -12.8620
  10   2.0000      -0.431430       -11.7398
  11   2.0000      -0.398663       -10.8482
  12   2.0000      -0.390913       -10.6373
  13   2.0000      -0.350730        -9.5438
  14   2.0000      -0.339711        -9.2440
  15   2.0000      -0.186599        -5.0776
  16   0.0000       0.013735         0.3737
  17   0.0000       0.046658         1.2696
  18   0.0000       0.050307         1.3689
  19   0.0000       0.059882         1.6295
  20   0.0000       0.083625         2.2756

MULLIKEN ATOMIC CHARGES
-----------------------
   0 C :    1.040366
   1 C :   -0.455134
   2 C :    0.690397
   3 N :    0.302524
   4 H :   -0.130835
   5 H :   -0.256990
   6 H :   -0.308061
   7 H :   -0.578598
   8 H :   -0.057215
   9 H :   -0.127141
  10 H :   -0.119314
Sum of atomic charges:   -0.0000000

LOEWDIN ATOMIC CHARGES
----------------------
   0 C :    0.173125
   1 C :   -0.298614
   2 C :    0.182988
   3 N :    0.140788
   4 H :    0.047217
   5 H :    0.004862
   6 H :   -0.099305
   7 H :   -0.098175
   8 H :   -0.018115
   9 H :   -0.016545
  10 H :   -0.018226

  Mayer bond orders larger than 0.100000
B(  0-C ,  1-C ) :   1.2772 B(  0-C ,  8-H ) :   0.7692 B(  0-C ,  9-H ) :   0.6228
B(  0-C , 10-H ) :   0.6098 B(  1-C ,  2-C ) :   1.5954 B(  1-C ,  3-N ) :   1.2222
B(  1-C ,  7-H ) :   0.1589 B(  1-C ,  8-H ) :   0.2404 B(  1-C ,  9-H ) :   0.3102
B(  1-C , 10-H ) :   0.3126 B(  2-C ,  3-N ) :   0.2585 B(  2-C ,  6-H ) :   0.9501
B(  2-C ,  7-H ) :   0.6557 B(  3-N ,  4-H ) :   1.2147 B(  3-N ,  5-H ) :   1.2130
B(  4-H ,  5-H ) :  -0.1414 B(  8-H ,  9-H ) :   0.1072 B(  8-H , 10-H ) :   0.1117

Dispersion correction           -0.011973468
FINAL SINGLE POINT ENERGY      -173.025836161717

DIPOLE MOMENT
-------------
                                X             Y             Z
Electronic contribution:     -0.89716      -1.47597       0.03951
Nuclear contribution   :      1.24351       0.69391       0.08872
                        -----------------------------------------
Total Dipole Moment    :      0.34635      -0.78206       0.12822
                        -----------------------------------------
Magnitude (a.u.)       :      0.86488
Magnitude (Debye)      :      2.19835

Rotational constants in cm-1:     0.350694     0.303314     0.167659
Rotational constants in MHz : 10513.535482  9093.138449  5026.287342

                             ****ORCA TERMINATED NORMALLY****
TOTAL RUN TIME: 0 days 0 hours 0 minutes 6 seconds 695 msec
