                         Program Version 5.0.0 -  RELEASE  -
|  1> !B3LYP D3BJ RIJCOSX def2-SVPD def2/J TightSCF
|  2> *xyz 0 1
|  3> C          3.84189       -6.95161       -3.63283
|  4> S          4.31812       -6.91593       -5.36869
|  5> O          5.40615       -5.89948       -5.51297
|  6> F          3.11191       -6.44508       -6.04379
|  7> O          4.76340       -8.23942       -5.69863
|  8> H          3.06224       -7.67071       -3.49159
|  9> H          3.49217       -5.98401       -3.33897
| 10> H          4.68822       -7.22131       -3.03626
| 11> *
| 12>
| 13> %MaxCore 64000
| 14>
| 15> %pal nprocs 8
| 16> end
| 17>
| 18> %scf
| 19>   MaxIter 150
| 20> end
| 21>
| 22>
| 23>                          ****END OF INPUT****

CARTESIAN COORDINATES (ANGSTROEM)
---------------------------------
  C      3.841890   -6.951610   -3.632830
  S      4.318120   -6.915930   -5.368690
  O      5.406150   -5.899480   -5.512970
  F      3.111910   -6.445080   -6.043790
  O      4.763400   -8.239420   -5.698630
  H      3.062240   -7.670710   -3.491590
  H      3.492170   -5.984010   -3.338970
  H      4.688220   -7.221310   -3.036260

 Total Charge           Charge          ....    0
 Multiplicity           Mult            ....    1
 Number of Electrons    NEL             ....   50
 Basis Dimension        Dim             ....  140

ORBITAL ENERGIES
----------------

  NO   OCC          E(Eh)            E(eV)
   0   2.0000     -89.146865     -2425.8095
   1   2.0000     -24.811779      -675.1628
   2   2.0000     -19.162160      -521.4289
   3   2.0000     -19.145071      -520.9639
   4   2.0000     -10.249371      -278.8996
   5   2.0000      -8.200953      -223.1593
   6   2.0000      -6.173906      -168.0005
   7   2.0000      -6.167599      -167.8289
   8   2.0000      -6.166466      -167.7981
   9   2.0000      -1.367363       -37.2078
  10   2.0000      -1.115266       -30.3479
  11   2.0000      -1.005857       -27.3708
  12   2.0000      -0.805230       -21.9114
  13   2.0000      -0.716789       -19.5048
  14   2.0000      -0.603649       -16.4261
  15   2.0000      -0.585084       -15.9210
  16   2.0000      -0.560649       -15.2560
  17   2.0000      -0.485243       -13.2041
  18   2.0000      -0.483236       -13.1495
  19   2.0000      -0.471294       -12.8246
  20   2.0000      -0.445377       -12.1193
  21   2.0000      -0.393578       -10.7098
  22   2.0000      -0.349215        -9.5026
  23   2.0000      -0.331354        -9.0166
  24   2.0000      -0.312819        -8.5122
  25   0.0000      -0.011631        -0.3165
  26   0.0000       0.028691         0.7807
  27   0.0000       0.030608         0.8329
  28   0.0000       0.044549         1.2122
  29   0.0000       0.045412         1.2357

MULLIKEN ATOMIC CHARGES
-----------------------
   0 C :    0.682030
   1 S :    1.261147
   2 O :   -0.665322
   3 F :   -0.385227
   4 O :   -0.610132
   5 H :   -0.082392
   6 H :   -0.090072
   7 H :   -0.110032
Sum of atomic charges:    0.0000000

LOEWDIN ATOMIC CHARGES
----------------------
   0 C :    0.133596
   1 S :    1.111978
   2 O :   -0.484876
   3 F :   -0.269319
   4 O :   -0.460144
   5 H :   -0.014650
   6 H :   -0.014351
   7 H :   -0.002233

  Mayer bond orders larger than 0.100000
B(  0-C ,  1-S ) :   0.9786 B(  0-C ,  5-H ) :   0.8797 B(  0-C ,  6-H ) :   0.8856
B(  0-C ,  7-H ) :   0.8841 B(  1-S ,  2-O ) :   1.4922 B(  1-S ,  3-F ) :   0.6934
B(  1-S ,  4-O ) :   1.5506 B(  1-S ,  6-H ) :   0.1070 B(  1-S ,  7-H ) :   0.1295

Dispersion correction           -0.010355547
FINAL SINGLE POINT ENERGY      -687.814918951857

DIPOLE MOMENT
-------------
                                X             Y             Z
Electronic contribution:     -0.93697       0.68401      -5.17958
Nuclear contribution   :     -0.35339      -0.62802       6.34251
                        -----------------------------------------
Total Dipole Moment    :     -1.29037       0.05599       1.16292
                        -----------------------------------------
Magnitude (a.u.)       :      1.73798
Magnitude (Debye)      :      4.41759

Rotational constants in cm-1:     0.162638     0.154373     0.145390
Rotational constants in MHz :  4875.774584  4627.990015  4358.691210

                             ****ORCA TERMINATED NORMALLY****
TOTAL RUN TIME: 0 days 0 hours 0 minutes 6 seconds 973 msec
