                         Program Version 5.0.0 -  RELEASE  -
|  1> !B3LYP D3BJ RIJCOSX def2-SVPD def2/J TightSCF
|  2> *xyz 0 1
|  3> C          5.55821       -1.99291       -6.21505
|  4> C          4.18188       -2.58967       -6.29891
|  5> N          3.14587       -1.76843       -6.48675
|  6> C          4.01910       -3.86431       -6.22743
|  7> H          4.76849       -4.59115       -5.99077
|  8> H          3.12241       -4.33339       -6.31462
|  9> H          3.28164       -0.77779       -6.56655
| 10> H          2.21255       -2.13419       -6.56225
| 11> H          5.49055       -0.92791       -6.29315
| 12> H          6.16046       -2.37160       -7.01429
| 13> H          6.00378       -2.25423       -5.27799
| 14> *
| 15>
| 16> %MaxCore 64000
| 17>
| 18> %pal nprocs 8
| 19> end
| 20>
| 21> %scf
| 22>   MaxIter 150
| 23> end
| 24>
| 25>
| 26>                          ****END OF INPUT****

CARTESIAN COORDINATES (ANGSTROEM)
---------------------------------
  C      5.558210   -1.992910   -6.215050
  C      4.181880   -2.589670   -6.298910
  N      3.145870   -1.768430   -6.486750
  C      4.019100   -3.864310   -6.227430
  H      4.768490   -4.591150   -5.990770
  H      3.122410   -4.333390   -6.314620
  H      3.281640   -0.777790   -6.566550
  H      2.212550   -2.134190   -6.562250
  H      5.490550   -0.927910   -6.293150
  H      6.160460   -2.371600   -7.014290
  H      6.003780   -2.254230   -5.277990

 Total Charge           Charge          ....    0
 Multiplicity           Mult            ....    1
 Number of Electrons    NEL             ....   32
 Basis Dimension        Dim             ....  136

ORBITAL ENERGIES
----------------

  NO   OCC          E(Eh)            E(eV)
   0   2.0000     -14.329210      -389.9176
   1   2.0000     -10.203803      -277.6596
   2   2.0000     -10.174254      -276.8555
   3   2.0000     -10.118517      -275.3388
   4   2.0000      -0.915728       -24.9182
   5   2.0000      -0.751123       -20.4391
   6   2.0000      -0.684195       -18.6179
   7   2.0000      -0.567198       -15.4343
   8   2.0000      -0.525597       -14.3022
   9   2.0000      -0.477967       -13.0061
  10   2.0000      -0.429450       -11.6859
  11   2.0000      -0.397096       -10.8055
  12   2.0000      -0.394317       -10.7299
  13   2.0000      -0.346102        -9.4179
  14   2.0000      -0.334083        -9.0909
  15   2.0000      -0.192669        -5.2428
  16   0.0000       0.018222         0.4958
  17   0.0000       0.045488         1.2378
  18   0.0000       0.054413         1.4807
  19   0.0000       0.060218         1.6386
  20   0.0000       0.085986         2.3398

MULLIKEN ATOMIC CHARGES
-----------------------
   0 C :    1.010505
   1 C :   -0.089110
   2 N :    0.268169
   3 C :    0.194013
   4 H :   -0.155360
   5 H :   -0.475105
   6 H :   -0.198262
   7 H :   -0.211552
   8 H :   -0.216182
   9 H :   -0.083669
  10 H :   -0.043449
Sum of atomic charges:    0.0000000

LOEWDIN ATOMIC CHARGES
----------------------
   0 C :    0.175759
   1 C :   -0.287215
   2 N :    0.177060
   3 C :    0.144118
   4 H :   -0.043677
   5 H :   -0.093105
   6 H :   -0.017898
   7 H :   -0.002305
   8 H :   -0.031694
   9 H :   -0.010254
  10 H :   -0.010789

  Mayer bond orders larger than 0.100000
B(  0-C ,  1-C ) :   1.0824 B(  0-C ,  2-N ) :   0.1162 B(  0-C ,  8-H ) :   0.6541
B(  0-C ,  9-H ) :   0.7314 B(  0-C , 10-H ) :   0.6890 B(  1-C ,  2-N ) :   1.0374
B(  1-C ,  3-C ) :   1.4602 B(  1-C ,  5-H ) :   0.1215 B(  1-C ,  7-H ) :  -0.1461
B(  1-C ,  8-H ) :   0.3095 B(  1-C ,  9-H ) :   0.1890 B(  1-C , 10-H ) :   0.2112
B(  2-N ,  3-C ) :   0.2918 B(  2-N ,  6-H ) :   1.1399 B(  2-N ,  7-H ) :   1.2814
B(  3-C ,  4-H ) :   0.9287 B(  3-C ,  5-H ) :   0.7785 B(  6-H ,  7-H ) :  -0.1721

Dispersion correction           -0.011978362
FINAL SINGLE POINT ENERGY      -173.034249049211

DIPOLE MOMENT
-------------
                                X             Y             Z
Electronic contribution:     -1.63358       0.42340      -0.21043
Nuclear contribution   :      1.43935       0.22387       0.14687
                        -----------------------------------------
Total Dipole Moment    :     -0.19423       0.64727      -0.06355
                        -----------------------------------------
Magnitude (a.u.)       :      0.67877
Magnitude (Debye)      :      1.72529

Rotational constants in cm-1:     0.350137     0.303099     0.167465
Rotational constants in MHz : 10496.847516  9086.685989  5020.487860

                             ****ORCA TERMINATED NORMALLY****
TOTAL RUN TIME: 0 days 0 hours 0 minutes 6 seconds 579 msec
