                         Program Version 5.0.0 -  RELEASE  -
|  1> !B3LYP D3BJ RIJCOSX def2-SVPD def2/J TightSCF
|  2> *xyz 0 1
|  3> C          3.84189       -6.95161       -3.63283
|  4> S          4.31812       -6.91593       -5.36869
|  5> O          5.40615       -5.89948       -5.51297
|  6> O          3.11191       -6.44508       -6.04379
|  7> F          4.76340       -8.23942       -5.69863
|  8> H          3.06224       -7.67071       -3.49159
|  9> H          3.49217       -5.98401       -3.33897
| 10> H          4.68822       -7.22131       -3.03626
| 11> *
| 12>
| 13> %MaxCore 64000
| 14>
| 15> %pal nprocs 8
| 16> end
| 17>
| 18> %scf
| 19>   MaxIter 150
| 20> end
| 21>
| 22>
| 23>                          ****END OF INPUT****

CARTESIAN COORDINATES (ANGSTROEM)
---------------------------------
  C      3.841890   -6.951610   -3.632830
  S      4.318120   -6.915930   -5.368690
  O      5.406150   -5.899480   -5.512970
  O      3.111910   -6.445080   -6.043790
  F      4.763400   -8.239420   -5.698630
  H      3.062240   -7.670710   -3.491590
  H      3.492170   -5.984010   -3.338970
  H      4.688220   -7.221310   -3.036260

 Total Charge           Charge          ....    0
 Multiplicity           Mult            ....    1
 Number of Electrons    NEL             ....   50
 Basis Dimension        Dim             ....  140

ORBITAL ENERGIES
----------------

  NO   OCC          E(Eh)            E(eV)
   0   2.0000     -89.148093     -2425.8429
   1   2.0000     -24.825965      -675.5489
   2   2.0000     -19.152056      -521.1539
   3   2.0000     -19.145652      -520.9797
   4   2.0000     -10.249783      -278.9108
   5   2.0000      -8.202232      -223.1941
   6   2.0000      -6.175333      -168.0394
   7   2.0000      -6.168661      -167.8578
   8   2.0000      -6.167656      -167.8305
   9   2.0000      -1.390342       -37.8331
  10   2.0000      -1.103505       -30.0279
  11   2.0000      -0.997833       -27.1524
  12   2.0000      -0.805499       -21.9188
  13   2.0000      -0.728634       -19.8271
  14   2.0000      -0.615311       -16.7435
  15   2.0000      -0.601029       -16.3548
  16   2.0000      -0.562798       -15.3145
  17   2.0000      -0.484638       -13.1877
  18   2.0000      -0.479697       -13.0532
  19   2.0000      -0.473332       -12.8800
  20   2.0000      -0.440718       -11.9925
  21   2.0000      -0.386368       -10.5136
  22   2.0000      -0.338620        -9.2143
  23   2.0000      -0.329991        -8.9795
  24   2.0000      -0.306185        -8.3317
  25   0.0000      -0.013982        -0.3805
  26   0.0000       0.027331         0.7437
  27   0.0000       0.029059         0.7907
  28   0.0000       0.043229         1.1763
  29   0.0000       0.045358         1.2342

MULLIKEN ATOMIC CHARGES
-----------------------
   0 C :    0.684640
   1 S :    1.258040
   2 O :   -0.658330
   3 O :   -0.632707
   4 F :   -0.370886
   5 H :   -0.082327
   6 H :   -0.095434
   7 H :   -0.102996
Sum of atomic charges:    0.0000000

LOEWDIN ATOMIC CHARGES
----------------------
   0 C :    0.133208
   1 S :    1.113953
   2 O :   -0.484217
   3 O :   -0.476009
   4 F :   -0.255366
   5 H :   -0.014836
   6 H :   -0.000436
   7 H :   -0.016298

  Mayer bond orders larger than 0.100000
B(  0-C ,  1-S ) :   0.9800 B(  0-C ,  5-H ) :   0.8779 B(  0-C ,  6-H ) :   0.8845
B(  0-C ,  7-H ) :   0.8855 B(  1-S ,  2-O ) :   1.4924 B(  1-S ,  3-O ) :   1.5308
B(  1-S ,  4-F ) :   0.7199 B(  1-S ,  6-H ) :   0.1331 B(  1-S ,  7-H ) :   0.1009

Dispersion correction           -0.010360352
FINAL SINGLE POINT ENERGY      -687.802271091637

DIPOLE MOMENT
-------------
                                X             Y             Z
Electronic contribution:      1.80507      -2.28200      -4.60191
Nuclear contribution   :     -2.00334       1.16464       5.99767
                        -----------------------------------------
Total Dipole Moment    :     -0.19827      -1.11736       1.39576
                        -----------------------------------------
Magnitude (a.u.)       :      1.79887
Magnitude (Debye)      :      4.57236

Rotational constants in cm-1:     0.163678     0.154408     0.144413
Rotational constants in MHz :  4906.945035  4629.020676  4329.393152

                             ****ORCA TERMINATED NORMALLY****
TOTAL RUN TIME: 0 days 0 hours 0 minutes 7 seconds 75 msec
