                         Program Version 5.0.0 -  RELEASE  -
|  1> !B3LYP D3BJ RIJCOSX def2-SVPD def2/J TightSCF xyzfile
|  2>
|  3> *xyzfile 0 1 D4.xyz
|  4>
|  5> %MaxCore 64000
|  6>
|  7> %pal nprocs 4
|  8> end
|  9>
| 10> %scf
| 11>   MaxIter 150
| 12> end
| 13>
| 14>
| 15>                          ****END OF INPUT****

CARTESIAN COORDINATES (ANGSTROEM)
---------------------------------
  C      5.558206   -1.992914   -6.215054
  C      4.930199   -7.375319   -2.649623
  C      3.841892   -6.951611   -3.632829
  H      3.458144   -5.954425   -3.407121
  H      2.988484   -7.643606   -3.567078
  S      4.318115   -6.915930   -5.368692
  C      4.181880   -2.589671   -6.298911
  N      3.145873   -1.768431   -6.486753
  C      4.019102   -3.864307   -6.227427
  H      4.768490   -4.591153   -5.990773
  H      3.122405   -4.333392   -6.314620
  H      3.281635   -0.777786   -6.566549
  H      2.212549   -2.134193   -6.562246
  O      5.406154   -5.899480   -5.512972
  F      3.111910   -6.445079   -6.043792
  C      6.419260   -2.542944   -5.077630
  C      5.872267   -5.002756   -2.427819
  C      6.173994   -6.485522   -2.606315
  H      6.734852   -6.613767   -3.534015
  H      6.821463   -6.831018   -1.793617
  H      4.469612   -7.406168   -1.655876
  H      5.230134   -8.398678   -2.885906
  C      5.896512   -2.169314   -3.694552
  H      7.428880   -2.143665   -5.208078
  H      6.505894   -3.627541   -5.175502
  C      6.807804   -2.623428   -2.551019
  H      4.894708   -2.589732   -3.557501
  H      5.778823   -1.081255   -3.635790
  C      7.111544   -4.122463   -2.520363
  H      7.751615   -2.071393   -2.614406
  H      6.345837   -2.326401   -1.604086
  H      5.362882   -4.828697   -1.471335
  H      5.174429   -4.702577   -3.211298
  H      7.778329   -4.329347   -1.677651
  H      7.673189   -4.402845   -3.417586
  O      4.763396   -8.239424   -5.698629
  H      6.036826   -2.198189   -7.176852
  H      5.467610   -0.907371   -6.127968

 Total Charge           Charge          ....    0
 Multiplicity           Mult            ....    1
 Number of Electrons    NEL             ....  136
 Basis Dimension        Dim             ....  512

ORBITAL ENERGIES
----------------

  NO   OCC          E(Eh)            E(eV)
   0   2.0000     -89.143445     -2425.7165
   1   2.0000     -24.807103      -675.0356
   2   2.0000     -19.159372      -521.3530
   3   2.0000     -19.141998      -520.8802
   4   2.0000     -14.317977      -389.6120
   5   2.0000     -10.247084      -278.8373
   6   2.0000     -10.210609      -277.8448
   7   2.0000     -10.185771      -277.1689
   8   2.0000     -10.181467      -277.0518
   9   2.0000     -10.173415      -276.8327
  10   2.0000     -10.170045      -276.7410
  11   2.0000     -10.169775      -276.7336
  12   2.0000     -10.169010      -276.7128
  13   2.0000     -10.164399      -276.5874
  14   2.0000     -10.164188      -276.5816
  15   2.0000     -10.086293      -274.4620
  16   2.0000      -8.196337      -223.0337
  17   2.0000      -6.169179      -167.8719
  18   2.0000      -6.163383      -167.7142
  19   2.0000      -6.161693      -167.6682
  20   2.0000      -1.362909       -37.0866
  21   2.0000      -1.113862       -30.3097
  22   2.0000      -1.011116       -27.5139
  23   2.0000      -0.903835       -24.5946
  24   2.0000      -0.832850       -22.6630
  25   2.0000      -0.800977       -21.7957
  26   2.0000      -0.774842       -21.0845
  27   2.0000      -0.751630       -20.4529
  28   2.0000      -0.720265       -19.5994
  29   2.0000      -0.700948       -19.0738
  30   2.0000      -0.676741       -18.4150
  31   2.0000      -0.647163       -17.6102
  32   2.0000      -0.615038       -16.7360
  33   2.0000      -0.596713       -16.2374
  34   2.0000      -0.585780       -15.9399
  35   2.0000      -0.569406       -15.4943
  36   2.0000      -0.563483       -15.3332
  37   2.0000      -0.549159       -14.9434
  38   2.0000      -0.536317       -14.5939
  39   2.0000      -0.513453       -13.9718
  40   2.0000      -0.496663       -13.5149
  41   2.0000      -0.494306       -13.4508
  42   2.0000      -0.478270       -13.0144
  43   2.0000      -0.468604       -12.7513
  44   2.0000      -0.458655       -12.4806
  45   2.0000      -0.449293       -12.2259
  46   2.0000      -0.444433       -12.0936
  47   2.0000      -0.425923       -11.5900
  48   2.0000      -0.416434       -11.3317
  49   2.0000      -0.409617       -11.1462
  50   2.0000      -0.407707       -11.0943
  51   2.0000      -0.394806       -10.7432
  52   2.0000      -0.387968       -10.5571
  53   2.0000      -0.370179       -10.0731
  54   2.0000      -0.365585        -9.9481
  55   2.0000      -0.359041        -9.7700
  56   2.0000      -0.351970        -9.5776
  57   2.0000      -0.343185        -9.3385
  58   2.0000      -0.339784        -9.2460
  59   2.0000      -0.336329        -9.1520
  60   2.0000      -0.325233        -8.8500
  61   2.0000      -0.322930        -8.7874
  62   2.0000      -0.321959        -8.7610
  63   2.0000      -0.309091        -8.4108
  64   2.0000      -0.304680        -8.2908
  65   2.0000      -0.300509        -8.1773
  66   2.0000      -0.270660        -7.3650
  67   2.0000      -0.178820        -4.8660
  68   0.0000      -0.000327        -0.0089
  69   0.0000       0.012132         0.3301
  70   0.0000       0.022963         0.6249
  71   0.0000       0.026503         0.7212
  72   0.0000       0.033985         0.9248

MULLIKEN ATOMIC CHARGES
-----------------------
   0 C :    1.031230
   1 C :    0.643614
   2 C :    0.097608
   3 H :    0.176487
   4 H :   -0.291787
   5 S :    1.605753
   6 C :    0.097901
   7 N :    0.280215
   8 C :    1.250579
   9 H :   -0.223386
  10 H :   -1.200793
  11 H :   -0.204412
  12 H :   -0.249292
  13 O :   -0.886079
  14 F :   -0.494738
  15 C :    0.526866
  16 C :    0.141911
  17 C :    0.419927
  18 H :    0.011226
  19 H :   -0.423587
  20 H :   -0.009605
  21 H :   -0.090098
  22 C :    0.057935
  23 H :   -0.205078
  24 H :   -0.689306
  25 C :    0.808054
  26 H :    0.106653
  27 H :   -0.437216
  28 C :    0.274976
  29 H :   -0.058567
  30 H :   -0.140384
  31 H :   -0.057208
  32 H :   -0.412528
  33 H :   -0.419663
  34 H :    0.019900
  35 O :   -0.769804
  36 H :   -0.227260
  37 H :   -0.060042
Sum of atomic charges:    0.0000000

LOEWDIN ATOMIC CHARGES
----------------------
   0 C :    0.021548
   1 C :   -0.010572
   2 C :   -0.041120
   3 H :    0.014448
   4 H :    0.026917
   5 S :    1.172155
   6 C :   -0.235022
   7 N :    0.180128
   8 C :    0.176799
   9 H :   -0.166462
  10 H :   -0.099423
  11 H :   -0.021303
  12 H :   -0.005200
  13 O :   -0.458933
  14 F :   -0.258302
  15 C :   -0.011129
  16 C :   -0.027241
  17 C :   -0.019707
  18 H :    0.014188
  19 H :    0.027224
  20 H :    0.035012
  21 H :    0.028976
  22 C :   -0.026700
  23 H :    0.025173
  24 H :   -0.004067
  25 C :   -0.026510
  26 H :    0.009834
  27 H :    0.018399
  28 C :   -0.024822
  29 H :    0.017775
  30 H :    0.016599
  31 H :    0.033645
  32 H :   -0.016499
  33 H :    0.020030
  34 H :    0.018230
  35 O :   -0.441796
  36 H :    0.028629
  37 H :    0.009099

  Mayer bond orders larger than 0.100000
B(  0-C ,  6-C ) :   0.9348 B(  0-C ,  8-C ) :   0.1785 B(  0-C ,  9-H ) :  -0.1594
B(  0-C , 15-C ) :   1.1815 B(  0-C , 24-H ) :   0.1375 B(  0-C , 36-H ) :   0.4605
B(  0-C , 37-H ) :   0.6179 B(  1-C ,  2-C ) :   1.2512 B(  1-C ,  3-H ) :   0.1134
B(  1-C ,  4-H ) :   0.1878 B(  1-C , 17-C ) :   1.1889 B(  1-C , 20-H ) :   0.6424
B(  1-C , 21-H ) :   0.6020 B(  2-C ,  3-H ) :   0.7935 B(  2-C ,  4-H ) :   0.7802
B(  2-C ,  5-S ) :   0.9839 B(  2-C , 20-H ) :   0.2298 B(  2-C , 21-H ) :   0.1329
B(  2-C , 35-O ) :   0.1314 B(  5-S , 13-O ) :   1.2850 B(  5-S , 14-F ) :   0.6097
B(  5-S , 35-O ) :   1.4576 B(  6-C ,  7-N ) :   0.8725 B(  6-C ,  8-C ) :   1.9192
B(  6-C ,  9-H ) :  -0.2101 B(  6-C , 10-H ) :   0.1913 B(  6-C , 12-H ) :  -0.1499
B(  6-C , 36-H ) :   0.2963 B(  6-C , 37-H ) :   0.1456 B(  7-N ,  8-C ) :   0.5168
B(  7-N ,  9-H ) :   0.1107 B(  7-N , 10-H ) :  -0.1171 B(  7-N , 11-H ) :   1.1371
B(  7-N , 12-H ) :   1.3024 B(  8-C ,  9-H ) :   0.3476 B(  8-C , 10-H ) :  -0.5006
B(  8-C , 14-F ) :  -0.1714 B(  8-C , 24-H ) :   0.1781 B(  9-H , 10-H ) :  -0.2490
B(  9-H , 14-F ) :   0.1144 B(  9-H , 15-C ) :   0.1014 B(  9-H , 24-H ) :   0.1280
B( 10-H , 14-F ) :   0.2560 B( 10-H , 24-H ) :  -0.1399 B( 11-H , 12-H ) :  -0.1603
B( 13-O , 18-H ) :   0.1001 B( 13-O , 24-H ) :   0.1903 B( 13-O , 35-O ) :   0.1659
B( 15-C , 22-C ) :   1.1721 B( 15-C , 23-H ) :   0.6513 B( 15-C , 24-H ) :   0.5114
B( 15-C , 26-H ) :   0.1555 B( 15-C , 27-H ) :   0.2000 B( 15-C , 36-H ) :   0.3599
B( 15-C , 37-H ) :   0.1913 B( 16-C , 17-C ) :   1.1831 B( 16-C , 18-H ) :   0.1535
B( 16-C , 19-H ) :   0.1782 B( 16-C , 28-C ) :   1.2061 B( 16-C , 31-H ) :   0.7187
B( 16-C , 32-H ) :   0.9436 B( 16-C , 33-H ) :   0.2237 B( 16-C , 34-H ) :   0.1752
B( 17-C , 18-H ) :   0.8098 B( 17-C , 19-H ) :   0.7524 B( 17-C , 20-H ) :   0.1125
B( 17-C , 21-H ) :   0.2850 B( 17-C , 28-C ) :   0.1627 B( 17-C , 31-H ) :   0.1081
B( 20-H , 21-H ) :  -0.1247 B( 22-C , 23-H ) :   0.1771 B( 22-C , 24-H ) :   0.2287
B( 22-C , 25-C ) :   1.0630 B( 22-C , 26-H ) :   0.8101 B( 22-C , 27-H ) :   0.9903
B( 22-C , 28-C ) :   0.1561 B( 22-C , 29-H ) :   0.1770 B( 22-C , 30-H ) :   0.2857
B( 25-C , 28-C ) :   1.1044 B( 25-C , 29-H ) :   0.5941 B( 25-C , 30-H ) :   0.6117
B( 26-H , 27-H ) :  -0.1115 B( 26-H , 32-H ) :   0.1659 B( 28-C , 29-H ) :   0.2583
B( 28-C , 30-H ) :   0.1349 B( 28-C , 31-H ) :   0.1258 B( 28-C , 33-H ) :   0.8716
B( 28-C , 34-H ) :   0.7824 B( 29-H , 30-H ) :  -0.1335 B( 31-H , 32-H ) :   0.1058
B( 36-H , 37-H ) :  -0.1572

Dispersion correction           -0.076078789
FINAL SINGLE POINT ENERGY     -1134.484323240548

DIPOLE MOMENT
-------------
                                X             Y             Z
Electronic contribution:    -11.70149     -18.14750     -14.60098
Nuclear contribution   :     10.61624      18.49702      15.75668
                        -----------------------------------------
Total Dipole Moment    :     -1.08525       0.34952       1.15570
                        -----------------------------------------
Magnitude (a.u.)       :      1.62345
Magnitude (Debye)      :      4.12648

Rotational constants in cm-1:     0.017796     0.012372     0.008231
Rotational constants in MHz :   533.524905   370.895973   246.762347

                             ****ORCA TERMINATED NORMALLY****
TOTAL RUN TIME: 0 days 0 hours 4 minutes 26 seconds 638 msec
