                         Program Version 5.0.0 -  RELEASE  -
|  1> !TPSS D3BJ RIJCOSX def2-SVPD def2/J TightSCF
|  2> *xyz -1 1
|  3> C         -0.71189        0.84252       -4.21834
|  4> C         -0.39762       -0.20587       -5.28802
|  5> O          0.61717       -0.00535       -5.99827
|  6> O         -1.13317       -1.22138       -5.34147
|  7> H         -0.00939        1.64646       -4.28960
|  8> H         -0.64409        0.39449       -3.24902
|  9> H         -1.70192        1.21961       -4.36851
| 10> *
| 11>
| 12> %MaxCore 64000
| 13>
| 14> %pal nprocs 4
| 15> end
| 16>
| 17> %scf
| 18>   MaxIter 150
| 19> end
| 20>
| 21>
| 22>                          ****END OF INPUT****

CARTESIAN COORDINATES (ANGSTROEM)
---------------------------------
  C     -0.711890    0.842520   -4.218340
  C     -0.397620   -0.205870   -5.288020
  O      0.617170   -0.005350   -5.998270
  O     -1.133170   -1.221380   -5.341470
  H     -0.009390    1.646460   -4.289600
  H     -0.644090    0.394490   -3.249020
  H     -1.701920    1.219610   -4.368510

 Total Charge           Charge          ....   -1
 Multiplicity           Mult            ....    1
 Number of Electrons    NEL             ....   32
 Basis Dimension        Dim             ....  110

ORBITAL ENERGIES
----------------

  NO   OCC          E(Eh)            E(eV)
   0   2.0000     -18.634444      -507.0690
   1   2.0000     -18.633954      -507.0557
   2   2.0000      -9.874089      -268.6876
   3   2.0000      -9.812949      -267.0239
   4   2.0000      -0.736627       -20.0446
   5   2.0000      -0.647438       -17.6177
   6   2.0000      -0.481529       -13.1031
   7   2.0000      -0.251419        -6.8415
   8   2.0000      -0.217741        -5.9250
   9   2.0000      -0.202665        -5.5148
  10   2.0000      -0.173193        -4.7128
  11   2.0000      -0.136131        -3.7043
  12   2.0000      -0.123707        -3.3662
  13   2.0000      -0.009995        -0.2720
  14   2.0000       0.002282         0.0621
  15   2.0000       0.019544         0.5318
  16   0.0000       0.163552         4.4505
  17   0.0000       0.204199         5.5565
  18   0.0000       0.205657         5.5962
  19   0.0000       0.231251         6.2927
  20   0.0000       0.249009         6.7759

MULLIKEN ATOMIC CHARGES
-----------------------
   0 C :    0.405172
   1 C :    0.047744
   2 O :   -0.648674
   3 O :   -0.672208
   4 H :   -0.058390
   5 H :   -0.037343
   6 H :   -0.036302
Sum of atomic charges:   -1.0000000

LOEWDIN ATOMIC CHARGES
----------------------
   0 C :    0.148620
   1 C :   -0.334242
   2 O :   -0.336492
   3 O :   -0.338484
   4 H :   -0.051196
   5 H :   -0.043015
   6 H :   -0.045190

  Mayer bond orders larger than 0.100000
B(  0-C ,  1-C ) :   1.2461 B(  0-C ,  4-H ) :   0.8914 B(  0-C ,  5-H ) :   0.8442
B(  0-C ,  6-H ) :   0.8366 B(  1-C ,  2-O ) :   1.4530 B(  1-C ,  3-O ) :   1.4702
B(  1-C ,  4-H ) :   0.2380 B(  1-C ,  5-H ) :   0.1585 B(  1-C ,  6-H ) :   0.1664

Dispersion correction           -0.004508144
FINAL SINGLE POINT ENERGY      -228.405407496870

DIPOLE MOMENT
-------------
                                X             Y             Z
Electronic contribution:      0.77492      -2.52220      -2.56100
Nuclear contribution   :     -1.06347       3.45957       3.47855
                        -----------------------------------------
Total Dipole Moment    :     -0.28854       0.93737       0.91755
                        -----------------------------------------
Magnitude (a.u.)       :      1.34307
Magnitude (Debye)      :      3.41381

Rotational constants in cm-1:     0.393276     0.333956     0.186777
Rotational constants in MHz : 11790.103634 10011.747201  5599.422324

                             ****ORCA TERMINATED NORMALLY****
TOTAL RUN TIME: 0 days 0 hours 0 minutes 4 seconds 646 msec
