                         Program Version 5.0.0 -  RELEASE  -
|  1> !TPSS D3BJ RIJCOSX def2-SVPD def2/J TightSCF
|  2> *xyz 1 1
|  3> C          2.23447       -2.98975       -2.39762
|  4> N          2.75680       -2.94555       -3.76503
|  5> C          1.98721       -2.59045       -4.81898
|  6> N          0.74322       -3.01749       -4.91352
|  7> N          2.49964       -1.84860       -5.80324
|  8> H          3.30978       -1.29282       -5.55895
|  9> H          1.80103       -1.30430       -6.28913
| 10> H          3.71612       -2.62880       -3.82953
| 11> H          0.39583       -3.62775       -4.18502
| 12> H          0.03920       -2.45438       -5.37137
| 13> H          1.22098       -3.33251       -2.41386
| 14> H          2.27280       -2.00995       -1.96933
| 15> H          2.82798       -3.65908       -1.81056
| 16> *
| 17>
| 18> %MaxCore 64000
| 19>
| 20> %pal nprocs 4
| 21> end
| 22>
| 23> %scf
| 24>   MaxIter 150
| 25> end
| 26>
| 27>
| 28>                          ****END OF INPUT****

CARTESIAN COORDINATES (ANGSTROEM)
---------------------------------
  C      2.234470   -2.989750   -2.397620
  N      2.756800   -2.945550   -3.765030
  C      1.987210   -2.590450   -4.818980
  N      0.743220   -3.017490   -4.913520
  N      2.499640   -1.848600   -5.803240
  H      3.309780   -1.292820   -5.558950
  H      1.801030   -1.304300   -6.289130
  H      3.716120   -2.628800   -3.829530
  H      0.395830   -3.627750   -4.185020
  H      0.039200   -2.454380   -5.371370
  H      1.220980   -3.332510   -2.413860
  H      2.272800   -2.009950   -1.969330
  H      2.827980   -3.659080   -1.810560

 Total Charge           Charge          ....    1
 Multiplicity           Mult            ....    1
 Number of Electrons    NEL             ....   40
 Basis Dimension        Dim             ....  164

ORBITAL ENERGIES
----------------

  NO   OCC          E(Eh)            E(eV)
   0   2.0000     -14.352497      -390.5513
   1   2.0000     -14.348332      -390.4380
   2   2.0000     -14.347626      -390.4188
   3   2.0000     -10.333877      -281.1991
   4   2.0000     -10.212337      -277.8918
   5   2.0000      -1.149818       -31.2881
   6   2.0000      -1.042057       -28.3558
   7   2.0000      -1.038368       -28.2554
   8   2.0000      -0.848477       -23.0882
   9   2.0000      -0.783378       -21.3168
  10   2.0000      -0.743376       -20.2283
  11   2.0000      -0.708905       -19.2903
  12   2.0000      -0.662590       -18.0300
  13   2.0000      -0.648276       -17.6405
  14   2.0000      -0.604966       -16.4620
  15   2.0000      -0.603038       -16.4095
  16   2.0000      -0.557185       -15.1618
  17   2.0000      -0.547082       -14.8869
  18   2.0000      -0.455309       -12.3896
  19   2.0000      -0.425846       -11.5879
  20   0.0000      -0.227296        -6.1850
  21   0.0000      -0.174357        -4.7445
  22   0.0000      -0.138619        -3.7720
  23   0.0000      -0.128161        -3.4874
  24   0.0000      -0.108129        -2.9423

MULLIKEN ATOMIC CHARGES
-----------------------
   0 C :    1.124547
   1 N :   -0.595810
   2 C :    0.994571
   3 N :    0.033745
   4 N :   -0.049202
   5 H :    0.010541
   6 H :    0.057500
   7 H :   -0.158684
   8 H :   -0.000157
   9 H :   -0.016120
  10 H :   -0.184027
  11 H :   -0.063052
  12 H :   -0.153850
Sum of atomic charges:    1.0000000

LOEWDIN ATOMIC CHARGES
----------------------
   0 C :    0.272622
   1 N :    0.027052
   2 C :   -0.048482
   3 N :    0.284770
   4 N :    0.274271
   5 H :    0.035071
   6 H :    0.034910
   7 H :    0.048478
   8 H :    0.025956
   9 H :    0.047506
  10 H :   -0.018036
  11 H :    0.006930
  12 H :    0.008950

  Mayer bond orders larger than 0.100000
B(  0-C ,  1-N ) :   0.8877 B(  0-C , 10-H ) :   0.8415 B(  0-C , 11-H ) :   0.8211
B(  0-C , 12-H ) :   0.8081 B(  1-N ,  2-C ) :   1.0237 B(  1-N ,  3-N ) :   0.1244
B(  1-N ,  4-N ) :   0.1502 B(  1-N ,  7-H ) :   1.2109 B(  1-N , 10-H ) :   0.1420
B(  1-N , 11-H ) :   0.1315 B(  1-N , 12-H ) :   0.1944 B(  2-C ,  3-N ) :   1.0248
B(  2-C ,  4-N ) :   1.0035 B(  2-C ,  7-H ) :  -0.1548 B(  2-C ,  9-H ) :  -0.1043
B(  3-N ,  4-N ) :   0.1731 B(  3-N ,  8-H ) :   0.9883 B(  3-N ,  9-H ) :   1.2062
B(  4-N ,  5-H ) :   1.0101 B(  4-N ,  6-H ) :   1.0054 B(  8-H ,  9-H ) :  -0.1461

Dispersion correction           -0.011220076
FINAL SINGLE POINT ENERGY      -244.952667718977

DIPOLE MOMENT
-------------
                                X             Y             Z
Electronic contribution:      0.27943      -0.08525      -3.02040
Nuclear contribution   :     -0.61773       0.88991       3.03801
                        -----------------------------------------
Total Dipole Moment    :     -0.33830       0.80467       0.01761
                        -----------------------------------------
Magnitude (a.u.)       :      0.87306
Magnitude (Debye)      :      2.21915

Rotational constants in cm-1:     0.302561     0.133407     0.098295
Rotational constants in MHz :  9070.558660  3999.431512  2946.819102

                             ****ORCA TERMINATED NORMALLY****
TOTAL RUN TIME: 0 days 0 hours 0 minutes 9 seconds 249 msec
