                         Program Version 5.0.0 -  RELEASE  -
|  1> !TPSS D3BJ RIJCOSX def2-SVPD def2/J TightSCF xyzfile
|  2>
|  3> *xyzfile 0 1 B.xyz
|  4>
|  5> %MaxCore 64000
|  6>
|  7> %pal nprocs 4
|  8> end
|  9>
| 10> %scf
| 11>   MaxIter 150
| 12> end
| 13>
| 14>
| 15>                          ****END OF INPUT****

CARTESIAN COORDINATES (ANGSTROEM)
---------------------------------
  C      2.234473   -2.989754   -2.397622
  N      2.756799   -2.945553   -3.765029
  C     -1.104325    0.251374   -2.860056
  C     -0.711893    0.842517   -4.218344
  H      0.154626    1.499800   -4.130909
  H     -1.538134    1.459222   -4.582671
  C     -0.397624   -0.205875   -5.288018
  C      1.987208   -2.590451   -4.818975
  N      0.743221   -3.017493   -4.913524
  N      2.499636   -1.848598   -5.803241
  H      3.309780   -1.292818   -5.558947
  H      1.801025   -1.304298   -6.289129
  H      3.716116   -2.628797   -3.829533
  H      0.395828   -3.627747   -4.185024
  H      0.039201   -2.454383   -5.371367
  O      0.617165   -0.005348   -5.998273
  O     -1.133173   -1.221380   -5.341465
  C      2.191199   -1.619503   -1.715492
  H      2.872783   -3.666368   -1.828014
  H      1.246188   -3.447444   -2.407842
  C      1.298729   -0.554314   -2.359773
  H      1.872917   -1.787955   -0.681310
  H      3.216809   -1.238432   -1.654428
  C     -0.196255   -0.863365   -2.325763
  H      1.612531   -0.371346   -3.393065
  H      1.480944    0.388638   -1.834444
  H     -0.404105   -1.761825   -2.909448
  H     -0.490439   -1.087880   -1.294131
  H     -1.143842    1.066711   -2.129680
  H     -2.114401   -0.156834   -2.930323

 Total Charge           Charge          ....    0
 Multiplicity           Mult            ....    1
 Number of Electrons    NEL             ....  102
 Basis Dimension        Dim             ....  402

ORBITAL ENERGIES
----------------

  NO   OCC          E(Eh)            E(eV)
   0   2.0000     -18.821256      -512.1524
   1   2.0000     -18.819650      -512.1087
   2   2.0000     -14.185021      -385.9940
   3   2.0000     -14.156373      -385.2145
   4   2.0000     -14.155612      -385.1938
   5   2.0000     -10.154718      -276.3239
   6   2.0000     -10.076389      -274.1925
   7   2.0000     -10.052533      -273.5433
   8   2.0000     -10.026313      -272.8298
   9   2.0000     -10.006641      -272.2945
  10   2.0000      -9.993152      -271.9275
  11   2.0000      -9.983456      -271.6636
  12   2.0000      -9.969959      -271.2964
  13   2.0000      -0.972884       -26.4735
  14   2.0000      -0.927111       -25.2280
  15   2.0000      -0.873885       -23.7796
  16   2.0000      -0.854335       -23.2476
  17   2.0000      -0.834216       -22.7002
  18   2.0000      -0.755251       -20.5514
  19   2.0000      -0.714220       -19.4349
  20   2.0000      -0.666398       -18.1336
  21   2.0000      -0.624554       -16.9950
  22   2.0000      -0.602938       -16.4068
  23   2.0000      -0.571680       -15.5562
  24   2.0000      -0.563275       -15.3275
  25   2.0000      -0.529949       -14.4206
  26   2.0000      -0.509385       -13.8611
  27   2.0000      -0.488600       -13.2955
  28   2.0000      -0.467997       -12.7348
  29   2.0000      -0.459166       -12.4945
  30   2.0000      -0.441640       -12.0176
  31   2.0000      -0.430785       -11.7222
  32   2.0000      -0.417440       -11.3591
  33   2.0000      -0.404218       -10.9993
  34   2.0000      -0.394409       -10.7324
  35   2.0000      -0.386862       -10.5271
  36   2.0000      -0.375131       -10.2078
  37   2.0000      -0.361265        -9.8305
  38   2.0000      -0.348026        -9.4703
  39   2.0000      -0.340858        -9.2752
  40   2.0000      -0.329394        -8.9633
  41   2.0000      -0.320535        -8.7222
  42   2.0000      -0.307504        -8.3676
  43   2.0000      -0.292517        -7.9598
  44   2.0000      -0.280108        -7.6221
  45   2.0000      -0.274454        -7.4683
  46   2.0000      -0.268736        -7.3127
  47   2.0000      -0.259170        -7.0524
  48   2.0000      -0.195983        -5.3330
  49   2.0000      -0.181556        -4.9404
  50   2.0000      -0.170071        -4.6279
  51   0.0000      -0.049480        -1.3464
  52   0.0000      -0.026156        -0.7117
  53   0.0000      -0.005310        -0.1445
  54   0.0000       0.010077         0.2742
  55   0.0000       0.021000         0.5714

MULLIKEN ATOMIC CHARGES
-----------------------
   0 C :    0.799323
   1 N :   -0.539227
   2 C :    0.476998
   3 C :    0.179447
   4 H :    0.180753
   5 H :   -0.241711
   6 C :    0.369417
   7 C :    1.083717
   8 N :    0.226617
   9 N :    0.015487
  10 H :    0.051310
  11 H :   -0.138472
  12 H :   -0.153227
  13 H :    0.061104
  14 H :   -0.310873
  15 O :   -0.655164
  16 O :   -0.781858
  17 C :    0.306671
  18 H :   -0.334875
  19 H :    0.023494
  20 C :   -0.094962
  21 H :    0.062928
  22 H :   -0.051884
  23 C :   -0.091801
  24 H :   -0.092317
  25 H :   -0.129444
  26 H :   -0.117788
  27 H :   -0.122174
  28 H :   -0.093341
  29 H :    0.111853
Sum of atomic charges:    0.0000000

LOEWDIN ATOMIC CHARGES
----------------------
   0 C :    0.073023
   1 N :    0.038760
   2 C :   -0.013473
   3 C :    0.039139
   4 H :    0.009540
   5 H :    0.024498
   6 C :   -0.218575
   7 C :   -0.059513
   8 N :    0.313628
   9 N :    0.277539
  10 H :    0.020017
  11 H :   -0.069578
  12 H :    0.031906
  13 H :    0.014825
  14 H :   -0.079085
  15 O :   -0.251569
  16 O :   -0.241306
  17 C :   -0.006679
  18 H :    0.020819
  19 H :    0.005503
  20 C :   -0.014076
  21 H :    0.023777
  22 H :    0.016389
  23 C :   -0.020805
  24 H :    0.002085
  25 H :    0.026569
  26 H :   -0.015230
  27 H :    0.018513
  28 H :    0.013245
  29 H :    0.020114

  Mayer bond orders larger than 0.100000
B(  0-C ,  1-N ) :   0.8898 B(  0-C , 17-C ) :   1.1051 B(  0-C , 18-H ) :   0.8078
B(  0-C , 19-H ) :   0.7876 B(  0-C , 21-H ) :   0.1369 B(  0-C , 22-H ) :   0.1192
B(  1-N ,  7-C ) :   0.8584 B(  1-N ,  8-N ) :   0.1418 B(  1-N ,  9-N ) :   0.2129
B(  1-N , 12-H ) :   1.2102 B(  1-N , 18-H ) :   0.2280 B(  1-N , 19-H ) :   0.1023
B(  2-C ,  3-C ) :   1.1780 B(  2-C ,  5-H ) :   0.1586 B(  2-C , 23-C ) :   1.2529
B(  2-C , 26-H ) :   0.1012 B(  2-C , 28-H ) :   0.8076 B(  2-C , 29-H ) :   0.6340
B(  3-C ,  4-H ) :   0.7881 B(  3-C ,  5-H ) :   0.8163 B(  3-C ,  6-C ) :   1.1281
B(  3-C , 23-C ) :   0.1249 B(  3-C , 28-H ) :   0.1506 B(  3-C , 29-H ) :   0.1191
B(  4-H ,  6-C ) :   0.2638 B(  5-H ,  6-C ) :   0.1563 B(  6-C , 15-O ) :   1.3244
B(  6-C , 16-O ) :   1.2879 B(  7-C ,  8-N ) :   0.9239 B(  7-C ,  9-N ) :   0.8323
B(  7-C , 12-H ) :  -0.1888 B(  7-C , 14-H ) :  -0.1323 B(  8-N ,  9-N ) :   0.1726
B(  8-N , 13-H ) :   0.8700 B(  8-N , 14-H ) :   1.1874 B(  9-N , 10-H ) :   0.9517
B(  9-N , 11-H ) :   0.9735 B( 11-H , 15-O ) :   0.1284 B( 13-H , 14-H ) :  -0.2230
B( 14-H , 16-O ) :   0.2085 B( 15-O , 16-O ) :   0.1111 B( 17-C , 18-H ) :   0.1101
B( 17-C , 19-H ) :   0.1172 B( 17-C , 20-C ) :   1.2174 B( 17-C , 21-H ) :   0.7976
B( 17-C , 22-H ) :   0.7426 B( 18-H , 19-H ) :  -0.1236 B( 20-C , 21-H ) :   0.1662
B( 20-C , 22-H ) :   0.2338 B( 20-C , 23-C ) :   1.3065 B( 20-C , 24-H ) :   0.9443
B( 20-C , 25-H ) :   0.8544 B( 20-C , 26-H ) :   0.1457 B( 20-C , 27-H ) :   0.2180
B( 23-C , 24-H ) :   0.1440 B( 23-C , 25-H ) :   0.1884 B( 23-C , 26-H ) :   0.9210
B( 23-C , 27-H ) :   0.7874 B( 23-C , 28-H ) :   0.1657 B( 23-C , 29-H ) :   0.2287

Dispersion correction           -0.044019308
FINAL SINGLE POINT ENERGY      -629.547347751422

DIPOLE MOMENT
-------------
                                X             Y             Z
Electronic contribution:      0.55445      -2.84821     -10.29130
Nuclear contribution   :      1.76912       1.50070      12.36652
                        -----------------------------------------
Total Dipole Moment    :      2.32357      -1.34752       2.07523
                        -----------------------------------------
Magnitude (a.u.)       :      3.39431
Magnitude (Debye)      :      8.62765

Rotational constants in cm-1:     0.033272     0.023886     0.017112
Rotational constants in MHz :   997.469575   716.074432   513.001395

                             ****ORCA TERMINATED NORMALLY****
TOTAL RUN TIME: 0 days 0 hours 1 minutes 7 seconds 738 msec
