                         Program Version 5.0.0 -  RELEASE  -
|  1> !TPSS D3BJ RIJCOSX def2-SVPD def2/J TightSCF
|  2> *xyz 0 1
|  3> C         -0.71189        0.84252       -4.21834
|  4> C         -0.39762       -0.20587       -5.28802
|  5> F          0.61717       -0.00535       -5.99827
|  6> O         -1.13317       -1.22138       -5.34147
|  7> H         -0.00939        1.64646       -4.28960
|  8> H         -0.64409        0.39449       -3.24902
|  9> H         -1.70192        1.21961       -4.36851
| 10> *
| 11>
| 12> %MaxCore 64000
| 13>
| 14> %pal nprocs 4
| 15> end
| 16>
| 17> %scf
| 18>   MaxIter 150
| 19> end
| 20>
| 21>
| 22>                          ****END OF INPUT****

CARTESIAN COORDINATES (ANGSTROEM)
---------------------------------
  C     -0.711890    0.842520   -4.218340
  C     -0.397620   -0.205870   -5.288020
  F      0.617170   -0.005350   -5.998270
  O     -1.133170   -1.221380   -5.341470
  H     -0.009390    1.646460   -4.289600
  H     -0.644090    0.394490   -3.249020
  H     -1.701920    1.219610   -4.368510

 Total Charge           Charge          ....    0
 Multiplicity           Mult            ....    1
 Number of Electrons    NEL             ....   32
 Basis Dimension        Dim             ....  110

ORBITAL ENERGIES
----------------

  NO   OCC          E(Eh)            E(eV)
   0   2.0000     -24.499367      -666.6617
   1   2.0000     -18.908846      -514.5359
   2   2.0000     -10.176446      -276.9152
   3   2.0000     -10.030292      -272.9381
   4   2.0000      -1.228984       -33.4423
   5   2.0000      -0.957132       -26.0449
   6   2.0000      -0.711676       -19.3657
   7   2.0000      -0.601997       -16.3812
   8   2.0000      -0.497580       -13.5398
   9   2.0000      -0.492976       -13.4146
  10   2.0000      -0.453411       -12.3380
  11   2.0000      -0.407016       -11.0755
  12   2.0000      -0.394200       -10.7267
  13   2.0000      -0.356309        -9.6957
  14   2.0000      -0.318570        -8.6687
  15   2.0000      -0.253134        -6.8881
  16   0.0000      -0.067178        -1.8280
  17   0.0000       0.001673         0.0455
  18   0.0000       0.048584         1.3220
  19   0.0000       0.074831         2.0363
  20   0.0000       0.077028         2.0960

MULLIKEN ATOMIC CHARGES
-----------------------
   0 C :    0.354248
   1 C :    0.439480
   2 F :   -0.343494
   3 O :   -0.502352
   4 H :   -0.017152
   5 H :    0.036558
   6 H :    0.032712
Sum of atomic charges:    0.0000000

LOEWDIN ATOMIC CHARGES
----------------------
   0 C :    0.223908
   1 C :   -0.037447
   2 F :   -0.032780
   3 O :   -0.134483
   4 H :   -0.019105
   5 H :    0.000553
   6 H :   -0.000646

  Mayer bond orders larger than 0.100000
B(  0-C ,  1-C ) :   1.2538 B(  0-C ,  4-H ) :   0.8940 B(  0-C ,  5-H ) :   0.8237
B(  0-C ,  6-H ) :   0.8171 B(  1-C ,  2-F ) :   0.7888 B(  1-C ,  3-O ) :   1.7615
B(  1-C ,  4-H ) :   0.1483 B(  1-C ,  5-H ) :   0.1303 B(  1-C ,  6-H ) :   0.1403

Dispersion correction           -0.004154571
FINAL SINGLE POINT ENERGY      -252.941506471835

DIPOLE MOMENT
-------------
                                X             Y             Z
Electronic contribution:      2.40932      -2.30364      -3.83113
Nuclear contribution   :     -2.12043       3.31297       4.29327
                        -----------------------------------------
Total Dipole Moment    :      0.28889       1.00933       0.46215
                        -----------------------------------------
Magnitude (a.u.)       :      1.14708
Magnitude (Debye)      :      2.91564

Rotational constants in cm-1:     0.368089     0.321934     0.177312
Rotational constants in MHz : 11035.034199  9651.332398  5315.666874

                             ****ORCA TERMINATED NORMALLY****
TOTAL RUN TIME: 0 days 0 hours 0 minutes 4 seconds 488 msec
