                         Program Version 5.0.0 -  RELEASE  -
|  1> !TPSS D3BJ RIJCOSX def2-SVPD def2/J TightSCF
|  2> *xyz 0 1
|  3> C          2.23447       -2.98975       -2.39762
|  4> C          2.75680       -2.94555       -3.76503
|  5> C          1.98721       -2.59045       -4.81898
|  6> N          0.74322       -3.01749       -4.91352
|  7> N          2.49964       -1.84860       -5.80324
|  8> H          3.30978       -1.29282       -5.55895
|  9> H          1.80103       -1.30430       -6.28913
| 10> H          3.71612       -2.62880       -3.82953
| 11> H          0.39583       -3.62775       -4.18502
| 12> H          0.03920       -2.45438       -5.37137
| 13> H          1.22098       -3.33251       -2.41386
| 14> H          2.27280       -2.00995       -1.96933
| 15> H          2.82798       -3.65908       -1.81056
| 16> *
| 17>
| 18> %MaxCore 64000
| 19>
| 20> %pal nprocs 4
| 21> end
| 22>
| 23> %scf
| 24>   MaxIter 150
| 25> end
| 26>
| 27>
| 28>                          ****END OF INPUT****

CARTESIAN COORDINATES (ANGSTROEM)
---------------------------------
  C      2.234470   -2.989750   -2.397620
  C      2.756800   -2.945550   -3.765030
  C      1.987210   -2.590450   -4.818980
  N      0.743220   -3.017490   -4.913520
  N      2.499640   -1.848600   -5.803240
  H      3.309780   -1.292820   -5.558950
  H      1.801030   -1.304300   -6.289130
  H      3.716120   -2.628800   -3.829530
  H      0.395830   -3.627750   -4.185020
  H      0.039200   -2.454380   -5.371370
  H      1.220980   -3.332510   -2.413860
  H      2.272800   -2.009950   -1.969330
  H      2.827980   -3.659080   -1.810560

 Total Charge           Charge          ....    0
 Multiplicity           Mult            ....    1
 Number of Electrons    NEL             ....   40
 Basis Dimension        Dim             ....  164

ORBITAL ENERGIES
----------------

  NO   OCC          E(Eh)            E(eV)
   0   2.0000     -14.124398      -384.3444
   1   2.0000     -14.120437      -384.2366
   2   2.0000     -10.039211      -273.1808
   3   2.0000      -9.970583      -271.3133
   4   2.0000      -9.926608      -270.1167
   5   2.0000      -0.896448       -24.3936
   6   2.0000      -0.810898       -22.0657
   7   2.0000      -0.688536       -18.7360
   8   2.0000      -0.598084       -16.2747
   9   2.0000      -0.538199       -14.6451
  10   2.0000      -0.496961       -13.5230
  11   2.0000      -0.461585       -12.5604
  12   2.0000      -0.428673       -11.6648
  13   2.0000      -0.393844       -10.7170
  14   2.0000      -0.362566        -9.8659
  15   2.0000      -0.334178        -9.0934
  16   2.0000      -0.319816        -8.7026
  17   2.0000      -0.301452        -8.2029
  18   2.0000      -0.235168        -6.3992
  19   2.0000      -0.130407        -3.5485
  20   0.0000      -0.002587        -0.0704
  21   0.0000       0.019850         0.5401
  22   0.0000       0.037537         1.0214
  23   0.0000       0.046656         1.2696
  24   0.0000       0.069358         1.8873

MULLIKEN ATOMIC CHARGES
-----------------------
   0 C :    0.815367
   1 C :   -0.516137
   2 C :    0.387136
   3 N :   -0.012191
   4 N :   -0.048992
   5 H :    0.034325
   6 H :   -0.016750
   7 H :   -0.206583
   8 H :   -0.013992
   9 H :   -0.114933
  10 H :   -0.236772
  11 H :   -0.081834
  12 H :    0.011356
Sum of atomic charges:    0.0000000

LOEWDIN ATOMIC CHARGES
----------------------
   0 C :    0.099201
   1 C :   -0.049090
   2 C :   -0.241480
   3 N :    0.194506
   4 N :    0.188437
   5 H :    0.000183
   6 H :   -0.014974
   7 H :   -0.063577
   8 H :   -0.005154
   9 H :   -0.006430
  10 H :   -0.048997
  11 H :   -0.024276
  12 H :   -0.028347

  Mayer bond orders larger than 0.100000
B(  0-C ,  1-C ) :   1.1360 B(  0-C ,  7-H ) :   0.1865 B(  0-C , 10-H ) :   0.7586
B(  0-C , 11-H ) :   0.8252 B(  0-C , 12-H ) :   0.7216 B(  1-C ,  2-C ) :   1.7187
B(  1-C ,  3-N ) :   0.1898 B(  1-C ,  4-N ) :   0.2280 B(  1-C ,  7-H ) :   0.8526
B(  1-C , 10-H ) :   0.3113 B(  1-C , 12-H ) :   0.2193 B(  2-C ,  3-N ) :   1.0326
B(  2-C ,  4-N ) :   1.0003 B(  2-C ,  7-H ) :   0.2372 B(  3-N ,  4-N ) :   0.1454
B(  3-N ,  8-H ) :   0.9865 B(  3-N ,  9-H ) :   1.2228 B(  4-N ,  5-H ) :   0.9554
B(  4-N ,  6-H ) :   0.9592 B(  8-H ,  9-H ) :  -0.1246 B( 10-H , 12-H ) :   0.1324

Dispersion correction           -0.011744902
FINAL SINGLE POINT ENERGY      -228.484361862627

DIPOLE MOMENT
-------------
                                X             Y             Z
Electronic contribution:     -0.26587       0.02305      -3.45066
Nuclear contribution   :     -0.47056       0.83150       3.15332
                        -----------------------------------------
Total Dipole Moment    :     -0.73643       0.85455      -0.29734
                        -----------------------------------------
Magnitude (a.u.)       :      1.16662
Magnitude (Debye)      :      2.96531

Rotational constants in cm-1:     0.307275     0.134774     0.099280
Rotational constants in MHz :  9211.860934  4040.421317  2976.324646

                             ****ORCA TERMINATED NORMALLY****
TOTAL RUN TIME: 0 days 0 hours 0 minutes 9 seconds 298 msec
