                         Program Version 5.0.0 -  RELEASE  -
|  1> !TPSS D3BJ RIJCOSX def2-SVPD def2/J TightSCF
|  2> *xyz 0 1
|  3> C         -0.71189        0.84252       -4.21834
|  4> C         -0.39762       -0.20587       -5.28802
|  5> O          0.61717       -0.00535       -5.99827
|  6> F         -1.13317       -1.22138       -5.34147
|  7> H         -0.00939        1.64646       -4.28960
|  8> H         -0.64409        0.39449       -3.24902
|  9> H         -1.70192        1.21961       -4.36851
| 10> *
| 11>
| 12> %MaxCore 64000
| 13>
| 14> %pal nprocs 4
| 15> end
| 16>
| 17> %scf
| 18>   MaxIter 150
| 19> end
| 20>
| 21>
| 22>                          ****END OF INPUT****

CARTESIAN COORDINATES (ANGSTROEM)
---------------------------------
  C     -0.711890    0.842520   -4.218340
  C     -0.397620   -0.205870   -5.288020
  O      0.617170   -0.005350   -5.998270
  F     -1.133170   -1.221380   -5.341470
  H     -0.009390    1.646460   -4.289600
  H     -0.644090    0.394490   -3.249020
  H     -1.701920    1.219610   -4.368510

 Total Charge           Charge          ....    0
 Multiplicity           Mult            ....    1
 Number of Electrons    NEL             ....   32
 Basis Dimension        Dim             ....  110

ORBITAL ENERGIES
----------------

  NO   OCC          E(Eh)            E(eV)
   0   2.0000     -24.499819      -666.6740
   1   2.0000     -18.908552      -514.5279
   2   2.0000     -10.176154      -276.9072
   3   2.0000     -10.030081      -272.9324
   4   2.0000      -1.228925       -33.4408
   5   2.0000      -0.957371       -26.0514
   6   2.0000      -0.711313       -19.3558
   7   2.0000      -0.601963       -16.3802
   8   2.0000      -0.498072       -13.5532
   9   2.0000      -0.492652       -13.4058
  10   2.0000      -0.452528       -12.3139
  11   2.0000      -0.406179       -11.0527
  12   2.0000      -0.395076       -10.7506
  13   2.0000      -0.356318        -9.6959
  14   2.0000      -0.321308        -8.7432
  15   2.0000      -0.250820        -6.8251
  16   0.0000      -0.064598        -1.7578
  17   0.0000       0.001746         0.0475
  18   0.0000       0.048462         1.3187
  19   0.0000       0.072895         1.9836
  20   0.0000       0.080997         2.2040

MULLIKEN ATOMIC CHARGES
-----------------------
   0 C :    0.366790
   1 C :    0.454191
   2 O :   -0.484289
   3 F :   -0.365071
   4 H :   -0.035167
   5 H :    0.033233
   6 H :    0.030313
Sum of atomic charges:   -0.0000000

LOEWDIN ATOMIC CHARGES
----------------------
   0 C :    0.223120
   1 C :   -0.038509
   2 O :   -0.134647
   3 F :   -0.030963
   4 H :   -0.005488
   5 H :   -0.005531
   6 H :   -0.007981

  Mayer bond orders larger than 0.100000
B(  0-C ,  1-C ) :   1.2379 B(  0-C ,  4-H ) :   0.9008 B(  0-C ,  5-H ) :   0.8220
B(  0-C ,  6-H ) :   0.8183 B(  1-C ,  2-O ) :   1.7778 B(  1-C ,  3-F ) :   0.7509
B(  1-C ,  4-H ) :   0.1993 B(  1-C ,  5-H ) :   0.1191 B(  1-C ,  6-H ) :   0.1238

Dispersion correction           -0.004154590
FINAL SINGLE POINT ENERGY      -252.941591407598

DIPOLE MOMENT
-------------
                                X             Y             Z
Electronic contribution:     -0.41271      -4.26331      -2.77061
Nuclear contribution   :     -0.31181       4.56949       3.61460
                        -----------------------------------------
Total Dipole Moment    :     -0.72451       0.30618       0.84399
                        -----------------------------------------
Magnitude (a.u.)       :      1.15369
Magnitude (Debye)      :      2.93244

Rotational constants in cm-1:     0.370228     0.320104     0.177247
Rotational constants in MHz : 11099.151631  9596.483000  5313.726171

                             ****ORCA TERMINATED NORMALLY****
TOTAL RUN TIME: 0 days 0 hours 0 minutes 4 seconds 646 msec
