                         Program Version 5.0.0 -  RELEASE  -
|  1> !TPSS D3BJ RIJCOSX def2-SVPD def2/J TightSCF
|  2> *xyz 0 1
|  3> C          2.23447       -2.98975       -2.39762
|  4> N          2.75680       -2.94555       -3.76503
|  5> C          1.98721       -2.59045       -4.81898
|  6> C          0.74322       -3.01749       -4.91352
|  7> N          2.49964       -1.84860       -5.80324
|  8> H          3.30978       -1.29282       -5.55895
|  9> H          1.80103       -1.30430       -6.28913
| 10> H          3.71612       -2.62880       -3.82953
| 11> H          0.39583       -3.62775       -4.18502
| 12> H          0.03920       -2.45438       -5.37137
| 13> H          1.22098       -3.33251       -2.41386
| 14> H          2.27280       -2.00995       -1.96933
| 15> H          2.82798       -3.65908       -1.81056
| 16> *
| 17>
| 18> %MaxCore 64000
| 19>
| 20> %pal nprocs 4
| 21> end
| 22>
| 23> %scf
| 24>   MaxIter 150
| 25> end
| 26>
| 27>
| 28>                          ****END OF INPUT****

CARTESIAN COORDINATES (ANGSTROEM)
---------------------------------
  C      2.234470   -2.989750   -2.397620
  N      2.756800   -2.945550   -3.765030
  C      1.987210   -2.590450   -4.818980
  C      0.743220   -3.017490   -4.913520
  N      2.499640   -1.848600   -5.803240
  H      3.309780   -1.292820   -5.558950
  H      1.801030   -1.304300   -6.289130
  H      3.716120   -2.628800   -3.829530
  H      0.395830   -3.627750   -4.185020
  H      0.039200   -2.454380   -5.371370
  H      1.220980   -3.332510   -2.413860
  H      2.272800   -2.009950   -1.969330
  H      2.827980   -3.659080   -1.810560

 Total Charge           Charge          ....    0
 Multiplicity           Mult            ....    1
 Number of Electrons    NEL             ....   40
 Basis Dimension        Dim             ....  164

ORBITAL ENERGIES
----------------

  NO   OCC          E(Eh)            E(eV)
   0   2.0000     -14.121096      -384.2545
   1   2.0000     -14.119494      -384.2110
   2   2.0000     -10.038793      -273.1694
   3   2.0000     -10.027719      -272.8681
   4   2.0000      -9.920028      -269.9377
   5   2.0000      -0.893862       -24.3232
   6   2.0000      -0.817901       -22.2562
   7   2.0000      -0.663398       -18.0520
   8   2.0000      -0.637780       -17.3549
   9   2.0000      -0.517306       -14.0766
  10   2.0000      -0.497963       -13.5503
  11   2.0000      -0.469699       -12.7812
  12   2.0000      -0.407355       -11.0847
  13   2.0000      -0.401237       -10.9182
  14   2.0000      -0.379144       -10.3170
  15   2.0000      -0.351840        -9.5740
  16   2.0000      -0.337835        -9.1930
  17   2.0000      -0.317612        -8.6427
  18   2.0000      -0.215659        -5.8684
  19   2.0000      -0.146369        -3.9829
  20   0.0000       0.000533         0.0145
  21   0.0000       0.021305         0.5797
  22   0.0000       0.038354         1.0437
  23   0.0000       0.044282         1.2050
  24   0.0000       0.069001         1.8776

MULLIKEN ATOMIC CHARGES
-----------------------
   0 C :    1.124665
   1 N :   -0.503058
   2 C :    0.466449
   3 C :    0.230384
   4 N :   -0.020572
   5 H :   -0.074340
   6 H :    0.041133
   7 H :   -0.283441
   8 H :   -0.113256
   9 H :   -0.371368
  10 H :   -0.191024
  11 H :   -0.112883
  12 H :   -0.192688
Sum of atomic charges:    0.0000000

LOEWDIN ATOMIC CHARGES
----------------------
   0 C :    0.223343
   1 N :   -0.037902
   2 C :   -0.247633
   3 C :    0.160872
   4 N :    0.185966
   5 H :   -0.017732
   6 H :   -0.001116
   7 H :    0.006702
   8 H :   -0.105546
   9 H :   -0.094830
  10 H :   -0.031335
  11 H :   -0.020829
  12 H :   -0.019959

  Mayer bond orders larger than 0.100000
B(  0-C ,  1-N ) :   0.8808 B(  0-C , 10-H ) :   0.8554 B(  0-C , 11-H ) :   0.8059
B(  0-C , 12-H ) :   0.7818 B(  1-N ,  2-C ) :   1.0029 B(  1-N ,  3-C ) :   0.2506
B(  1-N ,  4-N ) :   0.1193 B(  1-N ,  7-H ) :   1.1699 B(  1-N , 10-H ) :   0.1315
B(  1-N , 11-H ) :   0.1690 B(  1-N , 12-H ) :   0.1953 B(  2-C ,  3-C ) :   1.6538
B(  2-C ,  4-N ) :   0.9430 B(  2-C ,  8-H ) :   0.2363 B(  3-C ,  4-N ) :   0.2645
B(  3-C ,  8-H ) :   0.5741 B(  3-C ,  9-H ) :   0.9683 B(  4-N ,  5-H ) :   0.9754
B(  4-N ,  6-H ) :   0.9858 B(  8-H ,  9-H ) :   0.1536

Dispersion correction           -0.011711470
FINAL SINGLE POINT ENERGY      -228.478329880971

DIPOLE MOMENT
-------------
                                X             Y             Z
Electronic contribution:      1.53416       0.07866      -2.37973
Nuclear contribution   :     -0.87840       0.81693       2.92070
                        -----------------------------------------
Total Dipole Moment    :      0.65576       0.89559       0.54097
                        -----------------------------------------
Magnitude (a.u.)       :      1.23481
Magnitude (Debye)      :      3.13863

Rotational constants in cm-1:     0.323282     0.134248     0.100848
Rotational constants in MHz :  9691.753357  4024.663509  3023.338831

                             ****ORCA TERMINATED NORMALLY****
TOTAL RUN TIME: 0 days 0 hours 0 minutes 9 seconds 786 msec
