                         Program Version 5.0.0 -  RELEASE  -
|  1> !TPSS D3BJ RIJCOSX def2-SVPD def2/J TightSCF
|  2> *xyz 0 1
|  3> C          2.23447       -2.98975       -2.39762
|  4> N          2.75680       -2.94555       -3.76503
|  5> C          1.98721       -2.59045       -4.81898
|  6> N          0.74322       -3.01749       -4.91352
|  7> C          2.49964       -1.84860       -5.80324
|  8> H          3.30978       -1.29282       -5.55895
|  9> H          1.80103       -1.30430       -6.28913
| 10> H          3.71612       -2.62880       -3.82953
| 11> H          0.39583       -3.62775       -4.18502
| 12> H          0.03920       -2.45438       -5.37137
| 13> H          1.22098       -3.33251       -2.41386
| 14> H          2.27280       -2.00995       -1.96933
| 15> H          2.82798       -3.65908       -1.81056
| 16> *
| 17>
| 18> %MaxCore 64000
| 19>
| 20> %pal nprocs 4
| 21> end
| 22>
| 23> %scf
| 24>   MaxIter 150
| 25> end
| 26>
| 27>
| 28>                          ****END OF INPUT****

CARTESIAN COORDINATES (ANGSTROEM)
---------------------------------
  C      2.234470   -2.989750   -2.397620
  N      2.756800   -2.945550   -3.765030
  C      1.987210   -2.590450   -4.818980
  N      0.743220   -3.017490   -4.913520
  C      2.499640   -1.848600   -5.803240
  H      3.309780   -1.292820   -5.558950
  H      1.801030   -1.304300   -6.289130
  H      3.716120   -2.628800   -3.829530
  H      0.395830   -3.627750   -4.185020
  H      0.039200   -2.454380   -5.371370
  H      1.220980   -3.332510   -2.413860
  H      2.272800   -2.009950   -1.969330
  H      2.827980   -3.659080   -1.810560

 Total Charge           Charge          ....    0
 Multiplicity           Mult            ....    1
 Number of Electrons    NEL             ....   40
 Basis Dimension        Dim             ....  164

ORBITAL ENERGIES
----------------

  NO   OCC          E(Eh)            E(eV)
   0   2.0000     -14.122842      -384.3021
   1   2.0000     -14.120242      -384.2313
   2   2.0000     -10.041844      -273.2525
   3   2.0000     -10.036141      -273.0973
   4   2.0000      -9.915159      -269.8052
   5   2.0000      -0.895837       -24.3770
   6   2.0000      -0.818318       -22.2676
   7   2.0000      -0.680758       -18.5244
   8   2.0000      -0.616107       -16.7651
   9   2.0000      -0.551782       -15.0147
  10   2.0000      -0.493250       -13.4220
  11   2.0000      -0.448108       -12.1936
  12   2.0000      -0.439989       -11.9727
  13   2.0000      -0.408640       -11.1196
  14   2.0000      -0.370430       -10.0799
  15   2.0000      -0.349247        -9.5035
  16   2.0000      -0.330529        -8.9942
  17   2.0000      -0.321523        -8.7491
  18   2.0000      -0.217852        -5.9281
  19   2.0000      -0.142194        -3.8693
  20   0.0000      -0.000501        -0.0136
  21   0.0000       0.020036         0.5452
  22   0.0000       0.033972         0.9244
  23   0.0000       0.045061         1.2262
  24   0.0000       0.068597         1.8666

MULLIKEN ATOMIC CHARGES
-----------------------
   0 C :    1.115182
   1 N :   -0.607689
   2 C :    0.336827
   3 N :    0.149542
   4 C :    0.371187
   5 H :   -0.113374
   6 H :   -0.380797
   7 H :   -0.158121
   8 H :   -0.114758
   9 H :   -0.089113
  10 H :   -0.204745
  11 H :   -0.093944
  12 H :   -0.210197
Sum of atomic charges:    0.0000000

LOEWDIN ATOMIC CHARGES
----------------------
   0 C :    0.216371
   1 N :   -0.034717
   2 C :   -0.242985
   3 N :    0.196192
   4 C :    0.144296
   5 H :   -0.107249
   6 H :   -0.107185
   7 H :    0.021862
   8 H :   -0.020164
   9 H :    0.011551
  10 H :   -0.037153
  11 H :   -0.020443
  12 H :   -0.020376

  Mayer bond orders larger than 0.100000
B(  0-C ,  1-N ) :   0.8879 B(  0-C , 10-H ) :   0.8313 B(  0-C , 11-H ) :   0.8122
B(  0-C , 12-H ) :   0.7957 B(  1-N ,  2-C ) :   1.0177 B(  1-N ,  4-C ) :   0.1706
B(  1-N ,  7-H ) :   1.1718 B(  1-N , 10-H ) :   0.1366 B(  1-N , 11-H ) :   0.1266
B(  1-N , 12-H ) :   0.2052 B(  2-C ,  3-N ) :   1.0491 B(  2-C ,  4-C ) :   1.8074
B(  2-C ,  5-H ) :   0.2059 B(  2-C ,  6-H ) :   0.2330 B(  2-C ,  7-H ) :  -0.1065
B(  3-N ,  4-C ) :   0.2326 B(  3-N ,  8-H ) :   1.0029 B(  3-N ,  9-H ) :   1.1732
B(  4-C ,  5-H ) :   0.7659 B(  4-C ,  6-H ) :   0.7573 B(  5-H ,  6-H ) :   0.2653
B(  8-H ,  9-H ) :  -0.1391

Dispersion correction           -0.011670627
FINAL SINGLE POINT ENERGY      -228.473652975735

DIPOLE MOMENT
-------------
                                X             Y             Z
Electronic contribution:     -0.07146      -1.05867      -1.52175
Nuclear contribution   :     -0.52265       1.05368       2.74049
                        -----------------------------------------
Total Dipole Moment    :     -0.59411      -0.00498       1.21874
                        -----------------------------------------
Magnitude (a.u.)       :      1.35585
Magnitude (Debye)      :      3.44629

Rotational constants in cm-1:     0.310125     0.138772     0.101978
Rotational constants in MHz :  9297.312912  4160.277024  3057.230514

                             ****ORCA TERMINATED NORMALLY****
TOTAL RUN TIME: 0 days 0 hours 0 minutes 10 seconds 262 msec
