                         Program Version 5.0.0 -  RELEASE  -
|  1> !TPSS D3BJ RIJCOSX def2-SVPD def2/J TightSCF xyzfile
|  2>
|  3> *xyzfile 0 1 D4.xyz
|  4>
|  5> %MaxCore 64000
|  6>
|  7> %pal nprocs 4
|  8> end
|  9>
| 10> %scf
| 11>   MaxIter 150
| 12> end
| 13>
| 14>
| 15>                          ****END OF INPUT****

CARTESIAN COORDINATES (ANGSTROEM)
---------------------------------
  C      2.234473   -2.989754   -2.397622
  C      2.756799   -2.945553   -3.765029
  C     -1.104325    0.251374   -2.860056
  C     -0.711893    0.842517   -4.218344
  H      0.154626    1.499800   -4.130909
  H     -1.538134    1.459222   -4.582671
  C     -0.397624   -0.205875   -5.288018
  C      1.987208   -2.590451   -4.818975
  N      0.743221   -3.017493   -4.913524
  N      2.499636   -1.848598   -5.803241
  H      3.309780   -1.292818   -5.558947
  H      1.801025   -1.304298   -6.289129
  H      3.716116   -2.628797   -3.829533
  H      0.395828   -3.627747   -4.185024
  H      0.039201   -2.454383   -5.371367
  O      0.617165   -0.005348   -5.998273
  F     -1.133173   -1.221380   -5.341465
  C      2.191199   -1.619503   -1.715492
  H      2.872783   -3.666368   -1.828014
  H      1.246188   -3.447444   -2.407842
  C      1.298729   -0.554314   -2.359773
  H      1.872917   -1.787955   -0.681310
  H      3.216809   -1.238432   -1.654428
  C     -0.196255   -0.863365   -2.325763
  H      1.612531   -0.371346   -3.393065
  H      1.480944    0.388638   -1.834444
  H     -0.404105   -1.761825   -2.909448
  H     -0.490439   -1.087880   -1.294131
  H     -1.143842    1.066711   -2.129680
  H     -2.114401   -0.156834   -2.930323

 Total Charge           Charge          ....    0
 Multiplicity           Mult            ....    1
 Number of Electrons    NEL             ....  102
 Basis Dimension        Dim             ....  402

ORBITAL ENERGIES
----------------

  NO   OCC          E(Eh)            E(eV)
   0   2.0000     -24.528928      -667.4661
   1   2.0000     -18.934423      -515.2318
   2   2.0000     -14.111466      -383.9925
   3   2.0000     -14.096673      -383.5900
   4   2.0000     -10.192244      -277.3451
   5   2.0000     -10.042710      -273.2760
   6   2.0000     -10.031391      -272.9680
   7   2.0000     -10.023071      -272.7416
   8   2.0000     -10.005706      -272.2691
   9   2.0000      -9.995663      -271.9958
  10   2.0000      -9.985112      -271.7087
  11   2.0000      -9.976754      -271.4813
  12   2.0000      -9.917927      -269.8805
  13   2.0000      -1.259481       -34.2722
  14   2.0000      -0.985201       -26.8087
  15   2.0000      -0.884075       -24.0569
  16   2.0000      -0.796942       -21.6859
  17   2.0000      -0.767797       -20.8928
  18   2.0000      -0.726696       -19.7744
  19   2.0000      -0.690612       -18.7925
  20   2.0000      -0.645414       -17.5626
  21   2.0000      -0.629600       -17.1323
  22   2.0000      -0.599931       -16.3249
  23   2.0000      -0.561993       -15.2926
  24   2.0000      -0.541835       -14.7441
  25   2.0000      -0.530258       -14.4291
  26   2.0000      -0.517041       -14.0694
  27   2.0000      -0.511835       -13.9277
  28   2.0000      -0.478002       -13.0071
  29   2.0000      -0.470359       -12.7991
  30   2.0000      -0.443906       -12.0793
  31   2.0000      -0.441254       -12.0071
  32   2.0000      -0.432234       -11.7617
  33   2.0000      -0.412720       -11.2307
  34   2.0000      -0.399401       -10.8683
  35   2.0000      -0.395944       -10.7742
  36   2.0000      -0.385996       -10.5035
  37   2.0000      -0.364544        -9.9197
  38   2.0000      -0.358322        -9.7504
  39   2.0000      -0.352671        -9.5967
  40   2.0000      -0.347894        -9.4667
  41   2.0000      -0.327034        -8.8991
  42   2.0000      -0.321982        -8.7616
  43   2.0000      -0.310456        -8.4479
  44   2.0000      -0.302958        -8.2439
  45   2.0000      -0.290369        -7.9014
  46   2.0000      -0.281144        -7.6503
  47   2.0000      -0.274149        -7.4600
  48   2.0000      -0.268815        -7.3148
  49   2.0000      -0.220250        -5.9933
  50   2.0000      -0.123864        -3.3705
  51   0.0000      -0.087528        -2.3818
  52   0.0000      -0.008014        -0.2181
  53   0.0000       0.015265         0.4154
  54   0.0000       0.022121         0.6019
  55   0.0000       0.023001         0.6259

MULLIKEN ATOMIC CHARGES
-----------------------
   0 C :    0.266800
   1 C :   -0.220959
   2 C :    0.467159
   3 C :    0.109502
   4 H :    0.222832
   5 H :   -0.211678
   6 C :    0.671291
   7 C :    0.383449
   8 N :    0.233733
   9 N :    0.047255
  10 H :    0.106265
  11 H :   -0.126159
  12 H :   -0.105153
  13 H :    0.074182
  14 H :   -0.420191
  15 O :   -0.524455
  16 F :   -0.475816
  17 C :    0.371066
  18 H :   -0.151043
  19 H :   -0.140210
  20 C :   -0.052649
  21 H :    0.009009
  22 H :   -0.055372
  23 C :   -0.055350
  24 H :   -0.090722
  25 H :   -0.094086
  26 H :   -0.148329
  27 H :   -0.088331
  28 H :   -0.071495
  29 H :    0.069456
Sum of atomic charges:    0.0000000

LOEWDIN ATOMIC CHARGES
----------------------
   0 C :   -0.054064
   1 C :   -0.008812
   2 C :   -0.013551
   3 C :    0.069497
   4 H :    0.032780
   5 H :    0.035164
   6 C :    0.015268
   7 C :   -0.222222
   8 N :    0.234139
   9 N :    0.221727
  10 H :    0.008209
  11 H :   -0.090283
  12 H :   -0.059045
  13 H :    0.001276
  14 H :   -0.070359
  15 O :   -0.121078
  16 F :   -0.026462
  17 C :   -0.015163
  18 H :    0.005860
  19 H :   -0.014010
  20 C :   -0.016081
  21 H :    0.012074
  22 H :    0.018919
  23 C :   -0.019305
  24 H :    0.001113
  25 H :    0.020439
  26 H :   -0.013409
  27 H :    0.025148
  28 H :    0.023577
  29 H :    0.018653

  Mayer bond orders larger than 0.100000
B(  0-C ,  1-C ) :   1.2088 B(  0-C ,  7-C ) :   0.1301 B(  0-C , 12-H ) :   0.3467
B(  0-C , 17-C ) :   1.1337 B(  0-C , 18-H ) :   0.7578 B(  0-C , 19-H ) :   0.7716
B(  0-C , 21-H ) :   0.2069 B(  0-C , 22-H ) :   0.1889 B(  1-C ,  7-C ) :   1.4765
B(  1-C ,  8-N ) :   0.1535 B(  1-C ,  9-N ) :   0.3293 B(  1-C , 12-H ) :   0.5510
B(  1-C , 18-H ) :   0.2154 B(  1-C , 19-H ) :   0.2207 B(  2-C ,  3-C ) :   1.1681
B(  2-C ,  5-H ) :   0.1746 B(  2-C , 23-C ) :   1.2454 B(  2-C , 26-H ) :   0.1109
B(  2-C , 28-H ) :   0.8124 B(  2-C , 29-H ) :   0.6536 B(  3-C ,  4-H ) :   0.8063
B(  3-C ,  5-H ) :   0.8095 B(  3-C ,  6-C ) :   1.1740 B(  3-C , 16-F ) :   0.1025
B(  3-C , 28-H ) :   0.1318 B(  4-H ,  6-C ) :   0.1804 B(  5-H ,  6-C ) :   0.1776
B(  6-C , 15-O ) :   1.5948 B(  6-C , 16-F ) :   0.5458 B(  7-C ,  8-N ) :   0.9852
B(  7-C ,  9-N ) :   0.8581 B(  7-C , 11-H ) :   0.1407 B(  7-C , 12-H ) :   0.3287
B(  8-N ,  9-N ) :   0.1377 B(  8-N , 13-H ) :   0.8956 B(  8-N , 14-H ) :   1.1298
B(  9-N , 10-H ) :   0.8690 B(  9-N , 11-H ) :   0.7826 B( 11-H , 15-O ) :   0.1152
B( 13-H , 14-H ) :  -0.2023 B( 17-C , 18-H ) :   0.1023 B( 17-C , 19-H ) :   0.1289
B( 17-C , 20-C ) :   1.2425 B( 17-C , 21-H ) :   0.7704 B( 17-C , 22-H ) :   0.7091
B( 17-C , 24-H ) :   0.1201 B( 20-C , 21-H ) :   0.1530 B( 20-C , 22-H ) :   0.2583
B( 20-C , 23-C ) :   1.2987 B( 20-C , 24-H ) :   0.9133 B( 20-C , 25-H ) :   0.7959
B( 20-C , 26-H ) :   0.1433 B( 20-C , 27-H ) :   0.2006 B( 21-H , 22-H ) :  -0.1129
B( 23-C , 24-H ) :   0.1440 B( 23-C , 25-H ) :   0.1957 B( 23-C , 26-H ) :   0.9211
B( 23-C , 27-H ) :   0.8002 B( 23-C , 28-H ) :   0.1637 B( 23-C , 29-H ) :   0.2318
B( 28-H , 29-H ) :  -0.1009

Dispersion correction           -0.043918870
FINAL SINGLE POINT ENERGY      -637.418353412174

DIPOLE MOMENT
-------------
                                X             Y             Z
Electronic contribution:     -5.88053       0.09425     -13.44125
Nuclear contribution   :      4.38568       1.15960      13.97148
                        -----------------------------------------
Total Dipole Moment    :     -1.49485       1.25385       0.53023
                        -----------------------------------------
Magnitude (a.u.)       :      2.02184
Magnitude (Debye)      :      5.13912

Rotational constants in cm-1:     0.032892     0.023844     0.017123
Rotational constants in MHz :   986.091711   714.821905   513.334630

                             ****ORCA TERMINATED NORMALLY****
TOTAL RUN TIME: 0 days 0 hours 1 minutes 16 seconds 249 msec
