                         Program Version 5.0.0 -  RELEASE  -
|  1> !TPSS D3BJ RIJCOSX def2-SVPD def2/J TightSCF xyzfile
|  2>
|  3> *xyzfile 0 1 D5.xyz
|  4>
|  5> %MaxCore 64000
|  6>
|  7> %pal nprocs 4
|  8> end
|  9>
| 10> %scf
| 11>   MaxIter 150
| 12> end
| 13>
| 14>
| 15>                          ****END OF INPUT****

CARTESIAN COORDINATES (ANGSTROEM)
---------------------------------
  C      2.234473   -2.989754   -2.397622
  N      2.756799   -2.945553   -3.765029
  C     -1.104325    0.251374   -2.860056
  C     -0.711893    0.842517   -4.218344
  H      0.154626    1.499800   -4.130909
  H     -1.538134    1.459222   -4.582671
  C     -0.397624   -0.205875   -5.288018
  C      1.987208   -2.590451   -4.818975
  C      0.743221   -3.017493   -4.913524
  N      2.499636   -1.848598   -5.803241
  H      3.309780   -1.292818   -5.558947
  H      1.801025   -1.304298   -6.289129
  H      3.716116   -2.628797   -3.829533
  H      0.395828   -3.627747   -4.185024
  H      0.039201   -2.454383   -5.371367
  O      0.617165   -0.005348   -5.998273
  F     -1.133173   -1.221380   -5.341465
  C      2.191199   -1.619503   -1.715492
  H      2.872783   -3.666368   -1.828014
  H      1.246188   -3.447444   -2.407842
  C      1.298729   -0.554314   -2.359773
  H      1.872917   -1.787955   -0.681310
  H      3.216809   -1.238432   -1.654428
  C     -0.196255   -0.863365   -2.325763
  H      1.612531   -0.371346   -3.393065
  H      1.480944    0.388638   -1.834444
  H     -0.404105   -1.761825   -2.909448
  H     -0.490439   -1.087880   -1.294131
  H     -1.143842    1.066711   -2.129680
  H     -2.114401   -0.156834   -2.930323

 Total Charge           Charge          ....    0
 Multiplicity           Mult            ....    1
 Number of Electrons    NEL             ....  102
 Basis Dimension        Dim             ....  402

ORBITAL ENERGIES
----------------

  NO   OCC          E(Eh)            E(eV)
   0   2.0000     -24.502284      -666.7410
   1   2.0000     -18.919340      -514.8214
   2   2.0000     -14.112715      -384.0265
   3   2.0000     -14.095015      -383.5449
   4   2.0000     -10.179898      -277.0091
   5   2.0000     -10.034690      -273.0578
   6   2.0000     -10.030785      -272.9515
   7   2.0000     -10.028856      -272.8990
   8   2.0000     -10.018018      -272.6041
   9   2.0000     -10.002965      -272.1945
  10   2.0000     -10.002158      -272.1726
  11   2.0000     -10.001601      -272.1574
  12   2.0000      -9.908558      -269.6256
  13   2.0000      -1.234530       -33.5933
  14   2.0000      -0.970440       -26.4070
  15   2.0000      -0.882486       -24.0137
  16   2.0000      -0.806907       -21.9571
  17   2.0000      -0.761740       -20.7280
  18   2.0000      -0.722066       -19.6484
  19   2.0000      -0.674044       -18.3417
  20   2.0000      -0.646155       -17.5828
  21   2.0000      -0.628713       -17.1082
  22   2.0000      -0.603324       -16.4173
  23   2.0000      -0.565937       -15.3999
  24   2.0000      -0.534675       -14.5492
  25   2.0000      -0.518423       -14.1070
  26   2.0000      -0.498089       -13.5537
  27   2.0000      -0.492879       -13.4119
  28   2.0000      -0.483161       -13.1475
  29   2.0000      -0.468543       -12.7497
  30   2.0000      -0.442821       -12.0498
  31   2.0000      -0.438598       -11.9349
  32   2.0000      -0.430283       -11.7086
  33   2.0000      -0.408972       -11.1287
  34   2.0000      -0.403340       -10.9755
  35   2.0000      -0.378877       -10.3098
  36   2.0000      -0.375086       -10.2066
  37   2.0000      -0.371304       -10.1037
  38   2.0000      -0.352988        -9.6053
  39   2.0000      -0.345336        -9.3971
  40   2.0000      -0.340001        -9.2519
  41   2.0000      -0.334444        -9.1007
  42   2.0000      -0.323519        -8.8034
  43   2.0000      -0.321733        -8.7548
  44   2.0000      -0.304483        -8.2854
  45   2.0000      -0.297119        -8.0850
  46   2.0000      -0.293234        -7.9793
  47   2.0000      -0.287980        -7.8363
  48   2.0000      -0.258814        -7.0427
  49   2.0000      -0.202472        -5.5095
  50   2.0000      -0.138281        -3.7628
  51   0.0000      -0.073117        -1.9896
  52   0.0000      -0.001799        -0.0489
  53   0.0000       0.009746         0.2652
  54   0.0000       0.020482         0.5573
  55   0.0000       0.029048         0.7904

MULLIKEN ATOMIC CHARGES
-----------------------
   0 C :    0.770161
   1 N :   -0.435154
   2 C :    0.479409
   3 C :    0.095661
   4 H :    0.198757
   5 H :   -0.217868
   6 C :    0.634987
   7 C :    0.541621
   8 C :    0.569447
   9 N :    0.073147
  10 H :    0.044912
  11 H :   -0.124766
  12 H :   -0.208857
  13 H :    0.022717
  14 H :   -0.672089
  15 O :   -0.540400
  16 F :   -0.525902
  17 C :    0.283144
  18 H :   -0.350597
  19 H :    0.020160
  20 C :   -0.031570
  21 H :    0.041390
  22 H :   -0.047100
  23 C :   -0.132008
  24 H :   -0.161741
  25 H :   -0.123217
  26 H :   -0.116001
  27 H :   -0.095091
  28 H :   -0.073139
  29 H :    0.079987
Sum of atomic charges:    0.0000000

LOEWDIN ATOMIC CHARGES
----------------------
   0 C :    0.066206
   1 N :    0.003650
   2 C :   -0.011660
   3 C :    0.068204
   4 H :    0.030172
   5 H :    0.034345
   6 C :    0.021267
   7 C :   -0.228051
   8 C :    0.184553
   9 N :    0.216950
  10 H :   -0.009814
  11 H :   -0.079649
  12 H :    0.010961
  13 H :   -0.091117
  14 H :   -0.139680
  15 O :   -0.126882
  16 F :   -0.032992
  17 C :   -0.009102
  18 H :    0.013346
  19 H :    0.002200
  20 C :   -0.015474
  21 H :    0.016814
  22 H :    0.014345
  23 C :   -0.016556
  24 H :    0.000504
  25 H :    0.020881
  26 H :   -0.008561
  27 H :    0.023408
  28 H :    0.021653
  29 H :    0.020081

  Mayer bond orders larger than 0.100000
B(  0-C ,  1-N ) :   0.9227 B(  0-C ,  8-C ) :   0.1063 B(  0-C , 17-C ) :   1.0817
B(  0-C , 18-H ) :   0.8272 B(  0-C , 19-H ) :   0.7574 B(  0-C , 21-H ) :   0.1561
B(  0-C , 22-H ) :   0.1165 B(  1-N ,  7-C ) :   0.9689 B(  1-N ,  8-C ) :   0.3246
B(  1-N ,  9-N ) :   0.1862 B(  1-N , 12-H ) :   1.0986 B(  1-N , 18-H ) :   0.2151
B(  1-N , 19-H ) :   0.1177 B(  2-C ,  3-C ) :   1.1587 B(  2-C ,  5-H ) :   0.1726
B(  2-C , 23-C ) :   1.2626 B(  2-C , 28-H ) :   0.8062 B(  2-C , 29-H ) :   0.6538
B(  3-C ,  4-H ) :   0.8264 B(  3-C ,  5-H ) :   0.7911 B(  3-C ,  6-C ) :   1.1919
B(  3-C , 16-F ) :   0.1084 B(  3-C , 28-H ) :   0.1354 B(  4-H ,  6-C ) :   0.1864
B(  5-H ,  6-C ) :   0.1963 B(  6-C , 14-H ) :   0.1484 B(  6-C , 15-O ) :   1.5707
B(  6-C , 16-F ) :   0.5956 B(  7-C ,  8-C ) :   1.6943 B(  7-C ,  9-N ) :   0.7654
B(  7-C , 13-H ) :   0.3260 B(  7-C , 14-H ) :   0.1440 B(  8-C ,  9-N ) :   0.2607
B(  8-C , 13-H ) :   0.3817 B(  8-C , 14-H ) :   0.3751 B(  9-N , 10-H ) :   0.8598
B(  9-N , 11-H ) :   0.8911 B( 11-H , 15-O ) :   0.1090 B( 13-H , 14-H ) :  -0.1105
B( 14-H , 16-F ) :   0.2268 B( 17-C , 18-H ) :   0.1048 B( 17-C , 19-H ) :   0.1245
B( 17-C , 20-C ) :   1.2299 B( 17-C , 21-H ) :   0.7918 B( 17-C , 22-H ) :   0.7506
B( 17-C , 24-H ) :   0.1235 B( 18-H , 19-H ) :  -0.1298 B( 20-C , 21-H ) :   0.1696
B( 20-C , 22-H ) :   0.2279 B( 20-C , 23-C ) :   1.2961 B( 20-C , 24-H ) :   0.9262
B( 20-C , 25-H ) :   0.8339 B( 20-C , 26-H ) :   0.1533 B( 20-C , 27-H ) :   0.2199
B( 23-C , 24-H ) :   0.1589 B( 23-C , 25-H ) :   0.2051 B( 23-C , 26-H ) :   0.9452
B( 23-C , 27-H ) :   0.7858 B( 23-C , 28-H ) :   0.1644 B( 23-C , 29-H ) :   0.2271
B( 28-H , 29-H ) :  -0.1036

Dispersion correction           -0.043991777
FINAL SINGLE POINT ENERGY      -637.409537455530

DIPOLE MOMENT
-------------
                                X             Y             Z
Electronic contribution:     -4.31119       0.09792     -12.46063
Nuclear contribution   :      4.07548       1.14852      13.79455
                        -----------------------------------------
Total Dipole Moment    :     -0.23570       1.24644       1.33392
                        -----------------------------------------
Magnitude (a.u.)       :      1.84079
Magnitude (Debye)      :      4.67891

Rotational constants in cm-1:     0.033274     0.023559     0.016968
Rotational constants in MHz :   997.539108   706.293545   508.690532

                             ****ORCA TERMINATED NORMALLY****
TOTAL RUN TIME: 0 days 0 hours 1 minutes 12 seconds 788 msec
