                         Program Version 5.0.0 -  RELEASE  -
|  1> !M062X D3Zero RIJCOSX def2-SVPD def2/J TightSCF
|  2> *xyz -1 1
|  3> C          0.70466        1.44313       -4.50363
|  4> C          1.72854        1.42432       -5.63944
|  5> H          2.64672        1.95379       -5.38105
|  6> H          1.29992        1.93061       -6.50361
|  7> S          2.25263       -0.18811       -6.27184
|  8> O          3.56261       -0.44446       -5.63155
|  9> O          2.34494       -0.03374       -7.69650
| 10> O          1.26606       -1.15918       -5.80536
| 11> H         -0.17385        0.91270       -4.80656
| 12> H          0.44778        2.45562       -4.27173
| 13> H          1.12367        0.97423       -3.63791
| 14> *
| 15>
| 16> %MaxCore 64000
| 17>
| 18> %pal nprocs 4
| 19> end
| 20>
| 21> %scf
| 22>   MaxIter 150
| 23> end
| 24>
| 25>
| 26>                          ****END OF INPUT****

CARTESIAN COORDINATES (ANGSTROEM)
---------------------------------
  C      0.704660    1.443130   -4.503630
  C      1.728540    1.424320   -5.639440
  H      2.646720    1.953790   -5.381050
  H      1.299920    1.930610   -6.503610
  S      2.252630   -0.188110   -6.271840
  O      3.562610   -0.444460   -5.631550
  O      2.344940   -0.033740   -7.696500
  O      1.266060   -1.159180   -5.805360
  H     -0.173850    0.912700   -4.806560
  H      0.447780    2.455620   -4.271730
  H      1.123670    0.974230   -3.637910

 Total Charge           Charge          ....   -1
 Multiplicity           Mult            ....    1
 Number of Electrons    NEL             ....   58
 Basis Dimension        Dim             ....  176

ORBITAL ENERGIES
----------------

  NO   OCC          E(Eh)            E(eV)
   0   2.0000     -89.936226     -2447.2891
   1   2.0000     -19.419642      -528.4353
   2   2.0000     -19.412808      -528.2494
   3   2.0000     -19.403993      -528.0095
   4   2.0000     -10.413770      -283.3731
   5   2.0000     -10.412073      -283.3269
   6   2.0000      -8.259594      -224.7550
   7   2.0000      -6.184871      -168.2989
   8   2.0000      -6.184771      -168.2962
   9   2.0000      -6.184446      -168.2873
  10   2.0000      -1.047987       -28.5172
  11   2.0000      -0.903821       -24.5942
  12   2.0000      -0.879368       -23.9288
  13   2.0000      -0.724452       -19.7134
  14   2.0000      -0.592848       -16.1322
  15   2.0000      -0.463405       -12.6099
  16   2.0000      -0.395458       -10.7610
  17   2.0000      -0.392121       -10.6702
  18   2.0000      -0.354295        -9.6409
  19   2.0000      -0.340482        -9.2650
  20   2.0000      -0.334816        -9.1108
  21   2.0000      -0.294389        -8.0107
  22   2.0000      -0.285451        -7.7675
  23   2.0000      -0.224790        -6.1168
  24   2.0000      -0.223119        -6.0714
  25   2.0000      -0.185984        -5.0609
  26   2.0000      -0.174534        -4.7493
  27   2.0000      -0.166927        -4.5423
  28   2.0000      -0.135159        -3.6779
  29   0.0000       0.154659         4.2085
  30   0.0000       0.179170         4.8755
  31   0.0000       0.182391         4.9631
  32   0.0000       0.189992         5.1699
  33   0.0000       0.208775         5.6810

MULLIKEN ATOMIC CHARGES
-----------------------
   0 C :    0.739642
   1 C :   -0.364323
   2 H :   -0.054575
   3 H :    0.000618
   4 S :    1.428470
   5 O :   -0.864771
   6 O :   -0.821197
   7 O :   -0.855770
   8 H :   -0.038071
   9 H :   -0.119831
  10 H :   -0.050192
Sum of atomic charges:   -1.0000000

LOEWDIN ATOMIC CHARGES
----------------------
   0 C :    0.100882
   1 C :   -0.122280
   2 H :    0.000555
   3 H :   -0.007387
   4 S :    0.904712
   5 O :   -0.618194
   6 O :   -0.590655
   7 O :   -0.597403
   8 H :   -0.021718
   9 H :   -0.033599
  10 H :   -0.014911

  Mayer bond orders larger than 0.100000
B(  0-C ,  1-C ) :   1.2998 B(  0-C ,  8-H ) :   0.8101 B(  0-C ,  9-H ) :   0.7740
B(  0-C , 10-H ) :   0.8172 B(  1-C ,  2-H ) :   0.9964 B(  1-C ,  3-H ) :   0.9788
B(  1-C ,  4-S ) :   0.8714 B(  1-C ,  8-H ) :   0.2111 B(  1-C ,  9-H ) :   0.2080
B(  1-C , 10-H ) :   0.1901 B(  4-S ,  5-O ) :   1.2504 B(  4-S ,  6-O ) :   1.3077
B(  4-S ,  7-O ) :   1.2621

Dispersion correction           -0.000153212
FINAL SINGLE POINT ENERGY      -702.622663933835

DIPOLE MOMENT
-------------
                                X             Y             Z
Electronic contribution:      3.60859      -5.54309      -4.26630
Nuclear contribution   :     -4.50297       7.24642       5.01775
                        -----------------------------------------
Total Dipole Moment    :     -0.89438       1.70333       0.75145
                        -----------------------------------------
Magnitude (a.u.)       :      2.06541
Magnitude (Debye)      :      5.24985

Rotational constants in cm-1:     0.162459     0.081286     0.079601
Rotational constants in MHz :  4870.394399  2436.893583  2386.374948

                             ****ORCA TERMINATED NORMALLY****
TOTAL RUN TIME: 0 days 0 hours 0 minutes 25 seconds 613 msec
