                         Program Version 5.0.0 -  RELEASE  -
|  1> !M062X D3Zero RIJCOSX def2-SVPD def2/J TightSCF
|  2> *xyz 1 1
|  3> C          2.91632       -1.24259       -1.54313
|  4> C          3.46659       -1.59097       -2.88908
|  5> N          4.65227       -1.14316       -3.25969
|  6> N          2.75226       -2.29204       -3.72803
|  7> H          1.77836       -2.48960       -3.51274
|  8> H          2.94861       -2.20854       -4.71681
|  9> H          5.14672       -0.51251       -2.63385
| 10> H          4.78303       -1.00720       -4.25350
| 11> C          2.80408        0.29070       -1.35924
| 12> H          1.94047       -1.71653       -1.44116
| 13> H          3.55857       -1.66343       -0.76637
| 14> H          2.17393        0.69633       -2.12297
| 15> H          3.77707        0.73043       -1.42880
| 16> H          2.38369        0.50492       -0.39889
| 17> *
| 18>
| 19> %MaxCore 64000
| 20>
| 21> %pal nprocs 4
| 22> end
| 23>
| 24> %scf
| 25>   MaxIter 150
| 26> end
| 27>
| 28>
| 29>                          ****END OF INPUT****

CARTESIAN COORDINATES (ANGSTROEM)
---------------------------------
  C      2.916320   -1.242590   -1.543130
  C      3.466590   -1.590970   -2.889080
  N      4.652270   -1.143160   -3.259690
  N      2.752260   -2.292040   -3.728030
  H      1.778360   -2.489600   -3.512740
  H      2.948610   -2.208540   -4.716810
  H      5.146720   -0.512510   -2.633850
  H      4.783030   -1.007200   -4.253500
  C      2.804080    0.290700   -1.359240
  H      1.940470   -1.716530   -1.441160
  H      3.558570   -1.663430   -0.766370
  H      2.173930    0.696330   -2.122970
  H      3.777070    0.730430   -1.428800
  H      2.383690    0.504920   -0.398890

 Total Charge           Charge          ....    1
 Multiplicity           Mult            ....    1
 Number of Electrons    NEL             ....   40
 Basis Dimension        Dim             ....  172

ORBITAL ENERGIES
----------------

  NO   OCC          E(Eh)            E(eV)
   0   2.0000     -15.013355      -408.5342
   1   2.0000     -15.007501      -408.3749
   2   2.0000     -10.880976      -296.0864
   3   2.0000     -10.753856      -292.6273
   4   2.0000     -10.714929      -291.5680
   5   2.0000      -1.313736       -35.7486
   6   2.0000      -1.206140       -32.8207
   7   2.0000      -1.062004       -28.8986
   8   2.0000      -0.947433       -25.7810
   9   2.0000      -0.898627       -24.4529
  10   2.0000      -0.846544       -23.0356
  11   2.0000      -0.829571       -22.5738
  12   2.0000      -0.770562       -20.9681
  13   2.0000      -0.739405       -20.1202
  14   2.0000      -0.695497       -18.9254
  15   2.0000      -0.670462       -18.2442
  16   2.0000      -0.616829       -16.7848
  17   2.0000      -0.606877       -16.5140
  18   2.0000      -0.594197       -16.1689
  19   2.0000      -0.562216       -15.2987
  20   0.0000      -0.183312        -4.9882
  21   0.0000      -0.137574        -3.7436
  22   0.0000      -0.095385        -2.5956
  23   0.0000      -0.093936        -2.5561
  24   0.0000      -0.064701        -1.7606

MULLIKEN ATOMIC CHARGES
-----------------------
   0 C :   -0.254429
   1 C :    0.507005
   2 N :    0.047228
   3 N :    0.005106
   4 H :    0.066394
   5 H :   -0.077756
   6 H :    0.051340
   7 H :   -0.047556
   8 C :    0.648647
   9 H :    0.056922
  10 H :    0.072292
  11 H :   -0.035175
  12 H :   -0.078867
  13 H :    0.038849
Sum of atomic charges:    1.0000000

LOEWDIN ATOMIC CHARGES
----------------------
   0 C :    0.021145
   1 C :   -0.048715
   2 N :    0.281104
   3 N :    0.278652
   4 H :    0.057734
   5 H :    0.050907
   6 H :    0.047740
   7 H :    0.048634
   8 C :    0.179036
   9 H :    0.035545
  10 H :    0.054948
  11 H :    0.001004
  12 H :   -0.017081
  13 H :    0.009348

  Mayer bond orders larger than 0.100000
B(  0-C ,  1-C ) :   1.2437 B(  0-C ,  8-C ) :   1.2636 B(  0-C ,  9-H ) :   0.8901
B(  0-C , 10-H ) :   0.8384 B(  0-C , 11-H ) :   0.1519 B(  0-C , 12-H ) :   0.1770
B(  0-C , 13-H ) :   0.1436 B(  1-C ,  2-N ) :   1.1012 B(  1-C ,  3-N ) :   1.0791
B(  1-C ,  5-H ) :  -0.1157 B(  1-C ,  9-H ) :   0.1583 B(  1-C , 10-H ) :   0.1615
B(  2-N ,  3-N ) :   0.1617 B(  2-N ,  6-H ) :   0.9911 B(  2-N ,  7-H ) :   1.1900
B(  3-N ,  4-H ) :   1.0352 B(  3-N ,  5-H ) :   1.2035 B(  4-H ,  5-H ) :  -0.1433
B(  6-H ,  7-H ) :  -0.1381 B(  8-C ,  9-H ) :   0.1026 B(  8-C , 11-H ) :   0.8391
B(  8-C , 12-H ) :   0.8162 B(  8-C , 13-H ) :   0.8643

Dispersion correction           -0.000192261
FINAL SINGLE POINT ENERGY      -228.750158814177

DIPOLE MOMENT
-------------
                                X             Y             Z
Electronic contribution:      1.30261      -2.84536      -2.76615
Nuclear contribution   :     -1.30215       2.77761       1.84194
                        -----------------------------------------
Total Dipole Moment    :      0.00046      -0.06775      -0.92421
                        -----------------------------------------
Magnitude (a.u.)       :      0.92669
Magnitude (Debye)      :      2.35546

Rotational constants in cm-1:     0.267442     0.127541     0.099068
Rotational constants in MHz :  8017.703171  3823.592522  2969.992494

                             ****ORCA TERMINATED NORMALLY****
TOTAL RUN TIME: 0 days 0 hours 0 minutes 22 seconds 696 msec
