                         Program Version 5.0.0 -  RELEASE  -
|  1> !M062X D3Zero RIJCOSX def2-SVPD def2/J TightSCF
|  2> *xyz 0 1
|  3> C          0.70466        1.44313       -4.50363
|  4> C          1.72854        1.42432       -5.63944
|  5> H          2.64672        1.95379       -5.38105
|  6> H          1.29992        1.93061       -6.50361
|  7> S          2.25263       -0.18811       -6.27184
|  8> F          3.56261       -0.44446       -5.63155
|  9> O          2.34494       -0.03374       -7.69650
| 10> O          1.26606       -1.15918       -5.80536
| 11> H         -0.17385        0.91270       -4.80656
| 12> H          0.44778        2.45562       -4.27173
| 13> H          1.12367        0.97423       -3.63791
| 14> *
| 15>
| 16> %MaxCore 64000
| 17>
| 18> %pal nprocs 4
| 19> end
| 20>
| 21> %scf
| 22>   MaxIter 150
| 23> end
| 24>
| 25>
| 26>                          ****END OF INPUT****

CARTESIAN COORDINATES (ANGSTROEM)
---------------------------------
  C      0.704660    1.443130   -4.503630
  C      1.728540    1.424320   -5.639440
  H      2.646720    1.953790   -5.381050
  H      1.299920    1.930610   -6.503610
  S      2.252630   -0.188110   -6.271840
  F      3.562610   -0.444460   -5.631550
  O      2.344940   -0.033740   -7.696500
  O      1.266060   -1.159180   -5.805360
  H     -0.173850    0.912700   -4.806560
  H      0.447780    2.455620   -4.271730
  H      1.123670    0.974230   -3.637910

 Total Charge           Charge          ....    0
 Multiplicity           Mult            ....    1
 Number of Electrons    NEL             ....   58
 Basis Dimension        Dim             ....  176

ORBITAL ENERGIES
----------------

  NO   OCC          E(Eh)            E(eV)
   0   2.0000     -90.197199     -2454.3906
   1   2.0000     -25.360441      -690.0927
   2   2.0000     -19.656189      -534.8721
   3   2.0000     -19.648840      -534.6721
   4   2.0000     -10.617342      -288.9126
   5   2.0000     -10.574185      -287.7382
   6   2.0000      -8.521426      -231.8798
   7   2.0000      -6.449666      -175.5043
   8   2.0000      -6.444636      -175.3675
   9   2.0000      -6.443726      -175.3427
  10   2.0000      -1.485547       -40.4238
  11   2.0000      -1.235664       -33.6241
  12   2.0000      -1.134100       -30.8604
  13   2.0000      -0.916702       -24.9447
  14   2.0000      -0.822287       -22.3756
  15   2.0000      -0.761991       -20.7348
  16   2.0000      -0.672325       -18.2949
  17   2.0000      -0.666175       -18.1275
  18   2.0000      -0.639378       -17.3984
  19   2.0000      -0.571692       -15.5565
  20   2.0000      -0.560971       -15.2648
  21   2.0000      -0.538450       -14.6520
  22   2.0000      -0.505305       -13.7501
  23   2.0000      -0.474751       -12.9186
  24   2.0000      -0.472232       -12.8501
  25   2.0000      -0.454719       -12.3735
  26   2.0000      -0.411896       -11.2083
  27   2.0000      -0.399661       -10.8753
  28   2.0000      -0.393376       -10.7043
  29   0.0000       0.010305         0.2804
  30   0.0000       0.035928         0.9776
  31   0.0000       0.042892         1.1671
  32   0.0000       0.045203         1.2300
  33   0.0000       0.069718         1.8971

MULLIKEN ATOMIC CHARGES
-----------------------
   0 C :    0.730213
   1 C :   -0.431692
   2 H :    0.013133
   3 H :    0.067841
   4 S :    1.580084
   5 F :   -0.444009
   6 O :   -0.692442
   7 O :   -0.729585
   8 H :    0.002555
   9 H :   -0.066860
  10 H :   -0.029237
Sum of atomic charges:    0.0000000

LOEWDIN ATOMIC CHARGES
----------------------
   0 C :    0.137937
   1 C :   -0.079983
   2 H :    0.018296
   3 H :    0.022922
   4 S :    1.164320
   5 F :   -0.288785
   6 O :   -0.476842
   7 O :   -0.485651
   8 H :   -0.004242
   9 H :   -0.004573
  10 H :   -0.003399

  Mayer bond orders larger than 0.100000
B(  0-C ,  1-C ) :   1.3518 B(  0-C ,  8-H ) :   0.8173 B(  0-C ,  9-H ) :   0.7820
B(  0-C , 10-H ) :   0.8210 B(  1-C ,  2-H ) :   0.9743 B(  1-C ,  3-H ) :   0.9813
B(  1-C ,  4-S ) :   0.9421 B(  1-C ,  8-H ) :   0.2020 B(  1-C ,  9-H ) :   0.2032
B(  1-C , 10-H ) :   0.1842 B(  4-S ,  5-F ) :   0.5883 B(  4-S ,  6-O ) :   1.5326
B(  4-S ,  7-O ) :   1.4880

Dispersion correction           -0.000155906
FINAL SINGLE POINT ENERGY      -727.121731382029

DIPOLE MOMENT
-------------
                                X             Y             Z
Electronic contribution:      6.27720      -6.40593      -3.66162
Nuclear contribution   :     -6.09914       7.80989       4.64238
                        -----------------------------------------
Total Dipole Moment    :      0.17806       1.40396       0.98076
                        -----------------------------------------
Magnitude (a.u.)       :      1.72183
Magnitude (Debye)      :      4.37655

Rotational constants in cm-1:     0.154372     0.078826     0.078033
Rotational constants in MHz :  4627.943144  2363.154585  2339.382767

                             ****ORCA TERMINATED NORMALLY****
TOTAL RUN TIME: 0 days 0 hours 0 minutes 23 seconds 273 msec
