                         Program Version 5.0.0 -  RELEASE  -
|  1> !M062X D3Zero RIJCOSX def2-SVPD def2/J TightSCF
|  2> *xyz 0 1
|  3> C          2.91632       -1.24259       -1.54313
|  4> C          3.46659       -1.59097       -2.88908
|  5> C          4.65227       -1.14316       -3.25969
|  6> N          2.75226       -2.29204       -3.72803
|  7> H          1.77836       -2.48960       -3.51274
|  8> H          2.94861       -2.20854       -4.71681
|  9> H          5.14672       -0.51251       -2.63385
| 10> H          4.78303       -1.00720       -4.25350
| 11> C          2.80408        0.29070       -1.35924
| 12> H          1.94047       -1.71653       -1.44116
| 13> H          3.55857       -1.66343       -0.76637
| 14> H          2.17393        0.69633       -2.12297
| 15> H          3.77707        0.73043       -1.42880
| 16> H          2.38369        0.50492       -0.39889
| 17> *
| 18>
| 19> %MaxCore 64000
| 20>
| 21> %pal nprocs 4
| 22> end
| 23>
| 24> %scf
| 25>   MaxIter 150
| 26> end
| 27>
| 28>
| 29>                          ****END OF INPUT****

CARTESIAN COORDINATES (ANGSTROEM)
---------------------------------
  C      2.916320   -1.242590   -1.543130
  C      3.466590   -1.590970   -2.889080
  C      4.652270   -1.143160   -3.259690
  N      2.752260   -2.292040   -3.728030
  H      1.778360   -2.489600   -3.512740
  H      2.948610   -2.208540   -4.716810
  H      5.146720   -0.512510   -2.633850
  H      4.783030   -1.007200   -4.253500
  C      2.804080    0.290700   -1.359240
  H      1.940470   -1.716530   -1.441160
  H      3.558570   -1.663430   -0.766370
  H      2.173930    0.696330   -2.122970
  H      3.777070    0.730430   -1.428800
  H      2.383690    0.504920   -0.398890

 Total Charge           Charge          ....    0
 Multiplicity           Mult            ....    1
 Number of Electrons    NEL             ....   40
 Basis Dimension        Dim             ....  172

ORBITAL ENERGIES
----------------

  NO   OCC          E(Eh)            E(eV)
   0   2.0000     -14.765528      -401.7905
   1   2.0000     -10.572574      -287.6944
   2   2.0000     -10.553761      -287.1824
   3   2.0000     -10.538828      -286.7761
   4   2.0000     -10.480668      -285.1935
   5   2.0000      -1.035919       -28.1888
   6   2.0000      -0.871753       -23.7216
   7   2.0000      -0.798747       -21.7350
   8   2.0000      -0.725617       -19.7451
   9   2.0000      -0.641339       -17.4517
  10   2.0000      -0.596528       -16.2323
  11   2.0000      -0.551550       -15.0084
  12   2.0000      -0.519673       -14.1410
  13   2.0000      -0.477245       -12.9865
  14   2.0000      -0.457198       -12.4410
  15   2.0000      -0.443125       -12.0580
  16   2.0000      -0.419138       -11.4053
  17   2.0000      -0.406063       -11.0495
  18   2.0000      -0.391415       -10.6509
  19   2.0000      -0.243598        -6.6287
  20   0.0000       0.037466         1.0195
  21   0.0000       0.059453         1.6178
  22   0.0000       0.069229         1.8838
  23   0.0000       0.077652         2.1130
  24   0.0000       0.088452         2.4069

MULLIKEN ATOMIC CHARGES
-----------------------
   0 C :   -0.042354
   1 C :   -0.210165
   2 C :    0.404300
   3 N :    0.075476
   4 H :   -0.054933
   5 H :   -0.090469
   6 H :   -0.110115
   7 H :   -0.378789
   8 C :    0.666947
   9 H :   -0.049739
  10 H :   -0.001661
  11 H :   -0.095115
  12 H :   -0.121553
  13 H :    0.008170
Sum of atomic charges:   -0.0000000

LOEWDIN ATOMIC CHARGES
----------------------
   0 C :   -0.021406
   1 C :   -0.267821
   2 C :    0.173235
   3 N :    0.158743
   4 H :    0.002878
   5 H :    0.010358
   6 H :   -0.085641
   7 H :   -0.086254
   8 C :    0.141375
   9 H :    0.008356
  10 H :    0.028607
  11 H :   -0.013603
  12 H :   -0.028090
  13 H :   -0.020737

  Mayer bond orders larger than 0.100000
B(  0-C ,  1-C ) :   1.1878 B(  0-C ,  8-C ) :   1.2696 B(  0-C ,  9-H ) :   0.8117
B(  0-C , 10-H ) :   0.8420 B(  0-C , 11-H ) :   0.1676 B(  0-C , 12-H ) :   0.1885
B(  0-C , 13-H ) :   0.1607 B(  1-C ,  2-C ) :   2.0020 B(  1-C ,  3-N ) :   1.0479
B(  1-C ,  6-H ) :   0.1541 B(  1-C ,  7-H ) :   0.1988 B(  1-C ,  9-H ) :   0.2082
B(  1-C , 10-H ) :   0.1816 B(  2-C ,  3-N ) :   0.2313 B(  2-C ,  6-H ) :   0.6926
B(  2-C ,  7-H ) :   0.8574 B(  3-N ,  4-H ) :   1.0415 B(  3-N ,  5-H ) :   1.1044
B(  4-H ,  5-H ) :  -0.1294 B(  8-C , 11-H ) :   0.8422 B(  8-C , 12-H ) :   0.8464
B(  8-C , 13-H ) :   0.8163

Dispersion correction           -0.000189315
FINAL SINGLE POINT ENERGY      -212.293868078114

DIPOLE MOMENT
-------------
                                X             Y             Z
Electronic contribution:      0.10384      -2.72409      -1.81073
Nuclear contribution   :     -0.99366       2.78648       1.68526
                        -----------------------------------------
Total Dipole Moment    :     -0.88982       0.06238      -0.12547
                        -----------------------------------------
Magnitude (a.u.)       :      0.90078
Magnitude (Debye)      :      2.28960

Rotational constants in cm-1:     0.282898     0.128664     0.101801
Rotational constants in MHz :  8481.061354  3857.240210  3051.924245

                             ****ORCA TERMINATED NORMALLY****
TOTAL RUN TIME: 0 days 0 hours 0 minutes 25 seconds 880 msec
