                         Program Version 5.0.0 -  RELEASE  -
|  1> !M062X D3Zero RIJCOSX def2-SVPD def2/J TightSCF
|  2> *xyz 0 1
|  3> C          0.70466        1.44313       -4.50363
|  4> C          1.72854        1.42432       -5.63944
|  5> H          2.64672        1.95379       -5.38105
|  6> H          1.29992        1.93061       -6.50361
|  7> S          2.25263       -0.18811       -6.27184
|  8> O          3.56261       -0.44446       -5.63155
|  9> F          2.34494       -0.03374       -7.69650
| 10> O          1.26606       -1.15918       -5.80536
| 11> H         -0.17385        0.91270       -4.80656
| 12> H          0.44778        2.45562       -4.27173
| 13> H          1.12367        0.97423       -3.63791
| 14> *
| 15>
| 16> %MaxCore 64000
| 17>
| 18> %pal nprocs 4
| 19> end
| 20>
| 21> %scf
| 22>   MaxIter 150
| 23> end
| 24>
| 25>
| 26>                          ****END OF INPUT****

CARTESIAN COORDINATES (ANGSTROEM)
---------------------------------
  C      0.704660    1.443130   -4.503630
  C      1.728540    1.424320   -5.639440
  H      2.646720    1.953790   -5.381050
  H      1.299920    1.930610   -6.503610
  S      2.252630   -0.188110   -6.271840
  O      3.562610   -0.444460   -5.631550
  F      2.344940   -0.033740   -7.696500
  O      1.266060   -1.159180   -5.805360
  H     -0.173850    0.912700   -4.806560
  H      0.447780    2.455620   -4.271730
  H      1.123670    0.974230   -3.637910

 Total Charge           Charge          ....    0
 Multiplicity           Mult            ....    1
 Number of Electrons    NEL             ....   58
 Basis Dimension        Dim             ....  176

ORBITAL ENERGIES
----------------

  NO   OCC          E(Eh)            E(eV)
   0   2.0000     -90.198834     -2454.4350
   1   2.0000     -25.384124      -690.7371
   2   2.0000     -19.649119      -534.6797
   3   2.0000     -19.640650      -534.4492
   4   2.0000     -10.618553      -288.9455
   5   2.0000     -10.574847      -287.7562
   6   2.0000      -8.523311      -231.9311
   7   2.0000      -6.451704      -175.5598
   8   2.0000      -6.446303      -175.4128
   9   2.0000      -6.445365      -175.3873
  10   2.0000      -1.525098       -41.5000
  11   2.0000      -1.220687       -33.2166
  12   2.0000      -1.113040       -30.2874
  13   2.0000      -0.918131       -24.9836
  14   2.0000      -0.840080       -22.8597
  15   2.0000      -0.770296       -20.9608
  16   2.0000      -0.695394       -18.9226
  17   2.0000      -0.688459       -18.7339
  18   2.0000      -0.641919       -17.4675
  19   2.0000      -0.569185       -15.4883
  20   2.0000      -0.564730       -15.3671
  21   2.0000      -0.523692       -14.2504
  22   2.0000      -0.502433       -13.6719
  23   2.0000      -0.476167       -12.9572
  24   2.0000      -0.460777       -12.5384
  25   2.0000      -0.455837       -12.4039
  26   2.0000      -0.403593       -10.9823
  27   2.0000      -0.390607       -10.6290
  28   2.0000      -0.377807       -10.2806
  29   0.0000       0.008997         0.2448
  30   0.0000       0.032680         0.8893
  31   0.0000       0.042147         1.1469
  32   0.0000       0.046631         1.2689
  33   0.0000       0.069492         1.8910

MULLIKEN ATOMIC CHARGES
-----------------------
   0 C :    0.703866
   1 C :   -0.429794
   2 H :    0.009747
   3 H :    0.069376
   4 S :    1.575837
   5 O :   -0.725127
   6 F :   -0.415722
   7 O :   -0.717774
   8 H :    0.001085
   9 H :   -0.064757
  10 H :   -0.006737
Sum of atomic charges:   -0.0000000

LOEWDIN ATOMIC CHARGES
----------------------
   0 C :    0.145326
   1 C :   -0.085075
   2 H :    0.023422
   3 H :    0.010632
   4 S :    1.167813
   5 O :   -0.501527
   6 F :   -0.268094
   7 O :   -0.486366
   8 H :   -0.005529
   9 H :   -0.003319
  10 H :    0.002718

  Mayer bond orders larger than 0.100000
B(  0-C ,  1-C ) :   1.3635 B(  0-C ,  8-H ) :   0.8133 B(  0-C ,  9-H ) :   0.7847
B(  0-C , 10-H ) :   0.8270 B(  1-C ,  2-H ) :   1.0050 B(  1-C ,  3-H ) :   0.9421
B(  1-C ,  4-S ) :   0.9303 B(  1-C ,  8-H ) :   0.2046 B(  1-C ,  9-H ) :   0.1993
B(  1-C , 10-H ) :   0.1785 B(  4-S ,  5-O ) :   1.4744 B(  4-S ,  6-F ) :   0.6498
B(  4-S ,  7-O ) :   1.4849

Dispersion correction           -0.000150511
FINAL SINGLE POINT ENERGY      -727.101241102996

DIPOLE MOMENT
-------------
                                X             Y             Z
Electronic contribution:      4.16783      -5.70357      -7.18901
Nuclear contribution   :     -4.83029       7.38191       6.79413
                        -----------------------------------------
Total Dipole Moment    :     -0.66245       1.67834      -0.39489
                        -----------------------------------------
Magnitude (a.u.)       :      1.84705
Magnitude (Debye)      :      4.69483

Rotational constants in cm-1:     0.156575     0.079070     0.076729
Rotational constants in MHz :  4694.010604  2370.444114  2300.280155

                             ****ORCA TERMINATED NORMALLY****
TOTAL RUN TIME: 0 days 0 hours 0 minutes 28 seconds 434 msec
