                         Program Version 5.0.0 -  RELEASE  -
|  1> !M062X D3Zero RIJCOSX def2-SVPD def2/J TightSCF
|  2> *xyz 0 1
|  3> C          2.91632       -1.24259       -1.54313
|  4> C          3.46659       -1.59097       -2.88908
|  5> N          4.65227       -1.14316       -3.25969
|  6> C          2.75226       -2.29204       -3.72803
|  7> H          1.77836       -2.48960       -3.51274
|  8> H          2.94861       -2.20854       -4.71681
|  9> H          5.14672       -0.51251       -2.63385
| 10> H          4.78303       -1.00720       -4.25350
| 11> C          2.80408        0.29070       -1.35924
| 12> H          1.94047       -1.71653       -1.44116
| 13> H          3.55857       -1.66343       -0.76637
| 14> H          2.17393        0.69633       -2.12297
| 15> H          3.77707        0.73043       -1.42880
| 16> H          2.38369        0.50492       -0.39889
| 17> *
| 18>
| 19> %MaxCore 64000
| 20>
| 21> %pal nprocs 4
| 22> end
| 23>
| 24> %scf
| 25>   MaxIter 150
| 26> end
| 27>
| 28>
| 29>                          ****END OF INPUT****

CARTESIAN COORDINATES (ANGSTROEM)
---------------------------------
  C      2.916320   -1.242590   -1.543130
  C      3.466590   -1.590970   -2.889080
  N      4.652270   -1.143160   -3.259690
  C      2.752260   -2.292040   -3.728030
  H      1.778360   -2.489600   -3.512740
  H      2.948610   -2.208540   -4.716810
  H      5.146720   -0.512510   -2.633850
  H      4.783030   -1.007200   -4.253500
  C      2.804080    0.290700   -1.359240
  H      1.940470   -1.716530   -1.441160
  H      3.558570   -1.663430   -0.766370
  H      2.173930    0.696330   -2.122970
  H      3.777070    0.730430   -1.428800
  H      2.383690    0.504920   -0.398890

 Total Charge           Charge          ....    0
 Multiplicity           Mult            ....    1
 Number of Electrons    NEL             ....   40
 Basis Dimension        Dim             ....  172

ORBITAL ENERGIES
----------------

  NO   OCC          E(Eh)            E(eV)
   0   2.0000     -14.761555      -401.6823
   1   2.0000     -10.570965      -287.6506
   2   2.0000     -10.552194      -287.1398
   3   2.0000     -10.543608      -286.9062
   4   2.0000     -10.484417      -285.2955
   5   2.0000      -1.030542       -28.0425
   6   2.0000      -0.868931       -23.6448
   7   2.0000      -0.810707       -22.0605
   8   2.0000      -0.717692       -19.5294
   9   2.0000      -0.640978       -17.4419
  10   2.0000      -0.600737       -16.3469
  11   2.0000      -0.548138       -14.9156
  12   2.0000      -0.505759       -13.7624
  13   2.0000      -0.503263       -13.6945
  14   2.0000      -0.454349       -12.3635
  15   2.0000      -0.446889       -12.1605
  16   2.0000      -0.419858       -11.4249
  17   2.0000      -0.405463       -11.0332
  18   2.0000      -0.385744       -10.4966
  19   2.0000      -0.251184        -6.8351
  20   0.0000       0.034865         0.9487
  21   0.0000       0.062166         1.6916
  22   0.0000       0.071378         1.9423
  23   0.0000       0.080339         2.1861
  24   0.0000       0.085884         2.3370

MULLIKEN ATOMIC CHARGES
-----------------------
   0 C :   -0.177712
   1 C :   -0.313166
   2 N :    0.156393
   3 C :    0.301408
   4 H :   -0.014078
   5 H :   -0.363163
   6 H :   -0.081285
   7 H :   -0.074846
   8 C :    0.695734
   9 H :    0.121886
  10 H :   -0.044847
  11 H :   -0.034366
  12 H :   -0.097963
  13 H :   -0.073995
Sum of atomic charges:   -0.0000000

LOEWDIN ATOMIC CHARGES
----------------------
   0 C :   -0.023612
   1 C :   -0.275554
   2 N :    0.165350
   3 C :    0.172948
   4 H :   -0.079311
   5 H :   -0.082630
   6 H :   -0.003250
   7 H :    0.008656
   8 C :    0.138982
   9 H :    0.020205
  10 H :    0.023343
  11 H :   -0.011433
  12 H :   -0.034444
  13 H :   -0.019251

  Mayer bond orders larger than 0.100000
B(  0-C ,  1-C ) :   1.3086 B(  0-C ,  8-C ) :   1.2530 B(  0-C ,  9-H ) :   0.8754
B(  0-C , 10-H ) :   0.8426 B(  0-C , 11-H ) :   0.1615 B(  0-C , 12-H ) :   0.2053
B(  0-C , 13-H ) :   0.2018 B(  1-C ,  2-N ) :   1.0629 B(  1-C ,  3-C ) :   2.0645
B(  1-C ,  5-H ) :   0.2702 B(  1-C ,  9-H ) :   0.1262 B(  1-C , 10-H ) :   0.2179
B(  2-N ,  3-C ) :   0.2612 B(  2-N ,  6-H ) :   1.0000 B(  2-N ,  7-H ) :   1.0651
B(  3-C ,  4-H ) :   0.8845 B(  3-C ,  5-H ) :   0.7165 B(  4-H ,  5-H ) :   0.1068
B(  6-H ,  7-H ) :  -0.1150 B(  8-C ,  9-H ) :   0.1064 B(  8-C , 11-H ) :   0.8293
B(  8-C , 12-H ) :   0.7954 B(  8-C , 13-H ) :   0.8455

Dispersion correction           -0.000188799
FINAL SINGLE POINT ENERGY      -212.297858233614

DIPOLE MOMENT
-------------
                                X             Y             Z
Electronic contribution:      1.71631      -1.74063      -1.41097
Nuclear contribution   :     -1.43372       2.52039       1.57679
                        -----------------------------------------
Total Dipole Moment    :      0.28259       0.77975       0.16582
                        -----------------------------------------
Magnitude (a.u.)       :      0.84579
Magnitude (Debye)      :      2.14983

Rotational constants in cm-1:     0.274962     0.131786     0.102554
Rotational constants in MHz :  8243.150005  3950.846092  3074.493018

                             ****ORCA TERMINATED NORMALLY****
TOTAL RUN TIME: 0 days 0 hours 0 minutes 21 seconds 570 msec
