                         Program Version 5.0.0 -  RELEASE  -
|  1> !M062X D3Zero RIJCOSX def2-SVPD def2/J TightSCF
|  2> *xyz 0 1
|  3> C          0.70466        1.44313       -4.50363
|  4> C          1.72854        1.42432       -5.63944
|  5> H          2.64672        1.95379       -5.38105
|  6> H          1.29992        1.93061       -6.50361
|  7> S          2.25263       -0.18811       -6.27184
|  8> O          3.56261       -0.44446       -5.63155
|  9> O          2.34494       -0.03374       -7.69650
| 10> F          1.26606       -1.15918       -5.80536
| 11> H         -0.17385        0.91270       -4.80656
| 12> H          0.44778        2.45562       -4.27173
| 13> H          1.12367        0.97423       -3.63791
| 14> *
| 15>
| 16> %MaxCore 64000
| 17>
| 18> %pal nprocs 4
| 19> end
| 20>
| 21> %scf
| 22>   MaxIter 150
| 23> end
| 24>
| 25>
| 26>                          ****END OF INPUT****

CARTESIAN COORDINATES (ANGSTROEM)
---------------------------------
  C      0.704660    1.443130   -4.503630
  C      1.728540    1.424320   -5.639440
  H      2.646720    1.953790   -5.381050
  H      1.299920    1.930610   -6.503610
  S      2.252630   -0.188110   -6.271840
  O      3.562610   -0.444460   -5.631550
  O      2.344940   -0.033740   -7.696500
  F      1.266060   -1.159180   -5.805360
  H     -0.173850    0.912700   -4.806560
  H      0.447780    2.455620   -4.271730
  H      1.123670    0.974230   -3.637910

 Total Charge           Charge          ....    0
 Multiplicity           Mult            ....    1
 Number of Electrons    NEL             ....   58
 Basis Dimension        Dim             ....  176

ORBITAL ENERGIES
----------------

  NO   OCC          E(Eh)            E(eV)
   0   2.0000     -90.197603     -2454.4016
   1   2.0000     -25.371425      -690.3916
   2   2.0000     -19.656317      -534.8756
   3   2.0000     -19.640122      -534.4349
   4   2.0000     -10.617429      -288.9149
   5   2.0000     -10.582068      -287.9527
   6   2.0000      -8.521971      -231.8946
   7   2.0000      -6.450365      -175.5234
   8   2.0000      -6.445082      -175.3796
   9   2.0000      -6.444067      -175.3520
  10   2.0000      -1.502725       -40.8912
  11   2.0000      -1.231363       -33.5071
  12   2.0000      -1.121713       -30.5233
  13   2.0000      -0.920950       -25.0603
  14   2.0000      -0.827509       -22.5177
  15   2.0000      -0.770173       -20.9575
  16   2.0000      -0.689110       -18.7516
  17   2.0000      -0.679469       -18.4893
  18   2.0000      -0.632188       -17.2027
  19   2.0000      -0.573221       -15.5981
  20   2.0000      -0.558653       -15.2017
  21   2.0000      -0.528482       -14.3807
  22   2.0000      -0.520696       -14.1689
  23   2.0000      -0.483969       -13.1695
  24   2.0000      -0.465016       -12.6537
  25   2.0000      -0.460789       -12.5387
  26   2.0000      -0.407538       -11.0897
  27   2.0000      -0.392979       -10.6935
  28   2.0000      -0.383938       -10.4475
  29   0.0000       0.007459         0.2030
  30   0.0000       0.038166         1.0385
  31   0.0000       0.042571         1.1584
  32   0.0000       0.045076         1.2266
  33   0.0000       0.072317         1.9678

MULLIKEN ATOMIC CHARGES
-----------------------
   0 C :    0.704524
   1 C :   -0.405668
   2 H :    0.014860
   3 H :    0.072087
   4 S :    1.558369
   5 O :   -0.728929
   6 O :   -0.682249
   7 F :   -0.445508
   8 H :   -0.012363
   9 H :   -0.055328
  10 H :   -0.019796
Sum of atomic charges:    0.0000000

LOEWDIN ATOMIC CHARGES
----------------------
   0 C :    0.132169
   1 C :   -0.073433
   2 H :    0.031376
   3 H :    0.017851
   4 S :    1.163836
   5 O :   -0.502429
   6 O :   -0.476090
   7 F :   -0.277178
   8 H :   -0.009726
   9 H :   -0.003766
  10 H :   -0.002609

  Mayer bond orders larger than 0.100000
B(  0-C ,  1-C ) :   1.3241 B(  0-C ,  8-H ) :   0.8183 B(  0-C ,  9-H ) :   0.7844
B(  0-C , 10-H ) :   0.8307 B(  1-C ,  2-H ) :   0.9954 B(  1-C ,  3-H ) :   0.9802
B(  1-C ,  4-S ) :   0.9455 B(  1-C ,  8-H ) :   0.1897 B(  1-C ,  9-H ) :   0.2033
B(  1-C , 10-H ) :   0.1722 B(  4-S ,  5-O ) :   1.4763 B(  4-S ,  6-O ) :   1.5332
B(  4-S ,  7-F ) :   0.6141

Dispersion correction           -0.000160022
FINAL SINGLE POINT ENERGY      -727.111488626200

DIPOLE MOMENT
-------------
                                X             Y             Z
Electronic contribution:      2.32739      -7.58964      -3.96005
Nuclear contribution   :     -3.70606       8.55465       4.82350
                        -----------------------------------------
Total Dipole Moment    :     -1.37867       0.96501       0.86345
                        -----------------------------------------
Magnitude (a.u.)       :      1.89143
Magnitude (Debye)      :      4.80764

Rotational constants in cm-1:     0.153201     0.080978     0.077494
Rotational constants in MHz :  4592.852844  2427.650814  2323.207507

                             ****ORCA TERMINATED NORMALLY****
TOTAL RUN TIME: 0 days 0 hours 0 minutes 24 seconds 849 msec
