                         Program Version 5.0.0 -  RELEASE  -
|  1> !M062X D3Zero RIJCOSX def2-SVPD def2/J TightSCF xyzfile
|  2>
|  3> *xyzfile 0 1 D3.xyz
|  4>
|  5> %MaxCore 64000
|  6>
|  7> %pal nprocs 4
|  8> end
|  9>
| 10> %scf
| 11>   MaxIter 150
| 12> end
| 13>
| 14>
| 15>                          ****END OF INPUT****

CARTESIAN COORDINATES (ANGSTROEM)
---------------------------------
  C      2.916324   -1.242589   -1.543125
  C      0.704661    1.443129   -4.503630
  C      1.728539    1.424320   -5.639443
  H      2.646718    1.953794   -5.381054
  H      1.299916    1.930613   -6.503614
  S      2.252625   -0.188115   -6.271840
  C      3.466585   -1.590971   -2.889082
  C      4.652275   -1.143164   -3.259692
  N      2.752264   -2.292043   -3.728029
  H      1.778364   -2.489604   -3.512738
  H      2.948612   -2.208544   -4.716813
  H      5.146723   -0.512508   -2.633852
  H      4.783030   -1.007203   -4.253498
  O      3.562607   -0.444464   -5.631552
  F      2.344944   -0.033742   -7.696501
  C      2.804084    0.290698   -1.359243
  C      1.052550    0.695659   -3.214915
  H     -0.232483    1.032925   -4.884449
  H      0.511700    2.495794   -4.267966
  C      2.388380    1.093669   -2.597108
  H      3.763425    0.674718   -0.999889
  H      2.094788    0.461222   -0.545756
  O      1.266058   -1.159177   -5.805365
  H      3.167316    1.013242   -3.359430
  H      2.357690    2.149375   -2.310997
  H      1.039284   -0.368429   -3.449329
  H      0.250787    0.865605   -2.488283
  H      1.940472   -1.716529   -1.441161
  H      3.558569   -1.663433   -0.766371

 Total Charge           Charge          ....    0
 Multiplicity           Mult            ....    1
 Number of Electrons    NEL             ....  112
 Basis Dimension        Dim             ....  404

ORBITAL ENERGIES
----------------

  NO   OCC          E(Eh)            E(eV)
   0   2.0000     -90.212236     -2454.7997
   1   2.0000     -25.393849      -691.0018
   2   2.0000     -19.663906      -535.0821
   3   2.0000     -19.654947      -534.8383
   4   2.0000     -14.733881      -400.9293
   5   2.0000     -10.622672      -289.0576
   6   2.0000     -10.584841      -288.0282
   7   2.0000     -10.553707      -287.1810
   8   2.0000     -10.548427      -287.0373
   9   2.0000     -10.544629      -286.9339
  10   2.0000     -10.543024      -286.8903
  11   2.0000     -10.539304      -286.7890
  12   2.0000     -10.452432      -284.4251
  13   2.0000      -8.535646      -232.2667
  14   2.0000      -6.464054      -175.8958
  15   2.0000      -6.458891      -175.7554
  16   2.0000      -6.457685      -175.7225
  17   2.0000      -1.534161       -41.7466
  18   2.0000      -1.236997       -33.6604
  19   2.0000      -1.129629       -30.7388
  20   2.0000      -1.009216       -27.4622
  21   2.0000      -0.936303       -25.4781
  22   2.0000      -0.889609       -24.2075
  23   2.0000      -0.859137       -23.3783
  24   2.0000      -0.822602       -22.3841
  25   2.0000      -0.787459       -21.4279
  26   2.0000      -0.759796       -20.6751
  27   2.0000      -0.722679       -19.6651
  28   2.0000      -0.705370       -19.1941
  29   2.0000      -0.690398       -18.7867
  30   2.0000      -0.657324       -17.8867
  31   2.0000      -0.644248       -17.5309
  32   2.0000      -0.612149       -16.6574
  33   2.0000      -0.583959       -15.8903
  34   2.0000      -0.571849       -15.5608
  35   2.0000      -0.570688       -15.5292
  36   2.0000      -0.553099       -15.0506
  37   2.0000      -0.545289       -14.8381
  38   2.0000      -0.524151       -14.2629
  39   2.0000      -0.507523       -13.8104
  40   2.0000      -0.496315       -13.5054
  41   2.0000      -0.484683       -13.1889
  42   2.0000      -0.473996       -12.8981
  43   2.0000      -0.451498       -12.2859
  44   2.0000      -0.445480       -12.1221
  45   2.0000      -0.430653       -11.7187
  46   2.0000      -0.423658       -11.5283
  47   2.0000      -0.417039       -11.3482
  48   2.0000      -0.412879       -11.2350
  49   2.0000      -0.400459       -10.8970
  50   2.0000      -0.395966       -10.7748
  51   2.0000      -0.391766       -10.6605
  52   2.0000      -0.376020       -10.2320
  53   2.0000      -0.368886       -10.0379
  54   2.0000      -0.362152        -9.8547
  55   2.0000      -0.216877        -5.9015
  56   0.0000       0.003051         0.0830
  57   0.0000       0.026332         0.7165
  58   0.0000       0.031544         0.8584
  59   0.0000       0.041928         1.1409
  60   0.0000       0.051256         1.3947

MULLIKEN ATOMIC CHARGES
-----------------------
   0 C :    0.629909
   1 C :    0.483926
   2 C :    0.125887
   3 H :    0.141819
   4 H :   -0.181844
   5 S :    1.713747
   6 C :   -0.563225
   7 C :    0.652120
   8 N :    0.307227
   9 H :    0.000336
  10 H :   -0.187446
  11 H :   -0.011943
  12 H :   -0.614681
  13 O :   -0.800412
  14 F :   -0.507192
  15 C :    0.406025
  16 C :    0.312605
  17 H :    0.023216
  18 H :   -0.050307
  19 C :    0.001296
  20 H :   -0.008163
  21 H :   -0.151829
  22 O :   -0.792938
  23 H :   -0.049743
  24 H :   -0.204915
  25 H :   -0.407135
  26 H :   -0.127224
  27 H :    0.098248
  28 H :   -0.237366
Sum of atomic charges:   -0.0000000

LOEWDIN ATOMIC CHARGES
----------------------
   0 C :    0.026534
   1 C :   -0.019240
   2 C :   -0.028946
   3 H :    0.023318
   4 H :    0.012796
   5 S :    1.209545
   6 C :   -0.253260
   7 C :    0.178794
   8 N :    0.185578
   9 H :    0.003873
  10 H :   -0.044788
  11 H :   -0.076264
  12 H :   -0.133143
  13 O :   -0.487136
  14 F :   -0.258583
  15 C :   -0.009101
  16 C :   -0.012830
  17 H :    0.031139
  18 H :    0.037845
  19 C :   -0.021505
  20 H :    0.019991
  21 H :    0.016050
  22 O :   -0.479127
  23 H :   -0.003877
  24 H :    0.025288
  25 H :   -0.013628
  26 H :    0.033855
  27 H :    0.010317
  28 H :    0.026503

  Mayer bond orders larger than 0.100000
B(  0-C ,  6-C ) :   1.2518 B(  0-C , 15-C ) :   1.1053 B(  0-C , 21-H ) :   0.1956
B(  0-C , 27-H ) :   0.5630 B(  0-C , 28-H ) :   0.7327 B(  1-C ,  2-C ) :   1.2627
B(  1-C ,  4-H ) :   0.2255 B(  1-C , 16-C ) :   1.2512 B(  1-C , 17-H ) :   0.6709
B(  1-C , 18-H ) :   0.7427 B(  2-C ,  3-H ) :   0.8822 B(  2-C ,  4-H ) :   0.8579
B(  2-C ,  5-S ) :   0.9547 B(  2-C , 18-H ) :   0.1533 B(  5-S , 13-O ) :   1.3310
B(  5-S , 14-F ) :   0.5236 B(  5-S , 22-O ) :   1.3909 B(  6-C ,  7-C ) :   2.2691
B(  6-C ,  8-N ) :   0.9363 B(  6-C , 11-H ) :   0.1044 B(  6-C , 12-H ) :   0.3823
B(  6-C , 27-H ) :   0.2976 B(  6-C , 28-H ) :   0.2638 B(  7-C ,  8-N ) :   0.3519
B(  7-C , 11-H ) :   0.5729 B(  7-C , 12-H ) :   0.3948 B(  8-N ,  9-H ) :   0.9138
B(  8-N , 10-H ) :   0.9600 B(  8-N , 11-H ) :   0.2158 B(  8-N , 12-H ) :  -0.1209
B(  9-H , 10-H ) :  -0.1635 B( 10-H , 12-H ) :   0.1225 B( 10-H , 13-O ) :   0.1029
B( 12-H , 13-O ) :   0.2504 B( 13-O , 22-O ) :   0.1124 B( 15-C , 19-C ) :   1.2241
B( 15-C , 20-H ) :   0.6837 B( 15-C , 21-H ) :   0.8337 B( 15-C , 23-H ) :   0.1376
B( 15-C , 27-H ) :   0.1375 B( 16-C , 17-H ) :   0.2868 B( 16-C , 19-C ) :   1.2282
B( 16-C , 23-H ) :   0.1356 B( 16-C , 24-H ) :   0.1749 B( 16-C , 25-H ) :   0.8751
B( 16-C , 26-H ) :   0.7230 B( 17-H , 18-H ) :  -0.1378 B( 19-C , 20-H ) :   0.2695
B( 19-C , 21-H ) :   0.1796 B( 19-C , 23-H ) :   0.8877 B( 19-C , 24-H ) :   0.8407
B( 19-C , 25-H ) :   0.1641 B( 19-C , 26-H ) :   0.2270 B( 20-H , 21-H ) :  -0.1785

Dispersion correction           -0.001639596
FINAL SINGLE POINT ENERGY     -1016.742984531614

DIPOLE MOMENT
-------------
                                X             Y             Z
Electronic contribution:      0.01875      -4.08231     -22.49550
Nuclear contribution   :     -1.50273       5.82595      21.72909
                        -----------------------------------------
Total Dipole Moment    :     -1.48398       1.74364      -0.76642
                        -----------------------------------------
Magnitude (a.u.)       :      2.41451
Magnitude (Debye)      :      6.13720

Rotational constants in cm-1:     0.036883     0.018294     0.014745
Rotational constants in MHz :  1105.724679   548.429785   442.050481

                             ****ORCA TERMINATED NORMALLY****
TOTAL RUN TIME: 0 days 0 hours 2 minutes 41 seconds 354 msec
