                         Program Version 5.0.0 -  RELEASE  -
|  1> !M062X D3Zero RIJCOSX def2-SVPD def2/J TightSCF xyzfile
|  2>
|  3> *xyzfile 0 1 D5.xyz
|  4>
|  5> %MaxCore 64000
|  6>
|  7> %pal nprocs 4
|  8> end
|  9>
| 10> %scf
| 11>   MaxIter 150
| 12> end
| 13>
| 14>
| 15>                          ****END OF INPUT****

CARTESIAN COORDINATES (ANGSTROEM)
---------------------------------
  C      2.916324   -1.242589   -1.543125
  C      0.704661    1.443129   -4.503630
  C      1.728539    1.424320   -5.639443
  H      2.646718    1.953794   -5.381054
  H      1.299916    1.930613   -6.503614
  S      2.252625   -0.188115   -6.271840
  C      3.466585   -1.590971   -2.889082
  C      4.652275   -1.143164   -3.259692
  N      2.752264   -2.292043   -3.728029
  H      1.778364   -2.489604   -3.512738
  H      2.948612   -2.208544   -4.716813
  H      5.146723   -0.512508   -2.633852
  H      4.783030   -1.007203   -4.253498
  O      3.562607   -0.444464   -5.631552
  O      2.344944   -0.033742   -7.696501
  C      2.804084    0.290698   -1.359243
  C      1.052550    0.695659   -3.214915
  H     -0.232483    1.032925   -4.884449
  H      0.511700    2.495794   -4.267966
  C      2.388380    1.093669   -2.597108
  H      3.763425    0.674718   -0.999889
  H      2.094788    0.461222   -0.545756
  F      1.266058   -1.159177   -5.805365
  H      3.167316    1.013242   -3.359430
  H      2.357690    2.149375   -2.310997
  H      1.039284   -0.368429   -3.449329
  H      0.250787    0.865605   -2.488283
  H      1.940472   -1.716529   -1.441161
  H      3.558569   -1.663433   -0.766371

 Total Charge           Charge          ....    0
 Multiplicity           Mult            ....    1
 Number of Electrons    NEL             ....  112
 Basis Dimension        Dim             ....  404

ORBITAL ENERGIES
----------------

  NO   OCC          E(Eh)            E(eV)
   0   2.0000     -90.208155     -2454.6887
   1   2.0000     -25.383592      -690.7227
   2   2.0000     -19.664854      -535.1079
   3   2.0000     -19.651122      -534.7342
   4   2.0000     -14.752229      -401.4286
   5   2.0000     -10.619876      -288.9815
   6   2.0000     -10.589849      -288.1644
   7   2.0000     -10.566452      -287.5278
   8   2.0000     -10.558734      -287.3178
   9   2.0000     -10.552508      -287.1483
  10   2.0000     -10.551291      -287.1152
  11   2.0000     -10.548754      -287.0462
  12   2.0000     -10.462717      -284.7050
  13   2.0000      -8.531487      -232.1536
  14   2.0000      -6.459994      -175.7854
  15   2.0000      -6.454731      -175.6422
  16   2.0000      -6.453475      -175.6080
  17   2.0000      -1.515055       -41.2267
  18   2.0000      -1.241223       -33.7754
  19   2.0000      -1.134858       -30.8811
  20   2.0000      -1.025233       -27.8980
  21   2.0000      -0.941248       -25.6127
  22   2.0000      -0.894676       -24.3454
  23   2.0000      -0.857184       -23.3252
  24   2.0000      -0.823489       -22.4083
  25   2.0000      -0.795370       -21.6431
  26   2.0000      -0.765987       -20.8436
  27   2.0000      -0.726870       -19.7791
  28   2.0000      -0.695924       -18.9371
  29   2.0000      -0.694708       -18.9040
  30   2.0000      -0.662852       -18.0371
  31   2.0000      -0.641634       -17.4597
  32   2.0000      -0.622876       -16.9493
  33   2.0000      -0.586511       -15.9598
  34   2.0000      -0.576042       -15.6749
  35   2.0000      -0.571145       -15.5416
  36   2.0000      -0.559256       -15.2181
  37   2.0000      -0.546350       -14.8669
  38   2.0000      -0.533998       -14.5308
  39   2.0000      -0.520633       -14.1672
  40   2.0000      -0.503574       -13.7029
  41   2.0000      -0.487418       -13.2633
  42   2.0000      -0.479035       -13.0352
  43   2.0000      -0.456889       -12.4326
  44   2.0000      -0.455188       -12.3863
  45   2.0000      -0.444210       -12.0876
  46   2.0000      -0.437279       -11.8990
  47   2.0000      -0.420842       -11.4517
  48   2.0000      -0.418156       -11.3786
  49   2.0000      -0.408930       -11.1275
  50   2.0000      -0.399104       -10.8602
  51   2.0000      -0.393951       -10.7200
  52   2.0000      -0.384427       -10.4608
  53   2.0000      -0.375379       -10.2146
  54   2.0000      -0.372088       -10.1250
  55   2.0000      -0.229579        -6.2472
  56   0.0000       0.004447         0.1210
  57   0.0000       0.026631         0.7247
  58   0.0000       0.033581         0.9138
  59   0.0000       0.038935         1.0595
  60   0.0000       0.048908         1.3309

MULLIKEN ATOMIC CHARGES
-----------------------
   0 C :    0.630631
   1 C :    0.505394
   2 C :    0.154619
   3 H :    0.141744
   4 H :   -0.200667
   5 S :    1.530698
   6 C :   -0.536087
   7 C :    0.660540
   8 N :    0.289330
   9 H :   -0.004210
  10 H :   -0.213675
  11 H :   -0.014979
  12 H :   -0.604429
  13 O :   -0.747259
  14 O :   -0.696953
  15 C :    0.403992
  16 C :    0.343189
  17 H :    0.000796
  18 H :   -0.039139
  19 C :   -0.008413
  20 H :   -0.003639
  21 H :   -0.151032
  22 F :   -0.505214
  23 H :   -0.043875
  24 H :   -0.200009
  25 H :   -0.435003
  26 H :   -0.115187
  27 H :    0.094868
  28 H :   -0.236030
Sum of atomic charges:   -0.0000000

LOEWDIN ATOMIC CHARGES
----------------------
   0 C :    0.026868
   1 C :   -0.032666
   2 C :   -0.017681
   3 H :    0.030545
   4 H :    0.019594
   5 S :    1.188788
   6 C :   -0.255407
   7 C :    0.187346
   8 N :    0.175367
   9 H :    0.001187
  10 H :   -0.042538
  11 H :   -0.072062
  12 H :   -0.129427
  13 O :   -0.482386
  14 O :   -0.458529
  15 C :   -0.008174
  16 C :   -0.019074
  17 H :    0.027738
  18 H :    0.036948
  19 C :   -0.019223
  20 H :    0.021369
  21 H :    0.016839
  22 F :   -0.276064
  23 H :   -0.002519
  24 H :    0.027843
  25 H :   -0.016575
  26 H :    0.034466
  27 H :    0.009634
  28 H :    0.027791

  Mayer bond orders larger than 0.100000
B(  0-C ,  6-C ) :   1.2437 B(  0-C , 15-C ) :   1.1056 B(  0-C , 21-H ) :   0.1953
B(  0-C , 27-H ) :   0.5640 B(  0-C , 28-H ) :   0.7352 B(  1-C ,  2-C ) :   1.2185
B(  1-C ,  4-H ) :   0.2052 B(  1-C , 16-C ) :   1.2446 B(  1-C , 17-H ) :   0.6725
B(  1-C , 18-H ) :   0.7385 B(  2-C ,  3-H ) :   0.8754 B(  2-C ,  4-H ) :   0.9286
B(  2-C ,  5-S ) :   0.9608 B(  2-C , 18-H ) :   0.1519 B(  5-S , 13-O ) :   1.3996
B(  5-S , 14-O ) :   1.5379 B(  5-S , 22-F ) :   0.5664 B(  6-C ,  7-C ) :   2.2798
B(  6-C ,  8-N ) :   0.9235 B(  6-C , 11-H ) :   0.1004 B(  6-C , 12-H ) :   0.3736
B(  6-C , 27-H ) :   0.2966 B(  6-C , 28-H ) :   0.2598 B(  7-C ,  8-N ) :   0.3487
B(  7-C , 11-H ) :   0.5750 B(  7-C , 12-H ) :   0.4060 B(  8-N ,  9-H ) :   0.9230
B(  8-N , 10-H ) :   0.9614 B(  8-N , 11-H ) :   0.2076 B(  8-N , 12-H ) :  -0.1110
B(  9-H , 10-H ) :  -0.1679 B( 10-H , 12-H ) :   0.1078 B( 10-H , 13-O ) :   0.1077
B( 12-H , 13-O ) :   0.2657 B( 15-C , 19-C ) :   1.2290 B( 15-C , 20-H ) :   0.6824
B( 15-C , 21-H ) :   0.8350 B( 15-C , 23-H ) :   0.1399 B( 15-C , 27-H ) :   0.1371
B( 16-C , 17-H ) :   0.2713 B( 16-C , 19-C ) :   1.2279 B( 16-C , 23-H ) :   0.1394
B( 16-C , 24-H ) :   0.1705 B( 16-C , 25-H ) :   0.8362 B( 16-C , 26-H ) :   0.7269
B( 17-H , 18-H ) :  -0.1499 B( 19-C , 20-H ) :   0.2692 B( 19-C , 21-H ) :   0.1810
B( 19-C , 23-H ) :   0.8840 B( 19-C , 24-H ) :   0.8447 B( 19-C , 25-H ) :   0.1786
B( 19-C , 26-H ) :   0.2278 B( 20-H , 21-H ) :  -0.1769

Dispersion correction           -0.001665665
FINAL SINGLE POINT ENERGY     -1016.748353772610

DIPOLE MOMENT
-------------
                                X             Y             Z
Electronic contribution:     -1.75739      -6.00545     -18.95955
Nuclear contribution   :     -0.26930       7.11259      19.56706
                        -----------------------------------------
Total Dipole Moment    :     -2.02669       1.10714       0.60751
                        -----------------------------------------
Magnitude (a.u.)       :      2.38795
Magnitude (Debye)      :      6.06968

Rotational constants in cm-1:     0.036519     0.018683     0.015073
Rotational constants in MHz :  1094.801738   560.111127   451.890222

                             ****ORCA TERMINATED NORMALLY****
TOTAL RUN TIME: 0 days 0 hours 2 minutes 43 seconds 862 msec
