                         Program Version 5.0.0 -  RELEASE  -
|  1> !TPSS D3BJ RIJCOSX def2-SVPD def2/J TightSCF
|  2> *xyz -1 1
|  3> C          1.44442        5.26658       -0.97546
|  4> O          1.56525        4.23349       -1.86489
|  5> C          0.14812        5.21087       -0.13809
|  6> H          1.47425        6.26464       -1.47692
|  7> H          2.28962        5.30327       -0.26445
|  8> H         -0.69779        5.17417       -0.79230
|  9> H          0.08430        6.08276        0.47887
| 10> H          0.15965        4.33708        0.47938
| 11> *
| 12> %MaxCore 64000
| 13>
| 14> %pal nprocs 4
| 15> end
| 16>
| 17> %scf
| 18>   MaxIter 150
| 19> end
| 20>
| 21>
| 22>                          ****END OF INPUT****

CARTESIAN COORDINATES (ANGSTROEM)
---------------------------------
  C      1.444420    5.266580   -0.975460
  O      1.565250    4.233490   -1.864890
  C      0.148120    5.210870   -0.138090
  H      1.474250    6.264640   -1.476920
  H      2.289620    5.303270   -0.264450
  H     -0.697790    5.174170   -0.792300
  H      0.084300    6.082760    0.478870
  H      0.159650    4.337080    0.479380

 Total Charge           Charge          ....   -1
 Multiplicity           Mult            ....    1
 Number of Electrons    NEL             ....   26
 Basis Dimension        Dim             ....  103

ORBITAL ENERGIES
----------------

  NO   OCC          E(Eh)            E(eV)
   0   2.0000     -18.573626      -505.4141
   1   2.0000      -9.816500      -267.1205
   2   2.0000      -9.794794      -266.5299
   3   2.0000      -0.606227       -16.4963
   4   2.0000      -0.465147       -12.6573
   5   2.0000      -0.320337        -8.7168
   6   2.0000      -0.208686        -5.6786
   7   2.0000      -0.187945        -5.1143
   8   2.0000      -0.135105        -3.6764
   9   2.0000      -0.120849        -3.2885
  10   2.0000      -0.071935        -1.9574
  11   2.0000       0.066983         1.8227
  12   2.0000       0.070285         1.9126
  13   0.0000       0.170961         4.6521
  14   0.0000       0.200977         5.4689
  15   0.0000       0.232815         6.3352
  16   0.0000       0.245849         6.6899
  17   0.0000       0.262860         7.1528

MULLIKEN ATOMIC CHARGES
-----------------------
   0 C :    0.155197
   1 O :   -0.898407
   2 C :    0.165741
   3 H :   -0.138306
   4 H :   -0.168949
   5 H :   -0.052806
   6 H :   -0.016420
   7 H :   -0.046049
Sum of atomic charges:   -1.0000000

LOEWDIN ATOMIC CHARGES
----------------------
   0 C :   -0.251871
   1 O :   -0.563704
   2 C :    0.069506
   3 H :   -0.041136
   4 H :   -0.045376
   5 H :   -0.048596
   6 H :   -0.069010
   7 H :   -0.049813

  Mayer bond orders larger than 0.100000
B(  0-C ,  1-O ) :   1.0924 B(  0-C ,  2-C ) :   1.1667 B(  0-C ,  3-H ) :   0.9881
B(  0-C ,  4-H ) :   0.9957 B(  0-C ,  5-H ) :   0.1753 B(  0-C ,  6-H ) :   0.1230
B(  0-C ,  7-H ) :   0.1629 B(  1-O ,  2-C ) :   0.2803 B(  2-C ,  3-H ) :   0.1341
B(  2-C ,  4-H ) :   0.1379 B(  2-C ,  5-H ) :   0.9346 B(  2-C ,  6-H ) :   0.9373
B(  2-C ,  7-H ) :   0.9315

Dispersion correction           -0.004548895
FINAL SINGLE POINT ENERGY      -154.348522397309

DIPOLE MOMENT
-------------
                                X             Y             Z
Electronic contribution:      1.21899      -1.66874      -2.11449
Nuclear contribution   :     -1.83256       2.47114       3.17273
                        -----------------------------------------
Total Dipole Moment    :     -0.61357       0.80240       1.05824
                        -----------------------------------------
Magnitude (a.u.)       :      1.46294
Magnitude (Debye)      :      3.71849

Rotational constants in cm-1:     1.286062     0.322579     0.284728
Rotational constants in MHz : 38555.180127  9670.683110  8535.939140

                             ****ORCA TERMINATED NORMALLY****
TOTAL RUN TIME: 0 days 0 hours 0 minutes 8 seconds 236 msec
