                         Program Version 5.0.0 -  RELEASE  -
|  1> !TPSS D3BJ RIJCOSX def2-SVPD def2/J TightSCF
|  2> *xyz 1 1
|  3> C         -0.70169        4.07250       -4.00392
|  4> N          0.68053        4.61482       -4.04800
|  5> H          0.69993        5.58489       -4.38827
|  6> H          1.27804        4.05598       -4.66824
|  7> H          1.08573        4.53358       -3.10652
|  8> C         -1.70347        5.09320       -3.47740
|  9> H         -0.99590        3.74039       -5.00065
| 10> H         -0.64358        3.20191       -3.35153
| 11> H         -1.73704        5.93384       -4.13853
| 12> H         -1.40338        5.41759       -2.50291
| 13> H         -2.67335        4.64479       -3.42108
| 14> *
| 15> %MaxCore 64000
| 16>
| 17> %pal nprocs 4
| 18> end
| 19>
| 20> %scf
| 21>   MaxIter 150
| 22> end
| 23>
| 24>
| 25>                          ****END OF INPUT****

CARTESIAN COORDINATES (ANGSTROEM)
---------------------------------
  C     -0.701690    4.072500   -4.003920
  N      0.680530    4.614820   -4.048000
  H      0.699930    5.584890   -4.388270
  H      1.278040    4.055980   -4.668240
  H      1.085730    4.533580   -3.106520
  C     -1.703470    5.093200   -3.477400
  H     -0.995900    3.740390   -5.000650
  H     -0.643580    3.201910   -3.351530
  H     -1.737040    5.933840   -4.138530
  H     -1.403380    5.417590   -2.502910
  H     -2.673350    4.644790   -3.421080

 Total Charge           Charge          ....    1
 Multiplicity           Mult            ....    1
 Number of Electrons    NEL             ....   26
 Basis Dimension        Dim             ....  124

ORBITAL ENERGIES
----------------

  NO   OCC          E(Eh)            E(eV)
   0   2.0000     -14.454101      -393.3161
   1   2.0000     -10.255423      -279.0643
   2   2.0000     -10.179780      -277.0059
   3   2.0000      -1.148764       -31.2595
   4   2.0000      -0.905993       -24.6533
   5   2.0000      -0.793485       -21.5918
   6   2.0000      -0.761170       -20.7125
   7   2.0000      -0.743355       -20.2277
   8   2.0000      -0.656560       -17.8659
   9   2.0000      -0.604503       -16.4494
  10   2.0000      -0.546877       -14.8813
  11   2.0000      -0.532138       -14.4802
  12   2.0000      -0.517320       -14.0770
  13   0.0000      -0.208241        -5.6665
  14   0.0000      -0.153157        -4.1676
  15   0.0000      -0.147679        -4.0185
  16   0.0000      -0.135089        -3.6760
  17   0.0000      -0.103912        -2.8276

MULLIKEN ATOMIC CHARGES
-----------------------
   0 C :    0.166126
   1 N :   -0.851547
   2 H :    0.425185
   3 H :    0.373978
   4 H :    0.430607
   5 C :    0.531956
   6 H :   -0.044824
   7 H :   -0.050695
   8 H :   -0.003911
   9 H :    0.021631
  10 H :    0.001495
Sum of atomic charges:    1.0000000

LOEWDIN ATOMIC CHARGES
----------------------
   0 C :    0.059434
   1 N :    0.332132
   2 H :    0.105637
   3 H :    0.104484
   4 H :    0.107447
   5 C :    0.183884
   6 H :    0.050363
   7 H :    0.049032
   8 H :   -0.002515
   9 H :   -0.002577
  10 H :    0.012678

  Mayer bond orders larger than 0.100000
B(  0-C ,  1-N ) :   0.7649 B(  0-C ,  5-C ) :   1.3318 B(  0-C ,  6-H ) :   0.9539
B(  0-C ,  7-H ) :   0.9211 B(  0-C ,  8-H ) :   0.1498 B(  0-C ,  9-H ) :   0.1391
B(  0-C , 10-H ) :   0.1790 B(  1-N ,  2-H ) :   0.6607 B(  1-N ,  3-H ) :   0.7465
B(  1-N ,  4-H ) :   0.6686 B(  1-N ,  7-H ) :   0.1167 B(  5-C ,  8-H ) :   0.8502
B(  5-C ,  9-H ) :   0.8416 B(  5-C , 10-H ) :   0.8296

Dispersion correction           -0.007440996
FINAL SINGLE POINT ENERGY      -135.472112596867

DIPOLE MOMENT
-------------
                                X             Y             Z
Electronic contribution:      1.75096      -0.32746      -0.45229
Nuclear contribution   :     -0.23930       0.27560       0.19485
                        -----------------------------------------
Total Dipole Moment    :      1.51166      -0.05186      -0.25744
                        -----------------------------------------
Magnitude (a.u.)       :      1.53430
Magnitude (Debye)      :      3.89989

Rotational constants in cm-1:     1.018556     0.279088     0.248454
Rotational constants in MHz : 30535.536069  8366.847891  7448.451392

                             ****ORCA TERMINATED NORMALLY****
TOTAL RUN TIME: 0 days 0 hours 0 minutes 9 seconds 74 msec
