                         Program Version 5.0.0 -  RELEASE  -
|  1> !TPSS D3BJ RIJCOSX def2-SVPD def2/J TightSCF
|  2> *xyz 0 1
|  3> C          1.44442        5.26658       -0.97546
|  4> F          1.56525        4.23349       -1.86489
|  5> C          0.14812        5.21087       -0.13809
|  6> H          1.47425        6.26464       -1.47692
|  7> H          2.28962        5.30327       -0.26445
|  8> H         -0.69779        5.17417       -0.79230
|  9> H          0.08430        6.08276        0.47887
| 10> H          0.15965        4.33708        0.47938
| 11> *
| 12> %MaxCore 64000
| 13>
| 14> %pal nprocs 4
| 15> end
| 16>
| 17> %scf
| 18>   MaxIter 150
| 19> end
| 20>
| 21>
| 22>                          ****END OF INPUT****

CARTESIAN COORDINATES (ANGSTROEM)
---------------------------------
  C      1.444420    5.266580   -0.975460
  F      1.565250    4.233490   -1.864890
  C      0.148120    5.210870   -0.138090
  H      1.474250    6.264640   -1.476920
  H      2.289620    5.303270   -0.264450
  H     -0.697790    5.174170   -0.792300
  H      0.084300    6.082760    0.478870
  H      0.159650    4.337080    0.479380

 Total Charge           Charge          ....    0
 Multiplicity           Mult            ....    1
 Number of Electrons    NEL             ....   26
 Basis Dimension        Dim             ....  103

ORBITAL ENERGIES
----------------

  NO   OCC          E(Eh)            E(eV)
   0   2.0000     -24.417011      -664.4206
   1   2.0000     -10.081101      -274.3207
   2   2.0000     -10.000528      -272.1282
   3   2.0000      -1.107918       -30.1480
   4   2.0000      -0.702147       -19.1064
   5   2.0000      -0.577517       -15.7150
   6   2.0000      -0.462553       -12.5867
   7   2.0000      -0.447444       -12.1756
   8   2.0000      -0.409626       -11.1465
   9   2.0000      -0.364681        -9.9235
  10   2.0000      -0.362770        -9.8715
  11   2.0000      -0.293635        -7.9902
  12   2.0000      -0.290511        -7.9052
  13   0.0000       0.012606         0.3430
  14   0.0000       0.044068         1.1992
  15   0.0000       0.059440         1.6175
  16   0.0000       0.069319         1.8863
  17   0.0000       0.093218         2.5366

MULLIKEN ATOMIC CHARGES
-----------------------
   0 C :    0.394169
   1 F :   -0.454921
   2 C :    0.259236
   3 H :   -0.032087
   4 H :   -0.065197
   5 H :   -0.046736
   6 H :   -0.014833
   7 H :   -0.039631
Sum of atomic charges:    0.0000000

LOEWDIN ATOMIC CHARGES
----------------------
   0 C :    0.068902
   1 F :   -0.209194
   2 C :    0.147216
   3 H :    0.028140
   4 H :    0.021753
   5 H :   -0.019230
   6 H :   -0.017566
   7 H :   -0.020022

  Mayer bond orders larger than 0.100000
B(  0-C ,  1-F ) :   0.7278 B(  0-C ,  2-C ) :   1.3270 B(  0-C ,  3-H ) :   0.9465
B(  0-C ,  4-H ) :   0.9551 B(  0-C ,  5-H ) :   0.1357 B(  0-C ,  6-H ) :   0.1109
B(  0-C ,  7-H ) :   0.1279 B(  2-C ,  5-H ) :   0.9070 B(  2-C ,  6-H ) :   0.8718
B(  2-C ,  7-H ) :   0.9055

Dispersion correction           -0.004196010
FINAL SINGLE POINT ENERGY      -178.961137583258

DIPOLE MOMENT
-------------
                                X             Y             Z
Electronic contribution:      2.29994      -2.75716      -3.71083
Nuclear contribution   :     -2.43357       3.25919       4.19687
                        -----------------------------------------
Total Dipole Moment    :     -0.13363       0.50203       0.48604
                        -----------------------------------------
Magnitude (a.u.)       :      0.71142
Magnitude (Debye)      :      1.80830

Rotational constants in cm-1:     1.264662     0.300144     0.266170
Rotational constants in MHz : 37913.611527  8998.095216  7979.576054

                             ****ORCA TERMINATED NORMALLY****
TOTAL RUN TIME: 0 days 0 hours 0 minutes 7 seconds 434 msec
