                         Program Version 5.0.0 -  RELEASE  -
|  1> !TPSS D3BJ RIJCOSX def2-SVPD def2/J TightSCF
|  2> *xyz 0 1
|  3> C         -0.70169        4.07250       -4.00392
|  4> C          0.68053        4.61482       -4.04800
|  5> H          0.69993        5.58489       -4.38827
|  6> H          1.27804        4.05598       -4.66824
|  7> H          1.08573        4.53358       -3.10652
|  8> C         -1.70347        5.09320       -3.47740
|  9> H         -0.99590        3.74039       -5.00065
| 10> H         -0.64358        3.20191       -3.35153
| 11> H         -1.73704        5.93384       -4.13853
| 12> H         -1.40338        5.41759       -2.50291
| 13> H         -2.67335        4.64479       -3.42108
| 14> *
| 15> %MaxCore 64000
| 16>
| 17> %pal nprocs 4
| 18> end
| 19>
| 20> %scf
| 21>   MaxIter 150
| 22> end
| 23>
| 24>
| 25>                          ****END OF INPUT****

CARTESIAN COORDINATES (ANGSTROEM)
---------------------------------
  C     -0.701690    4.072500   -4.003920
  C      0.680530    4.614820   -4.048000
  H      0.699930    5.584890   -4.388270
  H      1.278040    4.055980   -4.668240
  H      1.085730    4.533580   -3.106520
  C     -1.703470    5.093200   -3.477400
  H     -0.995900    3.740390   -5.000650
  H     -0.643580    3.201910   -3.351530
  H     -1.737040    5.933840   -4.138530
  H     -1.403380    5.417590   -2.502910
  H     -2.673350    4.644790   -3.421080

 Total Charge           Charge          ....    0
 Multiplicity           Mult            ....    1
 Number of Electrons    NEL             ....   26
 Basis Dimension        Dim             ....  124

ORBITAL ENERGIES
----------------

  NO   OCC          E(Eh)            E(eV)
   0   2.0000      -9.987301      -271.7683
   1   2.0000      -9.981543      -271.6116
   2   2.0000      -9.964133      -271.1378
   3   2.0000      -0.727734       -19.8027
   4   2.0000      -0.632403       -17.2086
   5   2.0000      -0.532586       -14.4924
   6   2.0000      -0.427646       -11.6368
   7   2.0000      -0.403449       -10.9784
   8   2.0000      -0.363370        -9.8878
   9   2.0000      -0.353932        -9.6310
  10   2.0000      -0.300152        -8.1676
  11   2.0000      -0.298260        -8.1161
  12   2.0000      -0.291779        -7.9397
  13   0.0000       0.017182         0.4675
  14   0.0000       0.046696         1.2707
  15   0.0000       0.053220         1.4482
  16   0.0000       0.071204         1.9376
  17   0.0000       0.092729         2.5233

MULLIKEN ATOMIC CHARGES
-----------------------
   0 C :   -0.649604
   1 C :    0.873839
   2 H :   -0.203157
   3 H :   -0.173460
   4 H :   -0.123496
   5 C :    0.557356
   6 H :   -0.088718
   7 H :   -0.064941
   8 H :   -0.016451
   9 H :   -0.038485
  10 H :   -0.072883
Sum of atomic charges:   -0.0000000

LOEWDIN ATOMIC CHARGES
----------------------
   0 C :   -0.111793
   1 C :    0.122932
   2 H :   -0.033924
   3 H :   -0.037793
   4 H :   -0.031781
   5 C :    0.125674
   6 H :    0.016248
   7 H :    0.016358
   8 H :   -0.020616
   9 H :   -0.019420
  10 H :   -0.025885

  Mayer bond orders larger than 0.100000
B(  0-C ,  1-C ) :   1.2938 B(  0-C ,  2-H ) :   0.1960 B(  0-C ,  3-H ) :   0.2109
B(  0-C ,  4-H ) :   0.2651 B(  0-C ,  5-C ) :   1.2718 B(  0-C ,  6-H ) :   0.9676
B(  0-C ,  7-H ) :   0.9454 B(  0-C ,  8-H ) :   0.1558 B(  0-C ,  9-H ) :   0.1793
B(  0-C , 10-H ) :   0.1848 B(  1-C ,  2-H ) :   0.7759 B(  1-C ,  3-H ) :   0.7247
B(  1-C ,  4-H ) :   0.7058 B(  1-C ,  7-H ) :   0.1254 B(  5-C ,  8-H ) :   0.8444
B(  5-C ,  9-H ) :   0.8523 B(  5-C , 10-H ) :   0.8375

Dispersion correction           -0.007465617
FINAL SINGLE POINT ENERGY      -119.072896295973

DIPOLE MOMENT
-------------
                                X             Y             Z
Electronic contribution:     -0.13659      -0.30792      -0.13670
Nuclear contribution   :      0.16058       0.27975       0.12812
                        -----------------------------------------
Total Dipole Moment    :      0.02399      -0.02817      -0.00858
                        -----------------------------------------
Magnitude (a.u.)       :      0.03798
Magnitude (Debye)      :      0.09655

Rotational constants in cm-1:     1.027122     0.293327     0.260229
Rotational constants in MHz : 30792.337141  8793.723318  7801.458329

                             ****ORCA TERMINATED NORMALLY****
TOTAL RUN TIME: 0 days 0 hours 0 minutes 8 seconds 977 msec
