                         Program Version 5.0.0 -  RELEASE  -
|  1> !TPSS D3BJ RIJCOSX def2-SVPD def2/J TightSCF xyzfile
|  2>
|  3> *xyzfile 0 1 D.xyz
|  4>
|  5> %MaxCore 64000
|  6>
|  7> %pal nprocs 4
|  8> end
|  9>
| 10> %scf
| 11>   MaxIter 150
| 12> end
| 13>
| 14>
| 15>                          ****END OF INPUT****

CARTESIAN COORDINATES (ANGSTROEM)
---------------------------------
  C     -0.701686    4.072499   -4.003920
  C      0.680528    4.614820   -4.048005
  C      1.444422    5.266576   -0.975463
  F      1.565248    4.233493   -1.864885
  H      0.699926    5.584890   -4.388272
  H      1.278044    4.055977   -4.668235
  H      1.085729    4.533581   -3.106524
  C     -1.703475    5.093197   -3.477396
  H     -0.995895    3.740394   -5.000654
  H     -0.643580    3.201910   -3.351533
  C     -1.313997    5.785995   -2.169271
  H     -1.877057    5.850103   -4.251154
  H     -2.653264    4.564475   -3.354796
  H     -2.097137    6.509395   -1.929558
  H     -0.416875    6.387594   -2.339097
  C     -1.073895    4.844728   -0.979904
  H     -1.968893    4.809608   -0.352568
  C      0.148120    5.210874   -0.138092
  H     -0.909754    3.827531   -1.338975
  H      1.474250    6.264638   -1.476917
  H      2.289622    5.303267   -0.264450
  H      0.261827    4.450942    0.640711
  H     -0.002516    6.171031    0.371483

 Total Charge           Charge          ....    0
 Multiplicity           Mult            ....    1
 Number of Electrons    NEL             ....   66
 Basis Dimension        Dim             ....  283

ORBITAL ENERGIES
----------------

  NO   OCC          E(Eh)            E(eV)
   0   2.0000     -24.435941      -664.9358
   1   2.0000     -10.087730      -274.5011
   2   2.0000     -10.011500      -272.4268
   3   2.0000      -9.997405      -272.0432
   4   2.0000      -9.991010      -271.8692
   5   2.0000      -9.983955      -271.6772
   6   2.0000      -9.971570      -271.3402
   7   2.0000      -9.920190      -269.9421
   8   2.0000      -1.139537       -31.0084
   9   2.0000      -0.749199       -20.3867
  10   2.0000      -0.720006       -19.5924
  11   2.0000      -0.662785       -18.0353
  12   2.0000      -0.632057       -17.1992
  13   2.0000      -0.575301       -15.6547
  14   2.0000      -0.544262       -14.8101
  15   2.0000      -0.492970       -13.4144
  16   2.0000      -0.487385       -13.2624
  17   2.0000      -0.471271       -12.8239
  18   2.0000      -0.445814       -12.1312
  19   2.0000      -0.415795       -11.3144
  20   2.0000      -0.408356       -11.1119
  21   2.0000      -0.388331       -10.5670
  22   2.0000      -0.372031       -10.1235
  23   2.0000      -0.349340        -9.5060
  24   2.0000      -0.343660        -9.3515
  25   2.0000      -0.330474        -8.9926
  26   2.0000      -0.319865        -8.7040
  27   2.0000      -0.305215        -8.3053
  28   2.0000      -0.293391        -7.9836
  29   2.0000      -0.279645        -7.6095
  30   2.0000      -0.269056        -7.3214
  31   2.0000      -0.266887        -7.2624
  32   2.0000      -0.239673        -6.5218
  33   0.0000       0.008150         0.2218
  34   0.0000       0.022232         0.6050
  35   0.0000       0.028825         0.7844
  36   0.0000       0.037268         1.0141
  37   0.0000       0.050303         1.3688

MULLIKEN ATOMIC CHARGES
-----------------------
   0 C :   -0.272210
   1 C :    2.560021
   2 C :    0.706914
   3 F :   -0.598018
   4 H :   -0.152409
   5 H :    0.041374
   6 H :   -1.933628
   7 C :    0.235121
   8 H :   -0.345121
   9 H :    0.097663
  10 C :   -0.051906
  11 H :    0.125348
  12 H :   -0.112088
  13 H :   -0.182614
  14 H :    0.021820
  15 C :    0.128068
  16 H :   -0.218122
  17 C :    0.041619
  18 H :    0.076290
  19 H :    0.250200
  20 H :   -0.334251
  21 H :   -0.005964
  22 H :   -0.078107
Sum of atomic charges:   -0.0000000

LOEWDIN ATOMIC CHARGES
----------------------
   0 C :   -0.049859
   1 C :    0.151085
   2 C :    0.157744
   3 F :   -0.170286
   4 H :   -0.027719
   5 H :   -0.029051
   6 H :   -0.174862
   7 C :   -0.026222
   8 H :    0.013811
   9 H :    0.007355
  10 C :   -0.008619
  11 H :    0.020771
  12 H :    0.013666
  13 H :    0.014045
  14 H :   -0.007547
  15 C :   -0.008116
  16 H :    0.017423
  17 C :   -0.004186
  18 H :    0.003433
  19 H :    0.033011
  20 H :    0.027637
  21 H :    0.017807
  22 H :    0.028680

  Mayer bond orders larger than 0.100000
B(  0-C ,  1-C ) :   0.7634 B(  0-C ,  4-H ) :   0.3319 B(  0-C ,  5-H ) :   0.1591
B(  0-C ,  6-H ) :   0.7271 B(  0-C ,  7-C ) :   1.1741 B(  0-C ,  8-H ) :   1.0533
B(  0-C ,  9-H ) :   0.7428 B(  0-C , 10-C ) :   0.1101 B(  0-C , 11-H ) :   0.1352
B(  0-C , 12-H ) :   0.1664 B(  1-C ,  3-F ) :  -0.2788 B(  1-C ,  5-H ) :   0.6328
B(  1-C ,  6-H ) :  -2.7982 B(  1-C ,  9-H ) :   0.2153 B(  2-C ,  3-F ) :   0.6128
B(  2-C ,  6-H ) :   0.1680 B(  2-C , 17-C ) :   1.2411 B(  2-C , 19-H ) :   0.7476
B(  2-C , 20-H ) :   1.0016 B(  3-F ,  6-H ) :   0.4791 B(  4-H ,  5-H ) :  -0.2149
B(  4-H ,  6-H ) :   0.7531 B(  4-H ,  8-H ) :   0.1978 B(  5-H ,  6-H ) :   0.2146
B(  5-H ,  8-H ) :  -0.1180 B(  7-C ,  9-H ) :   0.1636 B(  7-C , 10-C ) :   1.2652
B(  7-C , 11-H ) :   0.7008 B(  7-C , 12-H ) :   0.8781 B(  7-C , 13-H ) :   0.1491
B(  7-C , 14-H ) :   0.1335 B(  8-H ,  9-H ) :  -0.1885 B(  9-H , 18-H ) :   0.1041
B( 10-C , 11-H ) :   0.1834 B( 10-C , 12-H ) :   0.1412 B( 10-C , 13-H ) :   0.8195
B( 10-C , 14-H ) :   0.8725 B( 10-C , 15-C ) :   1.1907 B( 10-C , 16-H ) :   0.2042
B( 10-C , 18-H ) :   0.1009 B( 13-H , 15-C ) :   0.1433 B( 14-H , 15-C ) :   0.1068
B( 15-C , 16-H ) :   0.8658 B( 15-C , 17-C ) :   1.2441 B( 15-C , 18-H ) :   0.8313
B( 15-C , 21-H ) :   0.1844 B( 17-C , 18-H ) :   0.1006 B( 17-C , 20-H ) :   0.1718
B( 17-C , 21-H ) :   0.7577 B( 17-C , 22-H ) :   0.9226

Dispersion correction           -0.026490199
FINAL SINGLE POINT ENERGY      -375.386222815454

DIPOLE MOMENT
-------------
                                X             Y             Z
Electronic contribution:      5.12490      -2.28263       2.76298
Nuclear contribution   :     -5.08831       2.68947      -1.99048
                        -----------------------------------------
Total Dipole Moment    :      0.03659       0.40684       0.77251
                        -----------------------------------------
Magnitude (a.u.)       :      0.87386
Magnitude (Debye)      :      2.22117

Rotational constants in cm-1:     0.084646     0.055672     0.038419
Rotational constants in MHz :  2537.625105  1668.992890  1151.781380

                             ****ORCA TERMINATED NORMALLY****
TOTAL RUN TIME: 0 days 0 hours 0 minutes 31 seconds 406 msec
