                         Program Version 5.0.0 -  RELEASE  -
|  1> !LC-PBE RIJCOSX def2-SVPD def2/J TightSCF
|  2> *xyz -1 1
|  3> C          0.61188        1.65763       -4.50029
|  4> C          1.69499        1.54179       -5.57045
|  5> H          2.69733        1.73466       -5.18400
|  6> H          1.50666        2.27224       -6.35808
|  7> S          1.78029       -0.03313       -6.42874
|  8> O          2.56929        0.21366       -7.60736
|  9> O          0.41688       -0.46297       -6.61859
| 10> C          0.68036        0.65542       -3.34804
| 11> H         -0.35687        1.54923       -4.99113
| 12> H          0.65023        2.67544       -4.09600
| 13> O          2.50513       -0.93326       -5.48257
| 14> H          0.64318       -0.34009       -3.73853
| 15> H         -0.14865        0.81153       -2.68980
| 16> H          1.59447        0.79330       -2.80925
| 17> *
| 18> %MaxCore 64000
| 19>
| 20> %pal nprocs 8
| 21> end
| 22>
| 23> %scf
| 24>   MaxIter 150
| 25> end
| 26>
| 27>
| 28>                          ****END OF INPUT****

CARTESIAN COORDINATES (ANGSTROEM)
---------------------------------
  C      0.611880    1.657630   -4.500290
  C      1.694990    1.541790   -5.570450
  H      2.697330    1.734660   -5.184000
  H      1.506660    2.272240   -6.358080
  S      1.780290   -0.033130   -6.428740
  O      2.569290    0.213660   -7.607360
  O      0.416880   -0.462970   -6.618590
  C      0.680360    0.655420   -3.348040
  H     -0.356870    1.549230   -4.991130
  H      0.650230    2.675440   -4.096000
  O      2.505130   -0.933260   -5.482570
  H      0.643180   -0.340090   -3.738530
  H     -0.148650    0.811530   -2.689800
  H      1.594470    0.793300   -2.809250

 Total Charge           Charge          ....   -1
 Multiplicity           Mult            ....    1
 Number of Electrons    NEL             ....   66
 Basis Dimension        Dim             ....  212

ORBITAL ENERGIES
----------------

  NO   OCC          E(Eh)            E(eV)
   0   2.0000     -88.316747     -2403.2209
   1   2.0000     -18.779915      -511.0275
   2   2.0000     -18.778411      -510.9866
   3   2.0000     -18.759125      -510.4618
   4   2.0000     -10.001322      -272.1498
   5   2.0000      -9.995136      -271.9815
   6   2.0000      -9.979043      -271.5436
   7   2.0000      -7.938580      -216.0197
   8   2.0000      -5.960968      -162.2062
   9   2.0000      -5.960747      -162.2002
  10   2.0000      -5.960491      -162.1932
  11   2.0000      -1.113441       -30.2983
  12   2.0000      -0.962612       -26.1940
  13   2.0000      -0.928198       -25.2575
  14   2.0000      -0.833953       -22.6930
  15   2.0000      -0.736883       -20.0516
  16   2.0000      -0.631367       -17.1804
  17   2.0000      -0.534962       -14.5571
  18   2.0000      -0.485121       -13.2008
  19   2.0000      -0.468351       -12.7445
  20   2.0000      -0.446387       -12.1468
  21   2.0000      -0.428983       -11.6732
  22   2.0000      -0.411556       -11.1990
  23   2.0000      -0.397949       -10.8287
  24   2.0000      -0.358679        -9.7602
  25   2.0000      -0.351428        -9.5629
  26   2.0000      -0.332565        -9.0495
  27   2.0000      -0.297565        -8.0971
  28   2.0000      -0.294905        -8.0248
  29   2.0000      -0.259098        -7.0504
  30   2.0000      -0.244116        -6.6427
  31   2.0000      -0.230229        -6.2649
  32   2.0000      -0.200232        -5.4486
  33   0.0000       0.200734         5.4623
  34   0.0000       0.219400         5.9702
  35   0.0000       0.223306         6.0765
  36   0.0000       0.230099         6.2613
  37   0.0000       0.249988         6.8025

MULLIKEN ATOMIC CHARGES
-----------------------
   0 C :   -0.396871
   1 C :   -0.144807
   2 H :    0.066384
   3 H :    0.079859
   4 S :    1.185602
   5 O :   -0.765969
   6 O :   -0.758730
   7 C :    0.538128
   8 H :    0.073044
   9 H :   -0.067337
  10 O :   -0.799022
  11 H :   -0.017211
  12 H :   -0.010216
  13 H :    0.017145
Sum of atomic charges:   -1.0000000

LOEWDIN ATOMIC CHARGES
----------------------
   0 C :   -0.119310
   1 C :   -0.119267
   2 H :    0.023283
   3 H :    0.014845
   4 S :    0.836210
   5 O :   -0.567739
   6 O :   -0.562392
   7 C :    0.090028
   8 H :    0.025130
   9 H :    0.019411
  10 O :   -0.596580
  11 H :   -0.016565
  12 H :   -0.019991
  13 H :   -0.007062

  Mayer bond orders larger than 0.100000
B(  0-C ,  1-C ) :   1.2494 B(  0-C ,  2-H ) :   0.1138 B(  0-C ,  3-H ) :   0.1183
B(  0-C ,  7-C ) :   1.2772 B(  0-C ,  8-H ) :   0.9190 B(  0-C ,  9-H ) :   0.9401
B(  0-C , 11-H ) :   0.1899 B(  0-C , 12-H ) :   0.1703 B(  0-C , 13-H ) :   0.1849
B(  1-C ,  2-H ) :   0.9483 B(  1-C ,  3-H ) :   0.9246 B(  1-C ,  4-S ) :   0.9496
B(  1-C ,  8-H ) :   0.1183 B(  1-C ,  9-H ) :   0.1138 B(  4-S ,  5-O ) :   1.4062
B(  4-S ,  6-O ) :   1.3280 B(  4-S , 10-O ) :   1.2841 B(  7-C , 11-H ) :   0.8567
B(  7-C , 12-H ) :   0.8027 B(  7-C , 13-H ) :   0.7987

FINAL SINGLE POINT ENERGY      -740.726029004573

DIPOLE MOMENT
-------------
                                X             Y             Z
Electronic contribution:      3.15354      -5.15642      -8.54798
Nuclear contribution   :     -3.81113       6.97418       9.97106
                        -----------------------------------------
Total Dipole Moment    :     -0.65759       1.81776       1.42308
                        -----------------------------------------
Magnitude (a.u.)       :      2.40039
Magnitude (Debye)      :      6.10129

Rotational constants in cm-1:     0.136135     0.055477     0.052562
Rotational constants in MHz :  4081.221574  1663.170947  1575.772362

                             ****ORCA TERMINATED NORMALLY****
TOTAL RUN TIME: 0 days 0 hours 0 minutes 14 seconds 664 msec
