                         Program Version 5.0.0 -  RELEASE  -
|  1> !LC-PBE RIJCOSX def2-SVPD def2/J TightSCF
|  2> *xyz 1 1
|  3> C          1.96337       -1.74915       -1.89689
|  4> N          2.73849       -2.01517       -3.09711
|  5> C          4.04974       -2.15472       -3.15204
|  6> N          4.65821       -1.98629       -4.31866
|  7> N          4.76423       -2.45444       -2.05049
|  8> H          4.28736       -2.77626       -1.21750
|  9> H          5.75082       -2.65835       -2.12599
| 10> H          2.34518       -1.69027       -3.97145
| 11> H          4.10900       -1.59268       -5.07176
| 12> H          5.64910       -2.15646       -4.42724
| 13> C          2.08852       -0.30091       -1.41520
| 14> H          2.23127       -2.45162       -1.10264
| 15> H          0.93025       -1.97780       -2.15544
| 16> C          1.96899        0.73358       -2.53565
| 17> H          3.05136       -0.16860       -0.91187
| 18> H          1.31650       -0.13623       -0.65725
| 19> H          2.73046        0.55745       -3.26643
| 20> H          2.08619        1.71595       -2.12808
| 21> H          1.00672        0.65098       -2.99620
| 22> *
| 23> %MaxCore 64000
| 24>
| 25> %pal nprocs 8
| 26> end
| 27>
| 28> %scf
| 29>   MaxIter 150
| 30> end
| 31>
| 32>
| 33>                          ****END OF INPUT****

CARTESIAN COORDINATES (ANGSTROEM)
---------------------------------
  C      1.963370   -1.749150   -1.896890
  N      2.738490   -2.015170   -3.097110
  C      4.049740   -2.154720   -3.152040
  N      4.658210   -1.986290   -4.318660
  N      4.764230   -2.454440   -2.050490
  H      4.287360   -2.776260   -1.217500
  H      5.750820   -2.658350   -2.125990
  H      2.345180   -1.690270   -3.971450
  H      4.109000   -1.592680   -5.071760
  H      5.649100   -2.156460   -4.427240
  C      2.088520   -0.300910   -1.415200
  H      2.231270   -2.451620   -1.102640
  H      0.930250   -1.977800   -2.155440
  C      1.968990    0.733580   -2.535650
  H      3.051360   -0.168600   -0.911870
  H      1.316500   -0.136230   -0.657250
  H      2.730460    0.557450   -3.266430
  H      2.086190    1.715950   -2.128080
  H      1.006720    0.650980   -2.996200

 Total Charge           Charge          ....    1
 Multiplicity           Mult            ....    1
 Number of Electrons    NEL             ....   56
 Basis Dimension        Dim             ....  236

ORBITAL ENERGIES
----------------

  NO   OCC          E(Eh)            E(eV)
   0   2.0000     -14.454769      -393.3342
   1   2.0000     -14.453705      -393.3053
   2   2.0000     -14.451675      -393.2501
   3   2.0000     -10.471717      -284.9499
   4   2.0000     -10.330779      -281.1148
   5   2.0000     -10.270470      -279.4737
   6   2.0000     -10.245741      -278.8008
   7   2.0000      -1.390448       -37.8360
   8   2.0000      -1.269985       -34.5581
   9   2.0000      -1.254588       -34.1391
  10   2.0000      -1.110891       -30.2289
  11   2.0000      -1.029157       -28.0048
  12   2.0000      -0.981104       -26.6972
  13   2.0000      -0.938363       -25.5342
  14   2.0000      -0.923743       -25.1363
  15   2.0000      -0.876665       -23.8553
  16   2.0000      -0.837807       -22.7979
  17   2.0000      -0.826776       -22.4977
  18   2.0000      -0.809394       -22.0247
  19   2.0000      -0.772208       -21.0129
  20   2.0000      -0.743982       -20.2448
  21   2.0000      -0.729666       -19.8552
  22   2.0000      -0.685603       -18.6562
  23   2.0000      -0.640281       -17.4229
  24   2.0000      -0.625929       -17.0324
  25   2.0000      -0.615343       -16.7443
  26   2.0000      -0.602699       -16.4003
  27   2.0000      -0.573309       -15.6005
  28   0.0000      -0.078994        -2.1495
  29   0.0000      -0.073199        -1.9918
  30   0.0000      -0.043470        -1.1829
  31   0.0000      -0.032103        -0.8736
  32   0.0000      -0.004624        -0.1258

MULLIKEN ATOMIC CHARGES
-----------------------
   0 C :    0.534090
   1 N :   -0.453909
   2 C :    1.327745
   3 N :   -0.189586
   4 N :   -0.073585
   5 H :    0.014751
   6 H :   -0.096583
   7 H :   -0.063556
   8 H :    0.059371
   9 H :   -0.044270
  10 C :   -0.424383
  11 H :   -0.029876
  12 H :   -0.132409
  13 C :    0.525337
  14 H :    0.054944
  15 H :    0.010948
  16 H :   -0.101246
  17 H :    0.018437
  18 H :    0.063780
Sum of atomic charges:    1.0000000

LOEWDIN ATOMIC CHARGES
----------------------
   0 C :    0.051344
   1 N :    0.035115
   2 C :   -0.034540
   3 N :    0.250579
   4 N :    0.266116
   5 H :    0.030351
   6 H :    0.045031
   7 H :    0.060537
   8 H :    0.046634
   9 H :    0.052137
  10 C :   -0.070749
  11 H :    0.037983
  12 H :    0.053851
  13 C :    0.103573
  14 H :    0.032250
  15 H :    0.048075
  16 H :   -0.023110
  17 H :    0.009669
  18 H :    0.005155

  Mayer bond orders larger than 0.100000
B(  0-C ,  1-N ) :   0.9924 B(  0-C ,  2-C ) :  -0.1015 B(  0-C ,  7-H ) :  -0.1320
B(  0-C , 10-C ) :   1.0940 B(  0-C , 11-H ) :   0.9283 B(  0-C , 12-H ) :   0.8179
B(  1-N ,  2-C ) :   1.0740 B(  1-N ,  3-N ) :   0.3068 B(  1-N ,  4-N ) :   0.1910
B(  1-N ,  7-H ) :   1.2036 B(  1-N , 11-H ) :   0.1061 B(  1-N , 12-H ) :   0.2273
B(  2-C ,  3-N ) :   0.7702 B(  2-C ,  4-N ) :   0.9476 B(  2-C ,  5-H ) :  -0.1090
B(  2-C ,  6-H ) :  -0.1563 B(  2-C ,  7-H ) :  -0.1931 B(  2-C ,  8-H ) :  -0.1358
B(  2-C ,  9-H ) :  -0.1584 B(  3-N ,  4-N ) :   0.1549 B(  3-N ,  8-H ) :   1.1171
B(  3-N ,  9-H ) :   1.2744 B(  4-N ,  5-H ) :   1.0679 B(  4-N ,  6-H ) :   1.2774
B(  5-H ,  6-H ) :  -0.1967 B(  8-H ,  9-H ) :  -0.1687 B( 10-C , 12-H ) :   0.1105
B( 10-C , 13-C ) :   1.3042 B( 10-C , 14-H ) :   0.9632 B( 10-C , 15-H ) :   0.9793
B( 10-C , 16-H ) :   0.1686 B( 10-C , 17-H ) :   0.1647 B( 10-C , 18-H ) :   0.1656
B( 13-C , 16-H ) :   0.8725 B( 13-C , 17-H ) :   0.8451 B( 13-C , 18-H ) :   0.7993
B( 16-H , 18-H ) :   0.1046

FINAL SINGLE POINT ENERGY      -322.464063552116

DIPOLE MOMENT
-------------
                                X             Y             Z
Electronic contribution:      3.89699      -4.90289      -2.32438
Nuclear contribution   :     -2.72963       4.05673       1.67650
                        -----------------------------------------
Total Dipole Moment    :      1.16737      -0.84615      -0.64788
                        -----------------------------------------
Magnitude (a.u.)       :      1.58066
Magnitude (Debye)      :      4.01771

Rotational constants in cm-1:     0.140891     0.054763     0.048590
Rotational constants in MHz :  4223.814968  1641.764475  1456.690885

                             ****ORCA TERMINATED NORMALLY****
TOTAL RUN TIME: 0 days 0 hours 0 minutes 20 seconds 931 msec
