                         Program Version 5.0.0 -  RELEASE  -
|  1> !LC-PBE RIJCOSX def2-SVPD def2/J TightSCF
|  2> *xyz 0 1
|  3> C          0.61188        1.65763       -4.50029
|  4> C          1.69499        1.54179       -5.57045
|  5> H          2.69733        1.73466       -5.18400
|  6> H          1.50666        2.27224       -6.35808
|  7> S          1.78029       -0.03313       -6.42874
|  8> F          2.56929        0.21366       -7.60736
|  9> O          0.41688       -0.46297       -6.61859
| 10> C          0.68036        0.65542       -3.34804
| 11> H         -0.35687        1.54923       -4.99113
| 12> H          0.65023        2.67544       -4.09600
| 13> O          2.50513       -0.93326       -5.48257
| 14> H          0.64318       -0.34009       -3.73853
| 15> H         -0.14865        0.81153       -2.68980
| 16> H          1.59447        0.79330       -2.80925
| 17> *
| 18> %MaxCore 64000
| 19>
| 20> %pal nprocs 8
| 21> end
| 22>
| 23> %scf
| 24>   MaxIter 150
| 25> end
| 26>
| 27>
| 28>                          ****END OF INPUT****

CARTESIAN COORDINATES (ANGSTROEM)
---------------------------------
  C      0.611880    1.657630   -4.500290
  C      1.694990    1.541790   -5.570450
  H      2.697330    1.734660   -5.184000
  H      1.506660    2.272240   -6.358080
  S      1.780290   -0.033130   -6.428740
  F      2.569290    0.213660   -7.607360
  O      0.416880   -0.462970   -6.618590
  C      0.680360    0.655420   -3.348040
  H     -0.356870    1.549230   -4.991130
  H      0.650230    2.675440   -4.096000
  O      2.505130   -0.933260   -5.482570
  H      0.643180   -0.340090   -3.738530
  H     -0.148650    0.811530   -2.689800
  H      1.594470    0.793300   -2.809250

 Total Charge           Charge          ....    0
 Multiplicity           Mult            ....    1
 Number of Electrons    NEL             ....   66
 Basis Dimension        Dim             ....  212

ORBITAL ENERGIES
----------------

  NO   OCC          E(Eh)            E(eV)
   0   2.0000     -88.576360     -2410.2853
   1   2.0000     -24.634699      -670.3443
   2   2.0000     -19.012767      -517.3637
   3   2.0000     -18.992002      -516.7986
   4   2.0000     -10.195530      -277.4345
   5   2.0000     -10.159044      -276.4417
   6   2.0000     -10.117811      -275.3196
   7   2.0000      -8.199083      -223.1084
   8   2.0000      -6.226119      -169.4213
   9   2.0000      -6.218920      -169.2254
  10   2.0000      -6.217604      -169.1896
  11   2.0000      -1.546443       -42.0809
  12   2.0000      -1.282590       -34.9010
  13   2.0000      -1.164876       -31.6979
  14   2.0000      -1.009846       -27.4793
  15   2.0000      -0.927516       -25.2390
  16   2.0000      -0.872457       -23.7408
  17   2.0000      -0.800016       -21.7695
  18   2.0000      -0.751096       -20.4384
  19   2.0000      -0.738406       -20.0931
  20   2.0000      -0.709452       -19.3052
  21   2.0000      -0.645189       -17.5565
  22   2.0000      -0.634516       -17.2661
  23   2.0000      -0.602439       -16.3932
  24   2.0000      -0.593050       -16.1377
  25   2.0000      -0.567506       -15.4426
  26   2.0000      -0.533355       -14.5133
  27   2.0000      -0.511172       -13.9097
  28   2.0000      -0.505304       -13.7500
  29   2.0000      -0.486074       -13.2267
  30   2.0000      -0.474016       -12.8986
  31   2.0000      -0.448798       -12.2124
  32   2.0000      -0.441532       -12.0147
  33   0.0000       0.062351         1.6966
  34   0.0000       0.084547         2.3006
  35   0.0000       0.090014         2.4494
  36   0.0000       0.097029         2.6403
  37   0.0000       0.117720         3.2033

MULLIKEN ATOMIC CHARGES
-----------------------
   0 C :   -0.411582
   1 C :   -0.191128
   2 H :    0.123018
   3 H :    0.139939
   4 S :    1.389218
   5 F :   -0.389834
   6 O :   -0.619361
   7 C :    0.537680
   8 H :    0.092595
   9 H :   -0.026415
  10 O :   -0.664544
  11 H :   -0.034318
  12 H :    0.020069
  13 H :    0.034663
Sum of atomic charges:    0.0000000

LOEWDIN ATOMIC CHARGES
----------------------
   0 C :   -0.090110
   1 C :   -0.083288
   2 H :    0.040635
   3 H :    0.030442
   4 S :    1.099568
   5 F :   -0.239805
   6 O :   -0.455051
   7 C :    0.110901
   8 H :    0.038103
   9 H :    0.044470
  10 O :   -0.487645
  11 H :   -0.012108
  12 H :   -0.000112
  13 H :    0.004001

  Mayer bond orders larger than 0.100000
B(  0-C ,  1-C ) :   1.2990 B(  0-C ,  2-H ) :   0.1090 B(  0-C ,  3-H ) :   0.1283
B(  0-C ,  7-C ) :   1.2923 B(  0-C ,  8-H ) :   0.9134 B(  0-C ,  9-H ) :   0.9422
B(  0-C , 11-H ) :   0.1741 B(  0-C , 12-H ) :   0.1636 B(  0-C , 13-H ) :   0.1781
B(  1-C ,  2-H ) :   0.9396 B(  1-C ,  3-H ) :   0.8713 B(  1-C ,  4-S ) :   0.9818
B(  1-C ,  8-H ) :   0.1144 B(  1-C ,  9-H ) :   0.1056 B(  4-S ,  5-F ) :   0.7390
B(  4-S ,  6-O ) :   1.5367 B(  4-S , 10-O ) :   1.4849 B(  7-C , 11-H ) :   0.8643
B(  7-C , 12-H ) :   0.8073 B(  7-C , 13-H ) :   0.8010

FINAL SINGLE POINT ENERGY      -765.177696409595

DIPOLE MOMENT
-------------
                                X             Y             Z
Electronic contribution:      5.12094      -5.32068     -11.98995
Nuclear contribution   :     -4.93724       7.05784      11.92827
                        -----------------------------------------
Total Dipole Moment    :      0.18370       1.73716      -0.06168
                        -----------------------------------------
Magnitude (a.u.)       :      1.74793
Magnitude (Debye)      :      4.44289

Rotational constants in cm-1:     0.134572     0.053398     0.050578
Rotational constants in MHz :  4034.377338  1600.833917  1516.302250

                             ****ORCA TERMINATED NORMALLY****
TOTAL RUN TIME: 0 days 0 hours 0 minutes 16 seconds 85 msec
