                         Program Version 5.0.0 -  RELEASE  -
|  1> !LC-PBE RIJCOSX def2-SVPD def2/J TightSCF
|  2> *xyz 0 1
|  3> C          1.96337       -1.74915       -1.89689
|  4> C          2.73849       -2.01517       -3.09711
|  5> C          4.04974       -2.15472       -3.15204
|  6> N          4.65821       -1.98629       -4.31866
|  7> N          4.76423       -2.45444       -2.05049
|  8> H          4.28736       -2.77626       -1.21750
|  9> H          5.75082       -2.65835       -2.12599
| 10> H          2.34518       -1.69027       -3.97145
| 11> H          4.10900       -1.59268       -5.07176
| 12> H          5.64910       -2.15646       -4.42724
| 13> C          2.08852       -0.30091       -1.41520
| 14> H          2.23127       -2.45162       -1.10264
| 15> H          0.93025       -1.97780       -2.15544
| 16> C          1.96899        0.73358       -2.53565
| 17> H          3.05136       -0.16860       -0.91187
| 18> H          1.31650       -0.13623       -0.65725
| 19> H          2.73046        0.55745       -3.26643
| 20> H          2.08619        1.71595       -2.12808
| 21> H          1.00672        0.65098       -2.99620
| 22> *
| 23> %MaxCore 64000
| 24>
| 25> %pal nprocs 8
| 26> end
| 27>
| 28> %scf
| 29>   MaxIter 150
| 30> end
| 31>
| 32>
| 33>                          ****END OF INPUT****

CARTESIAN COORDINATES (ANGSTROEM)
---------------------------------
  C      1.963370   -1.749150   -1.896890
  C      2.738490   -2.015170   -3.097110
  C      4.049740   -2.154720   -3.152040
  N      4.658210   -1.986290   -4.318660
  N      4.764230   -2.454440   -2.050490
  H      4.287360   -2.776260   -1.217500
  H      5.750820   -2.658350   -2.125990
  H      2.345180   -1.690270   -3.971450
  H      4.109000   -1.592680   -5.071760
  H      5.649100   -2.156460   -4.427240
  C      2.088520   -0.300910   -1.415200
  H      2.231270   -2.451620   -1.102640
  H      0.930250   -1.977800   -2.155440
  C      1.968990    0.733580   -2.535650
  H      3.051360   -0.168600   -0.911870
  H      1.316500   -0.136230   -0.657250
  H      2.730460    0.557450   -3.266430
  H      2.086190    1.715950   -2.128080
  H      1.006720    0.650980   -2.996200

 Total Charge           Charge          ....    0
 Multiplicity           Mult            ....    1
 Number of Electrons    NEL             ....   56
 Basis Dimension        Dim             ....  236

ORBITAL ENERGIES
----------------

  NO   OCC          E(Eh)            E(eV)
   0   2.0000     -14.230842      -387.2409
   1   2.0000     -14.228989      -387.1905
   2   2.0000     -10.176294      -276.9110
   3   2.0000     -10.103582      -274.9324
   4   2.0000     -10.100553      -274.8500
   5   2.0000     -10.092078      -274.6194
   6   2.0000     -10.047263      -273.3999
   7   2.0000      -1.130660       -30.7668
   8   2.0000      -1.031594       -28.0711
   9   2.0000      -0.960087       -26.1253
  10   2.0000      -0.884674       -24.0732
  11   2.0000      -0.820326       -22.3222
  12   2.0000      -0.751391       -20.4464
  13   2.0000      -0.721866       -19.6430
  14   2.0000      -0.692952       -18.8562
  15   2.0000      -0.650488       -17.7007
  16   2.0000      -0.613991       -16.7075
  17   2.0000      -0.591676       -16.1003
  18   2.0000      -0.580427       -15.7942
  19   2.0000      -0.546879       -14.8813
  20   2.0000      -0.534588       -14.5469
  21   2.0000      -0.510097       -13.8804
  22   2.0000      -0.489642       -13.3238
  23   2.0000      -0.460892       -12.5415
  24   2.0000      -0.440212       -11.9788
  25   2.0000      -0.433579       -11.7983
  26   2.0000      -0.400540       -10.8992
  27   2.0000      -0.276602        -7.5267
  28   0.0000       0.087996         2.3945
  29   0.0000       0.112061         3.0493
  30   0.0000       0.113224         3.0810
  31   0.0000       0.128770         3.5040
  32   0.0000       0.142698         3.8830

MULLIKEN ATOMIC CHARGES
-----------------------
   0 C :    0.073690
   1 C :   -0.402948
   2 C :    0.786816
   3 N :   -0.132719
   4 N :   -0.140931
   5 H :    0.026697
   6 H :   -0.203655
   7 H :   -0.047799
   8 H :    0.073933
   9 H :   -0.157034
  10 C :   -0.383132
  11 H :   -0.022379
  12 H :    0.022549
  13 C :    0.506290
  14 H :    0.026417
  15 H :    0.008147
  16 H :   -0.087586
  17 H :    0.014690
  18 H :    0.038953
Sum of atomic charges:   -0.0000000

LOEWDIN ATOMIC CHARGES
----------------------
   0 C :   -0.086176
   1 C :   -0.070716
   2 C :   -0.224262
   3 N :    0.164376
   4 N :    0.185676
   5 H :    0.001483
   6 H :   -0.001401
   7 H :   -0.037909
   8 H :    0.015525
   9 H :    0.004277
  10 C :   -0.094564
  11 H :    0.015490
  12 H :    0.027108
  13 C :    0.087169
  14 H :    0.025037
  15 H :    0.024219
  16 H :   -0.019324
  17 H :   -0.011294
  18 H :   -0.004714

  Mayer bond orders larger than 0.100000
B(  0-C ,  1-C ) :   1.2693 B(  0-C ,  7-H ) :   0.2728 B(  0-C , 10-C ) :   1.1489
B(  0-C , 11-H ) :   0.8879 B(  0-C , 12-H ) :   0.7976 B(  0-C , 15-H ) :   0.1252
B(  1-C ,  2-C ) :   1.9001 B(  1-C ,  3-N ) :   0.2831 B(  1-C ,  4-N ) :   0.2279
B(  1-C ,  7-H ) :   0.7127 B(  1-C , 11-H ) :   0.1916 B(  1-C , 12-H ) :   0.2291
B(  2-C ,  3-N ) :   0.8449 B(  2-C ,  4-N ) :   0.8867 B(  2-C ,  6-H ) :  -0.1870
B(  2-C ,  7-H ) :   0.2645 B(  2-C ,  9-H ) :  -0.1356 B(  3-N ,  4-N ) :   0.1042
B(  3-N ,  8-H ) :   1.0943 B(  3-N ,  9-H ) :   1.3085 B(  4-N ,  5-H ) :   1.0394
B(  4-N ,  6-H ) :   1.3594 B(  5-H ,  6-H ) :  -0.1965 B(  8-H ,  9-H ) :  -0.1691
B( 10-C , 13-C ) :   1.2967 B( 10-C , 14-H ) :   0.9829 B( 10-C , 15-H ) :   0.9117
B( 10-C , 16-H ) :   0.2014 B( 10-C , 17-H ) :   0.1753 B( 10-C , 18-H ) :   0.1800
B( 13-C , 16-H ) :   0.8731 B( 13-C , 17-H ) :   0.8103 B( 13-C , 18-H ) :   0.7998

FINAL SINGLE POINT ENERGY      -306.010139755238

DIPOLE MOMENT
-------------
                                X             Y             Z
Electronic contribution:      3.82040      -4.06108      -1.71406
Nuclear contribution   :     -2.83106       3.92601       1.57906
                        -----------------------------------------
Total Dipole Moment    :      0.98934      -0.13507      -0.13500
                        -----------------------------------------
Magnitude (a.u.)       :      1.00760
Magnitude (Debye)      :      2.56112

Rotational constants in cm-1:     0.142679     0.055043     0.048600
Rotational constants in MHz :  4277.395781  1650.135877  1456.977167

                             ****ORCA TERMINATED NORMALLY****
TOTAL RUN TIME: 0 days 0 hours 0 minutes 21 seconds 905 msec
