                         Program Version 5.0.0 -  RELEASE  -
|  1> !LC-PBE RIJCOSX def2-SVPD def2/J TightSCF
|  2> *xyz 0 1
|  3> C          0.61188        1.65763       -4.50029
|  4> C          1.69499        1.54179       -5.57045
|  5> H          2.69733        1.73466       -5.18400
|  6> H          1.50666        2.27224       -6.35808
|  7> S          1.78029       -0.03313       -6.42874
|  8> O          2.56929        0.21366       -7.60736
|  9> F          0.41688       -0.46297       -6.61859
| 10> C          0.68036        0.65542       -3.34804
| 11> H         -0.35687        1.54923       -4.99113
| 12> H          0.65023        2.67544       -4.09600
| 13> O          2.50513       -0.93326       -5.48257
| 14> H          0.64318       -0.34009       -3.73853
| 15> H         -0.14865        0.81153       -2.68980
| 16> H          1.59447        0.79330       -2.80925
| 17> *
| 18> %MaxCore 64000
| 19>
| 20> %pal nprocs 8
| 21> end
| 22>
| 23> %scf
| 24>   MaxIter 150
| 25> end
| 26>
| 27>
| 28>                          ****END OF INPUT****

CARTESIAN COORDINATES (ANGSTROEM)
---------------------------------
  C      0.611880    1.657630   -4.500290
  C      1.694990    1.541790   -5.570450
  H      2.697330    1.734660   -5.184000
  H      1.506660    2.272240   -6.358080
  S      1.780290   -0.033130   -6.428740
  O      2.569290    0.213660   -7.607360
  F      0.416880   -0.462970   -6.618590
  C      0.680360    0.655420   -3.348040
  H     -0.356870    1.549230   -4.991130
  H      0.650230    2.675440   -4.096000
  O      2.505130   -0.933260   -5.482570
  H      0.643180   -0.340090   -3.738530
  H     -0.148650    0.811530   -2.689800
  H      1.594470    0.793300   -2.809250

 Total Charge           Charge          ....    0
 Multiplicity           Mult            ....    1
 Number of Electrons    NEL             ....   66
 Basis Dimension        Dim             ....  212

ORBITAL ENERGIES
----------------

  NO   OCC          E(Eh)            E(eV)
   0   2.0000     -88.575781     -2410.2695
   1   2.0000     -24.634275      -670.3327
   2   2.0000     -19.011554      -517.3307
   3   2.0000     -18.991246      -516.7781
   4   2.0000     -10.195139      -277.4238
   5   2.0000     -10.165057      -276.6053
   6   2.0000     -10.127412      -275.5809
   7   2.0000      -8.198475      -223.0919
   8   2.0000      -6.225725      -169.4106
   9   2.0000      -6.218193      -169.2056
  10   2.0000      -6.216918      -169.1710
  11   2.0000      -1.544688       -42.0331
  12   2.0000      -1.282912       -34.9098
  13   2.0000      -1.164173       -31.6788
  14   2.0000      -1.015523       -27.6338
  15   2.0000      -0.925237       -25.1770
  16   2.0000      -0.877226       -23.8705
  17   2.0000      -0.802371       -21.8336
  18   2.0000      -0.756619       -20.5886
  19   2.0000      -0.749300       -20.3895
  20   2.0000      -0.696023       -18.9398
  21   2.0000      -0.644433       -17.5359
  22   2.0000      -0.634506       -17.2658
  23   2.0000      -0.611441       -16.6382
  24   2.0000      -0.589373       -16.0377
  25   2.0000      -0.576684       -15.6924
  26   2.0000      -0.534709       -14.5502
  27   2.0000      -0.521590       -14.1932
  28   2.0000      -0.515312       -14.0224
  29   2.0000      -0.494600       -13.4587
  30   2.0000      -0.468351       -12.7445
  31   2.0000      -0.451064       -12.2741
  32   2.0000      -0.438667       -11.9367
  33   0.0000       0.061030         1.6607
  34   0.0000       0.085395         2.3237
  35   0.0000       0.093225         2.5368
  36   0.0000       0.093439         2.5426
  37   0.0000       0.117408         3.1948

MULLIKEN ATOMIC CHARGES
-----------------------
   0 C :   -0.385060
   1 C :   -0.175274
   2 H :    0.122010
   3 H :    0.129981
   4 S :    1.341196
   5 O :   -0.618003
   6 F :   -0.364411
   7 C :    0.558610
   8 H :    0.065815
   9 H :   -0.030342
  10 O :   -0.660390
  11 H :   -0.047800
  12 H :    0.021880
  13 H :    0.041788
Sum of atomic charges:    0.0000000

LOEWDIN ATOMIC CHARGES
----------------------
   0 C :   -0.104424
   1 C :   -0.071083
   2 H :    0.052759
   3 H :    0.034178
   4 S :    1.095198
   5 O :   -0.455845
   6 F :   -0.236926
   7 C :    0.107086
   8 H :    0.032805
   9 H :    0.043206
  10 O :   -0.485873
  11 H :   -0.017898
  12 H :   -0.000305
  13 H :    0.007123

  Mayer bond orders larger than 0.100000
B(  0-C ,  1-C ) :   1.2339 B(  0-C ,  2-H ) :   0.1103 B(  0-C ,  3-H ) :   0.1156
B(  0-C ,  7-C ) :   1.2954 B(  0-C ,  8-H ) :   0.9220 B(  0-C ,  9-H ) :   0.9455
B(  0-C , 11-H ) :   0.1771 B(  0-C , 12-H ) :   0.1633 B(  0-C , 13-H ) :   0.1834
B(  1-C ,  2-H ) :   0.9339 B(  1-C ,  3-H ) :   0.9233 B(  1-C ,  4-S ) :   1.0178
B(  1-C ,  8-H ) :   0.1058 B(  1-C ,  9-H ) :   0.1046 B(  4-S ,  5-O ) :   1.6204
B(  4-S ,  6-F ) :   0.7094 B(  4-S , 10-O ) :   1.5107 B(  7-C , 11-H ) :   0.8561
B(  7-C , 12-H ) :   0.8084 B(  7-C , 13-H ) :   0.8013 B( 11-H , 13-H ) :   0.1002

FINAL SINGLE POINT ENERGY      -765.177119938726

DIPOLE MOMENT
-------------
                                X             Y             Z
Electronic contribution:      1.38360      -6.47033     -10.20914
Nuclear contribution   :     -2.62245       7.78551      10.86491
                        -----------------------------------------
Total Dipole Moment    :     -1.23885       1.31518       0.65577
                        -----------------------------------------
Magnitude (a.u.)       :      1.92211
Magnitude (Debye)      :      4.88560

Rotational constants in cm-1:     0.129509     0.054228     0.052367
Rotational constants in MHz :  3882.596420  1625.701900  1569.934536

                             ****ORCA TERMINATED NORMALLY****
TOTAL RUN TIME: 0 days 0 hours 0 minutes 16 seconds 45 msec
