                         Program Version 5.0.0 -  RELEASE  -
|  1> !LC-PBE RIJCOSX def2-SVPD def2/J TightSCF
|  2> *xyz 0 1
|  3> C          1.96337       -1.74915       -1.89689
|  4> N          2.73849       -2.01517       -3.09711
|  5> C          4.04974       -2.15472       -3.15204
|  6> C          4.65821       -1.98629       -4.31866
|  7> N          4.76423       -2.45444       -2.05049
|  8> H          4.28736       -2.77626       -1.21750
|  9> H          5.75082       -2.65835       -2.12599
| 10> H          2.34518       -1.69027       -3.97145
| 11> H          4.10900       -1.59268       -5.07176
| 12> H          5.64910       -2.15646       -4.42724
| 13> C          2.08852       -0.30091       -1.41520
| 14> H          2.23127       -2.45162       -1.10264
| 15> H          0.93025       -1.97780       -2.15544
| 16> C          1.96899        0.73358       -2.53565
| 17> H          3.05136       -0.16860       -0.91187
| 18> H          1.31650       -0.13623       -0.65725
| 19> H          2.73046        0.55745       -3.26643
| 20> H          2.08619        1.71595       -2.12808
| 21> H          1.00672        0.65098       -2.99620
| 22> *
| 23> %MaxCore 64000
| 24>
| 25> %pal nprocs 8
| 26> end
| 27>
| 28> %scf
| 29>   MaxIter 150
| 30> end
| 31>
| 32>
| 33>                          ****END OF INPUT****

CARTESIAN COORDINATES (ANGSTROEM)
---------------------------------
  C      1.963370   -1.749150   -1.896890
  N      2.738490   -2.015170   -3.097110
  C      4.049740   -2.154720   -3.152040
  C      4.658210   -1.986290   -4.318660
  N      4.764230   -2.454440   -2.050490
  H      4.287360   -2.776260   -1.217500
  H      5.750820   -2.658350   -2.125990
  H      2.345180   -1.690270   -3.971450
  H      4.109000   -1.592680   -5.071760
  H      5.649100   -2.156460   -4.427240
  C      2.088520   -0.300910   -1.415200
  H      2.231270   -2.451620   -1.102640
  H      0.930250   -1.977800   -2.155440
  C      1.968990    0.733580   -2.535650
  H      3.051360   -0.168600   -0.911870
  H      1.316500   -0.136230   -0.657250
  H      2.730460    0.557450   -3.266430
  H      2.086190    1.715950   -2.128080
  H      1.006720    0.650980   -2.996200

 Total Charge           Charge          ....    0
 Multiplicity           Mult            ....    1
 Number of Electrons    NEL             ....   56
 Basis Dimension        Dim             ....  236

ORBITAL ENERGIES
----------------

  NO   OCC          E(Eh)            E(eV)
   0   2.0000     -14.229263      -387.1979
   1   2.0000     -14.229063      -387.1925
   2   2.0000     -10.178517      -276.9715
   3   2.0000     -10.165583      -276.6196
   4   2.0000     -10.126624      -275.5594
   5   2.0000     -10.111343      -275.1436
   6   2.0000     -10.038264      -273.1551
   7   2.0000      -1.140460       -31.0335
   8   2.0000      -1.047319       -28.4990
   9   2.0000      -0.958352       -26.0781
  10   2.0000      -0.891981       -24.2720
  11   2.0000      -0.831617       -22.6295
  12   2.0000      -0.766130       -20.8475
  13   2.0000      -0.739445       -20.1213
  14   2.0000      -0.683686       -18.6040
  15   2.0000      -0.643999       -17.5241
  16   2.0000      -0.622402       -16.9364
  17   2.0000      -0.607129       -16.5208
  18   2.0000      -0.585645       -15.9362
  19   2.0000      -0.542833       -14.7712
  20   2.0000      -0.537331       -14.6215
  21   2.0000      -0.526484       -14.3263
  22   2.0000      -0.507213       -13.8020
  23   2.0000      -0.485430       -13.2092
  24   2.0000      -0.479979       -13.0609
  25   2.0000      -0.464168       -12.6307
  26   2.0000      -0.385155       -10.4806
  27   2.0000      -0.281945        -7.6721
  28   0.0000       0.084830         2.3084
  29   0.0000       0.104548         2.8449
  30   0.0000       0.114303         3.1104
  31   0.0000       0.118433         3.2227
  32   0.0000       0.143546         3.9061

MULLIKEN ATOMIC CHARGES
-----------------------
   0 C :    0.560053
   1 N :   -0.398223
   2 C :    0.637911
   3 C :    0.199132
   4 N :    0.035922
   5 H :   -0.067641
   6 H :   -0.130488
   7 H :   -0.095808
   8 H :   -0.196472
   9 H :   -0.355965
  10 C :   -0.438143
  11 H :   -0.065339
  12 H :   -0.182922
  13 C :    0.516431
  14 H :    0.064631
  15 H :   -0.050169
  16 H :   -0.068433
  17 H :   -0.008177
  18 H :    0.043700
Sum of atomic charges:    0.0000000

LOEWDIN ATOMIC CHARGES
----------------------
   0 C :    0.021935
   1 N :   -0.027003
   2 C :   -0.243621
   3 C :    0.114358
   4 N :    0.184857
   5 H :   -0.012342
   6 H :    0.014366
   7 H :    0.037628
   8 H :   -0.087644
   9 H :   -0.085759
  10 C :   -0.089168
  11 H :    0.021426
  12 H :    0.032649
  13 C :    0.091909
  14 H :    0.026488
  15 H :    0.027776
  16 H :   -0.015804
  17 H :   -0.006527
  18 H :   -0.005524

  Mayer bond orders larger than 0.100000
B(  0-C ,  1-N ) :   0.9704 B(  0-C ,  7-H ) :  -0.1381 B(  0-C , 10-C ) :   1.0757
B(  0-C , 11-H ) :   0.9250 B(  0-C , 12-H ) :   0.8193 B(  1-N ,  2-C ) :   1.0882
B(  1-N ,  3-C ) :   0.2777 B(  1-N ,  4-N ) :   0.1283 B(  1-N ,  7-H ) :   1.1472
B(  1-N , 11-H ) :   0.1214 B(  1-N , 12-H ) :   0.2320 B(  2-C ,  3-C ) :   1.4453
B(  2-C ,  4-N ) :   0.9971 B(  2-C ,  6-H ) :  -0.1138 B(  2-C ,  7-H ) :  -0.1296
B(  2-C ,  9-H ) :   0.1483 B(  3-C ,  4-N ) :   0.1937 B(  3-C ,  8-H ) :   0.9326
B(  3-C ,  9-H ) :   0.8239 B(  4-N ,  5-H ) :   1.0474 B(  4-N ,  6-H ) :   1.2434
B(  5-H ,  6-H ) :  -0.1936 B( 10-C , 12-H ) :   0.1163 B( 10-C , 13-C ) :   1.3008
B( 10-C , 14-H ) :   0.9537 B( 10-C , 15-H ) :   1.0080 B( 10-C , 16-H ) :   0.1744
B( 10-C , 17-H ) :   0.1681 B( 10-C , 18-H ) :   0.1693 B( 13-C , 16-H ) :   0.8817
B( 13-C , 17-H ) :   0.8336 B( 13-C , 18-H ) :   0.8001 B( 16-H , 18-H ) :   0.1031

FINAL SINGLE POINT ENERGY      -306.003976368371

DIPOLE MOMENT
-------------
                                X             Y             Z
Electronic contribution:      1.92928      -3.91760      -0.40849
Nuclear contribution   :     -2.41054       3.93233       1.31148
                        -----------------------------------------
Total Dipole Moment    :     -0.48126       0.01473       0.90298
                        -----------------------------------------
Magnitude (a.u.)       :      1.02333
Magnitude (Debye)      :      2.60111

Rotational constants in cm-1:     0.144008     0.056232     0.050126
Rotational constants in MHz :  4317.255215  1685.791221  1502.728769

                             ****ORCA TERMINATED NORMALLY****
TOTAL RUN TIME: 0 days 0 hours 0 minutes 20 seconds 528 msec
