                         Program Version 5.0.0 -  RELEASE  -
|  1> !LC-PBE RIJCOSX def2-SVPD def2/J TightSCF
|  2> *xyz 0 1
|  3> C          0.61188        1.65763       -4.50029
|  4> C          1.69499        1.54179       -5.57045
|  5> H          2.69733        1.73466       -5.18400
|  6> H          1.50666        2.27224       -6.35808
|  7> S          1.78029       -0.03313       -6.42874
|  8> O          2.56929        0.21366       -7.60736
|  9> O          0.41688       -0.46297       -6.61859
| 10> C          0.68036        0.65542       -3.34804
| 11> H         -0.35687        1.54923       -4.99113
| 12> H          0.65023        2.67544       -4.09600
| 13> F          2.50513       -0.93326       -5.48257
| 14> H          0.64318       -0.34009       -3.73853
| 15> H         -0.14865        0.81153       -2.68980
| 16> H          1.59447        0.79330       -2.80925
| 17> *
| 18> %MaxCore 64000
| 19>
| 20> %pal nprocs 8
| 21> end
| 22>
| 23> %scf
| 24>   MaxIter 150
| 25> end
| 26>
| 27>
| 28>                          ****END OF INPUT****

CARTESIAN COORDINATES (ANGSTROEM)
---------------------------------
  C      0.611880    1.657630   -4.500290
  C      1.694990    1.541790   -5.570450
  H      2.697330    1.734660   -5.184000
  H      1.506660    2.272240   -6.358080
  S      1.780290   -0.033130   -6.428740
  O      2.569290    0.213660   -7.607360
  O      0.416880   -0.462970   -6.618590
  C      0.680360    0.655420   -3.348040
  H     -0.356870    1.549230   -4.991130
  H      0.650230    2.675440   -4.096000
  F      2.505130   -0.933260   -5.482570
  H      0.643180   -0.340090   -3.738530
  H     -0.148650    0.811530   -2.689800
  H      1.594470    0.793300   -2.809250

 Total Charge           Charge          ....    0
 Multiplicity           Mult            ....    1
 Number of Electrons    NEL             ....   66
 Basis Dimension        Dim             ....  212

ORBITAL ENERGIES
----------------

  NO   OCC          E(Eh)            E(eV)
   0   2.0000     -88.573633     -2410.2111
   1   2.0000     -24.605750      -669.5565
   2   2.0000     -19.011770      -517.3366
   3   2.0000     -19.011037      -517.3166
   4   2.0000     -10.194037      -277.3938
   5   2.0000     -10.160239      -276.4742
   6   2.0000     -10.131734      -275.6985
   7   2.0000      -8.196072      -223.0264
   8   2.0000      -6.223020      -169.3370
   9   2.0000      -6.216122      -169.1493
  10   2.0000      -6.214813      -169.1137
  11   2.0000      -1.500894       -40.8414
  12   2.0000      -1.293023       -35.1849
  13   2.0000      -1.192337       -32.4451
  14   2.0000      -1.013060       -27.5668
  15   2.0000      -0.922280       -25.0965
  16   2.0000      -0.859000       -23.3746
  17   2.0000      -0.798360       -21.7245
  18   2.0000      -0.726854       -19.7787
  19   2.0000      -0.718032       -19.5387
  20   2.0000      -0.703498       -19.1432
  21   2.0000      -0.649908       -17.6849
  22   2.0000      -0.628904       -17.1133
  23   2.0000      -0.608256       -16.5515
  24   2.0000      -0.599005       -16.2998
  25   2.0000      -0.580796       -15.8043
  26   2.0000      -0.542894       -14.7729
  27   2.0000      -0.523003       -14.2316
  28   2.0000      -0.509669       -13.8688
  29   2.0000      -0.493622       -13.4321
  30   2.0000      -0.481839       -13.1115
  31   2.0000      -0.463001       -12.5989
  32   2.0000      -0.461706       -12.5637
  33   0.0000       0.067668         1.8413
  34   0.0000       0.086712         2.3596
  35   0.0000       0.092558         2.5186
  36   0.0000       0.094476         2.5708
  37   0.0000       0.121794         3.3142

MULLIKEN ATOMIC CHARGES
-----------------------
   0 C :   -0.368667
   1 C :   -0.192995
   2 H :    0.126431
   3 H :    0.139958
   4 S :    1.341699
   5 O :   -0.630454
   6 O :   -0.633000
   7 C :    0.530322
   8 H :    0.094939
   9 H :   -0.025316
  10 F :   -0.378199
  11 H :   -0.062659
  12 H :    0.023737
  13 H :    0.034205
Sum of atomic charges:    0.0000000

LOEWDIN ATOMIC CHARGES
----------------------
   0 C :   -0.099729
   1 C :   -0.073720
   2 H :    0.039664
   3 H :    0.044636
   4 S :    1.089085
   5 O :   -0.456912
   6 O :   -0.453593
   7 C :    0.105911
   8 H :    0.038528
   9 H :    0.043165
  10 F :   -0.265286
  11 H :   -0.015254
  12 H :    0.002048
  13 H :    0.001456

  Mayer bond orders larger than 0.100000
B(  0-C ,  1-C ) :   1.2815 B(  0-C ,  2-H ) :   0.1129 B(  0-C ,  3-H ) :   0.1094
B(  0-C ,  7-C ) :   1.2880 B(  0-C ,  8-H ) :   0.9203 B(  0-C ,  9-H ) :   0.9352
B(  0-C , 11-H ) :   0.1714 B(  0-C , 12-H ) :   0.1625 B(  0-C , 13-H ) :   0.1766
B(  1-C ,  2-H ) :   0.9330 B(  1-C ,  3-H ) :   0.9015 B(  1-C ,  4-S ) :   1.0179
B(  1-C ,  8-H ) :   0.1166 B(  1-C ,  9-H ) :   0.1074 B(  4-S ,  5-O ) :   1.6162
B(  4-S ,  6-O ) :   1.5589 B(  4-S , 10-F ) :   0.6509 B(  7-C , 11-H ) :   0.8662
B(  7-C , 12-H ) :   0.8142 B(  7-C , 13-H ) :   0.8050

FINAL SINGLE POINT ENERGY      -765.202521769397

DIPOLE MOMENT
-------------
                                X             Y             Z
Electronic contribution:      4.99577      -7.30509      -8.22160
Nuclear contribution   :     -4.86824       8.29128       9.64318
                        -----------------------------------------
Total Dipole Moment    :      0.12753       0.98619       1.42159
                        -----------------------------------------
Magnitude (a.u.)       :      1.73486
Magnitude (Debye)      :      4.40967

Rotational constants in cm-1:     0.129339     0.055092     0.051542
Rotational constants in MHz :  3877.477482  1651.602611  1545.182728

                             ****ORCA TERMINATED NORMALLY****
TOTAL RUN TIME: 0 days 0 hours 0 minutes 14 seconds 590 msec
