                         Program Version 5.0.0 -  RELEASE  -
|  1> !LC-PBE RIJCOSX def2-SVPD def2/J TightSCF
|  2> *xyz 0 1
|  3> C          1.96337       -1.74915       -1.89689
|  4> N          2.73849       -2.01517       -3.09711
|  5> C          4.04974       -2.15472       -3.15204
|  6> N          4.65821       -1.98629       -4.31866
|  7> C          4.76423       -2.45444       -2.05049
|  8> H          4.28736       -2.77626       -1.21750
|  9> H          5.75082       -2.65835       -2.12599
| 10> H          2.34518       -1.69027       -3.97145
| 11> H          4.10900       -1.59268       -5.07176
| 12> H          5.64910       -2.15646       -4.42724
| 13> C          2.08852       -0.30091       -1.41520
| 14> H          2.23127       -2.45162       -1.10264
| 15> H          0.93025       -1.97780       -2.15544
| 16> C          1.96899        0.73358       -2.53565
| 17> H          3.05136       -0.16860       -0.91187
| 18> H          1.31650       -0.13623       -0.65725
| 19> H          2.73046        0.55745       -3.26643
| 20> H          2.08619        1.71595       -2.12808
| 21> H          1.00672        0.65098       -2.99620
| 22> *
| 23> %MaxCore 64000
| 24>
| 25> %pal nprocs 8
| 26> end
| 27>
| 28> %scf
| 29>   MaxIter 150
| 30> end
| 31>
| 32>
| 33>                          ****END OF INPUT****

CARTESIAN COORDINATES (ANGSTROEM)
---------------------------------
  C      1.963370   -1.749150   -1.896890
  N      2.738490   -2.015170   -3.097110
  C      4.049740   -2.154720   -3.152040
  N      4.658210   -1.986290   -4.318660
  C      4.764230   -2.454440   -2.050490
  H      4.287360   -2.776260   -1.217500
  H      5.750820   -2.658350   -2.125990
  H      2.345180   -1.690270   -3.971450
  H      4.109000   -1.592680   -5.071760
  H      5.649100   -2.156460   -4.427240
  C      2.088520   -0.300910   -1.415200
  H      2.231270   -2.451620   -1.102640
  H      0.930250   -1.977800   -2.155440
  C      1.968990    0.733580   -2.535650
  H      3.051360   -0.168600   -0.911870
  H      1.316500   -0.136230   -0.657250
  H      2.730460    0.557450   -3.266430
  H      2.086190    1.715950   -2.128080
  H      1.006720    0.650980   -2.996200

 Total Charge           Charge          ....    0
 Multiplicity           Mult            ....    1
 Number of Electrons    NEL             ....   56
 Basis Dimension        Dim             ....  236

ORBITAL ENERGIES
----------------

  NO   OCC          E(Eh)            E(eV)
   0   2.0000     -14.233317      -387.3082
   1   2.0000     -14.232134      -387.2761
   2   2.0000     -10.180421      -277.0233
   3   2.0000     -10.159048      -276.4417
   4   2.0000     -10.120672      -275.3975
   5   2.0000     -10.111068      -275.1361
   6   2.0000     -10.038154      -273.1521
   7   2.0000      -1.146176       -31.1890
   8   2.0000      -1.052733       -28.6463
   9   2.0000      -0.947872       -25.7929
  10   2.0000      -0.874878       -23.8066
  11   2.0000      -0.856403       -23.3039
  12   2.0000      -0.765160       -20.8211
  13   2.0000      -0.703218       -19.1355
  14   2.0000      -0.698482       -19.0067
  15   2.0000      -0.671238       -18.2653
  16   2.0000      -0.623231       -16.9590
  17   2.0000      -0.597182       -16.2501
  18   2.0000      -0.579648       -15.7730
  19   2.0000      -0.540891       -14.7184
  20   2.0000      -0.539315       -14.6755
  21   2.0000      -0.518779       -14.1167
  22   2.0000      -0.504764       -13.7353
  23   2.0000      -0.484472       -13.1832
  24   2.0000      -0.476379       -12.9629
  25   2.0000      -0.457263       -12.4428
  26   2.0000      -0.382438       -10.4067
  27   2.0000      -0.282774        -7.6947
  28   0.0000       0.082568         2.2468
  29   0.0000       0.107232         2.9179
  30   0.0000       0.115478         3.1423
  31   0.0000       0.119560         3.2534
  32   0.0000       0.140211         3.8153

MULLIKEN ATOMIC CHARGES
-----------------------
   0 C :    0.521981
   1 N :   -0.424462
   2 C :    0.684787
   3 N :   -0.072253
   4 C :    0.225280
   5 H :   -0.049840
   6 H :   -0.500942
   7 H :   -0.175605
   8 H :   -0.046871
   9 H :   -0.080503
  10 C :   -0.397991
  11 H :    0.056099
  12 H :   -0.203793
  13 C :    0.517455
  14 H :    0.021452
  15 H :   -0.029278
  16 H :   -0.084516
  17 H :   -0.005713
  18 H :    0.044712
Sum of atomic charges:    0.0000000

LOEWDIN ATOMIC CHARGES
----------------------
   0 C :    0.030722
   1 N :   -0.029696
   2 C :   -0.245856
   3 N :    0.170514
   4 C :    0.129742
   5 H :   -0.099250
   6 H :   -0.092809
   7 H :    0.026042
   8 H :    0.001590
   9 H :    0.021346
  10 C :   -0.082575
  11 H :    0.029021
  12 H :    0.032274
  13 C :    0.087217
  14 H :    0.027307
  15 H :    0.029608
  16 H :   -0.021013
  17 H :   -0.006954
  18 H :   -0.007228

  Mayer bond orders larger than 0.100000
B(  0-C ,  1-N ) :   0.9564 B(  0-C ,  7-H ) :  -0.1319 B(  0-C , 10-C ) :   1.0553
B(  0-C , 11-H ) :   0.8999 B(  0-C , 12-H ) :   0.8806 B(  1-N ,  2-C ) :   0.9496
B(  1-N ,  3-N ) :   0.2139 B(  1-N ,  4-C ) :   0.3401 B(  1-N ,  7-H ) :   1.2309
B(  1-N , 12-H ) :   0.1848 B(  2-C ,  3-N ) :   0.8514 B(  2-C ,  4-C ) :   1.7048
B(  2-C ,  5-H ) :   0.2198 B(  2-C ,  6-H ) :   0.1262 B(  2-C ,  7-H ) :  -0.1956
B(  2-C ,  9-H ) :  -0.1130 B(  3-N ,  4-C ) :   0.2052 B(  3-N ,  8-H ) :   1.1333
B(  3-N ,  9-H ) :   1.2558 B(  4-C ,  5-H ) :   0.6800 B(  4-C ,  6-H ) :   0.9568
B(  5-H , 11-H ) :   0.1142 B(  8-H ,  9-H ) :  -0.1595 B( 10-C , 12-H ) :   0.1111
B( 10-C , 13-C ) :   1.2935 B( 10-C , 14-H ) :   0.9842 B( 10-C , 15-H ) :   0.9793
B( 10-C , 16-H ) :   0.1813 B( 10-C , 17-H ) :   0.1668 B( 10-C , 18-H ) :   0.1704
B( 11-H , 12-H ) :  -0.1183 B( 13-C , 16-H ) :   0.8770 B( 13-C , 17-H ) :   0.8330
B( 13-C , 18-H ) :   0.7957

FINAL SINGLE POINT ENERGY      -306.002889148266

DIPOLE MOMENT
-------------
                                X             Y             Z
Electronic contribution:      1.85807      -3.40515      -2.62189
Nuclear contribution   :     -2.38731       3.82978       1.80833
                        -----------------------------------------
Total Dipole Moment    :     -0.52924       0.42463      -0.81356
                        -----------------------------------------
Magnitude (a.u.)       :      1.05938
Magnitude (Debye)      :      2.69272

Rotational constants in cm-1:     0.144922     0.055791     0.049560
Rotational constants in MHz :  4344.653038  1672.561873  1485.775629

                             ****ORCA TERMINATED NORMALLY****
TOTAL RUN TIME: 0 days 0 hours 0 minutes 22 seconds 86 msec
