                         Program Version 5.0.0 -  RELEASE  -
|  1> !LC-PBE RIJCOSX def2-SVPD def2/J TightSCF xyzfile
|  2>
|  3> *xyzfile 0 1 D4.xyz
|  4>
|  5> %MaxCore 64000
|  6>
|  7> %pal nprocs 4
|  8> end
|  9>
| 10> %scf
| 11>   MaxIter 150
| 12> end
| 13>
| 14>
| 15>                          ****END OF INPUT****

CARTESIAN COORDINATES (ANGSTROEM)
---------------------------------
  C      1.963365   -1.749150   -1.896887
  C      2.738490   -2.015170   -3.097113
  C      0.611877    1.657634   -4.500288
  C      1.694991    1.541794   -5.570447
  H      2.697326    1.734659   -5.183996
  H      1.506656    2.272239   -6.358076
  S      1.780287   -0.033128   -6.428739
  C      4.049736   -2.154717   -3.152044
  N      4.658206   -1.986293   -4.318655
  N      4.764231   -2.454435   -2.050491
  H      4.287363   -2.776259   -1.217496
  H      5.750825   -2.658351   -2.125988
  H      2.345176   -1.690274   -3.971447
  H      4.109004   -1.592677   -5.071760
  H      5.649095   -2.156462   -4.427237
  O      2.569287    0.213657   -7.607360
  F      0.416880   -0.462969   -6.618595
  C      2.088520   -0.300912   -1.415204
  H      2.231272   -2.451616   -1.102643
  H      0.930249   -1.977801   -2.155438
  C      0.680356    0.655418   -3.348038
  H     -0.356865    1.549231   -4.991128
  H      0.650228    2.675438   -4.096000
  C      1.968993    0.733582   -2.535654
  H      3.051356   -0.168602   -0.911868
  H      1.316501   -0.136231   -0.657252
  O      2.505129   -0.933263   -5.482570
  H      2.824195    0.624726   -3.208464
  H      2.058919    1.730331   -2.093112
  H      0.542252   -0.344731   -3.766662
  H     -0.174219    0.829692   -2.685182

 Total Charge           Charge          ....    0
 Multiplicity           Mult            ....    1
 Number of Electrons    NEL             ....  120
 Basis Dimension        Dim             ....  432

ORBITAL ENERGIES
----------------

  NO   OCC          E(Eh)            E(eV)
   0   2.0000     -88.588692     -2410.6209
   1   2.0000     -24.642959      -670.5690
   2   2.0000     -19.021017      -517.5882
   3   2.0000     -19.006152      -517.1837
   4   2.0000     -14.212856      -386.7515
   5   2.0000     -14.195262      -386.2727
   6   2.0000     -10.198915      -277.5266
   7   2.0000     -10.161360      -276.5047
   8   2.0000     -10.152562      -276.2652
   9   2.0000     -10.131688      -275.6972
  10   2.0000     -10.115388      -275.2537
  11   2.0000     -10.103372      -274.9267
  12   2.0000     -10.090764      -274.5836
  13   2.0000     -10.014761      -272.5155
  14   2.0000      -8.210033      -223.4064
  15   2.0000      -6.237215      -169.7232
  16   2.0000      -6.230185      -169.5320
  17   2.0000      -6.228333      -169.4816
  18   2.0000      -1.552793       -42.2536
  19   2.0000      -1.294823       -35.2339
  20   2.0000      -1.181475       -32.1496
  21   2.0000      -1.106575       -30.1114
  22   2.0000      -1.022763       -27.8308
  23   2.0000      -1.007673       -27.4202
  24   2.0000      -0.969465       -26.3805
  25   2.0000      -0.923574       -25.1317
  26   2.0000      -0.892187       -24.2776
  27   2.0000      -0.861325       -23.4378
  28   2.0000      -0.816909       -22.2292
  29   2.0000      -0.785764       -21.3817
  30   2.0000      -0.763990       -20.7892
  31   2.0000      -0.758312       -20.6347
  32   2.0000      -0.739677       -20.1276
  33   2.0000      -0.707793       -19.2600
  34   2.0000      -0.696672       -18.9574
  35   2.0000      -0.672117       -18.2892
  36   2.0000      -0.647922       -17.6309
  37   2.0000      -0.647134       -17.6094
  38   2.0000      -0.625212       -17.0129
  39   2.0000      -0.622452       -16.9378
  40   2.0000      -0.614266       -16.7150
  41   2.0000      -0.588419       -16.0117
  42   2.0000      -0.582734       -15.8570
  43   2.0000      -0.576110       -15.6768
  44   2.0000      -0.561563       -15.2809
  45   2.0000      -0.538509       -14.6536
  46   2.0000      -0.527284       -14.3481
  47   2.0000      -0.517148       -14.0723
  48   2.0000      -0.512765       -13.9530
  49   2.0000      -0.505845       -13.7647
  50   2.0000      -0.490445       -13.3457
  51   2.0000      -0.477316       -12.9884
  52   2.0000      -0.469468       -12.7749
  53   2.0000      -0.461499       -12.5580
  54   2.0000      -0.449228       -12.2241
  55   2.0000      -0.442839       -12.0503
  56   2.0000      -0.427699       -11.6383
  57   2.0000      -0.406286       -11.0556
  58   2.0000      -0.377174       -10.2634
  59   2.0000      -0.253287        -6.8923
  60   0.0000       0.059190         1.6106
  61   0.0000       0.080532         2.1914
  62   0.0000       0.086951         2.3661
  63   0.0000       0.094886         2.5820
  64   0.0000       0.106020         2.8850

MULLIKEN ATOMIC CHARGES
-----------------------
   0 C :    0.093976
   1 C :   -0.005874
   2 C :    0.269205
   3 C :   -0.103704
   4 H :    0.182681
   5 H :    0.044643
   6 S :    1.407155
   7 C :    0.715140
   8 N :    0.046866
   9 N :   -0.104093
  10 H :    0.012477
  11 H :   -0.205770
  12 H :   -0.426104
  13 H :   -0.127806
  14 H :   -0.207005
  15 O :   -0.607299
  16 F :   -0.417877
  17 C :    0.405064
  18 H :   -0.242526
  19 H :    0.180598
  20 C :   -0.080365
  21 H :    0.056298
  22 H :    0.047593
  23 C :   -0.263422
  24 H :    0.050683
  25 H :    0.105247
  26 O :   -0.665502
  27 H :    0.088155
  28 H :   -0.112343
  29 H :   -0.043360
  30 H :   -0.092732
Sum of atomic charges:    0.0000000

LOEWDIN ATOMIC CHARGES
----------------------
   0 C :   -0.072371
   1 C :   -0.050054
   2 C :   -0.057790
   3 C :   -0.053945
   4 H :    0.047335
   5 H :    0.035734
   6 S :    1.165364
   7 C :   -0.202483
   8 N :    0.187663
   9 N :    0.180120
  10 H :   -0.003076
  11 H :   -0.005213
  12 H :   -0.129828
  13 H :   -0.068539
  14 H :    0.003127
  15 O :   -0.441780
  16 F :   -0.222345
  17 C :   -0.043561
  18 H :    0.012572
  19 H :    0.020577
  20 C :   -0.044912
  21 H :    0.035273
  22 H :    0.048298
  23 C :   -0.048291
  24 H :    0.030461
  25 H :    0.027042
  26 O :   -0.469603
  27 H :    0.021794
  28 H :    0.034857
  29 H :    0.017878
  30 H :    0.045696

  Mayer bond orders larger than 0.100000
B(  0-C ,  1-C ) :   1.1225 B(  0-C ,  7-C ) :   0.1155 B(  0-C , 12-H ) :   0.3582
B(  0-C , 17-C ) :   1.1389 B(  0-C , 18-H ) :   0.9112 B(  0-C , 19-H ) :   0.7126
B(  0-C , 23-C ) :   0.1177 B(  0-C , 24-H ) :   0.1154 B(  0-C , 25-H ) :   0.1590
B(  1-C ,  7-C ) :   1.8497 B(  1-C ,  8-N ) :   0.2531 B(  1-C ,  9-N ) :   0.2426
B(  1-C , 12-H ) :   0.2766 B(  1-C , 18-H ) :   0.1908 B(  1-C , 19-H ) :   0.2394
B(  1-C , 26-O ) :  -0.1393 B(  2-C ,  3-C ) :   1.2550 B(  2-C ,  5-H ) :   0.1530
B(  2-C , 20-C ) :   1.2451 B(  2-C , 21-H ) :   0.7311 B(  2-C , 22-H ) :   0.8374
B(  3-C ,  4-H ) :   0.8903 B(  3-C ,  5-H ) :   0.8984 B(  3-C ,  6-S ) :   1.0794
B(  6-S , 15-O ) :   1.6346 B(  6-S , 16-F ) :   0.6227 B(  6-S , 26-O ) :   1.3846
B(  7-C ,  8-N ) :   0.7702 B(  7-C ,  9-N ) :   0.8761 B(  7-C , 11-H ) :  -0.1648
B(  7-C , 12-H ) :   0.4993 B(  7-C , 13-H ) :  -0.1121 B(  7-C , 14-H ) :  -0.2281
B(  8-N , 12-H ) :   0.1286 B(  8-N , 13-H ) :   1.1828 B(  8-N , 14-H ) :   1.3572
B(  9-N , 10-H ) :   1.0546 B(  9-N , 11-H ) :   1.3445 B( 10-H , 11-H ) :  -0.2015
B( 12-H , 26-O ) :   0.2290 B( 12-H , 28-H ) :  -0.1088 B( 13-H , 14-H ) :  -0.1903
B( 13-H , 26-O ) :   0.1049 B( 16-F , 26-O ) :   0.1141 B( 17-C , 23-C ) :   1.2560
B( 17-C , 24-H ) :   0.7941 B( 17-C , 25-H ) :   0.7203 B( 20-C , 21-H ) :   0.2325
B( 20-C , 23-C ) :   1.2050 B( 20-C , 28-H ) :   0.1464 B( 20-C , 29-H ) :   0.9598
B( 20-C , 30-H ) :   0.9030 B( 23-C , 24-H ) :   0.2146 B( 23-C , 25-H ) :   0.1284
B( 23-C , 27-H ) :   0.9375 B( 23-C , 28-H ) :   0.9255 B( 23-C , 29-H ) :   0.1051
B( 23-C , 30-H ) :   0.1451

FINAL SINGLE POINT ENERGY     -1069.999772026633

DIPOLE MOMENT
-------------
                                X             Y             Z
Electronic contribution:     -3.07442      -2.06849     -21.68386
Nuclear contribution   :      2.64598       3.36033      21.85869
                        -----------------------------------------
Total Dipole Moment    :     -0.42843       1.29184       0.17483
                        -----------------------------------------
Magnitude (a.u.)       :      1.37222
Magnitude (Debye)      :      3.48790

Rotational constants in cm-1:     0.028973     0.014435     0.011026
Rotational constants in MHz :   868.588266   432.748309   330.548534

                             ****ORCA TERMINATED NORMALLY****
TOTAL RUN TIME: 0 days 0 hours 3 minutes 24 seconds 503 msec
