                         Program Version 5.0.0 -  RELEASE  -
|  1> !LC-PBE RIJCOSX def2-SVPD def2/J TightSCF xyzfile
|  2>
|  3> *xyzfile 0 1 D5.xyz
|  4>
|  5> %MaxCore 64000
|  6>
|  7> %pal nprocs 4
|  8> end
|  9>
| 10> %scf
| 11>   MaxIter 150
| 12> end
| 13>
| 14>
| 15>                          ****END OF INPUT****

CARTESIAN COORDINATES (ANGSTROEM)
---------------------------------
  C      1.963365   -1.749150   -1.896887
  N      2.738490   -2.015170   -3.097113
  C      0.611877    1.657634   -4.500288
  C      1.694991    1.541794   -5.570447
  H      2.697326    1.734659   -5.183996
  H      1.506656    2.272239   -6.358076
  S      1.780287   -0.033128   -6.428739
  C      4.049736   -2.154717   -3.152044
  C      4.658206   -1.986293   -4.318655
  N      4.764231   -2.454435   -2.050491
  H      4.287363   -2.776259   -1.217496
  H      5.750825   -2.658351   -2.125988
  H      2.345176   -1.690274   -3.971447
  H      4.109004   -1.592677   -5.071760
  H      5.649095   -2.156462   -4.427237
  O      2.569287    0.213657   -7.607360
  F      0.416880   -0.462969   -6.618595
  C      2.088520   -0.300912   -1.415204
  H      2.231272   -2.451616   -1.102643
  H      0.930249   -1.977801   -2.155438
  C      0.680356    0.655418   -3.348038
  H     -0.356865    1.549231   -4.991128
  H      0.650228    2.675438   -4.096000
  C      1.968993    0.733582   -2.535654
  H      3.051356   -0.168602   -0.911868
  H      1.316501   -0.136231   -0.657252
  O      2.505129   -0.933263   -5.482570
  H      2.824195    0.624726   -3.208464
  H      2.058919    1.730331   -2.093112
  H      0.542252   -0.344731   -3.766662
  H     -0.174219    0.829692   -2.685182

 Total Charge           Charge          ....    0
 Multiplicity           Mult            ....    1
 Number of Electrons    NEL             ....  120
 Basis Dimension        Dim             ....  432

ORBITAL ENERGIES
----------------

  NO   OCC          E(Eh)            E(eV)
   0   2.0000     -88.589819     -2410.6515
   1   2.0000     -24.644264      -670.6045
   2   2.0000     -19.021978      -517.6143
   3   2.0000     -19.008504      -517.2477
   4   2.0000     -14.209814      -386.6687
   5   2.0000     -14.195606      -386.2821
   6   2.0000     -10.201796      -277.6050
   7   2.0000     -10.169008      -276.7128
   8   2.0000     -10.153546      -276.2920
   9   2.0000     -10.152436      -276.2618
  10   2.0000     -10.145525      -276.0738
  11   2.0000     -10.130839      -275.6741
  12   2.0000     -10.123985      -275.4876
  13   2.0000     -10.005587      -272.2659
  14   2.0000      -8.211096      -223.4353
  15   2.0000      -6.238389      -169.7552
  16   2.0000      -6.231043      -169.5553
  17   2.0000      -6.229531      -169.5142
  18   2.0000      -1.554326       -42.2954
  19   2.0000      -1.295639       -35.2561
  20   2.0000      -1.182983       -32.1906
  21   2.0000      -1.116535       -30.3825
  22   2.0000      -1.032192       -28.0874
  23   2.0000      -1.024770       -27.8854
  24   2.0000      -0.968813       -26.3627
  25   2.0000      -0.928311       -25.2606
  26   2.0000      -0.889755       -24.2115
  27   2.0000      -0.867314       -23.6008
  28   2.0000      -0.823883       -22.4190
  29   2.0000      -0.792691       -21.5702
  30   2.0000      -0.766547       -20.8588
  31   2.0000      -0.764145       -20.7935
  32   2.0000      -0.747320       -20.3356
  33   2.0000      -0.724833       -19.7237
  34   2.0000      -0.699990       -19.0477
  35   2.0000      -0.668134       -18.1809
  36   2.0000      -0.656039       -17.8517
  37   2.0000      -0.645383       -17.5618
  38   2.0000      -0.631080       -17.1726
  39   2.0000      -0.622500       -16.9391
  40   2.0000      -0.615429       -16.7467
  41   2.0000      -0.602655       -16.3991
  42   2.0000      -0.591144       -16.0858
  43   2.0000      -0.574422       -15.6308
  44   2.0000      -0.567190       -15.4340
  45   2.0000      -0.541984       -14.7481
  46   2.0000      -0.537411       -14.6237
  47   2.0000      -0.524933       -14.2842
  48   2.0000      -0.513454       -13.9718
  49   2.0000      -0.505326       -13.7506
  50   2.0000      -0.496213       -13.5026
  51   2.0000      -0.487256       -13.2589
  52   2.0000      -0.474983       -12.9249
  53   2.0000      -0.464526       -12.6404
  54   2.0000      -0.462110       -12.5746
  55   2.0000      -0.455158       -12.3855
  56   2.0000      -0.448796       -12.2124
  57   2.0000      -0.442395       -12.0382
  58   2.0000      -0.363299        -9.8859
  59   2.0000      -0.255837        -6.9617
  60   0.0000       0.056759         1.5445
  61   0.0000       0.078446         2.1346
  62   0.0000       0.086306         2.3485
  63   0.0000       0.091580         2.4920
  64   0.0000       0.101978         2.7750

MULLIKEN ATOMIC CHARGES
-----------------------
   0 C :    0.721252
   1 N :    0.009411
   2 C :    0.272605
   3 C :   -0.109657
   4 H :    0.190344
   5 H :    0.048645
   6 S :    1.413608
   7 C :    0.688904
   8 C :    0.446499
   9 N :    0.086815
  10 H :   -0.027797
  11 H :   -0.148564
  12 H :   -0.623274
  13 H :   -0.239506
  14 H :   -0.560756
  15 O :   -0.600713
  16 F :   -0.419459
  17 C :    0.253986
  18 H :   -0.304246
  19 H :   -0.076886
  20 C :   -0.087546
  21 H :    0.067006
  22 H :    0.052050
  23 C :   -0.149727
  24 H :    0.052615
  25 H :   -0.006062
  26 O :   -0.772748
  27 H :    0.155403
  28 H :   -0.220745
  29 H :   -0.026909
  30 H :   -0.084547
Sum of atomic charges:   -0.0000000

LOEWDIN ATOMIC CHARGES
----------------------
   0 C :    0.033857
   1 N :   -0.001638
   2 C :   -0.056140
   3 C :   -0.053140
   4 H :    0.049074
   5 H :    0.036505
   6 S :    1.165927
   7 C :   -0.224933
   8 C :    0.139383
   9 N :    0.178131
  10 H :   -0.017481
  11 H :    0.010178
  12 H :   -0.076436
  13 H :   -0.150208
  14 H :   -0.084719
  15 O :   -0.431738
  16 F :   -0.226831
  17 C :   -0.038530
  18 H :    0.018750
  19 H :    0.026527
  20 C :   -0.049851
  21 H :    0.036249
  22 H :    0.049390
  23 C :   -0.045878
  24 H :    0.031057
  25 H :    0.030112
  26 O :   -0.468648
  27 H :    0.023859
  28 H :    0.037738
  29 H :    0.013518
  30 H :    0.045918

  Mayer bond orders larger than 0.100000
B(  0-C ,  1-N ) :   0.9460 B(  0-C , 12-H ) :  -0.3324 B(  0-C , 17-C ) :   1.0744
B(  0-C , 18-H ) :   0.9564 B(  0-C , 19-H ) :   0.7310 B(  1-N ,  7-C ) :   1.0481
B(  1-N ,  8-C ) :   0.2239 B(  1-N ,  9-N ) :   0.2049 B(  1-N , 12-H ) :   1.1739
B(  1-N , 19-H ) :   0.1226 B(  2-C ,  3-C ) :   1.2544 B(  2-C ,  5-H ) :   0.1479
B(  2-C , 20-C ) :   1.2553 B(  2-C , 21-H ) :   0.7241 B(  2-C , 22-H ) :   0.8369
B(  3-C ,  4-H ) :   0.8914 B(  3-C ,  5-H ) :   0.9028 B(  3-C ,  6-S ) :   1.0717
B(  3-C , 22-H ) :   0.1056 B(  6-S , 15-O ) :   1.6422 B(  6-S , 16-F ) :   0.6171
B(  6-S , 26-O ) :   1.3972 B(  7-C ,  8-C ) :   1.4957 B(  7-C ,  9-N ) :   0.9450
B(  7-C , 11-H ) :  -0.1288 B(  7-C , 12-H ) :  -0.3527 B(  7-C , 14-H ) :   0.1986
B(  8-C ,  9-N ) :   0.2524 B(  8-C , 13-H ) :   0.7070 B(  8-C , 14-H ) :   0.7770
B(  9-N , 10-H ) :   0.9687 B(  9-N , 11-H ) :   1.2529 B( 10-H , 11-H ) :  -0.1977
B( 12-H , 19-H ) :   0.1587 B( 12-H , 24-H ) :   0.1136 B( 12-H , 26-O ) :   0.1622
B( 13-H , 14-H ) :  -0.1811 B( 13-H , 26-O ) :   0.2560 B( 16-F , 26-O ) :   0.1186
B( 17-C , 18-H ) :   0.1073 B( 17-C , 23-C ) :   1.2726 B( 17-C , 24-H ) :   0.8010
B( 17-C , 25-H ) :   0.9145 B( 18-H , 19-H ) :  -0.1190 B( 20-C , 21-H ) :   0.2341
B( 20-C , 23-C ) :   1.1823 B( 20-C , 28-H ) :   0.1220 B( 20-C , 29-H ) :   0.9709
B( 20-C , 30-H ) :   0.9059 B( 23-C , 24-H ) :   0.1779 B( 23-C , 27-H ) :   0.8918
B( 23-C , 28-H ) :   0.9922 B( 23-C , 30-H ) :   0.1271

FINAL SINGLE POINT ENERGY     -1069.993002259924

DIPOLE MOMENT
-------------
                                X             Y             Z
Electronic contribution:     -4.68672      -1.88627     -20.65893
Nuclear contribution   :      2.89225       3.36404      21.70199
                        -----------------------------------------
Total Dipole Moment    :     -1.79447       1.47777       1.04306
                        -----------------------------------------
Magnitude (a.u.)       :      2.54792
Magnitude (Debye)      :      6.47631

Rotational constants in cm-1:     0.029431     0.014408     0.011084
Rotational constants in MHz :   882.306106   431.946714   332.288152

                             ****ORCA TERMINATED NORMALLY****
TOTAL RUN TIME: 0 days 0 hours 3 minutes 23 seconds 938 msec
