                         Program Version 5.0.0 -  RELEASE  -
|  1> !LC-PBE RIJCOSX def2-SVPD def2/J TightSCF xyzfile
|  2>
|  3> *xyzfile 0 1 D6.xyz
|  4>
|  5> %MaxCore 64000
|  6>
|  7> %pal nprocs 4
|  8> end
|  9>
| 10> %scf
| 11>   MaxIter 150
| 12> end
| 13>
| 14>
| 15>                          ****END OF INPUT****

CARTESIAN COORDINATES (ANGSTROEM)
---------------------------------
  C      1.963365   -1.749150   -1.896887
  N      2.738490   -2.015170   -3.097113
  C      0.611877    1.657634   -4.500288
  C      1.694991    1.541794   -5.570447
  H      2.697326    1.734659   -5.183996
  H      1.506656    2.272239   -6.358076
  S      1.780287   -0.033128   -6.428739
  C      4.049736   -2.154717   -3.152044
  N      4.658206   -1.986293   -4.318655
  C      4.764231   -2.454435   -2.050491
  H      4.287363   -2.776259   -1.217496
  H      5.750825   -2.658351   -2.125988
  H      2.345176   -1.690274   -3.971447
  H      4.109004   -1.592677   -5.071760
  H      5.649095   -2.156462   -4.427237
  O      2.569287    0.213657   -7.607360
  F      0.416880   -0.462969   -6.618595
  C      2.088520   -0.300912   -1.415204
  H      2.231272   -2.451616   -1.102643
  H      0.930249   -1.977801   -2.155438
  C      0.680356    0.655418   -3.348038
  H     -0.356865    1.549231   -4.991128
  H      0.650228    2.675438   -4.096000
  C      1.968993    0.733582   -2.535654
  H      3.051356   -0.168602   -0.911868
  H      1.316501   -0.136231   -0.657252
  O      2.505129   -0.933263   -5.482570
  H      2.824195    0.624726   -3.208464
  H      2.058919    1.730331   -2.093112
  H      0.542252   -0.344731   -3.766662
  H     -0.174219    0.829692   -2.685182

 Total Charge           Charge          ....    0
 Multiplicity           Mult            ....    1
 Number of Electrons    NEL             ....  120
 Basis Dimension        Dim             ....  432

ORBITAL ENERGIES
----------------

  NO   OCC          E(Eh)            E(eV)
   0   2.0000     -88.607307     -2411.1274
   1   2.0000     -24.658902      -671.0028
   2   2.0000     -19.037507      -518.0369
   3   2.0000     -19.029646      -517.8230
   4   2.0000     -14.198295      -386.3552
   5   2.0000     -14.195366      -386.2755
   6   2.0000     -10.213131      -277.9134
   7   2.0000     -10.175335      -276.8849
   8   2.0000     -10.156057      -276.3604
   9   2.0000     -10.148818      -276.1634
  10   2.0000     -10.146714      -276.1061
  11   2.0000     -10.131791      -275.7000
  12   2.0000     -10.118448      -275.3370
  13   2.0000     -10.015194      -272.5273
  14   2.0000      -8.228530      -223.9097
  15   2.0000      -6.255723      -170.2269
  16   2.0000      -6.248797      -170.0384
  17   2.0000      -6.246765      -169.9831
  18   2.0000      -1.568982       -42.6942
  19   2.0000      -1.312925       -35.7265
  20   2.0000      -1.202060       -32.7097
  21   2.0000      -1.117784       -30.4165
  22   2.0000      -1.039225       -28.2788
  23   2.0000      -1.024984       -27.8912
  24   2.0000      -0.971709       -26.4415
  25   2.0000      -0.926635       -25.2150
  26   2.0000      -0.895794       -24.3758
  27   2.0000      -0.855132       -23.2693
  28   2.0000      -0.846231       -23.0271
  29   2.0000      -0.805960       -21.9313
  30   2.0000      -0.777960       -21.1694
  31   2.0000      -0.775865       -21.1123
  32   2.0000      -0.743943       -20.2437
  33   2.0000      -0.728972       -19.8363
  34   2.0000      -0.687077       -18.6963
  35   2.0000      -0.676777       -18.4160
  36   2.0000      -0.663348       -18.0506
  37   2.0000      -0.657619       -17.8947
  38   2.0000      -0.647185       -17.6108
  39   2.0000      -0.637403       -17.3446
  40   2.0000      -0.613812       -16.7027
  41   2.0000      -0.605004       -16.4630
  42   2.0000      -0.587739       -15.9932
  43   2.0000      -0.576655       -15.6916
  44   2.0000      -0.567452       -15.4412
  45   2.0000      -0.553867       -15.0715
  46   2.0000      -0.535683       -14.5767
  47   2.0000      -0.530260       -14.4291
  48   2.0000      -0.515572       -14.0294
  49   2.0000      -0.505507       -13.7555
  50   2.0000      -0.500825       -13.6281
  51   2.0000      -0.496411       -13.5080
  52   2.0000      -0.482155       -13.1201
  53   2.0000      -0.474245       -12.9049
  54   2.0000      -0.470161       -12.7937
  55   2.0000      -0.461915       -12.5694
  56   2.0000      -0.457746       -12.4559
  57   2.0000      -0.444853       -12.1051
  58   2.0000      -0.354332        -9.6419
  59   2.0000      -0.259404        -7.0588
  60   0.0000       0.048576         1.3218
  61   0.0000       0.071737         1.9521
  62   0.0000       0.078705         2.1417
  63   0.0000       0.087183         2.3724
  64   0.0000       0.098293         2.6747

MULLIKEN ATOMIC CHARGES
-----------------------
   0 C :    0.678655
   1 N :    0.123575
   2 C :    0.269983
   3 C :   -0.105233
   4 H :    0.190367
   5 H :    0.046858
   6 S :    1.413606
   7 C :    0.715579
   8 N :    0.290224
   9 C :    0.243763
  10 H :    0.009462
  11 H :   -0.569691
  12 H :   -0.814915
  13 H :   -0.260891
  14 H :   -0.182683
  15 O :   -0.595888
  16 F :   -0.414658
  17 C :    0.312559
  18 H :   -0.200070
  19 H :   -0.100025
  20 C :   -0.094516
  21 H :    0.067858
  22 H :    0.053064
  23 C :   -0.150855
  24 H :   -0.019347
  25 H :    0.043253
  26 O :   -0.748444
  27 H :    0.116684
  28 H :   -0.202358
  29 H :   -0.028065
  30 H :   -0.087850
Sum of atomic charges:   -0.0000000

LOEWDIN ATOMIC CHARGES
----------------------
   0 C :    0.042432
   1 N :   -0.001496
   2 C :   -0.055526
   3 C :   -0.051274
   4 H :    0.048987
   5 H :    0.038215
   6 S :    1.169602
   7 C :   -0.225665
   8 N :    0.194172
   9 C :    0.117761
  10 H :   -0.106957
  11 H :   -0.099200
  12 H :   -0.086114
  13 H :   -0.080081
  14 H :    0.020315
  15 O :   -0.430697
  16 F :   -0.219852
  17 C :   -0.031878
  18 H :    0.026213
  19 H :    0.026049
  20 C :   -0.049940
  21 H :    0.036698
  22 H :    0.050796
  23 C :   -0.047877
  24 H :    0.031767
  25 H :    0.032030
  26 O :   -0.468114
  27 H :    0.021524
  28 H :    0.037923
  29 H :    0.012877
  30 H :    0.047309

  Mayer bond orders larger than 0.100000
B(  0-C ,  1-N ) :   0.9790 B(  0-C , 12-H ) :  -0.3608 B(  0-C , 17-C ) :   1.0492
B(  0-C , 18-H ) :   0.9623 B(  0-C , 19-H ) :   0.7944 B(  1-N ,  7-C ) :   0.9494
B(  1-N ,  9-C ) :   0.4392 B(  1-N , 12-H ) :   1.0489 B(  1-N , 13-H ) :   0.1069
B(  1-N , 19-H ) :   0.1348 B(  2-C ,  3-C ) :   1.2542 B(  2-C ,  5-H ) :   0.1508
B(  2-C , 20-C ) :   1.2518 B(  2-C , 21-H ) :   0.7217 B(  2-C , 22-H ) :   0.8420
B(  3-C ,  4-H ) :   0.8921 B(  3-C ,  5-H ) :   0.9009 B(  3-C ,  6-S ) :   1.0715
B(  3-C , 22-H ) :   0.1001 B(  6-S , 15-O ) :   1.6459 B(  6-S , 16-F ) :   0.6266
B(  6-S , 26-O ) :   1.3727 B(  7-C ,  8-N ) :   0.8411 B(  7-C ,  9-C ) :   1.6057
B(  7-C , 10-H ) :   0.2700 B(  7-C , 11-H ) :   0.2238 B(  7-C , 12-H ) :  -0.3891
B(  7-C , 14-H ) :  -0.1774 B(  8-N ,  9-C ) :   0.2124 B(  8-N , 13-H ) :   1.0804
B(  8-N , 14-H ) :   1.3083 B(  9-C , 10-H ) :   0.6233 B(  9-C , 11-H ) :   0.8484
B(  9-C , 12-H ) :  -0.1179 B( 10-H , 18-H ) :   0.1427 B( 12-H , 26-O ) :   0.1906
B( 13-H , 14-H ) :  -0.1952 B( 13-H , 26-O ) :   0.1857 B( 16-F , 26-O ) :   0.1201
B( 17-C , 23-C ) :   1.2698 B( 17-C , 24-H ) :   0.8437 B( 17-C , 25-H ) :   0.8611
B( 18-H , 19-H ) :  -0.1574 B( 20-C , 21-H ) :   0.2333 B( 20-C , 23-C ) :   1.1915
B( 20-C , 28-H ) :   0.1379 B( 20-C , 29-H ) :   0.9723 B( 20-C , 30-H ) :   0.9051
B( 23-C , 24-H ) :   0.1880 B( 23-C , 25-H ) :   0.1016 B( 23-C , 27-H ) :   0.8840
B( 23-C , 28-H ) :   0.9688 B( 23-C , 30-H ) :   0.1298

FINAL SINGLE POINT ENERGY     -1070.006083223781

DIPOLE MOMENT
-------------
                                X             Y             Z
Electronic contribution:     -4.92578      -1.29317     -22.70402
Nuclear contribution   :      2.90585       3.30398      21.99296
                        -----------------------------------------
Total Dipole Moment    :     -2.01993       2.01081      -0.71107
                        -----------------------------------------
Magnitude (a.u.)       :      2.93753
Magnitude (Debye)      :      7.46662

Rotational constants in cm-1:     0.029065     0.014689     0.011200
Rotational constants in MHz :   871.338526   440.374927   335.770911

                             ****ORCA TERMINATED NORMALLY****
TOTAL RUN TIME: 0 days 0 hours 3 minutes 25 seconds 729 msec
