                         Program Version 5.0.0 -  RELEASE  -
|  1> !LC-PBE RIJCOSX def2-SVPD def2/J TightSCF xyzfile
|  2>
|  3> *xyzfile 0 1 D9.xyz
|  4>
|  5> %MaxCore 64000
|  6>
|  7> %pal nprocs 4
|  8> end
|  9>
| 10> %scf
| 11>   MaxIter 150
| 12> end
| 13>
| 14>
| 15>                          ****END OF INPUT****

CARTESIAN COORDINATES (ANGSTROEM)
---------------------------------
  C      1.963365   -1.749150   -1.896887
  N      2.738490   -2.015170   -3.097113
  C      0.611877    1.657634   -4.500288
  C      1.694991    1.541794   -5.570447
  H      2.697326    1.734659   -5.183996
  H      1.506656    2.272239   -6.358076
  S      1.780287   -0.033128   -6.428739
  C      4.049736   -2.154717   -3.152044
  N      4.658206   -1.986293   -4.318655
  C      4.764231   -2.454435   -2.050491
  H      4.287363   -2.776259   -1.217496
  H      5.750825   -2.658351   -2.125988
  H      2.345176   -1.690274   -3.971447
  H      4.109004   -1.592677   -5.071760
  H      5.649095   -2.156462   -4.427237
  O      2.569287    0.213657   -7.607360
  O      0.416880   -0.462969   -6.618595
  C      2.088520   -0.300912   -1.415204
  H      2.231272   -2.451616   -1.102643
  H      0.930249   -1.977801   -2.155438
  C      0.680356    0.655418   -3.348038
  H     -0.356865    1.549231   -4.991128
  H      0.650228    2.675438   -4.096000
  C      1.968993    0.733582   -2.535654
  H      3.051356   -0.168602   -0.911868
  H      1.316501   -0.136231   -0.657252
  F      2.505129   -0.933263   -5.482570
  H      2.824195    0.624726   -3.208464
  H      2.058919    1.730331   -2.093112
  H      0.542252   -0.344731   -3.766662
  H     -0.174219    0.829692   -2.685182

 Total Charge           Charge          ....    0
 Multiplicity           Mult            ....    1
 Number of Electrons    NEL             ....  120
 Basis Dimension        Dim             ....  432

ORBITAL ENERGIES
----------------

  NO   OCC          E(Eh)            E(eV)
   0   2.0000     -88.593722     -2410.7577
   1   2.0000     -24.641716      -670.5352
   2   2.0000     -19.029475      -517.8184
   3   2.0000     -19.029351      -517.8150
   4   2.0000     -14.228961      -387.1897
   5   2.0000     -14.227556      -387.1515
   6   2.0000     -10.206429      -277.7311
   7   2.0000     -10.179755      -277.0052
   8   2.0000     -10.167437      -276.6700
   9   2.0000     -10.162583      -276.5379
  10   2.0000     -10.150340      -276.2048
  11   2.0000     -10.140833      -275.9461
  12   2.0000     -10.129709      -275.6434
  13   2.0000     -10.037503      -273.1344
  14   2.0000      -8.215250      -223.5483
  15   2.0000      -6.242691      -169.8723
  16   2.0000      -6.235099      -169.6657
  17   2.0000      -6.233693      -169.6274
  18   2.0000      -1.537401       -41.8348
  19   2.0000      -1.313726       -35.7483
  20   2.0000      -1.209805       -32.9205
  21   2.0000      -1.146561       -31.1995
  22   2.0000      -1.054355       -28.6905
  23   2.0000      -1.030649       -28.0454
  24   2.0000      -0.976123       -26.5616
  25   2.0000      -0.933332       -25.3972
  26   2.0000      -0.903471       -24.5847
  27   2.0000      -0.863045       -23.4846
  28   2.0000      -0.860861       -23.4252
  29   2.0000      -0.804763       -21.8987
  30   2.0000      -0.769255       -20.9325
  31   2.0000      -0.762852       -20.7582
  32   2.0000      -0.743078       -20.2202
  33   2.0000      -0.721521       -19.6336
  34   2.0000      -0.699598       -19.0370
  35   2.0000      -0.694122       -18.8880
  36   2.0000      -0.670089       -18.2341
  37   2.0000      -0.661728       -18.0065
  38   2.0000      -0.653651       -17.7867
  39   2.0000      -0.635881       -17.3032
  40   2.0000      -0.623013       -16.9531
  41   2.0000      -0.611223       -16.6322
  42   2.0000      -0.593482       -16.1495
  43   2.0000      -0.583571       -15.8798
  44   2.0000      -0.571477       -15.5507
  45   2.0000      -0.558559       -15.1992
  46   2.0000      -0.545757       -14.8508
  47   2.0000      -0.539930       -14.6922
  48   2.0000      -0.519861       -14.1461
  49   2.0000      -0.513017       -13.9599
  50   2.0000      -0.507180       -13.8011
  51   2.0000      -0.501366       -13.6429
  52   2.0000      -0.497880       -13.5480
  53   2.0000      -0.483638       -13.1605
  54   2.0000      -0.478697       -13.0260
  55   2.0000      -0.470775       -12.8104
  56   2.0000      -0.468323       -12.7437
  57   2.0000      -0.456010       -12.4087
  58   2.0000      -0.381446       -10.3797
  59   2.0000      -0.282579        -7.6894
  60   0.0000       0.062485         1.7003
  61   0.0000       0.079031         2.1505
  62   0.0000       0.079944         2.1754
  63   0.0000       0.089741         2.4420
  64   0.0000       0.107767         2.9325

MULLIKEN ATOMIC CHARGES
-----------------------
   0 C :    0.680661
   1 N :    0.096686
   2 C :    0.286047
   3 C :   -0.113535
   4 H :    0.219187
   5 H :   -0.010354
   6 S :    1.400316
   7 C :    0.723651
   8 N :    0.312057
   9 C :    0.242151
  10 H :    0.029345
  11 H :   -0.555707
  12 H :   -0.796502
  13 H :   -0.299223
  14 H :   -0.154851
  15 O :   -0.625429
  16 O :   -0.666613
  17 C :    0.303834
  18 H :   -0.193772
  19 H :   -0.081463
  20 C :   -0.114775
  21 H :    0.085771
  22 H :    0.060578
  23 C :   -0.152369
  24 H :   -0.017280
  25 H :    0.038585
  26 F :   -0.479133
  27 H :    0.101108
  28 H :   -0.187149
  29 H :   -0.082013
  30 H :   -0.049811
Sum of atomic charges:   -0.0000000

LOEWDIN ATOMIC CHARGES
----------------------
   0 C :    0.046002
   1 N :   -0.004762
   2 C :   -0.050770
   3 C :   -0.057759
   4 H :    0.034944
   5 H :    0.047203
   6 S :    1.118823
   7 C :   -0.226746
   8 N :    0.191427
   9 C :    0.129438
  10 H :   -0.099749
  11 H :   -0.092478
  12 H :   -0.052251
  13 H :   -0.056056
  14 H :    0.026492
  15 O :   -0.439684
  16 O :   -0.436455
  17 C :   -0.030781
  18 H :    0.029421
  19 H :    0.030284
  20 C :   -0.047840
  21 H :    0.042064
  22 H :    0.049938
  23 C :   -0.052960
  24 H :    0.032188
  25 H :    0.034978
  26 F :   -0.284279
  27 H :    0.016284
  28 H :    0.039860
  29 H :    0.013942
  30 H :    0.049284

  Mayer bond orders larger than 0.100000
B(  0-C ,  1-N ) :   0.9721 B(  0-C , 12-H ) :  -0.3473 B(  0-C , 17-C ) :   1.0467
B(  0-C , 18-H ) :   0.9614 B(  0-C , 19-H ) :   0.7917 B(  1-N ,  7-C ) :   0.9539
B(  1-N ,  9-C ) :   0.4350 B(  1-N , 12-H ) :   1.0732 B(  1-N , 19-H ) :   0.1459
B(  2-C ,  3-C ) :   1.2614 B(  2-C ,  4-H ) :   0.1008 B(  2-C ,  5-H ) :   0.1462
B(  2-C , 20-C ) :   1.2629 B(  2-C , 21-H ) :   0.7268 B(  2-C , 22-H ) :   0.8244
B(  3-C ,  4-H ) :   0.8744 B(  3-C ,  5-H ) :   0.8697 B(  3-C ,  6-S ) :   1.0823
B(  3-C , 21-H ) :   0.1091 B(  6-S , 15-O ) :   1.5930 B(  6-S , 16-O ) :   1.5229
B(  6-S , 26-F ) :   0.6337 B(  7-C ,  8-N ) :   0.8245 B(  7-C ,  9-C ) :   1.6225
B(  7-C , 10-H ) :   0.2692 B(  7-C , 11-H ) :   0.2002 B(  7-C , 12-H ) :  -0.4181
B(  7-C , 14-H ) :  -0.1755 B(  8-N ,  9-C ) :   0.2229 B(  8-N , 13-H ) :   1.0809
B(  8-N , 14-H ) :   1.2884 B(  9-C , 10-H ) :   0.6189 B(  9-C , 11-H ) :   0.8773
B(  9-C , 12-H ) :  -0.1186 B( 10-H , 18-H ) :   0.1442 B( 13-H , 14-H ) :  -0.1736
B( 13-H , 26-F ) :   0.2103 B( 17-C , 23-C ) :   1.2602 B( 17-C , 24-H ) :   0.8478
B( 17-C , 25-H ) :   0.8737 B( 18-H , 19-H ) :  -0.1613 B( 20-C , 21-H ) :   0.2372
B( 20-C , 23-C ) :   1.1870 B( 20-C , 28-H ) :   0.1447 B( 20-C , 29-H ) :   1.0012
B( 20-C , 30-H ) :   0.8819 B( 23-C , 24-H ) :   0.1903 B( 23-C , 25-H ) :   0.1038
B( 23-C , 27-H ) :   0.8886 B( 23-C , 28-H ) :   0.9772 B( 23-C , 30-H ) :   0.1427

FINAL SINGLE POINT ENERGY     -1070.015325017311

DIPOLE MOMENT
-------------
                                X             Y             Z
Electronic contribution:     -1.05251      -2.30067     -20.25286
Nuclear contribution   :      0.52036       3.84122      20.69523
                        -----------------------------------------
Total Dipole Moment    :     -0.53215       1.54055       0.44237
                        -----------------------------------------
Magnitude (a.u.)       :      1.68883
Magnitude (Debye)      :      4.29267

Rotational constants in cm-1:     0.029184     0.014996     0.011314
Rotational constants in MHz :   874.907122   449.569665   339.178205

                             ****ORCA TERMINATED NORMALLY****
TOTAL RUN TIME: 0 days 0 hours 3 minutes 30 seconds 982 msec
