                         Program Version 5.0.0 -  RELEASE  -
|  1> !M062X D3Zero RIJCOSX def2-SVPD def2/J TightSCF
|  2> *xyz -1 1
|  3> C          0.61188        1.65763       -4.50029
|  4> C          1.69499        1.54179       -5.57045
|  5> H          2.69733        1.73466       -5.18400
|  6> H          1.50666        2.27224       -6.35808
|  7> S          1.78029       -0.03313       -6.42874
|  8> O          2.56929        0.21366       -7.60736
|  9> O          0.41688       -0.46297       -6.61859
| 10> O          2.50513       -0.93326       -5.48257
| 11> H         -0.34424        1.45871       -4.93752
| 12> H          0.61845        2.64655       -4.09174
| 13> H          0.80247        0.94882       -3.72173
| 14> *
| 15> %MaxCore 64000
| 16>
| 17> %pal nprocs 4
| 18> end
| 19>
| 20> %scf
| 21>   MaxIter 150
| 22> end
| 23>
| 24>
| 25>                          ****END OF INPUT****

CARTESIAN COORDINATES (ANGSTROEM)
---------------------------------
  C      0.611880    1.657630   -4.500290
  C      1.694990    1.541790   -5.570450
  H      2.697330    1.734660   -5.184000
  H      1.506660    2.272240   -6.358080
  S      1.780290   -0.033130   -6.428740
  O      2.569290    0.213660   -7.607360
  O      0.416880   -0.462970   -6.618590
  O      2.505130   -0.933260   -5.482570
  H     -0.344240    1.458710   -4.937520
  H      0.618450    2.646550   -4.091740
  H      0.802470    0.948820   -3.721730

 Total Charge           Charge          ....   -1
 Multiplicity           Mult            ....    1
 Number of Electrons    NEL             ....   58
 Basis Dimension        Dim             ....  176

ORBITAL ENERGIES
----------------

  NO   OCC          E(Eh)            E(eV)
   0   2.0000     -89.935690     -2447.2745
   1   2.0000     -19.419586      -528.4338
   2   2.0000     -19.418788      -528.4121
   3   2.0000     -19.399879      -527.8975
   4   2.0000     -10.413564      -283.3675
   5   2.0000     -10.410006      -283.2707
   6   2.0000      -8.259262      -224.7460
   7   2.0000      -6.184641      -168.2926
   8   2.0000      -6.184381      -168.2856
   9   2.0000      -6.184079      -168.2773
  10   2.0000      -1.049851       -28.5679
  11   2.0000      -0.910140       -24.7662
  12   2.0000      -0.874275       -23.7902
  13   2.0000      -0.724891       -19.7253
  14   2.0000      -0.592794       -16.1307
  15   2.0000      -0.463442       -12.6109
  16   2.0000      -0.396953       -10.8016
  17   2.0000      -0.391742       -10.6598
  18   2.0000      -0.355584        -9.6759
  19   2.0000      -0.342722        -9.3259
  20   2.0000      -0.331530        -9.0214
  21   2.0000      -0.297032        -8.0827
  22   2.0000      -0.280862        -7.6427
  23   2.0000      -0.227179        -6.1819
  24   2.0000      -0.224430        -6.1070
  25   2.0000      -0.190457        -5.1826
  26   2.0000      -0.175288        -4.7698
  27   2.0000      -0.163121        -4.4387
  28   2.0000      -0.134815        -3.6685
  29   0.0000       0.156340         4.2542
  30   0.0000       0.178495         4.8571
  31   0.0000       0.181533         4.9398
  32   0.0000       0.190276         5.1777
  33   0.0000       0.208915         5.6849

MULLIKEN ATOMIC CHARGES
-----------------------
   0 C :    0.730990
   1 C :   -0.346583
   2 H :   -0.080182
   3 H :   -0.031138
   4 S :    1.433487
   5 O :   -0.822805
   6 O :   -0.830538
   7 O :   -0.875400
   8 H :   -0.037791
   9 H :   -0.097536
  10 H :   -0.042505
Sum of atomic charges:   -1.0000000

LOEWDIN ATOMIC CHARGES
----------------------
   0 C :    0.104383
   1 C :   -0.135874
   2 H :    0.006140
   3 H :   -0.001269
   4 S :    0.893636
   5 O :   -0.589537
   6 O :   -0.585018
   7 O :   -0.621545
   8 H :   -0.023293
   9 H :   -0.033226
  10 H :   -0.014398

  Mayer bond orders larger than 0.100000
B(  0-C ,  1-C ) :   1.2968 B(  0-C ,  8-H ) :   0.8219 B(  0-C ,  9-H ) :   0.7544
B(  0-C , 10-H ) :   0.8167 B(  1-C ,  2-H ) :   1.0025 B(  1-C ,  3-H ) :   0.9961
B(  1-C ,  4-S ) :   0.8960 B(  1-C ,  8-H ) :   0.2060 B(  1-C ,  9-H ) :   0.2126
B(  1-C , 10-H ) :   0.1902 B(  4-S ,  5-O ) :   1.3081 B(  4-S ,  6-O ) :   1.2780
B(  4-S ,  7-O ) :   1.2367

Dispersion correction           -0.000147532
FINAL SINGLE POINT ENERGY      -702.624784264822

DIPOLE MOMENT
-------------
                                X             Y             Z
Electronic contribution:      2.21109      -5.54609      -4.95487
Nuclear contribution   :     -2.69163       7.29476       5.86550
                        -----------------------------------------
Total Dipole Moment    :     -0.48054       1.74867       0.91063
                        -----------------------------------------
Magnitude (a.u.)       :      2.02929
Magnitude (Debye)      :      5.15803

Rotational constants in cm-1:     0.163060     0.082831     0.081111
Rotational constants in MHz :  4888.419330  2483.225008  2431.646841

                             ****ORCA TERMINATED NORMALLY****
TOTAL RUN TIME: 0 days 0 hours 0 minutes 17 seconds 27 msec
