                         Program Version 5.0.0 -  RELEASE  -
|  1> !M062X D3Zero RIJCOSX def2-SVPD def2/J TightSCF
|  2> *xyz 1 1
|  3> C          1.96337       -1.74915       -1.89689
|  4> N          2.73849       -2.01517       -3.09711
|  5> C          4.04974       -2.15472       -3.15204
|  6> N          4.65821       -1.98629       -4.31866
|  7> N          4.76423       -2.45444       -2.05049
|  8> H          4.28736       -2.77626       -1.21750
|  9> H          5.75082       -2.65835       -2.12599
| 10> H          2.34518       -1.69027       -3.97145
| 11> H          4.10900       -1.59268       -5.07176
| 12> H          5.64910       -2.15646       -4.42724
| 13> C          2.08852       -0.30091       -1.41520
| 14> H          2.23127       -2.45162       -1.10264
| 15> H          0.93025       -1.97780       -2.15544
| 16> H          1.82118        0.36368       -2.21003
| 17> H          3.09792       -0.11068       -1.11551
| 18> H          1.43391       -0.14382       -0.58352
| 19> *
| 20> %MaxCore 64000
| 21>
| 22> %pal nprocs 4
| 23> end
| 24>
| 25> %scf
| 26>   MaxIter 150
| 27> end
| 28>
| 29>
| 30>                          ****END OF INPUT****

CARTESIAN COORDINATES (ANGSTROEM)
---------------------------------
  C      1.963370   -1.749150   -1.896890
  N      2.738490   -2.015170   -3.097110
  C      4.049740   -2.154720   -3.152040
  N      4.658210   -1.986290   -4.318660
  N      4.764230   -2.454440   -2.050490
  H      4.287360   -2.776260   -1.217500
  H      5.750820   -2.658350   -2.125990
  H      2.345180   -1.690270   -3.971450
  H      4.109000   -1.592680   -5.071760
  H      5.649100   -2.156460   -4.427240
  C      2.088520   -0.300910   -1.415200
  H      2.231270   -2.451620   -1.102640
  H      0.930250   -1.977800   -2.155440
  H      1.821180    0.363680   -2.210030
  H      3.097920   -0.110680   -1.115510
  H      1.433910   -0.143820   -0.583520

 Total Charge           Charge          ....    1
 Multiplicity           Mult            ....    1
 Number of Electrons    NEL             ....   48
 Basis Dimension        Dim             ....  200

ORBITAL ENERGIES
----------------

  NO   OCC          E(Eh)            E(eV)
   0   2.0000     -14.988180      -407.8491
   1   2.0000     -14.986920      -407.8148
   2   2.0000     -14.986067      -407.7916
   3   2.0000     -10.892581      -296.4022
   4   2.0000     -10.759794      -292.7889
   5   2.0000     -10.687404      -290.8191
   6   2.0000      -1.321807       -35.9682
   7   2.0000      -1.201564       -32.6962
   8   2.0000      -1.187430       -32.3116
   9   2.0000      -1.019340       -27.7377
  10   2.0000      -0.923979       -25.1428
  11   2.0000      -0.885855       -24.1053
  12   2.0000      -0.863400       -23.4943
  13   2.0000      -0.821372       -22.3507
  14   2.0000      -0.766400       -20.8548
  15   2.0000      -0.758683       -20.6448
  16   2.0000      -0.731671       -19.9098
  17   2.0000      -0.700218       -19.0539
  18   2.0000      -0.669540       -18.2191
  19   2.0000      -0.631246       -17.1771
  20   2.0000      -0.596478       -16.2310
  21   2.0000      -0.575495       -15.6600
  22   2.0000      -0.542911       -14.7734
  23   2.0000      -0.511482       -13.9181
  24   0.0000      -0.134541        -3.6610
  25   0.0000      -0.131583        -3.5806
  26   0.0000      -0.099690        -2.7127
  27   0.0000      -0.092553        -2.5185
  28   0.0000      -0.063567        -1.7297

MULLIKEN ATOMIC CHARGES
-----------------------
   0 C :    0.245176
   1 N :   -0.456288
   2 C :    1.517737
   3 N :   -0.171374
   4 N :   -0.068079
   5 H :   -0.015488
   6 H :   -0.145358
   7 H :   -0.172608
   8 H :    0.006730
   9 H :   -0.058559
  10 C :    0.645243
  11 H :   -0.067369
  12 H :   -0.266041
  13 H :   -0.011477
  14 H :   -0.027590
  15 H :    0.045346
Sum of atomic charges:    1.0000000

LOEWDIN ATOMIC CHARGES
----------------------
   0 C :    0.043472
   1 N :    0.029407
   2 C :   -0.025765
   3 N :    0.257607
   4 N :    0.275200
   5 H :    0.023376
   6 H :    0.038182
   7 H :    0.057529
   8 H :    0.040216
   9 H :    0.045480
  10 C :    0.165446
  11 H :    0.027315
  12 H :    0.040854
  13 H :   -0.006040
  14 H :   -0.015518
  15 H :    0.003243

  Mayer bond orders larger than 0.100000
B(  0-C ,  1-N ) :   0.9264 B(  0-C ,  7-H ) :  -0.1315 B(  0-C , 10-C ) :   1.2358
B(  0-C , 11-H ) :   0.9091 B(  0-C , 12-H ) :   0.9011 B(  0-C , 13-H ) :   0.2266
B(  0-C , 14-H ) :   0.1855 B(  0-C , 15-H ) :   0.1571 B(  1-N ,  2-C ) :   1.0291
B(  1-N ,  3-N ) :   0.2901 B(  1-N ,  4-N ) :   0.2057 B(  1-N ,  7-H ) :   1.2567
B(  1-N , 11-H ) :   0.1210 B(  1-N , 12-H ) :   0.2159 B(  2-C ,  3-N ) :   0.7624
B(  2-C ,  4-N ) :   0.8838 B(  2-C ,  5-H ) :  -0.1285 B(  2-C ,  6-H ) :  -0.1769
B(  2-C ,  7-H ) :  -0.2217 B(  2-C ,  8-H ) :  -0.1461 B(  2-C ,  9-H ) :  -0.1515
B(  3-N ,  4-N ) :   0.1479 B(  3-N ,  8-H ) :   1.1498 B(  3-N ,  9-H ) :   1.2557
B(  4-N ,  5-H ) :   1.0853 B(  4-N ,  6-H ) :   1.2857 B(  5-H ,  6-H ) :  -0.2167
B(  8-H ,  9-H ) :  -0.1849 B( 10-C , 13-H ) :   0.8108 B( 10-C , 14-H ) :   0.8500
B( 10-C , 15-H ) :   0.8100

Dispersion correction           -0.000320300
FINAL SINGLE POINT ENERGY      -284.066640750227

DIPOLE MOMENT
-------------
                                X             Y             Z
Electronic contribution:      3.00786      -2.70377      -3.08381
Nuclear contribution   :     -2.17768       2.37118       2.44574
                        -----------------------------------------
Total Dipole Moment    :      0.83018      -0.33259      -0.63807
                        -----------------------------------------
Magnitude (a.u.)       :      1.09861
Magnitude (Debye)      :      2.79243

Rotational constants in cm-1:     0.215650     0.075183     0.066454
Rotational constants in MHz :  6465.033740  2253.919004  1992.232519

                             ****ORCA TERMINATED NORMALLY****
TOTAL RUN TIME: 0 days 0 hours 0 minutes 24 seconds 86 msec
