                         Program Version 5.0.0 -  RELEASE  -
|  1> !M062X D3Zero RIJCOSX def2-SVPD def2/J TightSCF
|  2> *xyz 0 1
|  3> C          0.61188        1.65763       -4.50029
|  4> C          1.69499        1.54179       -5.57045
|  5> H          2.69733        1.73466       -5.18400
|  6> H          1.50666        2.27224       -6.35808
|  7> S          1.78029       -0.03313       -6.42874
|  8> F          2.56929        0.21366       -7.60736
|  9> O          0.41688       -0.46297       -6.61859
| 10> O          2.50513       -0.93326       -5.48257
| 11> H         -0.34424        1.45871       -4.93752
| 12> H          0.61845        2.64655       -4.09174
| 13> H          0.80247        0.94882       -3.72173
| 14> *
| 15> %MaxCore 64000
| 16>
| 17> %pal nprocs 4
| 18> end
| 19>
| 20> %scf
| 21>   MaxIter 150
| 22> end
| 23>
| 24>
| 25>                          ****END OF INPUT****

CARTESIAN COORDINATES (ANGSTROEM)
---------------------------------
  C      0.611880    1.657630   -4.500290
  C      1.694990    1.541790   -5.570450
  H      2.697330    1.734660   -5.184000
  H      1.506660    2.272240   -6.358080
  S      1.780290   -0.033130   -6.428740
  F      2.569290    0.213660   -7.607360
  O      0.416880   -0.462970   -6.618590
  O      2.505130   -0.933260   -5.482570
  H     -0.344240    1.458710   -4.937520
  H      0.618450    2.646550   -4.091740
  H      0.802470    0.948820   -3.721730

 Total Charge           Charge          ....    0
 Multiplicity           Mult            ....    1
 Number of Electrons    NEL             ....   58
 Basis Dimension        Dim             ....  176

ORBITAL ENERGIES
----------------

  NO   OCC          E(Eh)            E(eV)
   0   2.0000     -90.198261     -2454.4195
   1   2.0000     -25.382664      -690.6974
   2   2.0000     -19.655836      -534.8625
   3   2.0000     -19.635844      -534.3185
   4   2.0000     -10.618044      -288.9317
   5   2.0000     -10.574063      -287.7349
   6   2.0000      -8.522909      -231.9202
   7   2.0000      -6.451286      -175.5484
   8   2.0000      -6.445971      -175.4038
   9   2.0000      -6.444941      -175.3758
  10   2.0000      -1.521981       -41.4152
  11   2.0000      -1.226519       -33.3753
  12   2.0000      -1.112860       -30.2825
  13   2.0000      -0.919377       -25.0175
  14   2.0000      -0.839058       -22.8319
  15   2.0000      -0.769121       -20.9289
  16   2.0000      -0.693327       -18.8664
  17   2.0000      -0.685705       -18.6590
  18   2.0000      -0.643627       -17.5140
  19   2.0000      -0.571543       -15.5525
  20   2.0000      -0.565937       -15.3999
  21   2.0000      -0.522080       -14.2065
  22   2.0000      -0.504090       -13.7170
  23   2.0000      -0.478913       -13.0319
  24   2.0000      -0.460426       -12.5288
  25   2.0000      -0.456336       -12.4175
  26   2.0000      -0.408488       -11.1155
  27   2.0000      -0.387995       -10.5579
  28   2.0000      -0.377854       -10.2819
  29   0.0000       0.008958         0.2437
  30   0.0000       0.034747         0.9455
  31   0.0000       0.041885         1.1398
  32   0.0000       0.045938         1.2500
  33   0.0000       0.071511         1.9459

MULLIKEN ATOMIC CHARGES
-----------------------
   0 C :    0.692041
   1 C :   -0.432774
   2 H :   -0.002879
   3 H :    0.046406
   4 S :    1.599157
   5 F :   -0.423547
   6 O :   -0.690461
   7 O :   -0.737667
   8 H :   -0.000056
   9 H :   -0.043039
  10 H :   -0.007180
Sum of atomic charges:   -0.0000000

LOEWDIN ATOMIC CHARGES
----------------------
   0 C :    0.150217
   1 C :   -0.098933
   2 H :    0.025705
   3 H :    0.016378
   4 S :    1.158222
   5 F :   -0.266165
   6 O :   -0.474764
   7 O :   -0.506251
   8 H :   -0.005564
   9 H :   -0.002174
  10 H :    0.003330

  Mayer bond orders larger than 0.100000
B(  0-C ,  1-C ) :   1.3656 B(  0-C ,  8-H ) :   0.8230 B(  0-C ,  9-H ) :   0.7712
B(  0-C , 10-H ) :   0.8235 B(  1-C ,  2-H ) :   1.0002 B(  1-C ,  3-H ) :   0.9681
B(  1-C ,  4-S ) :   0.9475 B(  1-C ,  8-H ) :   0.1984 B(  1-C ,  9-H ) :   0.2011
B(  1-C , 10-H ) :   0.1815 B(  4-S ,  5-F ) :   0.6387 B(  4-S ,  6-O ) :   1.5065
B(  4-S ,  7-O ) :   1.4535

Dispersion correction           -0.000142776
FINAL SINGLE POINT ENERGY      -727.104686916800

DIPOLE MOMENT
-------------
                                X             Y             Z
Electronic contribution:      3.85179      -5.55475      -7.50905
Nuclear contribution   :     -3.66946       7.33549       7.42434
                        -----------------------------------------
Total Dipole Moment    :      0.18233       1.78074      -0.08471
                        -----------------------------------------
Magnitude (a.u.)       :      1.79205
Magnitude (Debye)      :      4.55503

Rotational constants in cm-1:     0.158379     0.080294     0.077843
Rotational constants in MHz :  4748.076444  2407.152850  2333.668303

                             ****ORCA TERMINATED NORMALLY****
TOTAL RUN TIME: 0 days 0 hours 0 minutes 19 seconds 229 msec
