                         Program Version 5.0.0 -  RELEASE  -
|  1> !M062X D3Zero RIJCOSX def2-SVPD def2/J TightSCF
|  2> *xyz 0 1
|  3> C          1.96337       -1.74915       -1.89689
|  4> C          2.73849       -2.01517       -3.09711
|  5> C          4.04974       -2.15472       -3.15204
|  6> N          4.65821       -1.98629       -4.31866
|  7> N          4.76423       -2.45444       -2.05049
|  8> H          4.28736       -2.77626       -1.21750
|  9> H          5.75082       -2.65835       -2.12599
| 10> H          2.34518       -1.69027       -3.97145
| 11> H          4.10900       -1.59268       -5.07176
| 12> H          5.64910       -2.15646       -4.42724
| 13> C          2.08852       -0.30091       -1.41520
| 14> H          2.23127       -2.45162       -1.10264
| 15> H          0.93025       -1.97780       -2.15544
| 16> H          1.82118        0.36368       -2.21003
| 17> H          3.09792       -0.11068       -1.11551
| 18> H          1.43391       -0.14382       -0.58352
| 19> *
| 20> %MaxCore 64000
| 21>
| 22> %pal nprocs 4
| 23> end
| 24>
| 25> %scf
| 26>   MaxIter 150
| 27> end
| 28>
| 29>
| 30>                          ****END OF INPUT****

CARTESIAN COORDINATES (ANGSTROEM)
---------------------------------
  C      1.963370   -1.749150   -1.896890
  C      2.738490   -2.015170   -3.097110
  C      4.049740   -2.154720   -3.152040
  N      4.658210   -1.986290   -4.318660
  N      4.764230   -2.454440   -2.050490
  H      4.287360   -2.776260   -1.217500
  H      5.750820   -2.658350   -2.125990
  H      2.345180   -1.690270   -3.971450
  H      4.109000   -1.592680   -5.071760
  H      5.649100   -2.156460   -4.427240
  C      2.088520   -0.300910   -1.415200
  H      2.231270   -2.451620   -1.102640
  H      0.930250   -1.977800   -2.155440
  H      1.821180    0.363680   -2.210030
  H      3.097920   -0.110680   -1.115510
  H      1.433910   -0.143820   -0.583520

 Total Charge           Charge          ....    0
 Multiplicity           Mult            ....    1
 Number of Electrons    NEL             ....   48
 Basis Dimension        Dim             ....  200

ORBITAL ENERGIES
----------------

  NO   OCC          E(Eh)            E(eV)
   0   2.0000     -14.763552      -401.7367
   1   2.0000     -14.760648      -401.6577
   2   2.0000     -10.595734      -288.3246
   3   2.0000     -10.524781      -286.3939
   4   2.0000     -10.514708      -286.1198
   5   2.0000     -10.470659      -284.9211
   6   2.0000      -1.060064       -28.8458
   7   2.0000      -0.963161       -26.2089
   8   2.0000      -0.863661       -23.5014
   9   2.0000      -0.778500       -21.1840
  10   2.0000      -0.696144       -18.9430
  11   2.0000      -0.656621       -17.8676
  12   2.0000      -0.617468       -16.8021
  13   2.0000      -0.582313       -15.8456
  14   2.0000      -0.542107       -14.7515
  15   2.0000      -0.507796       -13.8178
  16   2.0000      -0.489889       -13.3305
  17   2.0000      -0.456227       -12.4146
  18   2.0000      -0.446038       -12.1373
  19   2.0000      -0.418488       -11.3876
  20   2.0000      -0.389299       -10.5934
  21   2.0000      -0.378655       -10.3037
  22   2.0000      -0.330843        -9.0027
  23   2.0000      -0.211278        -5.7492
  24   0.0000       0.034169         0.9298
  25   0.0000       0.060558         1.6479
  26   0.0000       0.067385         1.8336
  27   0.0000       0.078592         2.1386
  28   0.0000       0.099606         2.7104

MULLIKEN ATOMIC CHARGES
-----------------------
   0 C :   -0.205331
   1 C :   -0.339361
   2 C :    0.941819
   3 N :   -0.133066
   4 N :   -0.155611
   5 H :    0.006459
   6 H :   -0.260867
   7 H :   -0.139237
   8 H :    0.015979
   9 H :   -0.158121
  10 C :    0.698386
  11 H :   -0.077131
  12 H :   -0.098016
  13 H :   -0.035925
  14 H :   -0.055140
  15 H :   -0.004840
Sum of atomic charges:   -0.0000000

LOEWDIN ATOMIC CHARGES
----------------------
   0 C :   -0.104046
   1 C :   -0.043545
   2 C :   -0.219940
   3 N :    0.168867
   4 N :    0.192947
   5 H :   -0.006198
   6 H :   -0.009918
   7 H :   -0.051014
   8 H :    0.008330
   9 H :   -0.003940
  10 C :    0.124172
  11 H :    0.002905
  12 H :    0.012308
  13 H :   -0.018668
  14 H :   -0.025408
  15 H :   -0.026853

  Mayer bond orders larger than 0.100000
B(  0-C ,  1-C ) :   1.2540 B(  0-C ,  7-H ) :   0.2789 B(  0-C , 10-C ) :   1.2026
B(  0-C , 11-H ) :   0.8885 B(  0-C , 12-H ) :   0.8245 B(  0-C , 13-H ) :   0.2368
B(  0-C , 14-H ) :   0.2096 B(  0-C , 15-H ) :   0.1774 B(  1-C ,  2-C ) :   1.7968
B(  1-C ,  3-N ) :   0.3010 B(  1-C ,  4-N ) :   0.2041 B(  1-C ,  7-H ) :   0.7318
B(  1-C , 11-H ) :   0.2115 B(  1-C , 12-H ) :   0.2791 B(  2-C ,  3-N ) :   0.8041
B(  2-C ,  4-N ) :   0.8075 B(  2-C ,  6-H ) :  -0.2272 B(  2-C ,  7-H ) :   0.3066
B(  2-C ,  9-H ) :  -0.1094 B(  3-N ,  4-N ) :   0.1129 B(  3-N ,  8-H ) :   1.1268
B(  3-N ,  9-H ) :   1.2716 B(  4-N ,  5-H ) :   1.0327 B(  4-N ,  6-H ) :   1.3825
B(  5-H ,  6-H ) :  -0.2216 B(  8-H ,  9-H ) :  -0.1806 B( 10-C , 13-H ) :   0.8243
B( 10-C , 14-H ) :   0.8397 B( 10-C , 15-H ) :   0.7996

Dispersion correction           -0.000318455
FINAL SINGLE POINT ENERGY      -267.598585930085

DIPOLE MOMENT
-------------
                                X             Y             Z
Electronic contribution:      3.28042      -2.42772      -2.51982
Nuclear contribution   :     -2.31778       2.31977       2.35294
                        -----------------------------------------
Total Dipole Moment    :      0.96264      -0.10796      -0.16688
                        -----------------------------------------
Magnitude (a.u.)       :      0.98295
Magnitude (Debye)      :      2.49845

Rotational constants in cm-1:     0.219415     0.075373     0.066689
Rotational constants in MHz :  6577.897266  2259.621393  1999.290981

                             ****ORCA TERMINATED NORMALLY****
TOTAL RUN TIME: 0 days 0 hours 0 minutes 24 seconds 380 msec
