                         Program Version 5.0.0 -  RELEASE  -
|  1> !M062X D3Zero RIJCOSX def2-SVPD def2/J TightSCF
|  2> *xyz 0 1
|  3> C          0.61188        1.65763       -4.50029
|  4> C          1.69499        1.54179       -5.57045
|  5> H          2.69733        1.73466       -5.18400
|  6> H          1.50666        2.27224       -6.35808
|  7> S          1.78029       -0.03313       -6.42874
|  8> O          2.56929        0.21366       -7.60736
|  9> F          0.41688       -0.46297       -6.61859
| 10> O          2.50513       -0.93326       -5.48257
| 11> H         -0.34424        1.45871       -4.93752
| 12> H          0.61845        2.64655       -4.09174
| 13> H          0.80247        0.94882       -3.72173
| 14> *
| 15> %MaxCore 64000
| 16>
| 17> %pal nprocs 4
| 18> end
| 19>
| 20> %scf
| 21>   MaxIter 150
| 22> end
| 23>
| 24>
| 25>                          ****END OF INPUT****

CARTESIAN COORDINATES (ANGSTROEM)
---------------------------------
  C      0.611880    1.657630   -4.500290
  C      1.694990    1.541790   -5.570450
  H      2.697330    1.734660   -5.184000
  H      1.506660    2.272240   -6.358080
  S      1.780290   -0.033130   -6.428740
  O      2.569290    0.213660   -7.607360
  F      0.416880   -0.462970   -6.618590
  O      2.505130   -0.933260   -5.482570
  H     -0.344240    1.458710   -4.937520
  H      0.618450    2.646550   -4.091740
  H      0.802470    0.948820   -3.721730

 Total Charge           Charge          ....    0
 Multiplicity           Mult            ....    1
 Number of Electrons    NEL             ....   58
 Basis Dimension        Dim             ....  176

ORBITAL ENERGIES
----------------

  NO   OCC          E(Eh)            E(eV)
   0   2.0000     -90.198002     -2454.4124
   1   2.0000     -25.382338      -690.6885
   2   2.0000     -19.655399      -534.8506
   3   2.0000     -19.635971      -534.3219
   4   2.0000     -10.617899      -288.9277
   5   2.0000     -10.579741      -287.8894
   6   2.0000      -8.522663      -231.9134
   7   2.0000      -6.451169      -175.5452
   8   2.0000      -6.445651      -175.3951
   9   2.0000      -6.444636      -175.3675
  10   2.0000      -1.520432       -41.3731
  11   2.0000      -1.227745       -33.4086
  12   2.0000      -1.112670       -30.2773
  13   2.0000      -0.923375       -25.1263
  14   2.0000      -0.835357       -22.7312
  15   2.0000      -0.772864       -21.0307
  16   2.0000      -0.698611       -19.0102
  17   2.0000      -0.691343       -18.8124
  18   2.0000      -0.633619       -17.2416
  19   2.0000      -0.572464       -15.5775
  20   2.0000      -0.560107       -15.2413
  21   2.0000      -0.530177       -14.4269
  22   2.0000      -0.513633       -13.9767
  23   2.0000      -0.483390       -13.1537
  24   2.0000      -0.466171       -12.6852
  25   2.0000      -0.455423       -12.3927
  26   2.0000      -0.406550       -11.0628
  27   2.0000      -0.388617       -10.5748
  28   2.0000      -0.378056       -10.2874
  29   0.0000       0.007091         0.1930
  30   0.0000       0.036838         1.0024
  31   0.0000       0.041670         1.1339
  32   0.0000       0.045513         1.2385
  33   0.0000       0.071570         1.9475

MULLIKEN ATOMIC CHARGES
-----------------------
   0 C :    0.702724
   1 C :   -0.401360
   2 H :   -0.005631
   3 H :    0.039077
   4 S :    1.569544
   5 O :   -0.677724
   6 F :   -0.427934
   7 O :   -0.735130
   8 H :   -0.011337
   9 H :   -0.044363
  10 H :   -0.007865
Sum of atomic charges:   -0.0000000

LOEWDIN ATOMIC CHARGES
----------------------
   0 C :    0.134615
   1 C :   -0.086212
   2 H :    0.038143
   3 H :    0.020324
   4 S :    1.155299
   5 O :   -0.475123
   6 F :   -0.265911
   7 O :   -0.505412
   8 H :   -0.011382
   9 H :   -0.003604
  10 H :   -0.000737

  Mayer bond orders larger than 0.100000
B(  0-C ,  1-C ) :   1.3150 B(  0-C ,  8-H ) :   0.8230 B(  0-C ,  9-H ) :   0.7691
B(  0-C , 10-H ) :   0.8322 B(  1-C ,  2-H ) :   1.0034 B(  1-C ,  3-H ) :   1.0024
B(  1-C ,  4-S ) :   0.9694 B(  1-C ,  8-H ) :   0.1853 B(  1-C ,  9-H ) :   0.2052
B(  1-C , 10-H ) :   0.1804 B(  4-S ,  5-O ) :   1.5375 B(  4-S ,  6-F ) :   0.6276
B(  4-S ,  7-O ) :   1.4664

Dispersion correction           -0.000154283
FINAL SINGLE POINT ENERGY      -727.104522766167

DIPOLE MOMENT
-------------
                                X             Y             Z
Electronic contribution:      0.20724      -6.68658      -5.81053
Nuclear contribution   :     -1.42658       8.04056       6.39401
                        -----------------------------------------
Total Dipole Moment    :     -1.21934       1.35398       0.58349
                        -----------------------------------------
Magnitude (a.u.)       :      1.91325
Magnitude (Debye)      :      4.86309

Rotational constants in cm-1:     0.153659     0.082363     0.078978
Rotational constants in MHz :  4606.587369  2469.179541  2367.702074

                             ****ORCA TERMINATED NORMALLY****
TOTAL RUN TIME: 0 days 0 hours 0 minutes 18 seconds 175 msec
