                         Program Version 5.0.0 -  RELEASE  -
|  1> !M062X D3Zero RIJCOSX def2-SVPD def2/J TightSCF
|  2> *xyz 0 1
|  3> C          1.96337       -1.74915       -1.89689
|  4> N          2.73849       -2.01517       -3.09711
|  5> C          4.04974       -2.15472       -3.15204
|  6> C          4.65821       -1.98629       -4.31866
|  7> N          4.76423       -2.45444       -2.05049
|  8> H          4.28736       -2.77626       -1.21750
|  9> H          5.75082       -2.65835       -2.12599
| 10> H          2.34518       -1.69027       -3.97145
| 11> H          4.10900       -1.59268       -5.07176
| 12> H          5.64910       -2.15646       -4.42724
| 13> C          2.08852       -0.30091       -1.41520
| 14> H          2.23127       -2.45162       -1.10264
| 15> H          0.93025       -1.97780       -2.15544
| 16> H          1.82118        0.36368       -2.21003
| 17> H          3.09792       -0.11068       -1.11551
| 18> H          1.43391       -0.14382       -0.58352
| 19> *
| 20> %MaxCore 64000
| 21>
| 22> %pal nprocs 4
| 23> end
| 24>
| 25> %scf
| 26>   MaxIter 150
| 27> end
| 28>
| 29>
| 30>                          ****END OF INPUT****

CARTESIAN COORDINATES (ANGSTROEM)
---------------------------------
  C      1.963370   -1.749150   -1.896890
  N      2.738490   -2.015170   -3.097110
  C      4.049740   -2.154720   -3.152040
  C      4.658210   -1.986290   -4.318660
  N      4.764230   -2.454440   -2.050490
  H      4.287360   -2.776260   -1.217500
  H      5.750820   -2.658350   -2.125990
  H      2.345180   -1.690270   -3.971450
  H      4.109000   -1.592680   -5.071760
  H      5.649100   -2.156460   -4.427240
  C      2.088520   -0.300910   -1.415200
  H      2.231270   -2.451620   -1.102640
  H      0.930250   -1.977800   -2.155440
  H      1.821180    0.363680   -2.210030
  H      3.097920   -0.110680   -1.115510
  H      1.433910   -0.143820   -0.583520

 Total Charge           Charge          ....    0
 Multiplicity           Mult            ....    1
 Number of Electrons    NEL             ....   48
 Basis Dimension        Dim             ....  200

ORBITAL ENERGIES
----------------

  NO   OCC          E(Eh)            E(eV)
   0   2.0000     -14.761692      -401.6861
   1   2.0000     -14.759885      -401.6369
   2   2.0000     -10.596584      -288.3477
   3   2.0000     -10.591467      -288.2085
   4   2.0000     -10.539381      -286.7911
   5   2.0000     -10.462862      -284.7090
   6   2.0000      -1.068913       -29.0866
   7   2.0000      -0.976420       -26.5697
   8   2.0000      -0.859751       -23.3950
   9   2.0000      -0.786727       -21.4079
  10   2.0000      -0.709679       -19.3114
  11   2.0000      -0.676585       -18.4108
  12   2.0000      -0.610242       -16.6055
  13   2.0000      -0.567935       -15.4543
  14   2.0000      -0.549092       -14.9416
  15   2.0000      -0.506425       -13.7805
  16   2.0000      -0.502742       -13.6803
  17   2.0000      -0.468366       -12.7449
  18   2.0000      -0.449337       -12.2271
  19   2.0000      -0.438386       -11.9291
  20   2.0000      -0.425505       -11.5786
  21   2.0000      -0.418956       -11.4004
  22   2.0000      -0.317354        -8.6356
  23   2.0000      -0.215041        -5.8516
  24   0.0000       0.031543         0.8583
  25   0.0000       0.061053         1.6613
  26   0.0000       0.063603         1.7307
  27   0.0000       0.068317         1.8590
  28   0.0000       0.098639         2.6841

MULLIKEN ATOMIC CHARGES
-----------------------
   0 C :    0.266366
   1 N :   -0.403447
   2 C :    0.797096
   3 C :    0.290835
   4 N :    0.042427
   5 H :   -0.104739
   6 H :   -0.171758
   7 H :   -0.212533
   8 H :   -0.230026
   9 H :   -0.406321
  10 C :    0.643802
  11 H :   -0.108835
  12 H :   -0.313916
  13 H :   -0.043413
  14 H :   -0.034607
  15 H :   -0.010932
Sum of atomic charges:   -0.0000000

LOEWDIN ATOMIC CHARGES
----------------------
   0 C :    0.011875
   1 N :   -0.033703
   2 C :   -0.240465
   3 C :    0.148307
   4 N :    0.191266
   5 H :   -0.021389
   6 H :    0.006596
   7 H :    0.032492
   8 H :   -0.100396
   9 H :   -0.099074
  10 C :    0.136987
  11 H :    0.009574
  12 H :    0.018016
  13 H :   -0.017174
  14 H :   -0.022117
  15 H :   -0.020793

  Mayer bond orders larger than 0.100000
B(  0-C ,  1-N ) :   0.9154 B(  0-C ,  7-H ) :  -0.1400 B(  0-C , 10-C ) :   1.2084
B(  0-C , 11-H ) :   0.9045 B(  0-C , 12-H ) :   0.8999 B(  0-C , 13-H ) :   0.2401
B(  0-C , 14-H ) :   0.1905 B(  0-C , 15-H ) :   0.1648 B(  1-N ,  2-C ) :   1.0426
B(  1-N ,  3-C ) :   0.2641 B(  1-N ,  4-N ) :   0.1397 B(  1-N ,  7-H ) :   1.1997
B(  1-N , 11-H ) :   0.1355 B(  1-N , 12-H ) :   0.2114 B(  2-C ,  3-C ) :   1.3936
B(  2-C ,  4-N ) :   0.9049 B(  2-C ,  6-H ) :  -0.1304 B(  2-C ,  7-H ) :  -0.1742
B(  2-C ,  9-H ) :   0.1355 B(  3-C ,  4-N ) :   0.1873 B(  3-C ,  8-H ) :   0.8784
B(  3-C ,  9-H ) :   0.8448 B(  4-N ,  5-H ) :   1.0640 B(  4-N ,  6-H ) :   1.2401
B(  5-H ,  6-H ) :  -0.2131 B( 10-C , 13-H ) :   0.8062 B( 10-C , 14-H ) :   0.8433
B( 10-C , 15-H ) :   0.8260

Dispersion correction           -0.000314216
FINAL SINGLE POINT ENERGY      -267.593598823254

DIPOLE MOMENT
-------------
                                X             Y             Z
Electronic contribution:      1.40687      -2.33011      -1.21657
Nuclear contribution   :     -1.91052       2.32590       2.09379
                        -----------------------------------------
Total Dipole Moment    :     -0.50365      -0.00422       0.87723
                        -----------------------------------------
Magnitude (a.u.)       :      1.01154
Magnitude (Debye)      :      2.57112

Rotational constants in cm-1:     0.219448     0.077923     0.068804
Rotational constants in MHz :  6578.886179  2336.083179  2062.700476

                             ****ORCA TERMINATED NORMALLY****
TOTAL RUN TIME: 0 days 0 hours 0 minutes 25 seconds 182 msec
