                         Program Version 5.0.0 -  RELEASE  -
|  1> !M062X D3Zero RIJCOSX def2-SVPD def2/J TightSCF
|  2> *xyz 0 1
|  3> C          0.61188        1.65763       -4.50029
|  4> C          1.69499        1.54179       -5.57045
|  5> H          2.69733        1.73466       -5.18400
|  6> H          1.50666        2.27224       -6.35808
|  7> S          1.78029       -0.03313       -6.42874
|  8> O          2.56929        0.21366       -7.60736
|  9> O          0.41688       -0.46297       -6.61859
| 10> F          2.50513       -0.93326       -5.48257
| 11> H         -0.34424        1.45871       -4.93752
| 12> H          0.61845        2.64655       -4.09174
| 13> H          0.80247        0.94882       -3.72173
| 14> *
| 15> %MaxCore 64000
| 16>
| 17> %pal nprocs 4
| 18> end
| 19>
| 20> %scf
| 21>   MaxIter 150
| 22> end
| 23>
| 24>
| 25>                          ****END OF INPUT****

CARTESIAN COORDINATES (ANGSTROEM)
---------------------------------
  C      0.611880    1.657630   -4.500290
  C      1.694990    1.541790   -5.570450
  H      2.697330    1.734660   -5.184000
  H      1.506660    2.272240   -6.358080
  S      1.780290   -0.033130   -6.428740
  O      2.569290    0.213660   -7.607360
  O      0.416880   -0.462970   -6.618590
  F      2.505130   -0.933260   -5.482570
  H     -0.344240    1.458710   -4.937520
  H      0.618450    2.646550   -4.091740
  H      0.802470    0.948820   -3.721730

 Total Charge           Charge          ....    0
 Multiplicity           Mult            ....    1
 Number of Electrons    NEL             ....   58
 Basis Dimension        Dim             ....  176

ORBITAL ENERGIES
----------------

  NO   OCC          E(Eh)            E(eV)
   0   2.0000     -90.196282     -2454.3656
   1   2.0000     -25.354484      -689.9306
   2   2.0000     -19.655588      -534.8558
   3   2.0000     -19.654624      -534.8295
   4   2.0000     -10.616661      -288.8940
   5   2.0000     -10.574649      -287.7508
   6   2.0000      -8.520601      -231.8573
   7   2.0000      -6.448797      -175.4807
   8   2.0000      -6.443965      -175.3492
   9   2.0000      -6.442884      -175.3198
  10   2.0000      -1.474836       -40.1323
  11   2.0000      -1.239839       -33.7377
  12   2.0000      -1.142277       -31.0829
  13   2.0000      -0.919208       -25.0129
  14   2.0000      -0.816831       -22.2271
  15   2.0000      -0.761329       -20.7168
  16   2.0000      -0.669253       -18.2113
  17   2.0000      -0.659520       -17.9465
  18   2.0000      -0.637296       -17.3417
  19   2.0000      -0.573906       -15.6168
  20   2.0000      -0.559461       -15.2237
  21   2.0000      -0.541577       -14.7371
  22   2.0000      -0.507915       -13.8211
  23   2.0000      -0.479168       -13.0388
  24   2.0000      -0.473834       -12.8937
  25   2.0000      -0.453178       -12.3316
  26   2.0000      -0.418156       -11.3786
  27   2.0000      -0.402001       -10.9390
  28   2.0000      -0.398527       -10.8445
  29   0.0000       0.010522         0.2863
  30   0.0000       0.039132         1.0648
  31   0.0000       0.042161         1.1473
  32   0.0000       0.044340         1.2066
  33   0.0000       0.072612         1.9759

MULLIKEN ATOMIC CHARGES
-----------------------
   0 C :    0.725805
   1 C :   -0.427900
   2 H :   -0.009006
   3 H :    0.045962
   4 S :    1.588108
   5 O :   -0.694959
   6 O :   -0.707571
   7 F :   -0.449816
   8 H :    0.001602
   9 H :   -0.044409
  10 H :   -0.027816
Sum of atomic charges:    0.0000000

LOEWDIN ATOMIC CHARGES
----------------------
   0 C :    0.136811
   1 C :   -0.089100
   2 H :    0.024197
   3 H :    0.031074
   4 S :    1.152809
   5 O :   -0.476598
   6 O :   -0.473168
   7 F :   -0.290550
   8 H :   -0.006702
   9 H :   -0.004431
  10 H :   -0.004342

  Mayer bond orders larger than 0.100000
B(  0-C ,  1-C ) :   1.3311 B(  0-C ,  8-H ) :   0.8295 B(  0-C ,  9-H ) :   0.7660
B(  0-C , 10-H ) :   0.8149 B(  1-C ,  2-H ) :   0.9970 B(  1-C ,  3-H ) :   0.9936
B(  1-C ,  4-S ) :   0.9733 B(  1-C ,  8-H ) :   0.2003 B(  1-C ,  9-H ) :   0.2008
B(  1-C , 10-H ) :   0.1830 B(  4-S ,  5-O ) :   1.5314 B(  4-S ,  6-O ) :   1.5099
B(  4-S ,  7-F ) :   0.5695

Dispersion correction           -0.000152465
FINAL SINGLE POINT ENERGY      -727.128989267031

DIPOLE MOMENT
-------------
                                X             Y             Z
Electronic contribution:      3.76478      -7.52676      -3.86742
Nuclear contribution   :     -3.60260       8.53062       5.21025
                        -----------------------------------------
Total Dipole Moment    :      0.16218       1.00386       1.34283
                        -----------------------------------------
Magnitude (a.u.)       :      1.68441
Magnitude (Debye)      :      4.28142

Rotational constants in cm-1:     0.154011     0.080858     0.079602
Rotational constants in MHz :  4617.134198  2424.070332  2386.404775

                             ****ORCA TERMINATED NORMALLY****
TOTAL RUN TIME: 0 days 0 hours 0 minutes 19 seconds 210 msec
