                         Program Version 5.0.0 -  RELEASE  -
|  1> !M062X D3Zero RIJCOSX def2-SVPD def2/J TightSCF
|  2> *xyz 0 1
|  3> C          1.96337       -1.74915       -1.89689
|  4> N          2.73849       -2.01517       -3.09711
|  5> C          4.04974       -2.15472       -3.15204
|  6> N          4.65821       -1.98629       -4.31866
|  7> C          4.76423       -2.45444       -2.05049
|  8> H          4.28736       -2.77626       -1.21750
|  9> H          5.75082       -2.65835       -2.12599
| 10> H          2.34518       -1.69027       -3.97145
| 11> H          4.10900       -1.59268       -5.07176
| 12> H          5.64910       -2.15646       -4.42724
| 13> C          2.08852       -0.30091       -1.41520
| 14> H          2.23127       -2.45162       -1.10264
| 15> H          0.93025       -1.97780       -2.15544
| 16> H          1.82118        0.36368       -2.21003
| 17> H          3.09792       -0.11068       -1.11551
| 18> H          1.43391       -0.14382       -0.58352
| 19> *
| 20> %MaxCore 64000
| 21>
| 22> %pal nprocs 4
| 23> end
| 24>
| 25> %scf
| 26>   MaxIter 150
| 27> end
| 28>
| 29>
| 30>                          ****END OF INPUT****

CARTESIAN COORDINATES (ANGSTROEM)
---------------------------------
  C      1.963370   -1.749150   -1.896890
  N      2.738490   -2.015170   -3.097110
  C      4.049740   -2.154720   -3.152040
  N      4.658210   -1.986290   -4.318660
  C      4.764230   -2.454440   -2.050490
  H      4.287360   -2.776260   -1.217500
  H      5.750820   -2.658350   -2.125990
  H      2.345180   -1.690270   -3.971450
  H      4.109000   -1.592680   -5.071760
  H      5.649100   -2.156460   -4.427240
  C      2.088520   -0.300910   -1.415200
  H      2.231270   -2.451620   -1.102640
  H      0.930250   -1.977800   -2.155440
  H      1.821180    0.363680   -2.210030
  H      3.097920   -0.110680   -1.115510
  H      1.433910   -0.143820   -0.583520

 Total Charge           Charge          ....    0
 Multiplicity           Mult            ....    1
 Number of Electrons    NEL             ....   48
 Basis Dimension        Dim             ....  200

ORBITAL ENERGIES
----------------

  NO   OCC          E(Eh)            E(eV)
   0   2.0000     -14.764368      -401.7589
   1   2.0000     -14.763536      -401.7362
   2   2.0000     -10.598655      -288.4041
   3   2.0000     -10.585041      -288.0336
   4   2.0000     -10.532849      -286.6134
   5   2.0000     -10.463580      -284.7285
   6   2.0000      -1.075063       -29.2540
   7   2.0000      -0.980979       -26.6938
   8   2.0000      -0.841664       -22.9029
   9   2.0000      -0.792970       -21.5778
  10   2.0000      -0.723710       -19.6932
  11   2.0000      -0.637875       -17.3575
  12   2.0000      -0.622480       -16.9385
  13   2.0000      -0.598059       -16.2740
  14   2.0000      -0.538181       -14.6446
  15   2.0000      -0.508296       -13.8314
  16   2.0000      -0.487429       -13.2636
  17   2.0000      -0.464490       -12.6394
  18   2.0000      -0.446098       -12.1389
  19   2.0000      -0.433963       -11.8087
  20   2.0000      -0.428235       -11.6529
  21   2.0000      -0.408735       -11.1223
  22   2.0000      -0.314247        -8.5511
  23   2.0000      -0.216485        -5.8909
  24   0.0000       0.033045         0.8992
  25   0.0000       0.055818         1.5189
  26   0.0000       0.066937         1.8214
  27   0.0000       0.070744         1.9250
  28   0.0000       0.099507         2.7077

MULLIKEN ATOMIC CHARGES
-----------------------
   0 C :    0.219444
   1 N :   -0.404770
   2 C :    0.789255
   3 N :   -0.063965
   4 C :    0.335560
   5 H :   -0.040002
   6 H :   -0.583637
   7 H :   -0.289976
   8 H :   -0.121503
   9 H :   -0.079634
  10 C :    0.679213
  11 H :    0.025232
  12 H :   -0.334083
  13 H :   -0.056686
  14 H :   -0.059063
  15 H :   -0.015385
Sum of atomic charges:    0.0000000

LOEWDIN ATOMIC CHARGES
----------------------
   0 C :    0.020160
   1 N :   -0.036472
   2 C :   -0.240829
   3 N :    0.175320
   4 C :    0.164169
   5 H :   -0.112714
   6 H :   -0.106196
   7 H :    0.019148
   8 H :   -0.007178
   9 H :    0.013971
  10 C :    0.139909
  11 H :    0.017638
  12 H :    0.017733
  13 H :   -0.021410
  14 H :   -0.023482
  15 H :   -0.019768

  Mayer bond orders larger than 0.100000
B(  0-C ,  1-N ) :   0.9045 B(  0-C ,  4-C ) :   0.1039 B(  0-C ,  7-H ) :  -0.1204
B(  0-C , 10-C ) :   1.1915 B(  0-C , 11-H ) :   0.8852 B(  0-C , 12-H ) :   0.9469
B(  0-C , 13-H ) :   0.2316 B(  0-C , 14-H ) :   0.1995 B(  0-C , 15-H ) :   0.1732
B(  1-N ,  2-C ) :   0.9213 B(  1-N ,  3-N ) :   0.1961 B(  1-N ,  4-C ) :   0.3190
B(  1-N ,  7-H ) :   1.2679 B(  1-N , 12-H ) :   0.1818 B(  2-C ,  3-N ) :   0.8063
B(  2-C ,  4-C ) :   1.6924 B(  2-C ,  5-H ) :   0.2936 B(  2-C ,  6-H ) :   0.1059
B(  2-C ,  7-H ) :  -0.2169 B(  2-C ,  9-H ) :  -0.1047 B(  3-N ,  4-C ) :   0.1988
B(  3-N ,  8-H ) :   1.1756 B(  3-N ,  9-H ) :   1.2355 B(  4-C ,  5-H ) :   0.5925
B(  4-C ,  6-H ) :   0.9828 B(  5-H , 11-H ) :   0.1123 B(  8-H ,  9-H ) :  -0.1815
B( 10-C , 13-H ) :   0.8129 B( 10-C , 14-H ) :   0.8559 B( 10-C , 15-H ) :   0.8212
B( 11-H , 12-H ) :  -0.1123

Dispersion correction           -0.000315779
FINAL SINGLE POINT ENERGY      -267.593288697578

DIPOLE MOMENT
-------------
                                X             Y             Z
Electronic contribution:      1.34391      -1.82421      -3.40654
Nuclear contribution   :     -1.88803       2.22658       2.57497
                        -----------------------------------------
Total Dipole Moment    :     -0.54412       0.40237      -0.83156
                        -----------------------------------------
Magnitude (a.u.)       :      1.07213
Magnitude (Debye)      :      2.72514

Rotational constants in cm-1:     0.226509     0.075782     0.067928
Rotational constants in MHz :  6790.555051  2271.890226  2036.439218

                             ****ORCA TERMINATED NORMALLY****
TOTAL RUN TIME: 0 days 0 hours 0 minutes 24 seconds 588 msec
