                         Program Version 5.0.0 -  RELEASE  -
|  1> !M062X D3Zero RIJCOSX def2-SVPD def2/J TightSCF xyzfile
|  2>
|  3> *xyzfile 0 1 D5.xyz
|  4>
|  5> %MaxCore 64000
|  6>
|  7> %pal nprocs 4
|  8> end
|  9>
| 10> %scf
| 11>   MaxIter 150
| 12> end
| 13>
| 14>
| 15>                          ****END OF INPUT****

CARTESIAN COORDINATES (ANGSTROEM)
---------------------------------
  C      1.963365   -1.749150   -1.896887
  N      2.738490   -2.015170   -3.097113
  C      0.611877    1.657634   -4.500288
  C      1.694991    1.541794   -5.570447
  H      2.697326    1.734659   -5.183996
  H      1.506656    2.272239   -6.358076
  S      1.780287   -0.033128   -6.428739
  C      4.049736   -2.154717   -3.152044
  C      4.658206   -1.986293   -4.318655
  N      4.764231   -2.454435   -2.050491
  H      4.287363   -2.776259   -1.217496
  H      5.750825   -2.658351   -2.125988
  H      2.345176   -1.690274   -3.971447
  H      4.109004   -1.592677   -5.071760
  H      5.649095   -2.156462   -4.427237
  O      2.569287    0.213657   -7.607360
  F      0.416880   -0.462969   -6.618595
  C      2.088520   -0.300912   -1.415204
  H      2.231272   -2.451616   -1.102643
  H      0.930249   -1.977801   -2.155438
  C      0.680356    0.655418   -3.348038
  H     -0.356865    1.549231   -4.991128
  H      0.650228    2.675438   -4.096000
  C      1.968993    0.733582   -2.535654
  H      3.051356   -0.168602   -0.911868
  H      1.316501   -0.136231   -0.657252
  O      2.505129   -0.933263   -5.482570
  H      2.824195    0.624726   -3.208464
  H      2.058919    1.730331   -2.093112
  H      0.542252   -0.344731   -3.766662
  H     -0.174219    0.829692   -2.685182

 Total Charge           Charge          ....    0
 Multiplicity           Mult            ....    1
 Number of Electrons    NEL             ....  120
 Basis Dimension        Dim             ....  432

ORBITAL ENERGIES
----------------

  NO   OCC          E(Eh)            E(eV)
   0   2.0000     -90.210756     -2454.7595
   1   2.0000     -25.391607      -690.9408
   2   2.0000     -19.664873      -535.1084
   3   2.0000     -19.651240      -534.7374
   4   2.0000     -14.743181      -401.1824
   5   2.0000     -14.727648      -400.7597
   6   2.0000     -10.621000      -289.0121
   7   2.0000     -10.590376      -288.1788
   8   2.0000     -10.577467      -287.8275
   9   2.0000     -10.572615      -287.6955
  10   2.0000     -10.568008      -287.5701
  11   2.0000     -10.553461      -287.1743
  12   2.0000     -10.546623      -286.9882
  13   2.0000     -10.432514      -283.8831
  14   2.0000      -8.534092      -232.2245
  15   2.0000      -6.462704      -175.8591
  16   2.0000      -6.457266      -175.7112
  17   2.0000      -6.456123      -175.6800
  18   2.0000      -1.529050       -41.6076
  19   2.0000      -1.239554       -33.7300
  20   2.0000      -1.131107       -30.7790
  21   2.0000      -1.046562       -28.4784
  22   2.0000      -0.958669       -26.0867
  23   2.0000      -0.943525       -25.6746
  24   2.0000      -0.888603       -24.1801
  25   2.0000      -0.853887       -23.2355
  26   2.0000      -0.819994       -22.3132
  27   2.0000      -0.788292       -21.4505
  28   2.0000      -0.746371       -20.3098
  29   2.0000      -0.718036       -19.5388
  30   2.0000      -0.704232       -19.1631
  31   2.0000      -0.695344       -18.9213
  32   2.0000      -0.675384       -18.3781
  33   2.0000      -0.649460       -17.6727
  34   2.0000      -0.631013       -17.1707
  35   2.0000      -0.592797       -16.1308
  36   2.0000      -0.578678       -15.7466
  37   2.0000      -0.572456       -15.5773
  38   2.0000      -0.557716       -15.1762
  39   2.0000      -0.547065       -14.8864
  40   2.0000      -0.546304       -14.8657
  41   2.0000      -0.531368       -14.4593
  42   2.0000      -0.516127       -14.0445
  43   2.0000      -0.501229       -13.6391
  44   2.0000      -0.495650       -13.4873
  45   2.0000      -0.471940       -12.8421
  46   2.0000      -0.466096       -12.6831
  47   2.0000      -0.453769       -12.3477
  48   2.0000      -0.443996       -12.0817
  49   2.0000      -0.433239       -11.7890
  50   2.0000      -0.427553       -11.6343
  51   2.0000      -0.419293       -11.4095
  52   2.0000      -0.407871       -11.0987
  53   2.0000      -0.398829       -10.8527
  54   2.0000      -0.394348       -10.7308
  55   2.0000      -0.389912       -10.6101
  56   2.0000      -0.383495       -10.4354
  57   2.0000      -0.379385       -10.3236
  58   2.0000      -0.295969        -8.0537
  59   2.0000      -0.191424        -5.2089
  60   0.0000       0.003936         0.1071
  61   0.0000       0.027926         0.7599
  62   0.0000       0.035070         0.9543
  63   0.0000       0.039314         1.0698
  64   0.0000       0.051142         1.3916

MULLIKEN ATOMIC CHARGES
-----------------------
   0 C :    1.023067
   1 N :    0.028358
   2 C :    0.470724
   3 C :    0.116930
   4 H :    0.111303
   5 H :   -0.084835
   6 S :    1.609712
   7 C :    0.863914
   8 C :    0.572273
   9 N :    0.082715
  10 H :   -0.049172
  11 H :   -0.197482
  12 H :   -0.756679
  13 H :   -0.254402
  14 H :   -0.684081
  15 O :   -0.700769
  16 F :   -0.484568
  17 C :    0.441353
  18 H :   -0.438951
  19 H :   -0.159383
  20 C :    0.071983
  21 H :   -0.017616
  22 H :   -0.040638
  23 C :    0.042840
  24 H :   -0.043697
  25 H :   -0.105844
  26 O :   -0.854603
  27 H :    0.119328
  28 H :   -0.381638
  29 H :   -0.085746
  30 H :   -0.214394
Sum of atomic charges:   -0.0000000

LOEWDIN ATOMIC CHARGES
----------------------
   0 C :    0.060842
   1 N :   -0.003104
   2 C :   -0.033521
   3 C :   -0.028432
   4 H :    0.036814
   5 H :    0.023956
   6 S :    1.218347
   7 C :   -0.219762
   8 C :    0.176127
   9 N :    0.186625
  10 H :   -0.026140
  11 H :    0.002684
  12 H :   -0.078613
  13 H :   -0.159725
  14 H :   -0.098427
  15 O :   -0.449901
  16 F :   -0.253984
  17 C :   -0.014505
  18 H :    0.007187
  19 H :    0.015033
  20 C :   -0.027395
  21 H :    0.025038
  22 H :    0.037965
  23 C :   -0.022526
  24 H :    0.019393
  25 H :    0.018344
  26 O :   -0.486995
  27 H :    0.011531
  28 H :    0.026300
  29 H :    0.002254
  30 H :    0.034591

  Mayer bond orders larger than 0.100000
B(  0-C ,  1-N ) :   0.9233 B(  0-C , 12-H ) :  -0.4200 B(  0-C , 17-C ) :   1.0412
B(  0-C , 18-H ) :   0.8826 B(  0-C , 19-H ) :   0.6355 B(  0-C , 23-C ) :   0.1169
B(  0-C , 25-H ) :   0.1039 B(  1-N ,  7-C ) :   1.0423 B(  1-N ,  8-C ) :   0.2286
B(  1-N ,  9-N ) :   0.2179 B(  1-N , 12-H ) :   1.1036 B(  1-N , 19-H ) :   0.1294
B(  2-C ,  3-C ) :   1.2507 B(  2-C ,  5-H ) :   0.1604 B(  2-C , 20-C ) :   1.2543
B(  2-C , 21-H ) :   0.6630 B(  2-C , 22-H ) :   0.8059 B(  3-C ,  4-H ) :   0.8924
B(  3-C ,  5-H ) :   0.8975 B(  3-C ,  6-S ) :   1.0193 B(  3-C , 22-H ) :   0.1239
B(  6-S , 15-O ) :   1.5594 B(  6-S , 16-F ) :   0.5047 B(  6-S , 26-O ) :   1.3249
B(  7-C ,  8-C ) :   1.3247 B(  7-C ,  9-N ) :   0.8669 B(  7-C , 11-H ) :  -0.1553
B(  7-C , 12-H ) :  -0.4213 B(  7-C , 13-H ) :   0.1158 B(  7-C , 14-H ) :   0.2192
B(  8-C ,  9-N ) :   0.2652 B(  8-C , 13-H ) :   0.6106 B(  8-C , 14-H ) :   0.7334
B(  9-N , 10-H ) :   0.9613 B(  9-N , 11-H ) :   1.2680 B(  9-N , 18-H ) :   0.1074
B( 10-H , 11-H ) :  -0.2210 B( 12-H , 19-H ) :   0.2259 B( 12-H , 24-H ) :   0.1603
B( 12-H , 27-H ) :   0.1262 B( 12-H , 28-H ) :  -0.1182 B( 13-H , 14-H ) :  -0.2754
B( 13-H , 26-O ) :   0.2164 B( 16-F , 26-O ) :   0.1267 B( 17-C , 18-H ) :   0.1222
B( 17-C , 19-H ) :   0.1062 B( 17-C , 23-C ) :   1.2726 B( 17-C , 24-H ) :   0.7601
B( 17-C , 25-H ) :   0.8975 B( 18-H , 19-H ) :  -0.1895 B( 19-H , 23-C ) :  -0.1118
B( 20-C , 21-H ) :   0.2741 B( 20-C , 23-C ) :   1.1538 B( 20-C , 27-H ) :   0.1077
B( 20-C , 28-H ) :   0.1148 B( 20-C , 29-H ) :   0.9556 B( 20-C , 30-H ) :   0.8818
B( 21-H , 22-H ) :  -0.1379 B( 23-C , 24-H ) :   0.2117 B( 23-C , 25-H ) :   0.1077
B( 23-C , 27-H ) :   0.8580 B( 23-C , 28-H ) :   0.9830 B( 23-C , 30-H ) :   0.1319
B( 24-H , 25-H ) :  -0.1285

Dispersion correction           -0.001897491
FINAL SINGLE POINT ENERGY     -1072.040321888999

DIPOLE MOMENT
-------------
                                X             Y             Z
Electronic contribution:     -4.63974      -1.93273     -20.67163
Nuclear contribution   :      2.89225       3.36404      21.70199
                        -----------------------------------------
Total Dipole Moment    :     -1.74749       1.43131       1.03036
                        -----------------------------------------
Magnitude (a.u.)       :      2.48274
Magnitude (Debye)      :      6.31062

Rotational constants in cm-1:     0.029431     0.014408     0.011084
Rotational constants in MHz :   882.306106   431.946714   332.288152

                             ****ORCA TERMINATED NORMALLY****
TOTAL RUN TIME: 0 days 0 hours 3 minutes 6 seconds 846 msec
