                         Program Version 5.0.0 -  RELEASE  -
|  1> !LC-BLYP RIJCOSX def2-SVP def2/J TightSCF
|  2> *xyz -1 1
|  3> C         -1.91658       -2.48508       -3.64367
|  4> C         -1.36353       -1.98134       -2.29361
|  5> O         -0.35039       -2.74969       -1.79601
|  6> H         -2.22622       -1.90839       -1.60204
|  7> H         -1.05135       -0.91567       -2.44333
|  8> H         -1.11522       -2.57167       -4.34739
|  9> H         -2.64227       -1.79099       -4.01314
| 10> H         -2.37564       -3.44180       -3.50640
| 11> *
| 12>
| 13> %MaxCore 64000
| 14> %pal nprocs 4
| 15> end
| 16>
| 17> %scf
| 18>   MaxIter 150
| 19> end
| 20>
| 21>
| 22>                          ****END OF INPUT****

CARTESIAN COORDINATES (ANGSTROEM)
---------------------------------
  C     -1.916580   -2.485080   -3.643670
  C     -1.363530   -1.981340   -2.293610
  O     -0.350390   -2.749690   -1.796010
  H     -2.226220   -1.908390   -1.602040
  H     -1.051350   -0.915670   -2.443330
  H     -1.115220   -2.571670   -4.347390
  H     -2.642270   -1.790990   -4.013140
  H     -2.375640   -3.441800   -3.506400

 Total Charge           Charge          ....   -1
 Multiplicity           Mult            ....    1
 Number of Electrons    NEL             ....   26
 Basis Dimension        Dim             ....   67

ORBITAL ENERGIES
----------------

  NO   OCC          E(Eh)            E(eV)
   0   2.0000     -18.554811      -504.9021
   1   2.0000      -9.872214      -268.6366
   2   2.0000      -9.860446      -268.3164
   3   2.0000      -0.719799       -19.5867
   4   2.0000      -0.603439       -16.4204
   5   2.0000      -0.447869       -12.1871
   6   2.0000      -0.335899        -9.1403
   7   2.0000      -0.311511        -8.4766
   8   2.0000      -0.252449        -6.8695
   9   2.0000      -0.232728        -6.3329
  10   2.0000      -0.162640        -4.4257
  11   2.0000      -0.013445        -0.3659
  12   2.0000      -0.009865        -0.2684
  13   0.0000       0.324827         8.8390
  14   0.0000       0.371207        10.1011
  15   0.0000       0.384567        10.4646
  16   0.0000       0.394456        10.7337
  17   0.0000       0.439021        11.9464

MULLIKEN ATOMIC CHARGES
-----------------------
   0 C :    0.060158
   1 C :    0.223210
   2 O :   -0.654557
   3 H :   -0.184524
   4 H :   -0.187843
   5 H :   -0.069467
   6 H :   -0.118184
   7 H :   -0.068793
Sum of atomic charges:   -1.0000000

LOEWDIN ATOMIC CHARGES
----------------------
   0 C :   -0.124174
   1 C :   -0.011164
   2 O :   -0.647346
   3 H :   -0.081508
   4 H :   -0.084772
   5 H :   -0.011343
   6 H :   -0.028641
   7 H :   -0.011053

  Mayer bond orders larger than 0.100000
B(  0-C ,  1-C ) :   0.9975 B(  0-C ,  5-H ) :   0.9519 B(  0-C ,  6-H ) :   0.9207
B(  0-C ,  7-H ) :   0.9558 B(  1-C ,  2-O ) :   1.5819 B(  1-C ,  3-H ) :   0.8622
B(  1-C ,  4-H ) :   0.8610

FINAL SINGLE POINT ENERGY      -153.886285912035

DIPOLE MOMENT
-------------
                                X             Y             Z
Electronic contribution:      2.29808      -1.09713       1.95406
Nuclear contribution   :     -3.14382       1.30299      -2.83231
                        -----------------------------------------
Total Dipole Moment    :     -0.84574       0.20586      -0.87825
                        -----------------------------------------
Magnitude (a.u.)       :      1.23652
Magnitude (Debye)      :      3.14298

Rotational constants in cm-1:     1.288206     0.322942     0.285188
Rotational constants in MHz : 38619.437223  9681.562038  8549.712012

                             ****ORCA TERMINATED NORMALLY****
TOTAL RUN TIME: 0 days 0 hours 0 minutes 8 seconds 776 msec
