                         Program Version 5.0.0 -  RELEASE  -
|  1> !LC-BLYP RIJCOSX def2-SVP def2/J TightSCF
|  2> *xyz 1 1
|  3> C          1.64703       -2.34528       -5.02041
|  4> C          2.20996       -2.81239       -3.66571
|  5> C          2.48901       -1.66851       -2.73754
|  6> N          3.59631       -0.94761       -2.95225
|  7> N          1.66394       -1.41369       -1.77781
|  8> H          0.81164       -1.96318       -1.70275
|  9> H          1.84550       -0.63508       -1.15875
| 10> H          4.20535       -1.17600       -3.73383
| 11> H          3.81723       -0.12585       -2.40604
| 12> H          3.14311       -3.36280       -3.81152
| 13> H          1.48768       -3.45893       -3.16521
| 14> H          1.46566       -3.19589       -5.64368
| 15> H          2.35406       -1.69850       -5.49654
| 16> H          0.73014       -1.81680       -4.86253
| 17> *
| 18>
| 19> %MaxCore 64000
| 20> %pal nprocs 4
| 21> end
| 22>
| 23> %scf
| 24>   MaxIter 150
| 25> end
| 26>
| 27>
| 28>                          ****END OF INPUT****

CARTESIAN COORDINATES (ANGSTROEM)
---------------------------------
  C      1.647030   -2.345280   -5.020410
  C      2.209960   -2.812390   -3.665710
  C      2.489010   -1.668510   -2.737540
  N      3.596310   -0.947610   -2.952250
  N      1.663940   -1.413690   -1.777810
  H      0.811640   -1.963180   -1.702750
  H      1.845500   -0.635080   -1.158750
  H      4.205350   -1.176000   -3.733830
  H      3.817230   -0.125850   -2.406040
  H      3.143110   -3.362800   -3.811520
  H      1.487680   -3.458930   -3.165210
  H      1.465660   -3.195890   -5.643680
  H      2.354060   -1.698500   -5.496540
  H      0.730140   -1.816800   -4.862530

 Total Charge           Charge          ....    1
 Multiplicity           Mult            ....    1
 Number of Electrons    NEL             ....   40
 Basis Dimension        Dim             ....  115

ORBITAL ENERGIES
----------------

  NO   OCC          E(Eh)            E(eV)
   0   2.0000     -14.438154      -392.8822
   1   2.0000     -14.428341      -392.6151
   2   2.0000     -10.407443      -283.2009
   3   2.0000     -10.281822      -279.7826
   4   2.0000     -10.239851      -278.6405
   5   2.0000      -1.297190       -35.2983
   6   2.0000      -1.199423       -32.6379
   7   2.0000      -1.070414       -29.1275
   8   2.0000      -0.960121       -26.1262
   9   2.0000      -0.920175       -25.0392
  10   2.0000      -0.878820       -23.9139
  11   2.0000      -0.851941       -23.1825
  12   2.0000      -0.803557       -21.8659
  13   2.0000      -0.756806       -20.5937
  14   2.0000      -0.724374       -19.7112
  15   2.0000      -0.715977       -19.4827
  16   2.0000      -0.642348       -17.4792
  17   2.0000      -0.632311       -17.2061
  18   2.0000      -0.625928       -17.0324
  19   2.0000      -0.588685       -16.0189
  20   0.0000      -0.116898        -3.1809
  21   0.0000      -0.074421        -2.0251
  22   0.0000      -0.027688        -0.7534
  23   0.0000      -0.026362        -0.7173
  24   0.0000       0.006570         0.1788

MULLIKEN ATOMIC CHARGES
-----------------------
   0 C :    0.022007
   1 C :   -0.012625
   2 C :   -0.166523
   3 N :    0.035607
   4 N :    0.103579
   5 H :    0.189656
   6 H :    0.175043
   7 H :    0.183176
   8 H :    0.171508
   9 H :    0.083494
  10 H :    0.053401
  11 H :    0.081635
  12 H :    0.036440
  13 H :    0.043602
Sum of atomic charges:    1.0000000

LOEWDIN ATOMIC CHARGES
----------------------
   0 C :   -0.036250
   1 C :   -0.041128
   2 C :    0.141127
   3 N :    0.081563
   4 N :    0.118835
   5 H :    0.129475
   6 H :    0.117905
   7 H :    0.123452
   8 H :    0.112400
   9 H :    0.065382
  10 H :    0.054336
  11 H :    0.057340
  12 H :    0.035204
  13 H :    0.040357

  Mayer bond orders larger than 0.100000
B(  0-C ,  1-C ) :   1.0791 B(  0-C , 11-H ) :   0.9622 B(  0-C , 12-H ) :   0.9707
B(  0-C , 13-H ) :   0.9672 B(  1-C ,  2-C ) :   1.0326 B(  1-C ,  9-H ) :   0.9217
B(  1-C , 10-H ) :   0.9224 B(  2-C ,  3-N ) :   1.4994 B(  2-C ,  4-N ) :   1.5706
B(  3-N ,  7-H ) :   0.9210 B(  3-N ,  8-H ) :   0.9298 B(  4-N ,  5-H ) :   0.9097
B(  4-N ,  6-H ) :   0.9228

FINAL SINGLE POINT ENERGY      -228.246182827559

DIPOLE MOMENT
-------------
                                X             Y             Z
Electronic contribution:      1.21151       1.70258       3.67836
Nuclear contribution   :     -0.98617      -1.03178      -2.77619
                        -----------------------------------------
Total Dipole Moment    :      0.22534       0.67080       0.90218
                        -----------------------------------------
Magnitude (a.u.)       :      1.14659
Magnitude (Debye)      :      2.91440

Rotational constants in cm-1:     0.257311     0.127495     0.099037
Rotational constants in MHz :  7713.982239  3822.189706  2969.039713

                             ****ORCA TERMINATED NORMALLY****
TOTAL RUN TIME: 0 days 0 hours 0 minutes 15 seconds 337 msec
