                         Program Version 5.0.0 -  RELEASE  -
|  1> !LC-BLYP RIJCOSX def2-SVP def2/J TightSCF
|  2> *xyz 0 1
|  3> C         -1.91658       -2.48508       -3.64367
|  4> C         -1.36353       -1.98134       -2.29361
|  5> F         -0.35039       -2.74969       -1.79601
|  6> H         -2.22622       -1.90839       -1.60204
|  7> H         -1.05135       -0.91567       -2.44333
|  8> H         -1.11522       -2.57167       -4.34739
|  9> H         -2.64227       -1.79099       -4.01314
| 10> H         -2.37564       -3.44180       -3.50640
| 11> *
| 12>
| 13> %MaxCore 64000
| 14> %pal nprocs 4
| 15> end
| 16>
| 17> %scf
| 18>   MaxIter 150
| 19> end
| 20>
| 21>
| 22>                          ****END OF INPUT****

CARTESIAN COORDINATES (ANGSTROEM)
---------------------------------
  C     -1.916580   -2.485080   -3.643670
  C     -1.363530   -1.981340   -2.293610
  F     -0.350390   -2.749690   -1.796010
  H     -2.226220   -1.908390   -1.602040
  H     -1.051350   -0.915670   -2.443330
  H     -1.115220   -2.571670   -4.347390
  H     -2.642270   -1.790990   -4.013140
  H     -2.375640   -3.441800   -3.506400

 Total Charge           Charge          ....    0
 Multiplicity           Mult            ....    1
 Number of Electrons    NEL             ....   26
 Basis Dimension        Dim             ....   67

ORBITAL ENERGIES
----------------

  NO   OCC          E(Eh)            E(eV)
   0   2.0000     -24.436643      -664.9549
   1   2.0000     -10.157748      -276.4064
   2   2.0000     -10.078795      -274.2580
   3   2.0000      -1.245819       -33.9005
   4   2.0000      -0.860529       -23.4162
   5   2.0000      -0.725157       -19.7325
   6   2.0000      -0.601001       -16.3541
   7   2.0000      -0.592325       -16.1180
   8   2.0000      -0.550322       -14.9750
   9   2.0000      -0.497424       -13.5356
  10   2.0000      -0.496295       -13.5049
  11   2.0000      -0.422665       -11.5013
  12   2.0000      -0.415773       -11.3138
  13   0.0000       0.135672         3.6918
  14   0.0000       0.182926         4.9777
  15   0.0000       0.192020         5.2251
  16   0.0000       0.211829         5.7642
  17   0.0000       0.229536         6.2460

MULLIKEN ATOMIC CHARGES
-----------------------
   0 C :   -0.041978
   1 C :    0.178145
   2 F :   -0.220816
   3 H :    0.007321
   4 H :    0.008372
   5 H :    0.026799
   6 H :    0.016168
   7 H :    0.025989
Sum of atomic charges:   -0.0000000

LOEWDIN ATOMIC CHARGES
----------------------
   0 C :   -0.087762
   1 C :    0.082460
   2 F :   -0.113926
   3 H :    0.012725
   4 H :    0.013854
   5 H :    0.029802
   6 H :    0.034103
   7 H :    0.028744

  Mayer bond orders larger than 0.100000
B(  0-C ,  1-C ) :   1.0958 B(  0-C ,  5-H ) :   0.9689 B(  0-C ,  6-H ) :   0.9593
B(  0-C ,  7-H ) :   0.9707 B(  1-C ,  2-F ) :   1.0627 B(  1-C ,  3-H ) :   0.9561
B(  1-C ,  4-H ) :   0.9572

FINAL SINGLE POINT ENERGY      -178.517619736209

DIPOLE MOMENT
-------------
                                X             Y             Z
Electronic contribution:      3.66188      -1.38374       3.45953
Nuclear contribution   :     -4.15401       1.70894      -3.75000
                        -----------------------------------------
Total Dipole Moment    :     -0.49213       0.32520      -0.29047
                        -----------------------------------------
Magnitude (a.u.)       :      0.65751
Magnitude (Debye)      :      1.67126

Rotational constants in cm-1:     1.266842     0.300492     0.266603
Rotational constants in MHz : 37978.968232  9008.526876  7992.551454

                             ****ORCA TERMINATED NORMALLY****
TOTAL RUN TIME: 0 days 0 hours 0 minutes 8 seconds 790 msec
