                         Program Version 5.0.0 -  RELEASE  -
|  1> !LC-BLYP RIJCOSX def2-SVP def2/J TightSCF
|  2> *xyz 0 1
|  3> C          1.64703       -2.34528       -5.02041
|  4> C          2.20996       -2.81239       -3.66571
|  5> C          2.48901       -1.66851       -2.73754
|  6> C          3.59631       -0.94761       -2.95225
|  7> N          1.66394       -1.41369       -1.77781
|  8> H          0.81164       -1.96318       -1.70275
|  9> H          1.84550       -0.63508       -1.15875
| 10> H          4.20535       -1.17600       -3.73383
| 11> H          3.81723       -0.12585       -2.40604
| 12> H          3.14311       -3.36280       -3.81152
| 13> H          1.48768       -3.45893       -3.16521
| 14> H          1.46566       -3.19589       -5.64368
| 15> H          2.35406       -1.69850       -5.49654
| 16> H          0.73014       -1.81680       -4.86253
| 17> *
| 18>
| 19> %MaxCore 64000
| 20> %pal nprocs 4
| 21> end
| 22>
| 23> %scf
| 24>   MaxIter 150
| 25> end
| 26>
| 27>
| 28>                          ****END OF INPUT****

CARTESIAN COORDINATES (ANGSTROEM)
---------------------------------
  C      1.647030   -2.345280   -5.020410
  C      2.209960   -2.812390   -3.665710
  C      2.489010   -1.668510   -2.737540
  C      3.596310   -0.947610   -2.952250
  N      1.663940   -1.413690   -1.777810
  H      0.811640   -1.963180   -1.702750
  H      1.845500   -0.635080   -1.158750
  H      4.205350   -1.176000   -3.733830
  H      3.817230   -0.125850   -2.406040
  H      3.143110   -3.362800   -3.811520
  H      1.487680   -3.458930   -3.165210
  H      1.465660   -3.195890   -5.643680
  H      2.354060   -1.698500   -5.496540
  H      0.730140   -1.816800   -4.862530

 Total Charge           Charge          ....    0
 Multiplicity           Mult            ....    1
 Number of Electrons    NEL             ....   40
 Basis Dimension        Dim             ....  115

ORBITAL ENERGIES
----------------

  NO   OCC          E(Eh)            E(eV)
   0   2.0000     -14.184503      -385.9799
   1   2.0000     -10.099483      -274.8209
   2   2.0000     -10.080939      -274.3163
   3   2.0000     -10.068076      -273.9663
   4   2.0000     -10.008725      -272.3512
   5   2.0000      -1.023872       -27.8610
   6   2.0000      -0.876633       -23.8544
   7   2.0000      -0.801999       -21.8235
   8   2.0000      -0.737112       -20.0578
   9   2.0000      -0.663895       -18.0655
  10   2.0000      -0.628203       -17.0943
  11   2.0000      -0.578766       -15.7490
  12   2.0000      -0.542306       -14.7569
  13   2.0000      -0.509441       -13.8626
  14   2.0000      -0.490697       -13.3525
  15   2.0000      -0.474838       -12.9210
  16   2.0000      -0.445068       -12.1109
  17   2.0000      -0.430587       -11.7169
  18   2.0000      -0.426446       -11.6042
  19   2.0000      -0.269496        -7.3334
  20   0.0000       0.118427         3.2226
  21   0.0000       0.144876         3.9423
  22   0.0000       0.168364         4.5814
  23   0.0000       0.172548         4.6953
  24   0.0000       0.194636         5.2963

MULLIKEN ATOMIC CHARGES
-----------------------
   0 C :    0.041887
   1 C :    0.037953
   2 C :   -0.179792
   3 C :   -0.043588
   4 N :    0.017773
   5 H :    0.105932
   6 H :    0.111755
   7 H :   -0.050685
   8 H :   -0.069071
   9 H :    0.024464
  10 H :   -0.023373
  11 H :    0.009110
  12 H :    0.015320
  13 H :    0.002315
Sum of atomic charges:   -0.0000000

LOEWDIN ATOMIC CHARGES
----------------------
   0 C :   -0.054752
   1 C :   -0.036747
   2 C :    0.000323
   3 C :   -0.200708
   4 N :    0.012284
   5 H :    0.075115
   6 H :    0.081682
   7 H :   -0.000918
   8 H :   -0.009044
   9 H :    0.040193
  10 H :    0.017247
  11 H :    0.023768
  12 H :    0.028097
  13 H :    0.023460

  Mayer bond orders larger than 0.100000
B(  0-C ,  1-C ) :   1.1051 B(  0-C , 11-H ) :   0.9669 B(  0-C , 12-H ) :   0.9706
B(  0-C , 13-H ) :   0.9663 B(  1-C ,  2-C ) :   1.0150 B(  1-C ,  9-H ) :   0.9363
B(  1-C , 10-H ) :   0.9295 B(  2-C ,  3-C ) :   1.8650 B(  2-C ,  4-N ) :   1.3139
B(  3-C ,  7-H ) :   0.9360 B(  3-C ,  8-H ) :   0.9435 B(  4-N ,  5-H ) :   0.9431
B(  4-N ,  6-H ) :   0.9439

FINAL SINGLE POINT ENERGY      -211.787884247245

DIPOLE MOMENT
-------------
                                X             Y             Z
Electronic contribution:     -0.10861       0.64565       3.07532
Nuclear contribution   :     -0.69146      -0.83112      -2.71336
                        -----------------------------------------
Total Dipole Moment    :     -0.80008      -0.18547       0.36196
                        -----------------------------------------
Magnitude (a.u.)       :      0.89752
Magnitude (Debye)      :      2.28130

Rotational constants in cm-1:     0.270661     0.129240     0.102040
Rotational constants in MHz :  8114.202941  3874.518141  3059.074383

                             ****ORCA TERMINATED NORMALLY****
TOTAL RUN TIME: 0 days 0 hours 0 minutes 15 seconds 225 msec
