                         Program Version 5.0.0 -  RELEASE  -
|  1> !LC-BLYP RIJCOSX def2-SVP def2/J TightSCF
|  2> *xyz 0 1
|  3> C          1.64703       -2.34528       -5.02041
|  4> C          2.20996       -2.81239       -3.66571
|  5> C          2.48901       -1.66851       -2.73754
|  6> N          3.59631       -0.94761       -2.95225
|  7> C          1.66394       -1.41369       -1.77781
|  8> H          0.81164       -1.96318       -1.70275
|  9> H          1.84550       -0.63508       -1.15875
| 10> H          4.20535       -1.17600       -3.73383
| 11> H          3.81723       -0.12585       -2.40604
| 12> H          3.14311       -3.36280       -3.81152
| 13> H          1.48768       -3.45893       -3.16521
| 14> H          1.46566       -3.19589       -5.64368
| 15> H          2.35406       -1.69850       -5.49654
| 16> H          0.73014       -1.81680       -4.86253
| 17> *
| 18>
| 19> %MaxCore 64000
| 20> %pal nprocs 4
| 21> end
| 22>
| 23> %scf
| 24>   MaxIter 150
| 25> end
| 26>
| 27>
| 28>                          ****END OF INPUT****

CARTESIAN COORDINATES (ANGSTROEM)
---------------------------------
  C      1.647030   -2.345280   -5.020410
  C      2.209960   -2.812390   -3.665710
  C      2.489010   -1.668510   -2.737540
  N      3.596310   -0.947610   -2.952250
  C      1.663940   -1.413690   -1.777810
  H      0.811640   -1.963180   -1.702750
  H      1.845500   -0.635080   -1.158750
  H      4.205350   -1.176000   -3.733830
  H      3.817230   -0.125850   -2.406040
  H      3.143110   -3.362800   -3.811520
  H      1.487680   -3.458930   -3.165210
  H      1.465660   -3.195890   -5.643680
  H      2.354060   -1.698500   -5.496540
  H      0.730140   -1.816800   -4.862530

 Total Charge           Charge          ....    0
 Multiplicity           Mult            ....    1
 Number of Electrons    NEL             ....   40
 Basis Dimension        Dim             ....  115

ORBITAL ENERGIES
----------------

  NO   OCC          E(Eh)            E(eV)
   0   2.0000     -14.177359      -385.7856
   1   2.0000     -10.096389      -274.7367
   2   2.0000     -10.079348      -274.2730
   3   2.0000     -10.069636      -274.0087
   4   2.0000     -10.013091      -272.4701
   5   2.0000      -1.006185       -27.3797
   6   2.0000      -0.875974       -23.8365
   7   2.0000      -0.816507       -22.2183
   8   2.0000      -0.732331       -19.9277
   9   2.0000      -0.660588       -17.9755
  10   2.0000      -0.616791       -16.7837
  11   2.0000      -0.579181       -15.7603
  12   2.0000      -0.533898       -14.5281
  13   2.0000      -0.521648       -14.1948
  14   2.0000      -0.490931       -13.3589
  15   2.0000      -0.481157       -13.0929
  16   2.0000      -0.445256       -12.1160
  17   2.0000      -0.425916       -11.5898
  18   2.0000      -0.421761       -11.4767
  19   2.0000      -0.281377        -7.6567
  20   0.0000       0.119421         3.2496
  21   0.0000       0.148574         4.0429
  22   0.0000       0.171913         4.6780
  23   0.0000       0.177081         4.8186
  24   0.0000       0.190967         5.1965

MULLIKEN ATOMIC CHARGES
-----------------------
   0 C :    0.040555
   1 C :    0.038766
   2 C :   -0.125273
   3 N :   -0.045980
   4 C :   -0.018283
   5 H :   -0.050693
   6 H :   -0.067983
   7 H :    0.101416
   8 H :    0.107472
   9 H :   -0.002935
  10 H :    0.004463
  11 H :    0.012284
  12 H :   -0.004959
  13 H :    0.011150
Sum of atomic charges:   -0.0000000

LOEWDIN ATOMIC CHARGES
----------------------
   0 C :   -0.058864
   1 C :   -0.036507
   2 C :    0.008268
   3 N :   -0.020407
   4 C :   -0.171353
   5 H :    0.004369
   6 H :   -0.003988
   7 H :    0.070552
   8 H :    0.075455
   9 H :    0.023849
  10 H :    0.035708
  11 H :    0.025506
  12 H :    0.019054
  13 H :    0.028358

  Mayer bond orders larger than 0.100000
B(  0-C ,  1-C ) :   1.0980 B(  0-C , 11-H ) :   0.9678 B(  0-C , 12-H ) :   0.9681
B(  0-C , 13-H ) :   0.9673 B(  1-C ,  2-C ) :   1.0337 B(  1-C ,  9-H ) :   0.9297
B(  1-C , 10-H ) :   0.9319 B(  2-C ,  3-N ) :   1.2537 B(  2-C ,  4-C ) :   1.9239
B(  3-N ,  7-H ) :   0.9521 B(  3-N ,  8-H ) :   0.9515 B(  4-C ,  5-H ) :   0.9220
B(  4-C ,  6-H ) :   0.9354

FINAL SINGLE POINT ENERGY      -211.791976139173

DIPOLE MOMENT
-------------
                                X             Y             Z
Electronic contribution:      1.71859       1.10007       1.96688
Nuclear contribution   :     -1.13902      -0.93906      -2.44135
                        -----------------------------------------
Total Dipole Moment    :      0.57958       0.16100      -0.47447
                        -----------------------------------------
Magnitude (a.u.)       :      0.76612
Magnitude (Debye)      :      1.94733

Rotational constants in cm-1:     0.267243     0.130607     0.102304
Rotational constants in MHz :  8011.748167  3915.504600  3066.999841

                             ****ORCA TERMINATED NORMALLY****
TOTAL RUN TIME: 0 days 0 hours 0 minutes 14 seconds 513 msec
