                         Program Version 5.0.0 -  RELEASE  -
|  1> !BLYP D3BJ RIJCOSX def2-SVP def2/J TightSCF
|  2> *xyz -1 1
|  3> C          0.70466        1.44313       -4.50363
|  4> C          1.72854        1.42432       -5.63944
|  5> H          2.64672        1.95379       -5.38105
|  6> H          1.29992        1.93061       -6.50361
|  7> S          2.25263       -0.18811       -6.27184
|  8> O          3.56261       -0.44446       -5.63155
|  9> O          2.34494       -0.03374       -7.69650
| 10> O          1.26606       -1.15918       -5.80536
| 11> H         -0.17385        0.91270       -4.80656
| 12> H          0.44778        2.45562       -4.27173
| 13> H          1.12367        0.97423       -3.63791
| 14> *
| 15>
| 16> %MaxCore 64000
| 17>
| 18> %pal nprocs 4
| 19> end
| 20>
| 21> %scf
| 22>   MaxIter 150
| 23> end
| 24>
| 25>
| 26>                          ****END OF INPUT****

CARTESIAN COORDINATES (ANGSTROEM)
---------------------------------
  C      0.704660    1.443130   -4.503630
  C      1.728540    1.424320   -5.639440
  H      2.646720    1.953790   -5.381050
  H      1.299920    1.930610   -6.503610
  S      2.252630   -0.188110   -6.271840
  O      3.562610   -0.444460   -5.631550
  O      2.344940   -0.033740   -7.696500
  O      1.266060   -1.159180   -5.805360
  H     -0.173850    0.912700   -4.806560
  H      0.447780    2.455620   -4.271730
  H      1.123670    0.974230   -3.637910

 Total Charge           Charge          ....   -1
 Multiplicity           Mult            ....    1
 Number of Electrons    NEL             ....   58
 Basis Dimension        Dim             ....  113

ORBITAL ENERGIES
----------------

  NO   OCC          E(Eh)            E(eV)
   0   2.0000     -88.078779     -2396.7454
   1   2.0000     -18.526572      -504.1337
   2   2.0000     -18.520926      -503.9800
   3   2.0000     -18.508816      -503.6505
   4   2.0000      -9.771455      -265.8948
   5   2.0000      -9.759348      -265.5654
   6   2.0000      -7.622470      -207.4179
   7   2.0000      -5.657055      -153.9363
   8   2.0000      -5.656906      -153.9322
   9   2.0000      -5.656671      -153.9258
  10   2.0000      -0.793935       -21.6041
  11   2.0000      -0.658491       -17.9185
  12   2.0000      -0.634212       -17.2578
  13   2.0000      -0.531655       -14.4671
  14   2.0000      -0.416380       -11.3303
  15   2.0000      -0.290969        -7.9177
  16   2.0000      -0.249308        -6.7840
  17   2.0000      -0.230184        -6.2636
  18   2.0000      -0.199451        -5.4273
  19   2.0000      -0.177750        -4.8368
  20   2.0000      -0.171406        -4.6642
  21   2.0000      -0.153076        -4.1654
  22   2.0000      -0.148498        -4.0408
  23   2.0000      -0.056578        -1.5396
  24   2.0000      -0.055230        -1.5029
  25   2.0000      -0.029952        -0.8150
  26   2.0000      -0.023955        -0.6518
  27   2.0000      -0.008219        -0.2237
  28   2.0000       0.026215         0.7134
  29   0.0000       0.180920         4.9231
  30   0.0000       0.234346         6.3769
  31   0.0000       0.237656         6.4670
  32   0.0000       0.244497         6.6531
  33   0.0000       0.264849         7.2069

MULLIKEN ATOMIC CHARGES
-----------------------
   0 C :    0.122597
   1 C :   -0.026424
   2 H :   -0.038535
   3 H :   -0.047759
   4 S :    0.761458
   5 O :   -0.576266
   6 O :   -0.524162
   7 O :   -0.541459
   8 H :   -0.029259
   9 H :   -0.070755
  10 H :   -0.029436
Sum of atomic charges:   -1.0000000

LOEWDIN ATOMIC CHARGES
----------------------
   0 C :   -0.059211
   1 C :   -0.184389
   2 H :   -0.001018
   3 H :   -0.004987
   4 S :    1.057120
   5 O :   -0.632414
   6 O :   -0.581465
   7 O :   -0.602231
   8 H :    0.007215
   9 H :   -0.006737
  10 H :    0.008117

  Mayer bond orders larger than 0.100000
B(  0-C ,  1-C ) :   1.1014 B(  0-C ,  8-H ) :   0.9539 B(  0-C ,  9-H ) :   0.9406
B(  0-C , 10-H ) :   0.9591 B(  1-C ,  2-H ) :   0.9298 B(  1-C ,  3-H ) :   0.9266
B(  1-C ,  4-S ) :   0.8575 B(  4-S ,  5-O ) :   1.6055 B(  4-S ,  6-O ) :   1.6553
B(  4-S ,  7-O ) :   1.6361

Dispersion correction           -0.020270714
FINAL SINGLE POINT ENERGY      -702.636289740507

DIPOLE MOMENT
-------------
                                X             Y             Z
Electronic contribution:      3.77461      -5.88959      -4.42886
Nuclear contribution   :     -4.50297       7.24642       5.01775
                        -----------------------------------------
Total Dipole Moment    :     -0.72836       1.35683       0.58890
                        -----------------------------------------
Magnitude (a.u.)       :      1.64872
Magnitude (Debye)      :      4.19072

Rotational constants in cm-1:     0.162459     0.081286     0.079601
Rotational constants in MHz :  4870.394399  2436.893583  2386.374948

                             ****ORCA TERMINATED NORMALLY****
TOTAL RUN TIME: 0 days 0 hours 0 minutes 8 seconds 71 msec
