                         Program Version 5.0.0 -  RELEASE  -
|  1> !BLYP D3BJ RIJCOSX def2-SVP def2/J TightSCF
|  2> *xyz 1 1
|  3> C          2.91632       -1.24259       -1.54313
|  4> C          3.46659       -1.59097       -2.88908
|  5> N          4.65227       -1.14316       -3.25969
|  6> N          2.75226       -2.29204       -3.72803
|  7> H          1.77836       -2.48960       -3.51274
|  8> H          2.94861       -2.20854       -4.71681
|  9> H          5.14672       -0.51251       -2.63385
| 10> H          4.78303       -1.00720       -4.25350
| 11> C          2.80408        0.29070       -1.35924
| 12> H          1.94047       -1.71653       -1.44116
| 13> H          3.55857       -1.66343       -0.76637
| 14> H          2.17393        0.69633       -2.12297
| 15> H          3.77707        0.73043       -1.42880
| 16> H          2.38369        0.50492       -0.39889
| 17> *
| 18>
| 19> %MaxCore 64000
| 20>
| 21> %pal nprocs 4
| 22> end
| 23>
| 24> %scf
| 25>   MaxIter 150
| 26> end
| 27>
| 28>
| 29>                          ****END OF INPUT****

CARTESIAN COORDINATES (ANGSTROEM)
---------------------------------
  C      2.916320   -1.242590   -1.543130
  C      3.466590   -1.590970   -2.889080
  N      4.652270   -1.143160   -3.259690
  N      2.752260   -2.292040   -3.728030
  H      1.778360   -2.489600   -3.512740
  H      2.948610   -2.208540   -4.716810
  H      5.146720   -0.512510   -2.633850
  H      4.783030   -1.007200   -4.253500
  C      2.804080    0.290700   -1.359240
  H      1.940470   -1.716530   -1.441160
  H      3.558570   -1.663430   -0.766370
  H      2.173930    0.696330   -2.122970
  H      3.777070    0.730430   -1.428800
  H      2.383690    0.504920   -0.398890

 Total Charge           Charge          ....    1
 Multiplicity           Mult            ....    1
 Number of Electrons    NEL             ....   40
 Basis Dimension        Dim             ....  115

ORBITAL ENERGIES
----------------

  NO   OCC          E(Eh)            E(eV)
   0   2.0000     -14.270338      -388.3156
   1   2.0000     -14.265344      -388.1798
   2   2.0000     -10.235161      -278.5129
   3   2.0000     -10.121770      -275.4274
   4   2.0000     -10.085648      -274.4444
   5   2.0000      -1.109813       -30.1995
   6   2.0000      -1.017498       -27.6875
   7   2.0000      -0.884683       -24.0735
   8   2.0000      -0.789730       -21.4897
   9   2.0000      -0.749170       -20.3860
  10   2.0000      -0.710880       -19.3440
  11   2.0000      -0.689890       -18.7729
  12   2.0000      -0.645935       -17.5768
  13   2.0000      -0.608449       -16.5567
  14   2.0000      -0.571939       -15.5632
  15   2.0000      -0.548293       -14.9198
  16   2.0000      -0.504728       -13.7344
  17   2.0000      -0.494788       -13.4639
  18   2.0000      -0.482901       -13.1404
  19   2.0000      -0.451944       -12.2980
  20   0.0000      -0.244170        -6.6442
  21   0.0000      -0.171115        -4.6563
  22   0.0000      -0.130597        -3.5537
  23   0.0000      -0.127886        -3.4800
  24   0.0000      -0.095100        -2.5878

MULLIKEN ATOMIC CHARGES
-----------------------
   0 C :    0.104333
   1 C :   -0.201822
   2 N :    0.106744
   3 N :    0.124480
   4 H :    0.163560
   5 H :    0.147564
   6 H :    0.157943
   7 H :    0.152422
   8 C :    0.069617
   9 H :    0.016245
  10 H :    0.066578
  11 H :    0.024336
  12 H :    0.013460
  13 H :    0.054539
Sum of atomic charges:    1.0000000

LOEWDIN ATOMIC CHARGES
----------------------
   0 C :   -0.019294
   1 C :    0.123158
   2 N :    0.114124
   3 N :    0.127657
   4 H :    0.117876
   5 H :    0.106534
   6 H :    0.113402
   7 H :    0.106463
   8 C :   -0.008719
   9 H :    0.046168
  10 H :    0.064608
  11 H :    0.032893
  12 H :    0.023958
  13 H :    0.051172

  Mayer bond orders larger than 0.100000
B(  0-C ,  1-C ) :   1.0561 B(  0-C ,  8-C ) :   1.0929 B(  0-C ,  9-H ) :   0.9026
B(  0-C , 10-H ) :   0.9013 B(  1-C ,  2-N ) :   1.5032 B(  1-C ,  3-N ) :   1.5341
B(  2-N ,  6-H ) :   0.9251 B(  2-N ,  7-H ) :   0.9300 B(  3-N ,  4-H ) :   0.9189
B(  3-N ,  5-H ) :   0.9301 B(  8-C , 11-H ) :   0.9665 B(  8-C , 12-H ) :   0.9662
B(  8-C , 13-H ) :   0.9519

Dispersion correction           -0.020755680
FINAL SINGLE POINT ENERGY      -228.761299022200

DIPOLE MOMENT
-------------
                                X             Y             Z
Electronic contribution:      1.34423      -2.87205      -2.83928
Nuclear contribution   :     -1.30215       2.77761       1.84194
                        -----------------------------------------
Total Dipole Moment    :      0.04208      -0.09444      -0.99735
                        -----------------------------------------
Magnitude (a.u.)       :      1.00269
Magnitude (Debye)      :      2.54863

Rotational constants in cm-1:     0.267442     0.127541     0.099068
Rotational constants in MHz :  8017.703171  3823.592522  2969.992494

                             ****ORCA TERMINATED NORMALLY****
TOTAL RUN TIME: 0 days 0 hours 0 minutes 7 seconds 190 msec
