                         Program Version 5.0.0 -  RELEASE  -
|  1> !BLYP D3BJ RIJCOSX def2-SVP def2/J TightSCF
|  2> *xyz 0 1
|  3> C          0.70466        1.44313       -4.50363
|  4> C          1.72854        1.42432       -5.63944
|  5> H          2.64672        1.95379       -5.38105
|  6> H          1.29992        1.93061       -6.50361
|  7> S          2.25263       -0.18811       -6.27184
|  8> F          3.56261       -0.44446       -5.63155
|  9> O          2.34494       -0.03374       -7.69650
| 10> O          1.26606       -1.15918       -5.80536
| 11> H         -0.17385        0.91270       -4.80656
| 12> H          0.44778        2.45562       -4.27173
| 13> H          1.12367        0.97423       -3.63791
| 14> *
| 15>
| 16> %MaxCore 64000
| 17>
| 18> %pal nprocs 4
| 19> end
| 20>
| 21> %scf
| 22>   MaxIter 150
| 23> end
| 24>
| 25>
| 26>                          ****END OF INPUT****

CARTESIAN COORDINATES (ANGSTROEM)
---------------------------------
  C      0.704660    1.443130   -4.503630
  C      1.728540    1.424320   -5.639440
  H      2.646720    1.953790   -5.381050
  H      1.299920    1.930610   -6.503610
  S      2.252630   -0.188110   -6.271840
  F      3.562610   -0.444460   -5.631550
  O      2.344940   -0.033740   -7.696500
  O      1.266060   -1.159180   -5.805360
  H     -0.173850    0.912700   -4.806560
  H      0.447780    2.455620   -4.271730
  H      1.123670    0.974230   -3.637910

 Total Charge           Charge          ....    0
 Multiplicity           Mult            ....    1
 Number of Electrons    NEL             ....   58
 Basis Dimension        Dim             ....  113

ORBITAL ENERGIES
----------------

  NO   OCC          E(Eh)            E(eV)
   0   2.0000     -88.349939     -2404.1241
   1   2.0000     -24.374747      -663.2706
   2   2.0000     -18.779570      -511.0181
   3   2.0000     -18.773120      -510.8426
   4   2.0000      -9.971653      -271.3425
   5   2.0000      -9.939613      -270.4706
   6   2.0000      -7.896034      -214.8620
   7   2.0000      -5.934618      -161.4892
   8   2.0000      -5.928434      -161.3209
   9   2.0000      -5.927135      -161.2856
  10   2.0000      -1.215604       -33.0783
  11   2.0000      -1.000083       -27.2136
  12   2.0000      -0.906409       -24.6646
  13   2.0000      -0.729456       -19.8495
  14   2.0000      -0.637281       -17.3413
  15   2.0000      -0.588831       -16.0229
  16   2.0000      -0.501199       -13.6383
  17   2.0000      -0.477977       -13.0064
  18   2.0000      -0.469692       -12.7810
  19   2.0000      -0.429398       -11.6845
  20   2.0000      -0.411050       -11.1852
  21   2.0000      -0.385048       -10.4777
  22   2.0000      -0.367526       -10.0009
  23   2.0000      -0.349177        -9.5016
  24   2.0000      -0.341527        -9.2934
  25   2.0000      -0.318284        -8.6609
  26   2.0000      -0.270591        -7.3631
  27   2.0000      -0.265438        -7.2229
  28   2.0000      -0.248000        -6.7484
  29   0.0000       0.007689         0.2092
  30   0.0000       0.022125         0.6021
  31   0.0000       0.053953         1.4681
  32   0.0000       0.058479         1.5913
  33   0.0000       0.076151         2.0722

MULLIKEN ATOMIC CHARGES
-----------------------
   0 C :    0.104770
   1 C :   -0.084668
   2 H :    0.027353
   3 H :    0.049022
   4 S :    0.852302
   5 F :   -0.178424
   6 O :   -0.390013
   7 O :   -0.412321
   8 H :    0.022347
   9 H :    0.004488
  10 H :    0.005145
Sum of atomic charges:    0.0000000

LOEWDIN ATOMIC CHARGES
----------------------
   0 C :   -0.040117
   1 C :   -0.149857
   2 H :    0.025163
   3 H :    0.039843
   4 S :    1.117830
   5 F :   -0.145585
   6 O :   -0.453183
   7 O :   -0.476721
   8 H :    0.029309
   9 H :    0.029661
  10 H :    0.023657

  Mayer bond orders larger than 0.100000
B(  0-C ,  1-C ) :   1.1012 B(  0-C ,  8-H ) :   0.9623 B(  0-C ,  9-H ) :   0.9483
B(  0-C , 10-H ) :   0.9665 B(  1-C ,  2-H ) :   0.9269 B(  1-C ,  3-H ) :   0.9324
B(  1-C ,  4-S ) :   0.8912 B(  4-S ,  5-F ) :   1.0001 B(  4-S ,  6-O ) :   1.8060
B(  4-S ,  7-O ) :   1.7896

Dispersion correction           -0.019339317
FINAL SINGLE POINT ENERGY      -727.171011614855

DIPOLE MOMENT
-------------
                                X             Y             Z
Electronic contribution:      6.33549      -6.62719      -3.79300
Nuclear contribution   :     -6.09914       7.80989       4.64238
                        -----------------------------------------
Total Dipole Moment    :      0.23636       1.18270       0.84939
                        -----------------------------------------
Magnitude (a.u.)       :      1.47516
Magnitude (Debye)      :      3.74956

Rotational constants in cm-1:     0.154372     0.078826     0.078033
Rotational constants in MHz :  4627.943144  2363.154585  2339.382767

                             ****ORCA TERMINATED NORMALLY****
TOTAL RUN TIME: 0 days 0 hours 0 minutes 8 seconds 111 msec
