                         Program Version 5.0.0 -  RELEASE  -
|  1> !BLYP D3BJ RIJCOSX def2-SVP def2/J TightSCF
|  2> *xyz 0 1
|  3> C          2.91632       -1.24259       -1.54313
|  4> C          3.46659       -1.59097       -2.88908
|  5> C          4.65227       -1.14316       -3.25969
|  6> N          2.75226       -2.29204       -3.72803
|  7> H          1.77836       -2.48960       -3.51274
|  8> H          2.94861       -2.20854       -4.71681
|  9> H          5.14672       -0.51251       -2.63385
| 10> H          4.78303       -1.00720       -4.25350
| 11> C          2.80408        0.29070       -1.35924
| 12> H          1.94047       -1.71653       -1.44116
| 13> H          3.55857       -1.66343       -0.76637
| 14> H          2.17393        0.69633       -2.12297
| 15> H          3.77707        0.73043       -1.42880
| 16> H          2.38369        0.50492       -0.39889
| 17> *
| 18>
| 19> %MaxCore 64000
| 20>
| 21> %pal nprocs 4
| 22> end
| 23>
| 24> %scf
| 25>   MaxIter 150
| 26> end
| 27>
| 28>
| 29>                          ****END OF INPUT****

CARTESIAN COORDINATES (ANGSTROEM)
---------------------------------
  C      2.916320   -1.242590   -1.543130
  C      3.466590   -1.590970   -2.889080
  C      4.652270   -1.143160   -3.259690
  N      2.752260   -2.292040   -3.728030
  H      1.778360   -2.489600   -3.512740
  H      2.948610   -2.208540   -4.716810
  H      5.146720   -0.512510   -2.633850
  H      4.783030   -1.007200   -4.253500
  C      2.804080    0.290700   -1.359240
  H      1.940470   -1.716530   -1.441160
  H      3.558570   -1.663430   -0.766370
  H      2.173930    0.696330   -2.122970
  H      3.777070    0.730430   -1.428800
  H      2.383690    0.504920   -0.398890

 Total Charge           Charge          ....    0
 Multiplicity           Mult            ....    1
 Number of Electrons    NEL             ....   40
 Basis Dimension        Dim             ....  115

ORBITAL ENERGIES
----------------

  NO   OCC          E(Eh)            E(eV)
   0   2.0000     -14.019054      -381.4778
   1   2.0000      -9.929838      -270.2046
   2   2.0000      -9.920160      -269.9413
   3   2.0000      -9.907832      -269.6058
   4   2.0000      -9.845287      -267.9039
   5   2.0000      -0.832150       -22.6440
   6   2.0000      -0.689390       -18.7593
   7   2.0000      -0.622564       -16.9408
   8   2.0000      -0.564275       -15.3547
   9   2.0000      -0.495204       -13.4752
  10   2.0000      -0.458605       -12.4793
  11   2.0000      -0.415622       -11.3096
  12   2.0000      -0.390712       -10.6318
  13   2.0000      -0.352391        -9.5890
  14   2.0000      -0.333874        -9.0852
  15   2.0000      -0.322327        -8.7710
  16   2.0000      -0.304624        -8.2892
  17   2.0000      -0.292296        -7.9538
  18   2.0000      -0.271879        -7.3982
  19   2.0000      -0.142371        -3.8741
  20   0.0000       0.021638         0.5888
  21   0.0000       0.029101         0.7919
  22   0.0000       0.070514         1.9188
  23   0.0000       0.072962         1.9854
  24   0.0000       0.098172         2.6714

MULLIKEN ATOMIC CHARGES
-----------------------
   0 C :    0.139906
   1 C :   -0.196989
   2 C :    0.016769
   3 N :    0.043329
   4 H :    0.077449
   5 H :    0.085022
   6 H :   -0.072227
   7 H :   -0.080710
   8 C :    0.092881
   9 H :   -0.056381
  10 H :   -0.005286
  11 H :   -0.017218
  12 H :   -0.003673
  13 H :   -0.022871
Sum of atomic charges:   -0.0000000

LOEWDIN ATOMIC CHARGES
----------------------
   0 C :   -0.017592
   1 C :   -0.007071
   2 C :   -0.170823
   3 N :    0.026175
   4 H :    0.061628
   5 H :    0.069512
   6 H :   -0.009358
   7 H :   -0.012894
   8 C :   -0.027746
   9 H :    0.009272
  10 H :    0.031285
  11 H :    0.015643
  12 H :    0.018630
  13 H :    0.013340

  Mayer bond orders larger than 0.100000
B(  0-C ,  1-C ) :   1.0396 B(  0-C ,  8-C ) :   1.1210 B(  0-C ,  9-H ) :   0.9059
B(  0-C , 10-H ) :   0.9155 B(  1-C ,  2-C ) :   1.8427 B(  1-C ,  3-N ) :   1.3086
B(  2-C ,  6-H ) :   0.9341 B(  2-C ,  7-H ) :   0.9339 B(  3-N ,  4-H ) :   0.9426
B(  3-N ,  5-H ) :   0.9438 B(  8-C , 11-H ) :   0.9645 B(  8-C , 12-H ) :   0.9683
B(  8-C , 13-H ) :   0.9514

Dispersion correction           -0.021692616
FINAL SINGLE POINT ENERGY      -212.286247704553

DIPOLE MOMENT
-------------
                                X             Y             Z
Electronic contribution:      0.07707      -2.82016      -1.86973
Nuclear contribution   :     -0.99366       2.78648       1.68526
                        -----------------------------------------
Total Dipole Moment    :     -0.91659      -0.03368      -0.18447
                        -----------------------------------------
Magnitude (a.u.)       :      0.93557
Magnitude (Debye)      :      2.37803

Rotational constants in cm-1:     0.282898     0.128664     0.101801
Rotational constants in MHz :  8481.061354  3857.240210  3051.924245

                             ****ORCA TERMINATED NORMALLY****
TOTAL RUN TIME: 0 days 0 hours 0 minutes 8 seconds 476 msec
