                         Program Version 5.0.0 -  RELEASE  -
|  1> !BLYP D3BJ RIJCOSX def2-SVP def2/J TightSCF
|  2> *xyz 0 1
|  3> C          0.70466        1.44313       -4.50363
|  4> C          1.72854        1.42432       -5.63944
|  5> H          2.64672        1.95379       -5.38105
|  6> H          1.29992        1.93061       -6.50361
|  7> S          2.25263       -0.18811       -6.27184
|  8> O          3.56261       -0.44446       -5.63155
|  9> F          2.34494       -0.03374       -7.69650
| 10> O          1.26606       -1.15918       -5.80536
| 11> H         -0.17385        0.91270       -4.80656
| 12> H          0.44778        2.45562       -4.27173
| 13> H          1.12367        0.97423       -3.63791
| 14> *
| 15>
| 16> %MaxCore 64000
| 17>
| 18> %pal nprocs 4
| 19> end
| 20>
| 21> %scf
| 22>   MaxIter 150
| 23> end
| 24>
| 25>
| 26>                          ****END OF INPUT****

CARTESIAN COORDINATES (ANGSTROEM)
---------------------------------
  C      0.704660    1.443130   -4.503630
  C      1.728540    1.424320   -5.639440
  H      2.646720    1.953790   -5.381050
  H      1.299920    1.930610   -6.503610
  S      2.252630   -0.188110   -6.271840
  O      3.562610   -0.444460   -5.631550
  F      2.344940   -0.033740   -7.696500
  O      1.266060   -1.159180   -5.805360
  H     -0.173850    0.912700   -4.806560
  H      0.447780    2.455620   -4.271730
  H      1.123670    0.974230   -3.637910

 Total Charge           Charge          ....    0
 Multiplicity           Mult            ....    1
 Number of Electrons    NEL             ....   58
 Basis Dimension        Dim             ....  113

ORBITAL ENERGIES
----------------

  NO   OCC          E(Eh)            E(eV)
   0   2.0000     -88.351235     -2404.1593
   1   2.0000     -24.397759      -663.8968
   2   2.0000     -18.772449      -510.8243
   3   2.0000     -18.762694      -510.5588
   4   2.0000      -9.972589      -271.3680
   5   2.0000      -9.940131      -270.4847
   6   2.0000      -7.897426      -214.8999
   7   2.0000      -5.936253      -161.5337
   8   2.0000      -5.929575      -161.3519
   9   2.0000      -5.928273      -161.3165
  10   2.0000      -1.253592       -34.1120
  11   2.0000      -0.985935       -26.8286
  12   2.0000      -0.885376       -24.0923
  13   2.0000      -0.730085       -19.8666
  14   2.0000      -0.650488       -17.7007
  15   2.0000      -0.597548       -16.2601
  16   2.0000      -0.512152       -13.9364
  17   2.0000      -0.505323       -13.7505
  18   2.0000      -0.476601       -12.9690
  19   2.0000      -0.431757       -11.7487
  20   2.0000      -0.410478       -11.1697
  21   2.0000      -0.378496       -10.2994
  22   2.0000      -0.363489        -9.8910
  23   2.0000      -0.351258        -9.5582
  24   2.0000      -0.336992        -9.1700
  25   2.0000      -0.311266        -8.4700
  26   2.0000      -0.263606        -7.1731
  27   2.0000      -0.251507        -6.8438
  28   2.0000      -0.231014        -6.2862
  29   0.0000       0.007101         0.1932
  30   0.0000       0.019122         0.5203
  31   0.0000       0.051824         1.4102
  32   0.0000       0.058244         1.5849
  33   0.0000       0.073933         2.0118

MULLIKEN ATOMIC CHARGES
-----------------------
   0 C :    0.107596
   1 C :   -0.076792
   2 H :    0.044218
   3 H :    0.015722
   4 S :    0.841909
   5 O :   -0.434586
   6 F :   -0.132470
   7 O :   -0.406681
   8 H :    0.013547
   9 H :    0.006256
  10 H :    0.021280
Sum of atomic charges:   -0.0000000

LOEWDIN ATOMIC CHARGES
----------------------
   0 C :   -0.034117
   1 C :   -0.148010
   2 H :    0.034628
   3 H :    0.020344
   4 S :    1.109834
   5 O :   -0.497691
   6 F :   -0.099500
   7 O :   -0.472976
   8 H :    0.026846
   9 H :    0.030614
  10 H :    0.030029

  Mayer bond orders larger than 0.100000
B(  0-C ,  1-C ) :   1.1130 B(  0-C ,  8-H ) :   0.9596 B(  0-C ,  9-H ) :   0.9494
B(  0-C , 10-H ) :   0.9675 B(  1-C ,  2-H ) :   0.9278 B(  1-C ,  3-H ) :   0.9241
B(  1-C ,  4-S ) :   0.8925 B(  4-S ,  5-O ) :   1.7551 B(  4-S ,  6-F ) :   1.0499
B(  4-S ,  7-O ) :   1.7836

Dispersion correction           -0.019363624
FINAL SINGLE POINT ENERGY      -727.150467105199

DIPOLE MOMENT
-------------
                                X             Y             Z
Electronic contribution:      4.27434      -5.94203      -7.25103
Nuclear contribution   :     -4.83029       7.38191       6.79413
                        -----------------------------------------
Total Dipole Moment    :     -0.55595       1.43988      -0.45690
                        -----------------------------------------
Magnitude (a.u.)       :      1.60969
Magnitude (Debye)      :      4.09150

Rotational constants in cm-1:     0.156575     0.079070     0.076729
Rotational constants in MHz :  4694.010604  2370.444114  2300.280155

                             ****ORCA TERMINATED NORMALLY****
TOTAL RUN TIME: 0 days 0 hours 0 minutes 9 seconds 531 msec
