                         Program Version 5.0.0 -  RELEASE  -
|  1> !BLYP D3BJ RIJCOSX def2-SVP def2/J TightSCF
|  2> *xyz 0 1
|  3> C          2.91632       -1.24259       -1.54313
|  4> C          3.46659       -1.59097       -2.88908
|  5> N          4.65227       -1.14316       -3.25969
|  6> C          2.75226       -2.29204       -3.72803
|  7> H          1.77836       -2.48960       -3.51274
|  8> H          2.94861       -2.20854       -4.71681
|  9> H          5.14672       -0.51251       -2.63385
| 10> H          4.78303       -1.00720       -4.25350
| 11> C          2.80408        0.29070       -1.35924
| 12> H          1.94047       -1.71653       -1.44116
| 13> H          3.55857       -1.66343       -0.76637
| 14> H          2.17393        0.69633       -2.12297
| 15> H          3.77707        0.73043       -1.42880
| 16> H          2.38369        0.50492       -0.39889
| 17> *
| 18>
| 19> %MaxCore 64000
| 20>
| 21> %pal nprocs 4
| 22> end
| 23>
| 24> %scf
| 25>   MaxIter 150
| 26> end
| 27>
| 28>
| 29>                          ****END OF INPUT****

CARTESIAN COORDINATES (ANGSTROEM)
---------------------------------
  C      2.916320   -1.242590   -1.543130
  C      3.466590   -1.590970   -2.889080
  N      4.652270   -1.143160   -3.259690
  C      2.752260   -2.292040   -3.728030
  H      1.778360   -2.489600   -3.512740
  H      2.948610   -2.208540   -4.716810
  H      5.146720   -0.512510   -2.633850
  H      4.783030   -1.007200   -4.253500
  C      2.804080    0.290700   -1.359240
  H      1.940470   -1.716530   -1.441160
  H      3.558570   -1.663430   -0.766370
  H      2.173930    0.696330   -2.122970
  H      3.777070    0.730430   -1.428800
  H      2.383690    0.504920   -0.398890

 Total Charge           Charge          ....    0
 Multiplicity           Mult            ....    1
 Number of Electrons    NEL             ....   40
 Basis Dimension        Dim             ....  115

ORBITAL ENERGIES
----------------

  NO   OCC          E(Eh)            E(eV)
   0   2.0000     -14.015897      -381.3919
   1   2.0000      -9.928818      -270.1769
   2   2.0000      -9.918433      -269.8943
   3   2.0000      -9.913734      -269.7664
   4   2.0000      -9.849665      -268.0230
   5   2.0000      -0.827916       -22.5287
   6   2.0000      -0.687621       -18.7111
   7   2.0000      -0.633440       -17.2368
   8   2.0000      -0.557317       -15.1654
   9   2.0000      -0.494991       -13.4694
  10   2.0000      -0.462945       -12.5974
  11   2.0000      -0.413378       -11.2486
  12   2.0000      -0.381159       -10.3719
  13   2.0000      -0.374967       -10.2034
  14   2.0000      -0.331088        -9.0094
  15   2.0000      -0.327350        -8.9077
  16   2.0000      -0.306941        -8.3523
  17   2.0000      -0.289876        -7.8879
  18   2.0000      -0.267368        -7.2754
  19   2.0000      -0.149319        -4.0632
  20   0.0000       0.020427         0.5558
  21   0.0000       0.028970         0.7883
  22   0.0000       0.072702         1.9783
  23   0.0000       0.078671         2.1407
  24   0.0000       0.093862         2.5541

MULLIKEN ATOMIC CHARGES
-----------------------
   0 C :    0.145566
   1 C :   -0.181408
   2 N :    0.027571
   3 C :    0.022922
   4 H :   -0.071499
   5 H :   -0.085828
   6 H :    0.076978
   7 H :    0.092873
   8 C :    0.082852
   9 H :   -0.033026
  10 H :   -0.024116
  11 H :   -0.010708
  12 H :   -0.028863
  13 H :   -0.013314
Sum of atomic charges:   -0.0000000

LOEWDIN ATOMIC CHARGES
----------------------
   0 C :   -0.016651
   1 C :   -0.006060
   2 N :    0.012929
   3 C :   -0.157949
   4 H :   -0.006316
   5 H :   -0.013164
   6 H :    0.061192
   7 H :    0.071111
   8 C :   -0.035001
   9 H :    0.026990
  10 H :    0.017836
  11 H :    0.018990
  12 H :    0.007145
  13 H :    0.018949

  Mayer bond orders larger than 0.100000
B(  0-C ,  1-C ) :   1.0701 B(  0-C ,  8-C ) :   1.1072 B(  0-C ,  9-H ) :   0.9062
B(  0-C , 10-H ) :   0.9082 B(  1-C ,  2-N ) :   1.2846 B(  1-C ,  3-C ) :   1.8703
B(  2-N ,  6-H ) :   0.9507 B(  2-N ,  7-H ) :   0.9444 B(  3-C ,  4-H ) :   0.9199
B(  3-C ,  5-H ) :   0.9317 B(  8-C , 11-H ) :   0.9638 B(  8-C , 12-H ) :   0.9640
B(  8-C , 13-H ) :   0.9558

Dispersion correction           -0.021626519
FINAL SINGLE POINT ENERGY      -212.289806425273

DIPOLE MOMENT
-------------
                                X             Y             Z
Electronic contribution:      1.84016      -1.73640      -1.43454
Nuclear contribution   :     -1.43372       2.52039       1.57679
                        -----------------------------------------
Total Dipole Moment    :      0.40644       0.78398       0.14225
                        -----------------------------------------
Magnitude (a.u.)       :      0.89446
Magnitude (Debye)      :      2.27354

Rotational constants in cm-1:     0.274962     0.131786     0.102554
Rotational constants in MHz :  8243.150005  3950.846092  3074.493018

                             ****ORCA TERMINATED NORMALLY****
TOTAL RUN TIME: 0 days 0 hours 0 minutes 10 seconds 70 msec
