                         Program Version 5.0.0 -  RELEASE  -
|  1> !BLYP D3BJ RIJCOSX def2-SVP def2/J TightSCF
|  2> *xyz 0 1
|  3> C          0.70466        1.44313       -4.50363
|  4> C          1.72854        1.42432       -5.63944
|  5> H          2.64672        1.95379       -5.38105
|  6> H          1.29992        1.93061       -6.50361
|  7> S          2.25263       -0.18811       -6.27184
|  8> O          3.56261       -0.44446       -5.63155
|  9> O          2.34494       -0.03374       -7.69650
| 10> F          1.26606       -1.15918       -5.80536
| 11> H         -0.17385        0.91270       -4.80656
| 12> H          0.44778        2.45562       -4.27173
| 13> H          1.12367        0.97423       -3.63791
| 14> *
| 15>
| 16> %MaxCore 64000
| 17>
| 18> %pal nprocs 4
| 19> end
| 20>
| 21> %scf
| 22>   MaxIter 150
| 23> end
| 24>
| 25>
| 26>                          ****END OF INPUT****

CARTESIAN COORDINATES (ANGSTROEM)
---------------------------------
  C      0.704660    1.443130   -4.503630
  C      1.728540    1.424320   -5.639440
  H      2.646720    1.953790   -5.381050
  H      1.299920    1.930610   -6.503610
  S      2.252630   -0.188110   -6.271840
  O      3.562610   -0.444460   -5.631550
  O      2.344940   -0.033740   -7.696500
  F      1.266060   -1.159180   -5.805360
  H     -0.173850    0.912700   -4.806560
  H      0.447780    2.455620   -4.271730
  H      1.123670    0.974230   -3.637910

 Total Charge           Charge          ....    0
 Multiplicity           Mult            ....    1
 Number of Electrons    NEL             ....   58
 Basis Dimension        Dim             ....  113

ORBITAL ENERGIES
----------------

  NO   OCC          E(Eh)            E(eV)
   0   2.0000     -88.349661     -2404.1165
   1   2.0000     -24.386512      -663.5907
   2   2.0000     -18.778982      -511.0021
   3   2.0000     -18.762174      -510.5447
   4   2.0000      -9.971336      -271.3339
   5   2.0000      -9.947282      -270.6793
   6   2.0000      -7.895874      -214.8577
   7   2.0000      -5.934694      -161.4912
   8   2.0000      -5.928109      -161.3120
   9   2.0000      -5.926784      -161.2760
  10   2.0000      -1.232931       -33.5498
  11   2.0000      -0.995389       -27.0859
  12   2.0000      -0.893197       -24.3051
  13   2.0000      -0.733289       -19.9538
  14   2.0000      -0.640519       -17.4294
  15   2.0000      -0.598416       -16.2837
  16   2.0000      -0.514180       -13.9915
  17   2.0000      -0.491106       -13.3637
  18   2.0000      -0.463831       -12.6215
  19   2.0000      -0.435179       -11.8418
  20   2.0000      -0.406881       -11.0718
  21   2.0000      -0.388487       -10.5713
  22   2.0000      -0.370463       -10.0808
  23   2.0000      -0.358103        -9.7445
  24   2.0000      -0.341814        -9.3012
  25   2.0000      -0.315941        -8.5972
  26   2.0000      -0.269689        -7.3386
  27   2.0000      -0.252152        -6.8614
  28   2.0000      -0.237218        -6.4550
  29   0.0000      -0.004074        -0.1109
  30   0.0000       0.034743         0.9454
  31   0.0000       0.055228         1.5028
  32   0.0000       0.056811         1.5459
  33   0.0000       0.075449         2.0531

MULLIKEN ATOMIC CHARGES
-----------------------
   0 C :    0.074974
   1 C :   -0.069142
   2 H :    0.057234
   3 H :    0.036608
   4 S :    0.846195
   5 O :   -0.437947
   6 O :   -0.386353
   7 F :   -0.155761
   8 H :    0.004889
   9 H :    0.013743
  10 H :    0.015560
Sum of atomic charges:   -0.0000000

LOEWDIN ATOMIC CHARGES
----------------------
   0 C :   -0.048053
   1 C :   -0.143637
   2 H :    0.043068
   3 H :    0.030998
   4 S :    1.114675
   5 O :   -0.501555
   6 O :   -0.450840
   7 F :   -0.123034
   8 H :    0.020712
   9 H :    0.032944
  10 H :    0.024721

  Mayer bond orders larger than 0.100000
B(  0-C ,  1-C ) :   1.0933 B(  0-C ,  8-H ) :   0.9670 B(  0-C ,  9-H ) :   0.9524
B(  0-C , 10-H ) :   0.9675 B(  1-C ,  2-H ) :   0.9315 B(  1-C ,  3-H ) :   0.9304
B(  1-C ,  4-S ) :   0.9047 B(  4-S ,  5-O ) :   1.7593 B(  4-S ,  6-O ) :   1.8025
B(  4-S ,  7-F ) :   1.0249

Dispersion correction           -0.019241327
FINAL SINGLE POINT ENERGY      -727.160064888068

DIPOLE MOMENT
-------------
                                X             Y             Z
Electronic contribution:      2.46936      -7.79141      -4.07284
Nuclear contribution   :     -3.70606       8.55465       4.82350
                        -----------------------------------------
Total Dipole Moment    :     -1.23670       0.76324       0.75066
                        -----------------------------------------
Magnitude (a.u.)       :      1.63568
Magnitude (Debye)      :      4.15758

Rotational constants in cm-1:     0.153201     0.080978     0.077494
Rotational constants in MHz :  4592.852844  2427.650814  2323.207507

                             ****ORCA TERMINATED NORMALLY****
TOTAL RUN TIME: 0 days 0 hours 0 minutes 9 seconds 142 msec
