                         Program Version 5.0.0 -  RELEASE  -
|  1> !BLYP D3BJ RIJCOSX def2-TZVP def2/J TightSCF xyzfile
|  2>
|  3> *xyzfile 0 1 D1.xyz
|  4>
|  5> %MaxCore 64000
|  6>
|  7> %pal nprocs 18
|  8> end
|  9>
| 10> %scf
| 11>   MaxIter 150
| 12> end
| 13>
| 14>
| 15>                          ****END OF INPUT****

CARTESIAN COORDINATES (ANGSTROEM)
---------------------------------
  C      2.916324   -1.242589   -1.543125
  C      0.704661    1.443129   -4.503630
  C      1.728539    1.424320   -5.639443
  H      2.646718    1.953794   -5.381054
  H      1.299916    1.930613   -6.503614
  S      2.252625   -0.188115   -6.271840
  C      3.466585   -1.590971   -2.889082
  C      4.652275   -1.143164   -3.259692
  N      2.752264   -2.292043   -3.728029
  H      1.778364   -2.489604   -3.512738
  H      2.948612   -2.208544   -4.716813
  H      5.146723   -0.512508   -2.633852
  H      4.783030   -1.007203   -4.253498
  F      3.562607   -0.444464   -5.631552
  O      2.344944   -0.033742   -7.696501
  C      2.804084    0.290698   -1.359243
  C      1.052550    0.695659   -3.214915
  H     -0.232483    1.032925   -4.884449
  H      0.511700    2.495794   -4.267966
  C      2.388380    1.093669   -2.597108
  H      3.763425    0.674718   -0.999889
  H      2.094788    0.461222   -0.545756
  O      1.266058   -1.159177   -5.805365
  H      3.167316    1.013242   -3.359430
  H      2.357690    2.149375   -2.310997
  H      1.039284   -0.368429   -3.449329
  H      0.250787    0.865605   -2.488283
  H      1.940472   -1.716529   -1.441161
  H      3.558569   -1.663433   -0.766371

 Total Charge           Charge          ....    0
 Multiplicity           Mult            ....    1
 Number of Electrons    NEL             ....  112
 Basis Dimension        Dim             ....  505

ORBITAL ENERGIES
----------------

  NO   OCC          E(Eh)            E(eV)
   0   2.0000     -88.339876     -2403.8502
   1   2.0000     -24.387599      -663.6203
   2   2.0000     -18.790128      -511.3054
   3   2.0000     -18.786853      -511.2163
   4   2.0000     -14.000090      -380.9618
   5   2.0000      -9.963073      -271.1090
   6   2.0000      -9.931084      -270.2385
   7   2.0000      -9.917421      -269.8667
   8   2.0000      -9.909539      -269.6523
   9   2.0000      -9.907489      -269.5965
  10   2.0000      -9.906333      -269.5650
  11   2.0000      -9.905181      -269.5337
  12   2.0000      -9.829113      -267.4638
  13   2.0000      -7.871701      -214.1999
  14   2.0000      -5.904044      -160.6572
  15   2.0000      -5.897299      -160.4737
  16   2.0000      -5.896792      -160.4599
  17   2.0000      -1.249992       -34.0140
  18   2.0000      -1.022090       -27.8125
  19   2.0000      -0.934909       -25.4402
  20   2.0000      -0.846021       -23.0214
  21   2.0000      -0.757342       -20.6083
  22   2.0000      -0.723046       -19.6751
  23   2.0000      -0.685940       -18.6654
  24   2.0000      -0.658178       -17.9099
  25   2.0000      -0.626624       -17.0513
  26   2.0000      -0.615330       -16.7440
  27   2.0000      -0.566559       -15.4168
  28   2.0000      -0.532375       -14.4867
  29   2.0000      -0.511873       -13.9288
  30   2.0000      -0.504524       -13.7288
  31   2.0000      -0.499322       -13.5872
  32   2.0000      -0.487692       -13.2708
  33   2.0000      -0.459318       -12.4987
  34   2.0000      -0.442781       -12.0487
  35   2.0000      -0.436915       -11.8891
  36   2.0000      -0.422927       -11.5084
  37   2.0000      -0.416968       -11.3463
  38   2.0000      -0.403904       -10.9908
  39   2.0000      -0.392247       -10.6736
  40   2.0000      -0.382207       -10.4004
  41   2.0000      -0.372780       -10.1439
  42   2.0000      -0.348161        -9.4739
  43   2.0000      -0.345586        -9.4039
  44   2.0000      -0.338385        -9.2079
  45   2.0000      -0.333869        -9.0850
  46   2.0000      -0.327905        -8.9228
  47   2.0000      -0.311338        -8.4719
  48   2.0000      -0.305725        -8.3192
  49   2.0000      -0.294012        -8.0005
  50   2.0000      -0.292099        -7.9484
  51   2.0000      -0.283563        -7.7161
  52   2.0000      -0.281448        -7.6586
  53   2.0000      -0.273739        -7.4488
  54   2.0000      -0.271248        -7.3810
  55   2.0000      -0.151082        -4.1111
  56   0.0000      -0.016122        -0.4387
  57   0.0000      -0.003401        -0.0925
  58   0.0000       0.004268         0.1161
  59   0.0000       0.011800         0.3211
  60   0.0000       0.021796         0.5931

MULLIKEN ATOMIC CHARGES
-----------------------
   0 C :   -0.182593
   1 C :   -0.092940
   2 C :   -0.281431
   3 H :    0.134864
   4 H :    0.151799
   5 S :    0.825621
   6 C :    0.165573
   7 C :   -0.391054
   8 N :   -0.311571
   9 H :    0.199245
  10 H :    0.188207
  11 H :    0.065533
  12 H :    0.060706
  13 F :   -0.115067
  14 O :   -0.381264
  15 C :   -0.175436
  16 C :   -0.193182
  17 H :    0.102244
  18 H :    0.089858
  19 C :   -0.102245
  20 H :    0.092311
  21 H :    0.073472
  22 O :   -0.422531
  23 H :    0.086182
  24 H :    0.067437
  25 H :    0.087478
  26 H :    0.076525
  27 H :    0.076821
  28 H :    0.105438
Sum of atomic charges:    0.0000000

LOEWDIN ATOMIC CHARGES
----------------------
   0 C :   -0.208795
   1 C :   -0.272673
   2 C :   -0.364347
   3 H :    0.135151
   4 H :    0.147443
   5 S :    0.519658
   6 C :   -0.385698
   7 C :   -0.290082
   8 N :    0.039043
   9 H :    0.160326
  10 H :    0.153272
  11 H :    0.101673
  12 H :    0.089237
  13 F :    0.076712
  14 O :   -0.235651
  15 C :   -0.243744
  16 C :   -0.265496
  17 H :    0.143036
  18 H :    0.143221
  19 C :   -0.263588
  20 H :    0.135516
  21 H :    0.132094
  22 O :   -0.259880
  23 H :    0.132461
  24 H :    0.132459
  25 H :    0.132382
  26 H :    0.135868
  27 H :    0.132386
  28 H :    0.148017

  Mayer bond orders larger than 0.100000
B(  0-C ,  6-C ) :   0.9308 B(  0-C , 15-C ) :   0.9516 B(  0-C , 27-H ) :   0.9635
B(  0-C , 28-H ) :   0.9732 B(  1-C ,  2-C ) :   0.9451 B(  1-C , 16-C ) :   0.9687
B(  1-C , 17-H ) :   0.9608 B(  1-C , 18-H ) :   0.9399 B(  2-C ,  3-H ) :   0.9418
B(  2-C ,  4-H ) :   0.9446 B(  2-C ,  5-S ) :   0.8942 B(  5-S , 13-F ) :   1.0852
B(  5-S , 14-O ) :   1.9916 B(  5-S , 22-O ) :   1.8455 B(  6-C ,  7-C ) :   1.6554
B(  6-C ,  8-N ) :   1.2268 B(  7-C , 11-H ) :   1.0118 B(  7-C , 12-H ) :   0.9957
B(  8-N ,  9-H ) :   0.9252 B(  8-N , 10-H ) :   0.9256 B( 15-C , 19-C ) :   0.9751
B( 15-C , 20-H ) :   0.9644 B( 15-C , 21-H ) :   0.9584 B( 16-C , 19-C ) :   0.9377
B( 16-C , 25-H ) :   0.9632 B( 16-C , 26-H ) :   0.9542 B( 19-C , 23-H ) :   0.9597
B( 19-C , 24-H ) :   0.9567

Dispersion correction           -0.073786530
FINAL SINGLE POINT ENERGY     -1017.737465684785

DIPOLE MOMENT
-------------
                                X             Y             Z
Electronic contribution:      2.16429      -5.04833     -18.65550
Nuclear contribution   :     -2.89481       6.29550      19.36835
                        -----------------------------------------
Total Dipole Moment    :     -0.73053       1.24717       0.71285
                        -----------------------------------------
Magnitude (a.u.)       :      1.61160
Magnitude (Debye)      :      4.09636

Rotational constants in cm-1:     0.036515     0.018832     0.015081
Rotational constants in MHz :  1094.679513   564.567051   452.109105

                             ****ORCA TERMINATED NORMALLY****
TOTAL RUN TIME: 0 days 0 hours 0 minutes 22 seconds 4 msec
