                         Program Version 5.0.0 -  RELEASE  -
|  1> !BLYP D3BJ RIJCOSX def2-TZVP def2/J TightSCF xyzfile
|  2>
|  3> *xyzfile 0 1 D3.xyz
|  4>
|  5> %MaxCore 64000
|  6>
|  7> %pal nprocs 18
|  8> end
|  9>
| 10> %scf
| 11>   MaxIter 150
| 12> end
| 13>
| 14>
| 15>                          ****END OF INPUT****

CARTESIAN COORDINATES (ANGSTROEM)
---------------------------------
  C      2.916324   -1.242589   -1.543125
  C      0.704661    1.443129   -4.503630
  C      1.728539    1.424320   -5.639443
  H      2.646718    1.953794   -5.381054
  H      1.299916    1.930613   -6.503614
  S      2.252625   -0.188115   -6.271840
  C      3.466585   -1.590971   -2.889082
  C      4.652275   -1.143164   -3.259692
  N      2.752264   -2.292043   -3.728029
  H      1.778364   -2.489604   -3.512738
  H      2.948612   -2.208544   -4.716813
  H      5.146723   -0.512508   -2.633852
  H      4.783030   -1.007203   -4.253498
  O      3.562607   -0.444464   -5.631552
  F      2.344944   -0.033742   -7.696501
  C      2.804084    0.290698   -1.359243
  C      1.052550    0.695659   -3.214915
  H     -0.232483    1.032925   -4.884449
  H      0.511700    2.495794   -4.267966
  C      2.388380    1.093669   -2.597108
  H      3.763425    0.674718   -0.999889
  H      2.094788    0.461222   -0.545756
  O      1.266058   -1.159177   -5.805365
  H      3.167316    1.013242   -3.359430
  H      2.357690    2.149375   -2.310997
  H      1.039284   -0.368429   -3.449329
  H      0.250787    0.865605   -2.488283
  H      1.940472   -1.716529   -1.441161
  H      3.558569   -1.663433   -0.766371

 Total Charge           Charge          ....    0
 Multiplicity           Mult            ....    1
 Number of Electrons    NEL             ....  112
 Basis Dimension        Dim             ....  505

ORBITAL ENERGIES
----------------

  NO   OCC          E(Eh)            E(eV)
   0   2.0000     -88.345986     -2404.0165
   1   2.0000     -24.410452      -664.2422
   2   2.0000     -18.790426      -511.3135
   3   2.0000     -18.781634      -511.0742
   4   2.0000     -13.977170      -380.3381
   5   2.0000      -9.966473      -271.2015
   6   2.0000      -9.932489      -270.2768
   7   2.0000      -9.903505      -269.4881
   8   2.0000      -9.895448      -269.2688
   9   2.0000      -9.895271      -269.2640
  10   2.0000      -9.893753      -269.2227
  11   2.0000      -9.891402      -269.1587
  12   2.0000      -9.804174      -266.7851
  13   2.0000      -7.877766      -214.3649
  14   2.0000      -5.909868      -160.8157
  15   2.0000      -5.903451      -160.6411
  16   2.0000      -5.902904      -160.6262
  17   2.0000      -1.283751       -34.9327
  18   2.0000      -1.015485       -27.6327
  19   2.0000      -0.921736       -25.0817
  20   2.0000      -0.823497       -22.4085
  21   2.0000      -0.756567       -20.5872
  22   2.0000      -0.714733       -19.4489
  23   2.0000      -0.685255       -18.6467
  24   2.0000      -0.652943       -17.7675
  25   2.0000      -0.624227       -16.9861
  26   2.0000      -0.600367       -16.3368
  27   2.0000      -0.564919       -15.3722
  28   2.0000      -0.532188       -14.4816
  29   2.0000      -0.527359       -14.3502
  30   2.0000      -0.507030       -13.7970
  31   2.0000      -0.500265       -13.6129
  32   2.0000      -0.476016       -12.9530
  33   2.0000      -0.446995       -12.1634
  34   2.0000      -0.439523       -11.9600
  35   2.0000      -0.437504       -11.9051
  36   2.0000      -0.420274       -11.4362
  37   2.0000      -0.412236       -11.2175
  38   2.0000      -0.394502       -10.7349
  39   2.0000      -0.384527       -10.4635
  40   2.0000      -0.375149       -10.2083
  41   2.0000      -0.361990        -9.8503
  42   2.0000      -0.347714        -9.4618
  43   2.0000      -0.336746        -9.1633
  44   2.0000      -0.330417        -8.9911
  45   2.0000      -0.316513        -8.6128
  46   2.0000      -0.310829        -8.4581
  47   2.0000      -0.303384        -8.2555
  48   2.0000      -0.291837        -7.9413
  49   2.0000      -0.289493        -7.8775
  50   2.0000      -0.281352        -7.6560
  51   2.0000      -0.272735        -7.4215
  52   2.0000      -0.269474        -7.3328
  53   2.0000      -0.262572        -7.1450
  54   2.0000      -0.253875        -6.9083
  55   2.0000      -0.128721        -3.5027
  56   0.0000      -0.020769        -0.5651
  57   0.0000      -0.007903        -0.2150
  58   0.0000       0.016157         0.4397
  59   0.0000       0.020327         0.5531
  60   0.0000       0.025723         0.7000

MULLIKEN ATOMIC CHARGES
-----------------------
   0 C :   -0.182556
   1 C :   -0.107194
   2 C :   -0.268653
   3 H :    0.148612
   4 H :    0.126891
   5 S :    0.819643
   6 C :    0.182634
   7 C :   -0.395176
   8 N :   -0.327045
   9 H :    0.185618
  10 H :    0.203234
  11 H :    0.052555
  12 H :    0.093924
  13 O :   -0.418611
  14 F :   -0.078053
  15 C :   -0.174069
  16 C :   -0.168780
  17 H :    0.095535
  18 H :    0.092767
  19 C :   -0.115619
  20 H :    0.089154
  21 H :    0.064912
  22 O :   -0.415188
  23 H :    0.112346
  24 H :    0.059376
  25 H :    0.081646
  26 H :    0.073373
  27 H :    0.069630
  28 H :    0.099092
Sum of atomic charges:   -0.0000000

LOEWDIN ATOMIC CHARGES
----------------------
   0 C :   -0.212509
   1 C :   -0.269977
   2 C :   -0.366517
   3 H :    0.142862
   4 H :    0.133644
   5 S :    0.513512
   6 C :   -0.386700
   7 C :   -0.285678
   8 N :    0.034896
   9 H :    0.153629
  10 H :    0.156737
  11 H :    0.097923
  12 H :    0.097403
  13 O :   -0.261817
  14 F :    0.117231
  15 C :   -0.245376
  16 C :   -0.261973
  17 H :    0.141254
  18 H :    0.144711
  19 C :   -0.263145
  20 H :    0.134843
  21 H :    0.129066
  22 O :   -0.257672
  23 H :    0.139793
  24 H :    0.129668
  25 H :    0.133509
  26 H :    0.135034
  27 H :    0.129703
  28 H :    0.145942

  Mayer bond orders larger than 0.100000
B(  0-C ,  6-C ) :   0.9383 B(  0-C , 15-C ) :   0.9551 B(  0-C , 27-H ) :   0.9631
B(  0-C , 28-H ) :   0.9742 B(  1-C ,  2-C ) :   0.9542 B(  1-C , 16-C ) :   0.9755
B(  1-C , 17-H ) :   0.9612 B(  1-C , 18-H ) :   0.9413 B(  2-C ,  3-H ) :   0.9386
B(  2-C ,  4-H ) :   0.9395 B(  2-C ,  5-S ) :   0.8979 B(  5-S , 13-O ) :   1.8251
B(  5-S , 14-F ) :   1.1652 B(  5-S , 22-O ) :   1.8710 B(  6-C ,  7-C ) :   1.6695
B(  6-C ,  8-N ) :   1.2165 B(  7-C , 11-H ) :   1.0046 B(  7-C , 12-H ) :   0.9888
B(  8-N ,  9-H ) :   0.9305 B(  8-N , 10-H ) :   0.9144 B( 15-C , 19-C ) :   0.9791
B( 15-C , 20-H ) :   0.9631 B( 15-C , 21-H ) :   0.9571 B( 16-C , 19-C ) :   0.9368
B( 16-C , 25-H ) :   0.9583 B( 16-C , 26-H ) :   0.9550 B( 19-C , 23-H ) :   0.9592
B( 19-C , 24-H ) :   0.9542

Dispersion correction           -0.074612403
FINAL SINGLE POINT ENERGY     -1017.721183174384

DIPOLE MOMENT
-------------
                                X             Y             Z
Electronic contribution:      0.09525      -4.27443     -22.55034
Nuclear contribution   :     -1.50273       5.82595      21.72909
                        -----------------------------------------
Total Dipole Moment    :     -1.40748       1.55152      -0.82125
                        -----------------------------------------
Magnitude (a.u.)       :      2.25004
Magnitude (Debye)      :      5.71914

Rotational constants in cm-1:     0.036883     0.018294     0.014745
Rotational constants in MHz :  1105.724679   548.429785   442.050481

                             ****ORCA TERMINATED NORMALLY****
TOTAL RUN TIME: 0 days 0 hours 0 minutes 20 seconds 181 msec
