                         Program Version 5.0.0 -  RELEASE  -
|  1> !BLYP D3BJ RIJCOSX def2-TZVP def2/J TightSCF xyzfile
|  2>
|  3> *xyzfile 0 1 D5.xyz
|  4>
|  5> %MaxCore 64000
|  6>
|  7> %pal nprocs 18
|  8> end
|  9>
| 10> %scf
| 11>   MaxIter 150
| 12> end
| 13>
| 14>
| 15>                          ****END OF INPUT****

CARTESIAN COORDINATES (ANGSTROEM)
---------------------------------
  C      2.916324   -1.242589   -1.543125
  C      0.704661    1.443129   -4.503630
  C      1.728539    1.424320   -5.639443
  H      2.646718    1.953794   -5.381054
  H      1.299916    1.930613   -6.503614
  S      2.252625   -0.188115   -6.271840
  C      3.466585   -1.590971   -2.889082
  C      4.652275   -1.143164   -3.259692
  N      2.752264   -2.292043   -3.728029
  H      1.778364   -2.489604   -3.512738
  H      2.948612   -2.208544   -4.716813
  H      5.146723   -0.512508   -2.633852
  H      4.783030   -1.007203   -4.253498
  O      3.562607   -0.444464   -5.631552
  O      2.344944   -0.033742   -7.696501
  C      2.804084    0.290698   -1.359243
  C      1.052550    0.695659   -3.214915
  H     -0.232483    1.032925   -4.884449
  H      0.511700    2.495794   -4.267966
  C      2.388380    1.093669   -2.597108
  H      3.763425    0.674718   -0.999889
  H      2.094788    0.461222   -0.545756
  F      1.266058   -1.159177   -5.805365
  H      3.167316    1.013242   -3.359430
  H      2.357690    2.149375   -2.310997
  H      1.039284   -0.368429   -3.449329
  H      0.250787    0.865605   -2.488283
  H      1.940472   -1.716529   -1.441161
  H      3.558569   -1.663433   -0.766371

 Total Charge           Charge          ....    0
 Multiplicity           Mult            ....    1
 Number of Electrons    NEL             ....  112
 Basis Dimension        Dim             ....  505

ORBITAL ENERGIES
----------------

  NO   OCC          E(Eh)            E(eV)
   0   2.0000     -88.342113     -2403.9111
   1   2.0000     -24.401244      -663.9916
   2   2.0000     -18.791569      -511.3446
   3   2.0000     -18.778714      -510.9948
   4   2.0000     -13.994180      -380.8010
   5   2.0000      -9.964182      -271.1392
   6   2.0000      -9.937126      -270.4030
   7   2.0000      -9.915264      -269.8081
   8   2.0000      -9.905090      -269.5312
   9   2.0000      -9.902875      -269.4709
  10   2.0000      -9.901584      -269.4358
  11   2.0000      -9.900251      -269.3995
  12   2.0000      -9.813481      -267.0384
  13   2.0000      -7.873987      -214.2621
  14   2.0000      -5.906350      -160.7199
  15   2.0000      -5.899526      -160.5343
  16   2.0000      -5.899013      -160.5203
  17   2.0000      -1.267442       -34.4888
  18   2.0000      -1.019080       -27.7306
  19   2.0000      -0.926365       -25.2077
  20   2.0000      -0.838618       -22.8200
  21   2.0000      -0.761344       -20.7172
  22   2.0000      -0.720226       -19.5984
  23   2.0000      -0.685720       -18.6594
  24   2.0000      -0.653166       -17.7735
  25   2.0000      -0.631595       -17.1866
  26   2.0000      -0.607032       -16.5182
  27   2.0000      -0.570828       -15.5330
  28   2.0000      -0.535518       -14.5722
  29   2.0000      -0.523444       -14.2436
  30   2.0000      -0.512416       -13.9435
  31   2.0000      -0.494337       -13.4516
  32   2.0000      -0.484450       -13.1826
  33   2.0000      -0.456282       -12.4161
  34   2.0000      -0.442683       -12.0460
  35   2.0000      -0.438505       -11.9323
  36   2.0000      -0.419841       -11.4245
  37   2.0000      -0.415160       -11.2971
  38   2.0000      -0.400815       -10.9067
  39   2.0000      -0.395635       -10.7658
  40   2.0000      -0.381344       -10.3769
  41   2.0000      -0.368679       -10.0323
  42   2.0000      -0.349925        -9.5219
  43   2.0000      -0.340920        -9.2769
  44   2.0000      -0.338690        -9.2162
  45   2.0000      -0.329219        -8.9585
  46   2.0000      -0.322069        -8.7639
  47   2.0000      -0.305856        -8.3228
  48   2.0000      -0.303074        -8.2471
  49   2.0000      -0.291784        -7.9398
  50   2.0000      -0.286897        -7.8069
  51   2.0000      -0.281912        -7.6712
  52   2.0000      -0.277957        -7.5636
  53   2.0000      -0.265329        -7.2200
  54   2.0000      -0.258166        -7.0251
  55   2.0000      -0.140321        -3.8183
  56   0.0000      -0.028716        -0.7814
  57   0.0000       0.002402         0.0654
  58   0.0000       0.008816         0.2399
  59   0.0000       0.015967         0.4345
  60   0.0000       0.022758         0.6193

MULLIKEN ATOMIC CHARGES
-----------------------
   0 C :   -0.180454
   1 C :   -0.157624
   2 C :   -0.245450
   3 H :    0.149492
   4 H :    0.145236
   5 S :    0.819058
   6 C :    0.182109
   7 C :   -0.377430
   8 N :   -0.353585
   9 H :    0.183456
  10 H :    0.194431
  11 H :    0.056586
  12 H :    0.102997
  13 O :   -0.422458
  14 O :   -0.374468
  15 C :   -0.181117
  16 C :   -0.170949
  17 H :    0.102375
  18 H :    0.095102
  19 C :   -0.100677
  20 H :    0.093262
  21 H :    0.067834
  22 F :   -0.109176
  23 H :    0.115197
  24 H :    0.066162
  25 H :    0.046028
  26 H :    0.080936
  27 H :    0.068947
  28 H :    0.104177
Sum of atomic charges:    0.0000000

LOEWDIN ATOMIC CHARGES
----------------------
   0 C :   -0.212609
   1 C :   -0.281560
   2 C :   -0.357689
   3 H :    0.146840
   4 H :    0.142264
   5 S :    0.516373
   6 C :   -0.387501
   7 C :   -0.271173
   8 N :    0.022380
   9 H :    0.149674
  10 H :    0.151855
  11 H :    0.099525
  12 H :    0.099562
  13 O :   -0.261338
  14 O :   -0.232302
  15 C :   -0.244753
  16 C :   -0.266308
  17 H :    0.137037
  18 H :    0.144662
  19 C :   -0.261776
  20 H :    0.136088
  21 H :    0.129823
  22 F :    0.090726
  23 H :    0.141317
  24 H :    0.132016
  25 H :    0.123846
  26 H :    0.136462
  27 H :    0.129189
  28 H :    0.147369

  Mayer bond orders larger than 0.100000
B(  0-C ,  6-C ) :   0.9365 B(  0-C , 15-C ) :   0.9535 B(  0-C , 27-H ) :   0.9632
B(  0-C , 28-H ) :   0.9745 B(  1-C ,  2-C ) :   0.9531 B(  1-C , 16-C ) :   0.9515
B(  1-C , 17-H ) :   0.9729 B(  1-C , 18-H ) :   0.9422 B(  2-C ,  3-H ) :   0.9400
B(  2-C ,  4-H ) :   0.9424 B(  2-C ,  5-S ) :   0.9001 B(  5-S , 13-O ) :   1.8034
B(  5-S , 14-O ) :   1.9977 B(  5-S , 22-F ) :   1.0987 B(  6-C ,  7-C ) :   1.6899
B(  6-C ,  8-N ) :   1.1784 B(  7-C , 11-H ) :   1.0050 B(  7-C , 12-H ) :   0.9871
B(  8-N ,  9-H ) :   0.9315 B(  8-N , 10-H ) :   0.9123 B( 15-C , 19-C ) :   0.9751
B( 15-C , 20-H ) :   0.9633 B( 15-C , 21-H ) :   0.9580 B( 16-C , 19-C ) :   0.9163
B( 16-C , 25-H ) :   0.9692 B( 16-C , 26-H ) :   0.9558 B( 19-C , 23-H ) :   0.9594
B( 19-C , 24-H ) :   0.9545

Dispersion correction           -0.073981714
FINAL SINGLE POINT ENERGY     -1017.725618509138

DIPOLE MOMENT
-------------
                                X             Y             Z
Electronic contribution:     -1.65398      -6.15091     -19.09493
Nuclear contribution   :     -0.26930       7.11259      19.56706
                        -----------------------------------------
Total Dipole Moment    :     -1.92328       0.96168       0.47214
                        -----------------------------------------
Magnitude (a.u.)       :      2.20153
Magnitude (Debye)      :      5.59585

Rotational constants in cm-1:     0.036519     0.018683     0.015073
Rotational constants in MHz :  1094.801738   560.111127   451.890222

                             ****ORCA TERMINATED NORMALLY****
TOTAL RUN TIME: 0 days 0 hours 0 minutes 21 seconds 38 msec
