                         Program Version 5.0.0 -  RELEASE  -
|  1> !wB97X-D3 RIJCOSX def2-TZVP def2/J TightSCF
|  2> *xyz -1 1
|  3> C         -0.01741        0.08059       -2.77841
|  4> C         -0.90349       -0.87394       -1.98739
|  5> H         -0.50255       -1.89210       -2.08120
|  6> H         -1.91704       -0.89543       -2.40628
|  7> C         -0.96015       -0.52236       -0.48987
|  8> H         -1.69039       -1.20813       -0.02168
|  9> H         -1.41449        0.48633       -0.40668
| 10> O          0.26170       -0.58031        0.13861
| 11> H         -0.01329       -0.20776       -3.80881
| 12> H          0.98025        0.04284       -2.39348
| 13> H         -0.39697        1.07694       -2.68836
| 14> *
| 15>
| 16> %MaxCore 64000
| 17>
| 18> %pal nprocs 18
| 19> end
| 20>
| 21> %scf
| 22>   MaxIter 150
| 23> end
| 24>
| 25>
| 26>                          ****END OF INPUT****

CARTESIAN COORDINATES (ANGSTROEM)
---------------------------------
  C     -0.017410    0.080590   -2.778410
  C     -0.903490   -0.873940   -1.987390
  H     -0.502550   -1.892100   -2.081200
  H     -1.917040   -0.895430   -2.406280
  C     -0.960150   -0.522360   -0.489870
  H     -1.690390   -1.208130   -0.021680
  H     -1.414490    0.486330   -0.406680
  O      0.261700   -0.580310    0.138610
  H     -0.013290   -0.207760   -3.808810
  H      0.980250    0.042840   -2.393480
  H     -0.396970    1.076940   -2.688360

 Total Charge           Charge          ....   -1
 Multiplicity           Mult            ....    1
 Number of Electrons    NEL             ....   34
 Basis Dimension        Dim             ....  166

ORBITAL ENERGIES
----------------

  NO   OCC          E(Eh)            E(eV)
   0   2.0000     -18.876198      -513.6475
   1   2.0000     -10.086281      -274.4617
   2   2.0000     -10.080694      -274.3096
   3   2.0000     -10.077864      -274.2326
   4   2.0000      -0.783673       -21.3248
   5   2.0000      -0.695294       -18.9199
   6   2.0000      -0.574549       -15.6343
   7   2.0000      -0.468434       -12.7467
   8   2.0000      -0.371550       -10.1104
   9   2.0000      -0.362745        -9.8708
  10   2.0000      -0.311268        -8.4700
  11   2.0000      -0.278412        -7.5760
  12   2.0000      -0.248319        -6.7571
  13   2.0000      -0.241014        -6.5583
  14   2.0000      -0.194212        -5.2848
  15   2.0000      -0.051327        -1.3967
  16   2.0000      -0.047743        -1.2992
  17   0.0000       0.274649         7.4736
  18   0.0000       0.308507         8.3949
  19   0.0000       0.321499         8.7484
  20   0.0000       0.343459         9.3460
  21   0.0000       0.349535         9.5113

MULLIKEN ATOMIC CHARGES
-----------------------
   0 C :   -0.279006
   1 C :   -0.041002
   2 H :    0.012638
   3 H :   -0.023329
   4 C :    0.081677
   5 H :   -0.064936
   6 H :   -0.079509
   7 O :   -0.797746
   8 H :    0.042670
   9 H :    0.095929
  10 H :    0.052613
Sum of atomic charges:   -1.0000000

LOEWDIN ATOMIC CHARGES
----------------------
   0 C :   -0.335224
   1 C :   -0.330807
   2 H :    0.109850
   3 H :    0.095873
   4 C :   -0.518955
   5 H :    0.060333
   6 H :    0.059132
   7 O :   -0.441306
   8 H :    0.089410
   9 H :    0.111825
  10 H :    0.099868

  Mayer bond orders larger than 0.100000
B(  0-C ,  1-C ) :   0.9780 B(  0-C ,  8-H ) :   0.9791 B(  0-C ,  9-H ) :   0.9704
B(  0-C , 10-H ) :   0.9779 B(  1-C ,  2-H ) :   0.9660 B(  1-C ,  3-H ) :   0.9433
B(  1-C ,  4-C ) :   0.9281 B(  1-C ,  7-O ) :  -0.1302 B(  4-C ,  5-H ) :   0.9357
B(  4-C ,  6-H ) :   0.9167 B(  4-C ,  7-O ) :   1.5642

Dispersion correction           -0.001939174
FINAL SINGLE POINT ENERGY      -193.752381184689

DIPOLE MOMENT
-------------
                                X             Y             Z
Electronic contribution:      1.32356      -0.51477       2.76124
Nuclear contribution   :     -2.03764       0.64089      -4.61583
                        -----------------------------------------
Total Dipole Moment    :     -0.71408       0.12612      -1.85459
                        -----------------------------------------
Magnitude (a.u.)       :      1.99131
Magnitude (Debye)      :      5.06151

Rotational constants in cm-1:     0.508897     0.174909     0.148249
Rotational constants in MHz : 15256.351998  5243.652192  4444.387232

                             ****ORCA TERMINATED NORMALLY****
TOTAL RUN TIME: 0 days 0 hours 0 minutes 11 seconds 191 msec
