                         Program Version 5.0.0 -  RELEASE  -
|  1> !wB97X-D3 RIJCOSX def2-TZVP def2/J TightSCF
|  2> *xyz 1 1
|  3> C          4.36645       -0.13321       -1.41606
|  4> C          4.50829       -0.93187       -2.72425
|  5> H          4.75372       -1.97205       -2.48841
|  6> C          3.29416       -0.91821       -3.65657
|  7> H          5.38564       -0.53624       -3.24264
|  8> C          3.05650       -0.32080       -0.70738
|  9> N          2.38983        0.71129       -0.24391
| 10> N          2.51600       -1.50772       -0.55023
| 11> H          2.96768       -2.32291       -0.95631
| 12> H          1.54987       -1.49063       -0.24988
| 13> H          2.74307        1.64947       -0.41280
| 14> H          1.44036        0.50278        0.03703
| 15> H          4.48784        0.93300       -1.61157
| 16> H          5.16967       -0.41443       -0.72982
| 17> H          3.50670       -1.50229       -4.52754
| 18> H          3.07837        0.08892       -3.94644
| 19> H          2.44880       -1.33173       -3.14739
| 20> *
| 21>
| 22> %MaxCore 64000
| 23>
| 24> %pal nprocs 18
| 25> end
| 26>
| 27> %scf
| 28>   MaxIter 150
| 29> end
| 30>
| 31>
| 32>                          ****END OF INPUT****

CARTESIAN COORDINATES (ANGSTROEM)
---------------------------------
  C      4.366450   -0.133210   -1.416060
  C      4.508290   -0.931870   -2.724250
  H      4.753720   -1.972050   -2.488410
  C      3.294160   -0.918210   -3.656570
  H      5.385640   -0.536240   -3.242640
  C      3.056500   -0.320800   -0.707380
  N      2.389830    0.711290   -0.243910
  N      2.516000   -1.507720   -0.550230
  H      2.967680   -2.322910   -0.956310
  H      1.549870   -1.490630   -0.249880
  H      2.743070    1.649470   -0.412800
  H      1.440360    0.502780    0.037030
  H      4.487840    0.933000   -1.611570
  H      5.169670   -0.414430   -0.729820
  H      3.506700   -1.502290   -4.527540
  H      3.078370    0.088920   -3.946440
  H      2.448800   -1.331730   -3.147390

 Total Charge           Charge          ....    1
 Multiplicity           Mult            ....    1
 Number of Electrons    NEL             ....   48
 Basis Dimension        Dim             ....  252

ORBITAL ENERGIES
----------------

  NO   OCC          E(Eh)            E(eV)
   0   2.0000     -14.664979      -399.0544
   1   2.0000     -14.663079      -399.0027
   2   2.0000     -10.596346      -288.3412
   3   2.0000     -10.471974      -284.9569
   4   2.0000     -10.438178      -284.0373
   5   2.0000     -10.402369      -283.0629
   6   2.0000      -1.328115       -36.1398
   7   2.0000      -1.219946       -33.1964
   8   2.0000      -1.091335       -29.6967
   9   2.0000      -1.003379       -27.3033
  10   2.0000      -0.938330       -25.5332
  11   2.0000      -0.898592       -24.4519
  12   2.0000      -0.866878       -23.5890
  13   2.0000      -0.840029       -22.8584
  14   2.0000      -0.799487       -21.7552
  15   2.0000      -0.761005       -20.7080
  16   2.0000      -0.731541       -19.9062
  17   2.0000      -0.691650       -18.8208
  18   2.0000      -0.677371       -18.4322
  19   2.0000      -0.658684       -17.9237
  20   2.0000      -0.602112       -16.3843
  21   2.0000      -0.597469       -16.2580
  22   2.0000      -0.588855       -16.0236
  23   2.0000      -0.579112       -15.7584
  24   0.0000      -0.126132        -3.4322
  25   0.0000      -0.075838        -2.0637
  26   0.0000      -0.034532        -0.9397
  27   0.0000      -0.028673        -0.7802
  28   0.0000       0.006797         0.1849

MULLIKEN ATOMIC CHARGES
-----------------------
   0 C :   -0.209569
   1 C :   -0.294249
   2 H :    0.144555
   3 C :   -0.325224
   4 H :    0.166636
   5 C :    0.306210
   6 N :   -0.360206
   7 N :   -0.362055
   8 H :    0.319127
   9 H :    0.281245
  10 H :    0.314512
  11 H :    0.278777
  12 H :    0.147402
  13 H :    0.195700
  14 H :    0.167923
  15 H :    0.137998
  16 H :    0.091218
Sum of atomic charges:    1.0000000

LOEWDIN ATOMIC CHARGES
----------------------
   0 C :   -0.198706
   1 C :   -0.273830
   2 H :    0.141831
   3 C :   -0.288284
   4 H :    0.157194
   5 C :   -0.289200
   6 N :    0.109215
   7 N :    0.109201
   8 H :    0.212281
   9 H :    0.201041
  10 H :    0.212352
  11 H :    0.200918
  12 H :    0.160918
  13 H :    0.176505
  14 H :    0.134132
  15 H :    0.124604
  16 H :    0.109829

  Mayer bond orders larger than 0.100000
B(  0-C ,  1-C ) :   0.9494 B(  0-C ,  5-C ) :   0.9609 B(  0-C , 12-H ) :   0.9709
B(  0-C , 13-H ) :   0.9299 B(  1-C ,  2-H ) :   0.9710 B(  1-C ,  3-C ) :   0.9601
B(  1-C ,  4-H ) :   0.9614 B(  3-C , 14-H ) :   0.9672 B(  3-C , 15-H ) :   0.9721
B(  3-C , 16-H ) :   0.9688 B(  5-C ,  6-N ) :   1.4669 B(  5-C ,  7-N ) :   1.4346
B(  6-N , 10-H ) :   0.8769 B(  6-N , 11-H ) :   0.8906 B(  7-N ,  8-H ) :   0.8782
B(  7-N ,  9-H ) :   0.8906

Dispersion correction           -0.004608190
FINAL SINGLE POINT ENERGY      -268.368585349357

DIPOLE MOMENT
-------------
                                X             Y             Z
Electronic contribution:     -1.79493       0.89928       5.03668
Nuclear contribution   :      0.92830      -0.63755      -3.99475
                        -----------------------------------------
Total Dipole Moment    :     -0.86663       0.26173       1.04193
                        -----------------------------------------
Magnitude (a.u.)       :      1.38027
Magnitude (Debye)      :      3.50838

Rotational constants in cm-1:     0.183706     0.077449     0.071296
Rotational constants in MHz :  5507.368439  2321.870034  2137.394204

                             ****ORCA TERMINATED NORMALLY****
TOTAL RUN TIME: 0 days 0 hours 0 minutes 22 seconds 430 msec
