                         Program Version 5.0.0 -  RELEASE  -
|  1> !wB97X-D3 RIJCOSX def2-TZVP def2/J TightSCF xyzfile
|  2>
|  3> *xyzfile 0 1 B.xyz
|  4>
|  5> %MaxCore 64000
|  6>
|  7> %pal nprocs 18
|  8> end
|  9>
| 10> %scf
| 11>   MaxIter 150
| 12> end
| 13>
| 14>
| 15>                          ****END OF INPUT****

CARTESIAN COORDINATES (ANGSTROEM)
---------------------------------
  C      4.366454   -0.133215   -1.416062
  C      4.508292   -0.931872   -2.724249
  H      4.753716   -1.972051   -2.488408
  C      3.294164   -0.918214   -3.656570
  H      5.385637   -0.536236   -3.242640
  H      2.483463   -1.477378   -3.185764
  H      3.553092   -1.478495   -4.560331
  C      2.772335    0.460100   -4.051448
  H      2.608762    1.065107   -3.155194
  C      1.465354    0.410537   -4.853644
  H      3.532940    0.988848   -4.635671
  C      0.326171   -0.375613   -4.192580
  H      1.666704   -0.022269   -5.839323
  H      1.138198    1.439246   -5.035449
  C     -0.017405    0.080588   -2.778406
  H      0.585573   -1.439385   -4.168057
  H     -0.560005   -0.311425   -4.831461
  H      0.902090    0.201296   -2.206729
  C     -0.903495   -0.873945   -1.987388
  H     -0.479549    1.074657   -2.811915
  H     -0.502554   -1.892096   -2.081204
  H     -1.917039   -0.895427   -2.406277
  C     -0.960148   -0.522365   -0.489867
  H     -1.690392   -1.208130   -0.021677
  H     -1.414490    0.486329   -0.406677
  O      0.261703   -0.580307    0.138611
  C      3.056503   -0.320797   -0.707384
  N      2.389825    0.711285   -0.243909
  N      2.515999   -1.507721   -0.550229
  H      2.967683   -2.322915   -0.956305
  H      1.549872   -1.490634   -0.249876
  H      2.743071    1.649471   -0.412802
  H      1.440364    0.502778    0.037031
  H      4.487835    0.932997   -1.611569
  H      5.169672   -0.414432   -0.729817

 Total Charge           Charge          ....    0
 Multiplicity           Mult            ....    1
 Number of Electrons    NEL             ....  104
 Basis Dimension        Dim             ....  535

ORBITAL ENERGIES
----------------

  NO   OCC          E(Eh)            E(eV)
   0   2.0000     -19.095632      -519.6186
   1   2.0000     -14.449159      -393.1816
   2   2.0000     -14.448832      -393.1727
   3   2.0000     -10.402378      -283.0631
   4   2.0000     -10.321561      -280.8639
   5   2.0000     -10.305994      -280.4404
   6   2.0000     -10.284234      -279.8482
   7   2.0000     -10.277737      -279.6714
   8   2.0000     -10.268707      -279.4257
   9   2.0000     -10.257579      -279.1229
  10   2.0000     -10.252785      -278.9925
  11   2.0000     -10.243527      -278.7405
  12   2.0000     -10.229740      -278.3654
  13   2.0000      -1.126180       -30.6449
  14   2.0000      -1.016555       -27.6619
  15   2.0000      -0.999483       -27.1973
  16   2.0000      -0.953258       -25.9395
  17   2.0000      -0.916083       -24.9279
  18   2.0000      -0.875294       -23.8180
  19   2.0000      -0.834691       -22.7131
  20   2.0000      -0.795149       -21.6371
  21   2.0000      -0.749683       -20.3999
  22   2.0000      -0.732555       -19.9338
  23   2.0000      -0.719274       -19.5724
  24   2.0000      -0.675209       -18.3734
  25   2.0000      -0.660617       -17.9763
  26   2.0000      -0.654383       -17.8067
  27   2.0000      -0.632351       -17.2071
  28   2.0000      -0.607232       -16.5236
  29   2.0000      -0.601407       -16.3651
  30   2.0000      -0.586459       -15.9584
  31   2.0000      -0.564678       -15.3657
  32   2.0000      -0.548433       -14.9236
  33   2.0000      -0.528796       -14.3893
  34   2.0000      -0.518523       -14.1097
  35   2.0000      -0.511629       -13.9221
  36   2.0000      -0.505419       -13.7531
  37   2.0000      -0.500739       -13.6258
  38   2.0000      -0.476949       -12.9784
  39   2.0000      -0.466854       -12.7037
  40   2.0000      -0.456933       -12.4338
  41   2.0000      -0.447580       -12.1793
  42   2.0000      -0.436819       -11.8865
  43   2.0000      -0.431758       -11.7487
  44   2.0000      -0.412119       -11.2143
  45   2.0000      -0.405039       -11.0217
  46   2.0000      -0.395125       -10.7519
  47   2.0000      -0.390818       -10.6347
  48   2.0000      -0.386285       -10.5114
  49   2.0000      -0.376203       -10.2370
  50   2.0000      -0.270459        -7.3596
  51   2.0000      -0.265272        -7.2184
  52   0.0000       0.057342         1.5604
  53   0.0000       0.083505         2.2723
  54   0.0000       0.101067         2.7502
  55   0.0000       0.120796         3.2870
  56   0.0000       0.129333         3.5193

MULLIKEN ATOMIC CHARGES
-----------------------
   0 C :   -0.190920
   1 C :   -0.288743
   2 H :    0.136369
   3 C :   -0.181721
   4 H :    0.124180
   5 H :    0.104241
   6 H :    0.116140
   7 C :   -0.240015
   8 H :    0.096786
   9 C :   -0.152270
  10 H :    0.107614
  11 C :   -0.205407
  12 H :    0.103228
  13 H :    0.102360
  14 C :   -0.171010
  15 H :    0.104305
  16 H :    0.105581
  17 H :    0.011742
  18 C :   -0.146529
  19 H :    0.085083
  20 H :    0.057740
  21 H :    0.071945
  22 C :    0.079513
  23 H :    0.042795
  24 H :    0.023368
  25 O :   -0.774835
  26 C :    0.240938
  27 N :   -0.363380
  28 N :   -0.352823
  29 H :    0.251109
  30 H :    0.276424
  31 H :    0.246510
  32 H :    0.295823
  33 H :    0.130714
  34 H :    0.153146
Sum of atomic charges:   -0.0000000

LOEWDIN ATOMIC CHARGES
----------------------
   0 C :   -0.216122
   1 C :   -0.259721
   2 H :    0.136890
   3 C :   -0.267835
   4 H :    0.143895
   5 H :    0.138035
   6 H :    0.140904
   7 C :   -0.269526
   8 H :    0.130399
   9 C :   -0.264814
  10 H :    0.134286
  11 C :   -0.272536
  12 H :    0.134529
  13 H :    0.136135
  14 C :   -0.275891
  15 H :    0.130850
  16 H :    0.134876
  17 H :    0.132328
  18 C :   -0.287810
  19 H :    0.132729
  20 H :    0.123399
  21 H :    0.126724
  22 C :   -0.460075
  23 H :    0.101031
  24 H :    0.097424
  25 O :   -0.314993
  26 C :   -0.326877
  27 N :    0.085852
  28 N :    0.090249
  29 H :    0.180151
  30 H :    0.150884
  31 H :    0.178993
  32 H :    0.148901
  33 H :    0.148537
  34 H :    0.158198

  Mayer bond orders larger than 0.100000
B(  0-C ,  1-C ) :   0.9404 B(  0-C , 26-C ) :   0.9777 B(  0-C , 33-H ) :   0.9836
B(  0-C , 34-H ) :   0.9537 B(  1-C ,  2-H ) :   0.9939 B(  1-C ,  3-C ) :   0.9502
B(  1-C ,  4-H ) :   0.9709 B(  3-C ,  5-H ) :   0.9856 B(  3-C ,  6-H ) :   0.9698
B(  3-C ,  7-C ) :   0.9277 B(  7-C ,  8-H ) :   0.9844 B(  7-C ,  9-C ) :   0.9740
B(  7-C , 10-H ) :   0.9696 B(  9-C , 11-C ) :   0.9643 B(  9-C , 12-H ) :   0.9812
B(  9-C , 13-H ) :   0.9810 B( 11-C , 14-C ) :   0.9635 B( 11-C , 15-H ) :   0.9906
B( 11-C , 16-H ) :   0.9775 B( 14-C , 17-H ) :   0.9818 B( 14-C , 18-C ) :   0.9910
B( 14-C , 19-H ) :   0.9611 B( 18-C , 20-H ) :   0.9726 B( 18-C , 21-H ) :   0.9620
B( 18-C , 22-C ) :   0.9539 B( 22-C , 23-H ) :   0.9679 B( 22-C , 24-H ) :   0.9694
B( 22-C , 25-O ) :   1.1573 B( 25-O , 30-H ) :   0.2486 B( 25-O , 32-H ) :   0.2431
B( 26-C , 27-N ) :   1.5029 B( 26-C , 28-N ) :   1.4720 B( 27-N , 31-H ) :   0.9097
B( 27-N , 32-H ) :   0.7327 B( 28-N , 29-H ) :   0.9088 B( 28-N , 30-H ) :   0.7385

Dispersion correction           -0.017913791
FINAL SINGLE POINT ENERGY      -579.096758454092

DIPOLE MOMENT
-------------
                                X             Y             Z
Electronic contribution:      2.85137      -0.26102       7.53008
Nuclear contribution   :     -0.17996       0.53390      -8.68067
                        -----------------------------------------
Total Dipole Moment    :      2.67141       0.27288      -1.15059
                        -----------------------------------------
Magnitude (a.u.)       :      2.92143
Magnitude (Debye)      :      7.42569

Rotational constants in cm-1:     0.028240     0.022734     0.014600
Rotational constants in MHz :   846.611263   681.554306   437.693928

                             ****ORCA TERMINATED NORMALLY****
TOTAL RUN TIME: 0 days 0 hours 1 minutes 21 seconds 395 msec
