                         Program Version 5.0.0 -  RELEASE  -
|  1> !wB97X-D3 RIJCOSX def2-TZVP def2/J TightSCF
|  2> *xyz 0 1
|  3> C         -0.01741        0.08059       -2.77841
|  4> C         -0.90349       -0.87394       -1.98739
|  5> H         -0.50255       -1.89210       -2.08120
|  6> H         -1.91704       -0.89543       -2.40628
|  7> C         -0.96015       -0.52236       -0.48987
|  8> H         -1.69039       -1.20813       -0.02168
|  9> H         -1.41449        0.48633       -0.40668
| 10> F          0.26170       -0.58031        0.13861
| 11> H         -0.01329       -0.20776       -3.80881
| 12> H          0.98025        0.04284       -2.39348
| 13> H         -0.39697        1.07694       -2.68836
| 14> *
| 15>
| 16> %MaxCore 64000
| 17>
| 18> %pal nprocs 18
| 19> end
| 20>
| 21> %scf
| 22>   MaxIter 150
| 23> end
| 24>
| 25>
| 26>                          ****END OF INPUT****

CARTESIAN COORDINATES (ANGSTROEM)
---------------------------------
  C     -0.017410    0.080590   -2.778410
  C     -0.903490   -0.873940   -1.987390
  H     -0.502550   -1.892100   -2.081200
  H     -1.917040   -0.895430   -2.406280
  C     -0.960150   -0.522360   -0.489870
  H     -1.690390   -1.208130   -0.021680
  H     -1.414490    0.486330   -0.406680
  F      0.261700   -0.580310    0.138610
  H     -0.013290   -0.207760   -3.808810
  H      0.980250    0.042840   -2.393480
  H     -0.396970    1.076940   -2.688360

 Total Charge           Charge          ....    0
 Multiplicity           Mult            ....    1
 Number of Electrons    NEL             ....   34
 Basis Dimension        Dim             ....  166

ORBITAL ENERGIES
----------------

  NO   OCC          E(Eh)            E(eV)
   0   2.0000     -24.768608      -673.9881
   1   2.0000     -10.350411      -281.6490
   2   2.0000     -10.280478      -279.7460
   3   2.0000     -10.258309      -279.1428
   4   2.0000      -1.310252       -35.6538
   5   2.0000      -0.906816       -24.6757
   6   2.0000      -0.803222       -21.8568
   7   2.0000      -0.706741       -19.2314
   8   2.0000      -0.609158       -16.5760
   9   2.0000      -0.594425       -16.1751
  10   2.0000      -0.568917       -15.4810
  11   2.0000      -0.535512       -14.5720
  12   2.0000      -0.499070       -13.5804
  13   2.0000      -0.472219       -12.8497
  14   2.0000      -0.447441       -12.1755
  15   2.0000      -0.420360       -11.4386
  16   2.0000      -0.418089       -11.3768
  17   0.0000       0.119445         3.2503
  18   0.0000       0.155108         4.2207
  19   0.0000       0.162793         4.4298
  20   0.0000       0.175521         4.7762
  21   0.0000       0.183727         4.9995

MULLIKEN ATOMIC CHARGES
-----------------------
   0 C :   -0.332735
   1 C :   -0.194291
   2 H :    0.100458
   3 H :    0.100912
   4 C :    0.043428
   5 H :    0.096308
   6 H :    0.083593
   7 F :   -0.240130
   8 H :    0.115158
   9 H :    0.126816
  10 H :    0.100484
Sum of atomic charges:    0.0000000

LOEWDIN ATOMIC CHARGES
----------------------
   0 C :   -0.306194
   1 C :   -0.303519
   2 H :    0.135646
   3 H :    0.137616
   4 C :   -0.339613
   5 H :    0.118383
   6 H :    0.118643
   7 F :    0.088880
   8 H :    0.115805
   9 H :    0.119909
  10 H :    0.114442

  Mayer bond orders larger than 0.100000
B(  0-C ,  1-C ) :   0.9818 B(  0-C ,  8-H ) :   0.9795 B(  0-C ,  9-H ) :   0.9767
B(  0-C , 10-H ) :   0.9760 B(  1-C ,  2-H ) :   0.9703 B(  1-C ,  3-H ) :   0.9591
B(  1-C ,  4-C ) :   0.9922 B(  4-C ,  5-H ) :   0.9751 B(  4-C ,  6-H ) :   0.9702
B(  4-C ,  7-F ) :   0.9872

Dispersion correction           -0.001913354
FINAL SINGLE POINT ENERGY      -218.403538426693

DIPOLE MOMENT
-------------
                                X             Y             Z
Electronic contribution:      2.26443      -0.78068       5.90718
Nuclear contribution   :     -2.83598       0.77614      -6.32113
                        -----------------------------------------
Total Dipole Moment    :     -0.57156      -0.00454      -0.41396
                        -----------------------------------------
Magnitude (a.u.)       :      0.70573
Magnitude (Debye)      :      1.79382

Rotational constants in cm-1:     0.494803     0.164634     0.139827
Rotational constants in MHz : 14833.819345  4935.593559  4191.919783

                             ****ORCA TERMINATED NORMALLY****
TOTAL RUN TIME: 0 days 0 hours 0 minutes 9 seconds 846 msec
