                         Program Version 5.0.0 -  RELEASE  -
|  1> !wB97X-D3 RIJCOSX def2-TZVP def2/J TightSCF
|  2> *xyz 0 1
|  3> C          4.36645       -0.13321       -1.41606
|  4> C          4.50829       -0.93187       -2.72425
|  5> H          4.75372       -1.97205       -2.48841
|  6> C          3.29416       -0.91821       -3.65657
|  7> H          5.38564       -0.53624       -3.24264
|  8> C          3.05650       -0.32080       -0.70738
|  9> C          2.38983        0.71129       -0.24391
| 10> N          2.51600       -1.50772       -0.55023
| 11> H          2.96768       -2.32291       -0.95631
| 12> H          1.54987       -1.49063       -0.24988
| 13> H          2.74307        1.64947       -0.41280
| 14> H          1.44036        0.50278        0.03703
| 15> H          4.48784        0.93300       -1.61157
| 16> H          5.16967       -0.41443       -0.72982
| 17> H          3.50670       -1.50229       -4.52754
| 18> H          3.07837        0.08892       -3.94644
| 19> H          2.44880       -1.33173       -3.14739
| 20> *
| 21>
| 22> %MaxCore 64000
| 23>
| 24> %pal nprocs 18
| 25> end
| 26>
| 27> %scf
| 28>   MaxIter 150
| 29> end
| 30>
| 31>
| 32>                          ****END OF INPUT****

CARTESIAN COORDINATES (ANGSTROEM)
---------------------------------
  C      4.366450   -0.133210   -1.416060
  C      4.508290   -0.931870   -2.724250
  H      4.753720   -1.972050   -2.488410
  C      3.294160   -0.918210   -3.656570
  H      5.385640   -0.536240   -3.242640
  C      3.056500   -0.320800   -0.707380
  C      2.389830    0.711290   -0.243910
  N      2.516000   -1.507720   -0.550230
  H      2.967680   -2.322910   -0.956310
  H      1.549870   -1.490630   -0.249880
  H      2.743070    1.649470   -0.412800
  H      1.440360    0.502780    0.037030
  H      4.487840    0.933000   -1.611570
  H      5.169670   -0.414430   -0.729820
  H      3.506700   -1.502290   -4.527540
  H      3.078370    0.088920   -3.946440
  H      2.448800   -1.331730   -3.147390

 Total Charge           Charge          ....    0
 Multiplicity           Mult            ....    1
 Number of Electrons    NEL             ....   48
 Basis Dimension        Dim             ....  252

ORBITAL ENERGIES
----------------

  NO   OCC          E(Eh)            E(eV)
   0   2.0000     -14.417928      -392.3318
   1   2.0000     -10.292195      -280.0649
   2   2.0000     -10.276304      -279.6325
   3   2.0000     -10.274381      -279.5801
   4   2.0000     -10.254859      -279.0489
   5   2.0000     -10.201504      -277.5970
   6   2.0000      -1.050258       -28.5790
   7   2.0000      -0.909391       -24.7458
   8   2.0000      -0.851614       -23.1736
   9   2.0000      -0.798792       -21.7362
  10   2.0000      -0.712698       -19.3935
  11   2.0000      -0.664328       -18.0773
  12   2.0000      -0.635340       -17.2885
  13   2.0000      -0.562204       -15.2983
  14   2.0000      -0.555892       -15.1266
  15   2.0000      -0.553426       -15.0595
  16   2.0000      -0.492585       -13.4039
  17   2.0000      -0.490310       -13.3420
  18   2.0000      -0.476629       -12.9697
  19   2.0000      -0.458803       -12.4847
  20   2.0000      -0.426997       -11.6192
  21   2.0000      -0.426379       -11.6024
  22   2.0000      -0.413296       -11.2463
  23   2.0000      -0.276234        -7.5167
  24   0.0000       0.101933         2.7737
  25   0.0000       0.119918         3.2631
  26   0.0000       0.146216         3.9788
  27   0.0000       0.149339         4.0637
  28   0.0000       0.162218         4.4142

MULLIKEN ATOMIC CHARGES
-----------------------
   0 C :   -0.174849
   1 C :   -0.244322
   2 H :    0.100346
   3 C :   -0.310464
   4 H :    0.108894
   5 C :    0.189633
   6 C :   -0.404137
   7 N :   -0.474583
   8 H :    0.243399
   9 H :    0.237786
  10 H :    0.098152
  11 H :    0.070901
  12 H :    0.111029
  13 H :    0.117073
  14 H :    0.116318
  15 H :    0.111913
  16 H :    0.102912
Sum of atomic charges:    0.0000000

LOEWDIN ATOMIC CHARGES
----------------------
   0 C :   -0.214507
   1 C :   -0.291548
   2 H :    0.127935
   3 C :   -0.301598
   4 H :    0.135523
   5 C :   -0.372200
   6 C :   -0.276522
   7 N :   -0.001991
   8 H :    0.171828
   9 H :    0.179358
  10 H :    0.104671
  11 H :    0.099325
  12 H :    0.148857
  13 H :    0.144977
  14 H :    0.114648
  15 H :    0.117884
  16 H :    0.113359

  Mayer bond orders larger than 0.100000
B(  0-C ,  1-C ) :   0.9581 B(  0-C ,  5-C ) :   0.9564 B(  0-C , 12-H ) :   0.9810
B(  0-C , 13-H ) :   0.9730 B(  1-C ,  2-H ) :   0.9858 B(  1-C ,  3-C ) :   0.9676
B(  1-C ,  4-H ) :   0.9764 B(  3-C , 14-H ) :   0.9776 B(  3-C , 15-H ) :   0.9767
B(  3-C , 16-H ) :   0.9766 B(  5-C ,  6-C ) :   1.7752 B(  5-C ,  7-N ) :   1.1466
B(  6-C , 10-H ) :   1.0053 B(  6-C , 11-H ) :   0.9897 B(  7-N ,  8-H ) :   0.9221
B(  7-N ,  9-H ) :   0.9178

Dispersion correction           -0.004632034
FINAL SINGLE POINT ENERGY      -251.894127667074

DIPOLE MOMENT
-------------
                                X             Y             Z
Electronic contribution:     -0.63260      -0.31893       3.28257
Nuclear contribution   :      0.70803      -0.34641      -3.68680
                        -----------------------------------------
Total Dipole Moment    :      0.07543      -0.66534      -0.40423
                        -----------------------------------------
Magnitude (a.u.)       :      0.78216
Magnitude (Debye)      :      1.98809

Rotational constants in cm-1:     0.186653     0.080341     0.073591
Rotational constants in MHz :  5595.710092  2408.571280  2206.200061

                             ****ORCA TERMINATED NORMALLY****
TOTAL RUN TIME: 0 days 0 hours 0 minutes 24 seconds 867 msec
