                         Program Version 5.0.0 -  RELEASE  -
|  1> !wB97X-D3 RIJCOSX def2-TZVP def2/J TightSCF xyzfile
|  2>
|  3> *xyzfile 0 1 D1.xyz
|  4>
|  5> %MaxCore 64000
|  6>
|  7> %pal nprocs 18
|  8> end
|  9>
| 10> %scf
| 11>   MaxIter 150
| 12> end
| 13>
| 14>
| 15>                          ****END OF INPUT****

CARTESIAN COORDINATES (ANGSTROEM)
---------------------------------
  C      4.366454   -0.133215   -1.416062
  C      4.508292   -0.931872   -2.724249
  H      4.753716   -1.972051   -2.488408
  C      3.294164   -0.918214   -3.656570
  H      5.385637   -0.536236   -3.242640
  H      2.483463   -1.477378   -3.185764
  H      3.553092   -1.478495   -4.560331
  C      2.772335    0.460100   -4.051448
  H      2.608762    1.065107   -3.155194
  C      1.465354    0.410537   -4.853644
  H      3.532940    0.988848   -4.635671
  C      0.326171   -0.375613   -4.192580
  H      1.666704   -0.022269   -5.839323
  H      1.138198    1.439246   -5.035449
  C     -0.017405    0.080588   -2.778406
  H      0.585573   -1.439385   -4.168057
  H     -0.560005   -0.311425   -4.831461
  H      0.902090    0.201296   -2.206729
  C     -0.903495   -0.873945   -1.987388
  H     -0.479549    1.074657   -2.811915
  H     -0.502554   -1.892096   -2.081204
  H     -1.917039   -0.895427   -2.406277
  C     -0.960148   -0.522365   -0.489867
  H     -1.690392   -1.208130   -0.021677
  H     -1.414490    0.486329   -0.406677
  F      0.261703   -0.580307    0.138611
  C      3.056503   -0.320797   -0.707384
  C      2.389825    0.711285   -0.243909
  N      2.515999   -1.507721   -0.550229
  H      2.967683   -2.322915   -0.956305
  H      1.549872   -1.490634   -0.249876
  H      2.743071    1.649471   -0.412802
  H      1.440364    0.502778    0.037031
  H      4.487835    0.932997   -1.611569
  H      5.169672   -0.414432   -0.729817

 Total Charge           Charge          ....    0
 Multiplicity           Mult            ....    1
 Number of Electrons    NEL             ....  104
 Basis Dimension        Dim             ....  535

ORBITAL ENERGIES
----------------

  NO   OCC          E(Eh)            E(eV)
   0   2.0000     -24.801929      -674.8948
   1   2.0000     -14.393640      -391.6709
   2   2.0000     -10.366529      -282.0876
   3   2.0000     -10.286993      -279.9233
   4   2.0000     -10.275474      -279.6099
   5   2.0000     -10.267803      -279.4011
   6   2.0000     -10.267219      -279.3852
   7   2.0000     -10.264939      -279.3232
   8   2.0000     -10.264719      -279.3172
   9   2.0000     -10.262746      -279.2635
  10   2.0000     -10.260695      -279.2077
  11   2.0000     -10.258561      -279.1496
  12   2.0000     -10.176014      -276.9034
  13   2.0000      -1.352667       -36.8080
  14   2.0000      -1.032441       -28.0941
  15   2.0000      -0.936738       -25.4899
  16   2.0000      -0.914044       -24.8724
  17   2.0000      -0.886893       -24.1336
  18   2.0000      -0.847923       -23.0732
  19   2.0000      -0.819982       -22.3129
  20   2.0000      -0.798317       -21.7233
  21   2.0000      -0.749934       -20.4067
  22   2.0000      -0.725863       -19.7517
  23   2.0000      -0.695828       -18.9344
  24   2.0000      -0.663935       -18.0666
  25   2.0000      -0.647736       -17.6258
  26   2.0000      -0.638203       -17.3664
  27   2.0000      -0.630666       -17.1613
  28   2.0000      -0.618284       -16.8244
  29   2.0000      -0.589417       -16.0389
  30   2.0000      -0.573536       -15.6067
  31   2.0000      -0.561419       -15.2770
  32   2.0000      -0.543647       -14.7934
  33   2.0000      -0.537931       -14.6378
  34   2.0000      -0.527190       -14.3456
  35   2.0000      -0.521377       -14.1874
  36   2.0000      -0.495370       -13.4797
  37   2.0000      -0.486314       -13.2333
  38   2.0000      -0.476398       -12.9634
  39   2.0000      -0.468242       -12.7415
  40   2.0000      -0.460748       -12.5376
  41   2.0000      -0.451708       -12.2916
  42   2.0000      -0.444487       -12.0951
  43   2.0000      -0.435696       -11.8559
  44   2.0000      -0.432602       -11.7717
  45   2.0000      -0.424068       -11.5395
  46   2.0000      -0.404962       -11.0196
  47   2.0000      -0.404542       -11.0081
  48   2.0000      -0.396467       -10.7884
  49   2.0000      -0.393332       -10.7031
  50   2.0000      -0.389705       -10.6044
  51   2.0000      -0.257968        -7.0197
  52   0.0000       0.105510         2.8711
  53   0.0000       0.116911         3.1813
  54   0.0000       0.124115         3.3773
  55   0.0000       0.130625         3.5545
  56   0.0000       0.135169         3.6781

MULLIKEN ATOMIC CHARGES
-----------------------
   0 C :   -0.186010
   1 C :   -0.270799
   2 H :    0.116873
   3 C :   -0.161698
   4 H :    0.107072
   5 H :    0.077269
   6 H :    0.100407
   7 C :   -0.234319
   8 H :    0.124994
   9 C :   -0.158472
  10 H :    0.101607
  11 C :   -0.214008
  12 H :    0.101762
  13 H :    0.100418
  14 C :   -0.204131
  15 H :    0.108996
  16 H :    0.103350
  17 H :    0.081275
  18 C :   -0.225516
  19 H :    0.096707
  20 H :    0.109550
  21 H :    0.115655
  22 C :    0.038272
  23 H :    0.118149
  24 H :    0.111435
  25 F :   -0.234891
  26 C :    0.145758
  27 C :   -0.453103
  28 N :   -0.469693
  29 H :    0.229911
  30 H :    0.247304
  31 H :    0.090237
  32 H :    0.144376
  33 H :    0.122264
  34 H :    0.118997
Sum of atomic charges:   -0.0000000

LOEWDIN ATOMIC CHARGES
----------------------
   0 C :   -0.217061
   1 C :   -0.266460
   2 H :    0.131436
   3 C :   -0.268940
   4 H :    0.137228
   5 H :    0.131543
   6 H :    0.134893
   7 C :   -0.266605
   8 H :    0.140163
   9 C :   -0.264601
  10 H :    0.133608
  11 C :   -0.270819
  12 H :    0.134675
  13 H :    0.135278
  14 C :   -0.270589
  15 H :    0.133050
  16 H :    0.133164
  17 H :    0.149168
  18 C :   -0.276974
  19 H :    0.135941
  20 H :    0.137296
  21 H :    0.142563
  22 C :   -0.329124
  23 H :    0.125633
  24 H :    0.129346
  25 F :    0.138319
  26 C :   -0.381112
  27 C :   -0.292540
  28 N :   -0.004908
  29 H :    0.165138
  30 H :    0.157799
  31 H :    0.099443
  32 H :    0.092578
  33 H :    0.147657
  34 H :    0.143815

  Mayer bond orders larger than 0.100000
B(  0-C ,  1-C ) :   0.9425 B(  0-C , 26-C ) :   0.9626 B(  0-C , 33-H ) :   0.9888
B(  0-C , 34-H ) :   0.9725 B(  1-C ,  2-H ) :   0.9979 B(  1-C ,  3-C ) :   0.9538
B(  1-C ,  4-H ) :   0.9757 B(  3-C ,  5-H ) :   0.9798 B(  3-C ,  6-H ) :   0.9718
B(  3-C ,  7-C ) :   0.9284 B(  7-C ,  8-H ) :   0.9845 B(  7-C ,  9-C ) :   0.9717
B(  7-C , 10-H ) :   0.9720 B(  9-C , 11-C ) :   0.9754 B(  9-C , 12-H ) :   0.9809
B(  9-C , 13-H ) :   0.9812 B( 11-C , 14-C ) :   0.9662 B( 11-C , 15-H ) :   0.9871
B( 11-C , 16-H ) :   0.9771 B( 14-C , 17-H ) :   0.9940 B( 14-C , 18-C ) :   0.9582
B( 14-C , 19-H ) :   0.9689 B( 18-C , 20-H ) :   0.9773 B( 18-C , 21-H ) :   0.9581
B( 18-C , 22-C ) :   0.9858 B( 22-C , 23-H ) :   0.9762 B( 22-C , 24-H ) :   0.9787
B( 22-C , 25-F ) :   0.9085 B( 26-C , 27-C ) :   1.7233 B( 26-C , 28-N ) :   1.1624
B( 27-C , 31-H ) :   1.0129 B( 27-C , 32-H ) :   0.9847 B( 28-N , 29-H ) :   0.9255
B( 28-N , 30-H ) :   0.8847

Dispersion correction           -0.017828120
FINAL SINGLE POINT ENERGY      -587.029038211704

DIPOLE MOMENT
-------------
                                X             Y             Z
Electronic contribution:     -2.69940      -1.62456      10.44281
Nuclear contribution   :      1.82572       1.04089     -11.09065
                        -----------------------------------------
Total Dipole Moment    :     -0.87368      -0.58367      -0.64784
                        -----------------------------------------
Magnitude (a.u.)       :      1.23437
Magnitude (Debye)      :      3.13753

Rotational constants in cm-1:     0.028436     0.022359     0.014416
Rotational constants in MHz :   852.496561   670.291843   432.183951

                             ****ORCA TERMINATED NORMALLY****
TOTAL RUN TIME: 0 days 0 hours 1 minutes 21 seconds 912 msec
