                         Program Version 5.0.0 -  RELEASE  -
|  1> !BLYP D3BJ RIJCOSX def2-TZVP def2/J TightSCF
|  2> *xyz -1 1
|  3> C         -0.77894        0.17197        1.80496
|  4> C         -0.60249       -0.63071        0.49224
|  5> H          0.31389       -1.24035        0.60350
|  6> H         -0.36383        0.11332       -0.30117
|  7> O         -1.71206       -1.37684        0.20253
|  8> H         -1.65864        0.77733        1.73736
|  9> H          0.07466        0.79896        1.95712
| 10> H         -0.87474       -0.50584        2.62734
| 11> *
| 12> %MaxCore 64000
| 13>
| 14> %pal nprocs 4
| 15> end
| 16>
| 17> %scf
| 18>   MaxIter 150
| 19> end
| 20>
| 21>
| 22>                          ****END OF INPUT****

CARTESIAN COORDINATES (ANGSTROEM)
---------------------------------
  C     -0.778940    0.171970    1.804960
  C     -0.602490   -0.630710    0.492240
  H      0.313890   -1.240350    0.603500
  H     -0.363830    0.113320   -0.301170
  O     -1.712060   -1.376840    0.202530
  H     -1.658640    0.777330    1.737360
  H      0.074660    0.798960    1.957120
  H     -0.874740   -0.505840    2.627340

 Total Charge           Charge          ....   -1
 Multiplicity           Mult            ....    1
 Number of Electrons    NEL             ....   26
 Basis Dimension        Dim             ....  123

ORBITAL ENERGIES
----------------

  NO   OCC          E(Eh)            E(eV)
   0   2.0000     -18.427334      -501.4333
   1   2.0000      -9.709201      -264.2008
   2   2.0000      -9.686632      -263.5867
   3   2.0000      -0.580282       -15.7903
   4   2.0000      -0.440698       -11.9920
   5   2.0000      -0.300775        -8.1845
   6   2.0000      -0.190254        -5.1771
   7   2.0000      -0.168632        -4.5887
   8   2.0000      -0.116740        -3.1767
   9   2.0000      -0.103892        -2.8271
  10   2.0000      -0.055214        -1.5025
  11   2.0000       0.084988         2.3126
  12   2.0000       0.087428         2.3790
  13   0.0000       0.198266         5.3951
  14   0.0000       0.232028         6.3138
  15   0.0000       0.255614         6.9556
  16   0.0000       0.261077         7.1043
  17   0.0000       0.292030         7.9465

MULLIKEN ATOMIC CHARGES
-----------------------
   0 C :   -0.033381
   1 C :    0.056093
   2 H :   -0.092876
   3 H :   -0.096151
   4 O :   -0.719132
   5 H :   -0.013131
   6 H :   -0.088449
   7 H :   -0.012972
Sum of atomic charges:   -1.0000000

LOEWDIN ATOMIC CHARGES
----------------------
   0 C :   -0.360831
   1 C :   -0.549506
   2 H :    0.044035
   3 H :    0.042548
   4 O :   -0.389501
   5 H :    0.077577
   6 H :    0.058589
   7 H :    0.077090

  Mayer bond orders larger than 0.100000
B(  0-C ,  1-C ) :   0.8421 B(  0-C ,  4-O ) :  -0.3752 B(  0-C ,  5-H ) :   0.9511
B(  0-C ,  6-H ) :   0.8801 B(  0-C ,  7-H ) :   0.9544 B(  1-C ,  2-H ) :   0.8936
B(  1-C ,  3-H ) :   0.8949 B(  1-C ,  4-O ) :   1.6819 B(  4-O ,  5-H ) :   0.1059
B(  4-O ,  6-H ) :   0.1577

Dispersion correction           -0.007743466
FINAL SINGLE POINT ENERGY      -154.429960001335

DIPOLE MOMENT
-------------
                                X             Y             Z
Electronic contribution:     -1.89903      -2.08984      -1.63994
Nuclear contribution   :      2.47835       2.80827       2.30058
                        -----------------------------------------
Total Dipole Moment    :      0.57931       0.71844       0.66064
                        -----------------------------------------
Magnitude (a.u.)       :      1.13499
Magnitude (Debye)      :      2.88492

Rotational constants in cm-1:     1.255775     0.327783     0.287473
Rotational constants in MHz : 37647.186859  9826.677683  8618.224821

                             ****ORCA TERMINATED NORMALLY****
TOTAL RUN TIME: 0 days 0 hours 0 minutes 7 seconds 33 msec
