                         Program Version 5.0.0 -  RELEASE  -
|  1> !BLYP D3BJ RIJCOSX def2-TZVP def2/J TightSCF
|  2> *xyz 1 1
|  3> C         -2.12050        0.88520        1.78951
|  4> C         -0.77894        0.17197        1.80496
|  5> H         -2.32419        1.47265        2.68608
|  6> H         -2.18770        1.54127        0.91948
|  7> N         -3.17690       -0.15948        1.61070
|  8> H         -4.06474        0.23127        1.28675
|  9> H         -3.34407       -0.67151        2.48493
| 10> H         -2.71686       -0.78189        0.93588
| 11> H         -0.65708       -0.37837        0.89547
| 12> H         -0.74207       -0.50050        2.63642
| 13> H          0.00707        0.89251        1.89389
| 14> *
| 15> %MaxCore 64000
| 16>
| 17> %pal nprocs 4
| 18> end
| 19>
| 20> %scf
| 21>   MaxIter 150
| 22> end
| 23>
| 24>
| 25>                          ****END OF INPUT****

CARTESIAN COORDINATES (ANGSTROEM)
---------------------------------
  C     -2.120500    0.885200    1.789510
  C     -0.778940    0.171970    1.804960
  H     -2.324190    1.472650    2.686080
  H     -2.187700    1.541270    0.919480
  N     -3.176900   -0.159480    1.610700
  H     -4.064740    0.231270    1.286750
  H     -3.344070   -0.671510    2.484930
  H     -2.716860   -0.781890    0.935880
  H     -0.657080   -0.378370    0.895470
  H     -0.742070   -0.500500    2.636420
  H      0.007070    0.892510    1.893890

 Total Charge           Charge          ....    1
 Multiplicity           Mult            ....    1
 Number of Electrons    NEL             ....   26
 Basis Dimension        Dim             ....  141

ORBITAL ENERGIES
----------------

  NO   OCC          E(Eh)            E(eV)
   0   2.0000     -14.336517      -390.1165
   1   2.0000     -10.159140      -276.4442
   2   2.0000     -10.084718      -274.4191
   3   2.0000      -1.130087       -30.7512
   4   2.0000      -0.892155       -24.2768
   5   2.0000      -0.780373       -21.2350
   6   2.0000      -0.748073       -20.3561
   7   2.0000      -0.737560       -20.0700
   8   2.0000      -0.640863       -17.4388
   9   2.0000      -0.594088       -16.1660
  10   2.0000      -0.538531       -14.6542
  11   2.0000      -0.532300       -14.4846
  12   2.0000      -0.512203       -13.9378
  13   0.0000      -0.220236        -5.9929
  14   0.0000      -0.161923        -4.4061
  15   0.0000      -0.159783        -4.3479
  16   0.0000      -0.136881        -3.7247
  17   0.0000      -0.103968        -2.8291

MULLIKEN ATOMIC CHARGES
-----------------------
   0 C :   -0.163888
   1 C :   -0.324424
   2 H :    0.182207
   3 H :    0.173617
   4 N :   -0.234345
   5 H :    0.314394
   6 H :    0.308318
   7 H :    0.302699
   8 H :    0.132240
   9 H :    0.140024
  10 H :    0.169158
Sum of atomic charges:    1.0000000

LOEWDIN ATOMIC CHARGES
----------------------
   0 C :   -0.267813
   1 C :   -0.271990
   2 H :    0.149206
   3 H :    0.151456
   4 N :    0.178822
   5 H :    0.215524
   6 H :    0.217844
   7 H :    0.222445
   8 H :    0.127544
   9 H :    0.129850
  10 H :    0.147113

  Mayer bond orders larger than 0.100000
B(  0-C ,  1-C ) :   0.9712 B(  0-C ,  2-H ) :   0.9508 B(  0-C ,  3-H ) :   0.9480
B(  0-C ,  4-N ) :   0.8529 B(  1-C ,  8-H ) :   0.9518 B(  1-C ,  9-H ) :   0.9600
B(  1-C , 10-H ) :   0.9598 B(  4-N ,  5-H ) :   0.8826 B(  4-N ,  6-H ) :   0.8865
B(  4-N ,  7-H ) :   0.8812

Dispersion correction           -0.012627110
FINAL SINGLE POINT ENERGY      -135.515866850589

DIPOLE MOMENT
-------------
                                X             Y             Z
Electronic contribution:     -1.81413      -0.15056      -0.05609
Nuclear contribution   :      0.50278      -0.30871      -0.06979
                        -----------------------------------------
Total Dipole Moment    :     -1.31135      -0.45927      -0.12588
                        -----------------------------------------
Magnitude (a.u.)       :      1.39514
Magnitude (Debye)      :      3.54617

Rotational constants in cm-1:     0.963746     0.295157     0.256910
Rotational constants in MHz : 28892.375247  8848.576767  7701.963879

                             ****ORCA TERMINATED NORMALLY****
TOTAL RUN TIME: 0 days 0 hours 0 minutes 7 seconds 287 msec
