                         Program Version 5.0.0 -  RELEASE  -
|  1> !BLYP D3BJ RIJCOSX def2-TZVP def2/J TightSCF
|  2> *xyz 0 1
|  3> C         -0.77894        0.17197        1.80496
|  4> C         -0.60249       -0.63071        0.49224
|  5> H          0.31389       -1.24035        0.60350
|  6> H         -0.36383        0.11332       -0.30117
|  7> F         -1.71206       -1.37684        0.20253
|  8> H         -1.65864        0.77733        1.73736
|  9> H          0.07466        0.79896        1.95712
| 10> H         -0.87474       -0.50584        2.62734
| 11> *
| 12> %MaxCore 64000
| 13>
| 14> %pal nprocs 4
| 15> end
| 16>
| 17> %scf
| 18>   MaxIter 150
| 19> end
| 20>
| 21>
| 22>                          ****END OF INPUT****

CARTESIAN COORDINATES (ANGSTROEM)
---------------------------------
  C     -0.778940    0.171970    1.804960
  C     -0.602490   -0.630710    0.492240
  H      0.313890   -1.240350    0.603500
  H     -0.363830    0.113320   -0.301170
  F     -1.712060   -1.376840    0.202530
  H     -1.658640    0.777330    1.737360
  H      0.074660    0.798960    1.957120
  H     -0.874740   -0.505840    2.627340

 Total Charge           Charge          ....    0
 Multiplicity           Mult            ....    1
 Number of Electrons    NEL             ....   26
 Basis Dimension        Dim             ....  123

ORBITAL ENERGIES
----------------

  NO   OCC          E(Eh)            E(eV)
   0   2.0000     -24.269942      -660.4187
   1   2.0000      -9.980816      -271.5918
   2   2.0000      -9.898186      -269.3433
   3   2.0000      -1.090804       -29.6823
   4   2.0000      -0.683880       -18.6093
   5   2.0000      -0.563141       -15.3238
   6   2.0000      -0.450342       -12.2544
   7   2.0000      -0.435025       -11.8376
   8   2.0000      -0.397276       -10.8104
   9   2.0000      -0.352076        -9.5805
  10   2.0000      -0.350299        -9.5321
  11   2.0000      -0.282615        -7.6903
  12   2.0000      -0.280892        -7.6435
  13   0.0000       0.020749         0.5646
  14   0.0000       0.057655         1.5689
  15   0.0000       0.066614         1.8127
  16   0.0000       0.074880         2.0376
  17   0.0000       0.090519         2.4631

MULLIKEN ATOMIC CHARGES
-----------------------
   0 C :   -0.283241
   1 C :    0.066364
   2 H :    0.074685
   3 H :    0.073664
   4 F :   -0.227578
   5 H :    0.103256
   6 H :    0.090824
   7 H :    0.102026
Sum of atomic charges:    0.0000000

LOEWDIN ATOMIC CHARGES
----------------------
   0 C :   -0.304458
   1 C :   -0.371528
   2 H :    0.111460
   3 H :    0.112606
   4 F :    0.109202
   5 H :    0.113336
   6 H :    0.117150
   7 H :    0.112231

  Mayer bond orders larger than 0.100000
B(  0-C ,  1-C ) :   0.9642 B(  0-C ,  5-H ) :   0.9699 B(  0-C ,  6-H ) :   0.9539
B(  0-C ,  7-H ) :   0.9710 B(  1-C ,  2-H ) :   0.9616 B(  1-C ,  3-H ) :   0.9628
B(  1-C ,  4-F ) :   1.0140

Dispersion correction           -0.007133688
FINAL SINGLE POINT ENERGY      -179.081725934126

DIPOLE MOMENT
-------------
                                X             Y             Z
Electronic contribution:     -2.78000      -3.32595      -2.84132
Nuclear contribution   :      3.27800       3.70743       3.04146
                        -----------------------------------------
Total Dipole Moment    :      0.49800       0.38148       0.20014
                        -----------------------------------------
Magnitude (a.u.)       :      0.65848
Magnitude (Debye)      :      1.67372

Rotational constants in cm-1:     1.234437     0.305084     0.268865
Rotational constants in MHz : 37007.496448  9146.194083  8060.380630

                             ****ORCA TERMINATED NORMALLY****
TOTAL RUN TIME: 0 days 0 hours 0 minutes 6 seconds 322 msec
