                         Program Version 5.0.0 -  RELEASE  -
|  1> !BLYP D3BJ RIJCOSX def2-TZVP def2/J TightSCF
|  2> *xyz 0 1
|  3> C         -2.12050        0.88520        1.78951
|  4> C         -0.77894        0.17197        1.80496
|  5> H         -2.32419        1.47265        2.68608
|  6> H         -2.18770        1.54127        0.91948
|  7> C         -3.17690       -0.15948        1.61070
|  8> H         -4.06474        0.23127        1.28675
|  9> H         -3.34407       -0.67151        2.48493
| 10> H         -2.71686       -0.78189        0.93588
| 11> H         -0.65708       -0.37837        0.89547
| 12> H         -0.74207       -0.50050        2.63642
| 13> H          0.00707        0.89251        1.89389
| 14> *
| 15> %MaxCore 64000
| 16>
| 17> %pal nprocs 4
| 18> end
| 19>
| 20> %scf
| 21>   MaxIter 150
| 22> end
| 23>
| 24>
| 25>                          ****END OF INPUT****

CARTESIAN COORDINATES (ANGSTROEM)
---------------------------------
  C     -2.120500    0.885200    1.789510
  C     -0.778940    0.171970    1.804960
  H     -2.324190    1.472650    2.686080
  H     -2.187700    1.541270    0.919480
  C     -3.176900   -0.159480    1.610700
  H     -4.064740    0.231270    1.286750
  H     -3.344070   -0.671510    2.484930
  H     -2.716860   -0.781890    0.935880
  H     -0.657080   -0.378370    0.895470
  H     -0.742070   -0.500500    2.636420
  H      0.007070    0.892510    1.893890

 Total Charge           Charge          ....    0
 Multiplicity           Mult            ....    1
 Number of Electrons    NEL             ....   26
 Basis Dimension        Dim             ....  141

ORBITAL ENERGIES
----------------

  NO   OCC          E(Eh)            E(eV)
   0   2.0000      -9.889831      -269.1160
   1   2.0000      -9.881888      -268.8999
   2   2.0000      -9.862948      -268.3845
   3   2.0000      -0.714806       -19.4509
   4   2.0000      -0.612879       -16.6773
   5   2.0000      -0.520520       -14.1641
   6   2.0000      -0.417660       -11.3651
   7   2.0000      -0.400244       -10.8912
   8   2.0000      -0.350752        -9.5445
   9   2.0000      -0.336972        -9.1695
  10   2.0000      -0.295690        -8.0461
  11   2.0000      -0.287425        -7.8212
  12   2.0000      -0.283985        -7.7276
  13   0.0000       0.022348         0.6081
  14   0.0000       0.061959         1.6860
  15   0.0000       0.069321         1.8863
  16   0.0000       0.072203         1.9647
  17   0.0000       0.091121         2.4795

MULLIKEN ATOMIC CHARGES
-----------------------
   0 C :   -0.116045
   1 C :   -0.295119
   2 H :    0.071273
   3 H :    0.068015
   4 C :   -0.267956
   5 H :    0.093405
   6 H :    0.092616
   7 H :    0.077236
   8 H :    0.092737
   9 H :    0.090354
  10 H :    0.093485
Sum of atomic charges:    0.0000000

LOEWDIN ATOMIC CHARGES
----------------------
   0 C :   -0.312517
   1 C :   -0.301913
   2 H :    0.123309
   3 H :    0.128348
   4 C :   -0.295217
   5 H :    0.101643
   6 H :    0.104754
   7 H :    0.113835
   8 H :    0.112757
   9 H :    0.113745
  10 H :    0.111256

  Mayer bond orders larger than 0.100000
B(  0-C ,  1-C ) :   0.9686 B(  0-C ,  2-H ) :   0.9674 B(  0-C ,  3-H ) :   0.9671
B(  0-C ,  4-C ) :   0.9497 B(  1-C ,  8-H ) :   0.9740 B(  1-C ,  9-H ) :   0.9755
B(  1-C , 10-H ) :   0.9771 B(  4-C ,  5-H ) :   0.9798 B(  4-C ,  6-H ) :   0.9800
B(  4-C ,  7-H ) :   0.9780

Dispersion correction           -0.012707502
FINAL SINGLE POINT ENERGY      -119.092062658448

DIPOLE MOMENT
-------------
                                X             Y             Z
Electronic contribution:     -0.14716       0.47437       0.11319
Nuclear contribution   :      0.13334      -0.45108      -0.10852
                        -----------------------------------------
Total Dipole Moment    :     -0.01382       0.02329       0.00468
                        -----------------------------------------
Magnitude (a.u.)       :      0.02748
Magnitude (Debye)      :      0.06986

Rotational constants in cm-1:     0.972269     0.310387     0.269029
Rotational constants in MHz : 29147.878530  9305.178981  8065.286472

                             ****ORCA TERMINATED NORMALLY****
TOTAL RUN TIME: 0 days 0 hours 0 minutes 7 seconds 353 msec
