                         Program Version 5.0.0 -  RELEASE  -
|  1> !BLYP D3BJ RIJCOSX def2-TZVP def2/J TightSCF xyzfile
|  2>
|  3> *xyzfile 0 1 D.xyz
|  4>
|  5> %MaxCore 64000
|  6>
|  7> %pal nprocs 18
|  8> end
|  9>
| 10> %scf
| 11>   MaxIter 150
| 12> end
| 13>
| 14>
| 15>                          ****END OF INPUT****

CARTESIAN COORDINATES (ANGSTROEM)
---------------------------------
  C     -2.120502    0.885196    1.789506
  C     -0.778939    0.171966    1.804965
  H     -2.324193    1.472649    2.686078
  H     -2.187698    1.541272    0.919482
  C     -3.176900   -0.159484    1.610700
  H      0.015695    0.910767    1.939153
  H     -0.743553   -0.506827    2.665420
  C     -0.602493   -0.630712    0.492240
  H      0.313894   -1.240346    0.603498
  H     -0.363829    0.113322   -0.301169
  F     -1.712061   -1.376836    0.202535
  H     -4.064736    0.231272    1.286754
  H     -3.344073   -0.671511    2.484928
  H     -2.716861   -0.781886    0.935880

 Total Charge           Charge          ....    0
 Multiplicity           Mult            ....    1
 Number of Electrons    NEL             ....   42
 Basis Dimension        Dim             ....  209

ORBITAL ENERGIES
----------------

  NO   OCC          E(Eh)            E(eV)
   0   2.0000     -24.289584      -660.9532
   1   2.0000      -9.988486      -271.8005
   2   2.0000      -9.907410      -269.5943
   3   2.0000      -9.887735      -269.0590
   4   2.0000      -9.828403      -267.4444
   5   2.0000      -1.123632       -30.5756
   6   2.0000      -0.724369       -19.7111
   7   2.0000      -0.658313       -17.9136
   8   2.0000      -0.567653       -15.4466
   9   2.0000      -0.526086       -14.3155
  10   2.0000      -0.468733       -12.7549
  11   2.0000      -0.465705       -12.6725
  12   2.0000      -0.428160       -11.6508
  13   2.0000      -0.387374       -10.5410
  14   2.0000      -0.358422        -9.7531
  15   2.0000      -0.351310        -9.5596
  16   2.0000      -0.330832        -9.0024
  17   2.0000      -0.296764        -8.0754
  18   2.0000      -0.283773        -7.7218
  19   2.0000      -0.279930        -7.6173
  20   2.0000      -0.229759        -6.2521
  21   0.0000       0.015762         0.4289
  22   0.0000       0.044746         1.2176
  23   0.0000       0.048627         1.3232
  24   0.0000       0.060513         1.6466
  25   0.0000       0.074500         2.0273

MULLIKEN ATOMIC CHARGES
-----------------------
   0 C :   -0.117593
   1 C :   -0.171700
   2 H :    0.072355
   3 H :    0.059133
   4 C :   -0.366859
   5 H :    0.088985
   6 H :    0.079404
   7 C :    0.036807
   8 H :    0.088753
   9 H :    0.076354
  10 F :   -0.167229
  11 H :    0.077414
  12 H :    0.075165
  13 H :    0.169011
Sum of atomic charges:    0.0000000

LOEWDIN ATOMIC CHARGES
----------------------
   0 C :   -0.295497
   1 C :   -0.269467
   2 H :    0.123888
   3 H :    0.130893
   4 C :   -0.313259
   5 H :    0.136487
   6 H :    0.133685
   7 C :   -0.335563
   8 H :    0.119287
   9 H :    0.120861
  10 F :    0.175714
  11 H :    0.097056
  12 H :    0.099355
  13 H :    0.076559

  Mayer bond orders larger than 0.100000
B(  0-C ,  1-C ) :   0.9691 B(  0-C ,  2-H ) :   0.9630 B(  0-C ,  3-H ) :   0.9652
B(  0-C ,  4-C ) :   0.9472 B(  1-C ,  5-H ) :   0.9500 B(  1-C ,  6-H ) :   0.9587
B(  1-C ,  7-C ) :   0.9859 B(  4-C , 11-H ) :   0.9705 B(  4-C , 12-H ) :   0.9746
B(  4-C , 13-H ) :   0.9444 B(  7-C ,  8-H ) :   0.9544 B(  7-C ,  9-H ) :   0.9640
B(  7-C , 10-F ) :   0.9731

Dispersion correction           -0.020269891
FINAL SINGLE POINT ENERGY      -257.631723098115

DIPOLE MOMENT
-------------
                                X             Y             Z
Electronic contribution:      0.85631      -4.23263      -3.75278
Nuclear contribution   :     -0.20666       4.43855       3.76066
                        -----------------------------------------
Total Dipole Moment    :      0.64964       0.20592       0.00787
                        -----------------------------------------
Magnitude (a.u.)       :      0.68154
Magnitude (Debye)      :      1.73234

Rotational constants in cm-1:     0.236353     0.155239     0.105045
Rotational constants in MHz :  7085.692869  4653.957069  3149.180346

                             ****ORCA TERMINATED NORMALLY****
TOTAL RUN TIME: 0 days 0 hours 0 minutes 4 seconds 883 msec
