                         Program Version 5.0.0 -  RELEASE  -
|  1> !wB97X-D3 RIJCOSX def2-SVPD def2/J TightSCF
|  2> *xyz -1 1
|  3> C         -7.33044       -2.67899       -3.20681
|  4> S         -6.01966       -2.92697       -4.41913
|  5> O         -5.64583       -1.58838       -4.91931
|  6> O         -4.88196       -3.50370       -3.66724
|  7> O         -6.54927       -3.80515       -5.42507
|  8> C         -6.28692       -0.73588       -1.89353
|  9> C         -7.46900       -1.24615       -2.71383
| 10> H         -7.60191       -0.60135       -3.58533
| 11> H         -8.38979       -1.17344       -2.12692
| 12> H         -7.11825       -3.37982       -2.39805
| 13> H         -8.24184       -3.00474       -3.70651
| 14> H         -5.39124       -0.81034       -2.47415
| 15> H         -6.18709       -1.32597       -1.00655
| 16> H         -6.45393        0.28631       -1.62495
| 17> *
| 18> %MaxCore 64000
| 19>
| 20> %pal nprocs 8
| 21> end
| 22>
| 23> %scf
| 24>   MaxIter 150
| 25> end
| 26>
| 27>
| 28>                          ****END OF INPUT****

CARTESIAN COORDINATES (ANGSTROEM)
---------------------------------
  C     -7.330440   -2.678990   -3.206810
  S     -6.019660   -2.926970   -4.419130
  O     -5.645830   -1.588380   -4.919310
  O     -4.881960   -3.503700   -3.667240
  O     -6.549270   -3.805150   -5.425070
  C     -6.286920   -0.735880   -1.893530
  C     -7.469000   -1.246150   -2.713830
  H     -7.601910   -0.601350   -3.585330
  H     -8.389790   -1.173440   -2.126920
  H     -7.118250   -3.379820   -2.398050
  H     -8.241840   -3.004740   -3.706510
  H     -5.391240   -0.810340   -2.474150
  H     -6.187090   -1.325970   -1.006550
  H     -6.453930    0.286310   -1.624950

 Total Charge           Charge          ....   -1
 Multiplicity           Mult            ....    1
 Number of Electrons    NEL             ....   66
 Basis Dimension        Dim             ....  212

ORBITAL ENERGIES
----------------

  NO   OCC          E(Eh)            E(eV)
   0   2.0000     -88.978820     -2421.2368
   1   2.0000     -19.031423      -517.8713
   2   2.0000     -19.021037      -517.5887
   3   2.0000     -19.016937      -517.4772
   4   2.0000     -10.161660      -276.5128
   5   2.0000     -10.157005      -276.3862
   6   2.0000     -10.143916      -276.0300
   7   2.0000      -8.052340      -219.1153
   8   2.0000      -6.011888      -163.5918
   9   2.0000      -6.011817      -163.5899
  10   2.0000      -6.011333      -163.5767
  11   2.0000      -1.046876       -28.4869
  12   2.0000      -0.903953       -24.5978
  13   2.0000      -0.880851       -23.9692
  14   2.0000      -0.772946       -21.0329
  15   2.0000      -0.680062       -18.5054
  16   2.0000      -0.581027       -15.8105
  17   2.0000      -0.491040       -13.3619
  18   2.0000      -0.437939       -11.9169
  19   2.0000      -0.426468       -11.6048
  20   2.0000      -0.396706       -10.7949
  21   2.0000      -0.383936       -10.4474
  22   2.0000      -0.365798        -9.9539
  23   2.0000      -0.356048        -9.6886
  24   2.0000      -0.322008        -8.7623
  25   2.0000      -0.313460        -8.5297
  26   2.0000      -0.301845        -8.2136
  27   2.0000      -0.250081        -6.8051
  28   2.0000      -0.248077        -6.7505
  29   2.0000      -0.211422        -5.7531
  30   2.0000      -0.203663        -5.5420
  31   2.0000      -0.196458        -5.3459
  32   2.0000      -0.160363        -4.3637
  33   0.0000       0.203723         5.5436
  34   0.0000       0.223303         6.0764
  35   0.0000       0.225974         6.1491
  36   0.0000       0.234056         6.3690
  37   0.0000       0.253963         6.9107

MULLIKEN ATOMIC CHARGES
-----------------------
   0 C :    0.004827
   1 S :    1.338672
   2 O :   -0.845306
   3 O :   -0.821316
   4 O :   -0.808680
   5 C :    0.700878
   6 C :   -0.209897
   7 H :    0.024089
   8 H :   -0.195655
   9 H :   -0.010768
  10 H :   -0.019294
  11 H :   -0.084665
  12 H :   -0.016661
  13 H :   -0.056225
Sum of atomic charges:   -1.0000000

LOEWDIN ATOMIC CHARGES
----------------------
   0 C :   -0.084265
   1 S :    0.878127
   2 O :   -0.585921
   3 O :   -0.602962
   4 O :   -0.576284
   5 C :    0.120665
   6 C :   -0.102919
   7 H :    0.014437
   8 H :    0.006920
   9 H :    0.006524
  10 H :   -0.001487
  11 H :   -0.023737
  12 H :   -0.020534
  13 H :   -0.028563

  Mayer bond orders larger than 0.100000
B(  0-C ,  1-S ) :   0.9068 B(  0-C ,  6-C ) :   1.1866 B(  0-C ,  7-H ) :   0.1379
B(  0-C ,  8-H ) :   0.1109 B(  0-C ,  9-H ) :   0.9419 B(  0-C , 10-H ) :   0.9447
B(  1-S ,  2-O ) :   1.2731 B(  1-S ,  3-O ) :   1.2748 B(  1-S ,  4-O ) :   1.3563
B(  5-C ,  6-C ) :   1.2348 B(  5-C , 11-H ) :   0.8415 B(  5-C , 12-H ) :   0.7844
B(  5-C , 13-H ) :   0.7821 B(  6-C ,  7-H ) :   0.8871 B(  6-C ,  8-H ) :   0.9504
B(  6-C ,  9-H ) :   0.1026 B(  6-C , 10-H ) :   0.1079 B(  6-C , 11-H ) :   0.2044
B(  6-C , 12-H ) :   0.1968 B(  6-C , 13-H ) :   0.1962

Dispersion correction           -0.004501560
FINAL SINGLE POINT ENERGY      -741.970626382504

DIPOLE MOMENT
-------------
                                X             Y             Z
Electronic contribution:      3.75961      -5.82524      -7.88199
Nuclear contribution   :     -5.28952       6.71955       9.52938
                        -----------------------------------------
Total Dipole Moment    :     -1.52991       0.89431       1.64738
                        -----------------------------------------
Magnitude (a.u.)       :      2.41956
Magnitude (Debye)      :      6.15004

Rotational constants in cm-1:     0.135789     0.055302     0.052251
Rotational constants in MHz :  4070.851802  1657.908940  1566.458563

                             ****ORCA TERMINATED NORMALLY****
TOTAL RUN TIME: 0 days 0 hours 0 minutes 27 seconds 200 msec
