                         Program Version 5.0.0 -  RELEASE  -
|  1> !wB97X-D3 RIJCOSX def2-SVPD def2/J TightSCF
|  2> *xyz 1 1
|  3> C         -2.16038       -1.36949       -3.46710
|  4> N         -3.03011       -1.91086       -4.54107
|  5> C         -2.04772        0.14658       -3.51177
|  6> H         -3.47744       -2.79151       -4.25710
|  7> H         -2.53801       -2.01786       -5.43808
|  8> H         -3.89159       -1.37604       -4.71437
|  9> H         -1.18444       -1.84400       -3.56639
| 10> H         -2.59819       -1.70838       -2.52848
| 11> C         -3.32876        0.87504       -3.10367
| 12> H         -1.74003        0.45234       -4.51713
| 13> H         -1.23261        0.43494       -2.84221
| 14> H         -4.12483        0.59148       -3.76000
| 15> H         -3.17368        1.93185       -3.16688
| 16> H         -3.58415        0.61151       -2.09857
| 17> *
| 18> %MaxCore 64000
| 19>
| 20> %pal nprocs 8
| 21> end
| 22>
| 23> %scf
| 24>   MaxIter 150
| 25> end
| 26>
| 27>
| 28>                          ****END OF INPUT****

CARTESIAN COORDINATES (ANGSTROEM)
---------------------------------
  C     -2.160380   -1.369490   -3.467100
  N     -3.030110   -1.910860   -4.541070
  C     -2.047720    0.146580   -3.511770
  H     -3.477440   -2.791510   -4.257100
  H     -2.538010   -2.017860   -5.438080
  H     -3.891590   -1.376040   -4.714370
  H     -1.184440   -1.844000   -3.566390
  H     -2.598190   -1.708380   -2.528480
  C     -3.328760    0.875040   -3.103670
  H     -1.740030    0.452340   -4.517130
  H     -1.232610    0.434940   -2.842210
  H     -4.124830    0.591480   -3.760000
  H     -3.173680    1.931850   -3.166880
  H     -3.584150    0.611510   -2.098570

 Total Charge           Charge          ....    1
 Multiplicity           Mult            ....    1
 Number of Electrons    NEL             ....   34
 Basis Dimension        Dim             ....  160

ORBITAL ENERGIES
----------------

  NO   OCC          E(Eh)            E(eV)
   0   2.0000     -14.769934      -401.9104
   1   2.0000     -10.537503      -286.7400
   2   2.0000     -10.467345      -284.8309
   3   2.0000     -10.433812      -283.9185
   4   2.0000      -1.322196       -35.9788
   5   2.0000      -1.085444       -29.5364
   6   2.0000      -0.994078       -27.0502
   7   2.0000      -0.912808       -24.8388
   8   2.0000      -0.891277       -24.2529
   9   2.0000      -0.867232       -23.5986
  10   2.0000      -0.794549       -21.6208
  11   2.0000      -0.731395       -19.9023
  12   2.0000      -0.706708       -19.2305
  13   2.0000      -0.682429       -18.5698
  14   2.0000      -0.620390       -16.8817
  15   2.0000      -0.614305       -16.7161
  16   2.0000      -0.607128       -16.5208
  17   0.0000      -0.109629        -2.9832
  18   0.0000      -0.054858        -1.4927
  19   0.0000      -0.051345        -1.3972
  20   0.0000      -0.036548        -0.9945
  21   0.0000      -0.011719        -0.3189

MULLIKEN ATOMIC CHARGES
-----------------------
   0 C :    0.590888
   1 N :   -0.951031
   2 C :   -0.372526
   3 H :    0.407505
   4 H :    0.463782
   5 H :    0.352267
   6 H :   -0.046837
   7 H :    0.020789
   8 C :    0.650574
   9 H :   -0.013119
  10 H :    0.027630
  11 H :   -0.191049
  12 H :    0.019884
  13 H :    0.041242
Sum of atomic charges:    1.0000000

LOEWDIN ATOMIC CHARGES
----------------------
   0 C :    0.089604
   1 N :    0.325903
   2 C :   -0.048528
   3 H :    0.108737
   4 H :    0.115936
   5 H :    0.090819
   6 H :    0.054119
   7 H :    0.053750
   8 C :    0.145757
   9 H :    0.035687
  10 H :    0.046701
  11 H :   -0.026386
  12 H :    0.007255
  13 H :    0.000645

  Mayer bond orders larger than 0.100000
B(  0-C ,  1-N ) :   0.6449 B(  0-C ,  2-C ) :   1.1748 B(  0-C ,  6-H ) :   0.9121
B(  0-C ,  7-H ) :   0.9001 B(  0-C , 10-H ) :   0.1013 B(  1-N ,  3-H ) :   0.6951
B(  1-N ,  4-H ) :   0.6467 B(  1-N ,  5-H ) :   0.7713 B(  1-N ,  6-H ) :   0.1123
B(  2-C ,  8-C ) :   1.2675 B(  2-C ,  9-H ) :   0.9557 B(  2-C , 10-H ) :   0.9339
B(  2-C , 11-H ) :   0.1694 B(  2-C , 12-H ) :   0.1792 B(  2-C , 13-H ) :   0.1608
B(  8-C , 11-H ) :   0.8472 B(  8-C , 12-H ) :   0.8245 B(  8-C , 13-H ) :   0.8014
B( 11-H , 13-H ) :   0.1140

Dispersion correction           -0.002834713
FINAL SINGLE POINT ENERGY      -174.687043335554

DIPOLE MOMENT
-------------
                                X             Y             Z
Electronic contribution:      0.32029      -2.14277      -1.09744
Nuclear contribution   :     -0.76147       0.35838       0.01319
                        -----------------------------------------
Total Dipole Moment    :     -0.44118      -1.78439      -1.08424
                        -----------------------------------------
Magnitude (a.u.)       :      2.13407
Magnitude (Debye)      :      5.42438

Rotational constants in cm-1:     0.457188     0.153451     0.133348
Rotational constants in MHz : 13706.154863  4600.337483  3997.673747

                             ****ORCA TERMINATED NORMALLY****
TOTAL RUN TIME: 0 days 0 hours 0 minutes 12 seconds 587 msec
