                         Program Version 5.0.0 -  RELEASE  -
|  1> !wB97X-D3 RIJCOSX def2-SVPD def2/J TightSCF xyzfile
|  2>
|  3> *xyzfile 0 1 B.xyz
|  4>
|  5> %MaxCore 64000
|  6>
|  7> %pal nprocs 18
|  8> end
|  9>
| 10> %scf
| 11>   MaxIter 150
| 12> end
| 13>
| 14>
| 15>                          ****END OF INPUT****

CARTESIAN COORDINATES (ANGSTROEM)
---------------------------------
  C     -2.160376   -1.369486   -3.467104
  N     -3.030108   -1.910857   -4.541074
  C     -2.047717    0.146583   -3.511774
  C     -7.330440   -2.678991   -3.206811
  S     -6.019659   -2.926965   -4.419128
  H     -3.477443   -2.791513   -4.257096
  H     -2.538013   -2.017860   -5.438075
  H     -3.891589   -1.376039   -4.714365
  O     -5.645830   -1.588384   -4.919307
  O     -4.881961   -3.503697   -3.667235
  H     -1.184438   -1.843997   -3.566393
  H     -2.598195   -1.708376   -2.528477
  O     -6.549267   -3.805150   -5.425071
  C     -3.328755    0.875037   -3.103669
  H     -1.740034    0.452343   -4.517126
  H     -1.232611    0.434938   -2.842208
  C     -3.628487    0.771601   -1.609363
  H     -4.175106    0.490791   -3.682203
  H     -3.237812    1.928663   -3.381480
  C     -4.975718    1.361432   -1.190644
  H     -2.830700    1.276234   -1.054766
  H     -3.594312   -0.275838   -1.294603
  C     -6.184720    0.784347   -1.926464
  H     -4.956292    2.445725   -1.342200
  H     -5.097256    1.205252   -0.114136
  C     -6.286921   -0.735882   -1.893531
  H     -6.163994    1.100199   -2.974250
  H     -7.094530    1.223459   -1.504509
  C     -7.468999   -1.246153   -2.713833
  H     -6.360641   -1.090347   -0.859176
  H     -5.369848   -1.171853   -2.295982
  H     -7.601914   -0.601349   -3.585329
  H     -8.389791   -1.173436   -2.126922
  H     -7.118254   -3.379818   -2.398055
  H     -8.241838   -3.004745   -3.706513

 Total Charge           Charge          ....    0
 Multiplicity           Mult            ....    1
 Number of Electrons    NEL             ....  122
 Basis Dimension        Dim             ....  464

ORBITAL ENERGIES
----------------

  NO   OCC          E(Eh)            E(eV)
   0   2.0000     -89.145539     -2425.7734
   1   2.0000     -19.199660      -522.4493
   2   2.0000     -19.199071      -522.4333
   3   2.0000     -19.184540      -522.0379
   4   2.0000     -14.543052      -395.7366
   5   2.0000     -10.374940      -282.3165
   6   2.0000     -10.327297      -281.0200
   7   2.0000     -10.307298      -280.4758
   8   2.0000     -10.298990      -280.2498
   9   2.0000     -10.294160      -280.1183
  10   2.0000     -10.291037      -280.0334
  11   2.0000     -10.283939      -279.8402
  12   2.0000     -10.283639      -279.8320
  13   2.0000     -10.280460      -279.7455
  14   2.0000      -8.218669      -223.6414
  15   2.0000      -6.179130      -168.1427
  16   2.0000      -6.178147      -168.1159
  17   2.0000      -6.176712      -168.0769
  18   2.0000      -1.218785       -33.1648
  19   2.0000      -1.116364       -30.3778
  20   2.0000      -1.068523       -29.0760
  21   2.0000      -1.064949       -28.9787
  22   2.0000      -0.950417       -25.8622
  23   2.0000      -0.921518       -25.0758
  24   2.0000      -0.895547       -24.3691
  25   2.0000      -0.850120       -23.1329
  26   2.0000      -0.817062       -22.2334
  27   2.0000      -0.771826       -21.0024
  28   2.0000      -0.733290       -19.9538
  29   2.0000      -0.716428       -19.4950
  30   2.0000      -0.702033       -19.1033
  31   2.0000      -0.677006       -18.4223
  32   2.0000      -0.666834       -18.1455
  33   2.0000      -0.643972       -17.5234
  34   2.0000      -0.617462       -16.8020
  35   2.0000      -0.595275       -16.1983
  36   2.0000      -0.593224       -16.1424
  37   2.0000      -0.580655       -15.8004
  38   2.0000      -0.562626       -15.3098
  39   2.0000      -0.552469       -15.0334
  40   2.0000      -0.542168       -14.7531
  41   2.0000      -0.539353       -14.6765
  42   2.0000      -0.531031       -14.4501
  43   2.0000      -0.515152       -14.0180
  44   2.0000      -0.512710       -13.9515
  45   2.0000      -0.500021       -13.6063
  46   2.0000      -0.486446       -13.2369
  47   2.0000      -0.472363       -12.8537
  48   2.0000      -0.466425       -12.6921
  49   2.0000      -0.450723       -12.2648
  50   2.0000      -0.442241       -12.0340
  51   2.0000      -0.434782       -11.8310
  52   2.0000      -0.422161       -11.4876
  53   2.0000      -0.418481       -11.3874
  54   2.0000      -0.415121       -11.2960
  55   2.0000      -0.410890       -11.1809
  56   2.0000      -0.405939       -11.0462
  57   2.0000      -0.379283       -10.3208
  58   2.0000      -0.371234       -10.1018
  59   2.0000      -0.360408        -9.8072
  60   2.0000      -0.337105        -9.1731
  61   0.0000       0.058392         1.5889
  62   0.0000       0.083645         2.2761
  63   0.0000       0.089739         2.4419
  64   0.0000       0.096469         2.6251
  65   0.0000       0.105183         2.8622

MULLIKEN ATOMIC CHARGES
-----------------------
   0 C :    0.898683
   1 N :   -1.069142
   2 C :    0.366239
   3 C :    0.372323
   4 S :    1.318982
   5 H :    0.307068
   6 H :    0.538015
   7 H :    0.317792
   8 O :   -0.818218
   9 O :   -0.835157
  10 H :   -0.266992
  11 H :   -0.014985
  12 O :   -0.830927
  13 C :    0.440058
  14 H :   -0.050534
  15 H :   -0.000110
  16 C :   -0.173757
  17 H :   -0.548808
  18 H :   -0.063085
  19 C :    0.663742
  20 H :   -0.337960
  21 H :    0.101464
  22 C :   -0.106573
  23 H :   -0.022284
  24 H :    0.018471
  25 C :    0.266742
  26 H :    0.171114
  27 H :   -0.370053
  28 C :    0.250006
  29 H :   -0.042720
  30 H :   -0.352919
  31 H :    0.092995
  32 H :   -0.204141
  33 H :   -0.009387
  34 H :   -0.005941
Sum of atomic charges:    0.0000000

LOEWDIN ATOMIC CHARGES
----------------------
   0 C :    0.101861
   1 N :    0.330895
   2 C :   -0.012764
   3 C :   -0.047641
   4 S :    0.967570
   5 H :   -0.042852
   6 H :    0.106204
   7 H :   -0.033544
   8 O :   -0.536782
   9 O :   -0.541311
  10 H :    0.037470
  11 H :    0.034474
  12 O :   -0.513762
  13 C :   -0.016348
  14 H :    0.028145
  15 H :    0.032055
  16 C :   -0.035709
  17 H :    0.001105
  18 H :    0.034263
  19 C :   -0.029393
  20 H :    0.025354
  21 H :    0.005732
  22 C :   -0.036604
  23 H :    0.024035
  24 H :    0.025067
  25 C :   -0.027698
  26 H :    0.020133
  27 H :    0.027756
  28 C :   -0.044385
  29 H :    0.036557
  30 H :   -0.009517
  31 H :    0.021533
  32 H :    0.029807
  33 H :    0.021927
  34 H :    0.016367

  Mayer bond orders larger than 0.100000
B(  0-C ,  1-N ) :   0.5578 B(  0-C ,  2-C ) :   1.1831 B(  0-C , 10-H ) :   0.8627
B(  0-C , 11-H ) :   0.7559 B(  0-C , 15-H ) :   0.1470 B(  1-N ,  5-H ) :   0.7268
B(  1-N ,  6-H ) :   0.4933 B(  1-N ,  7-H ) :   0.7252 B(  1-N , 11-H ) :   0.1964
B(  2-C , 10-H ) :   0.1154 B(  2-C , 13-C ) :   1.1725 B(  2-C , 14-H ) :   0.7445
B(  2-C , 15-H ) :   0.7907 B(  2-C , 17-H ) :   0.1008 B(  3-C ,  4-S ) :   0.9081
B(  3-C , 12-O ) :   0.1389 B(  3-C , 28-C ) :   1.2281 B(  3-C , 33-H ) :   0.8947
B(  3-C , 34-H ) :   0.7860 B(  4-S ,  8-O ) :   1.1130 B(  4-S ,  9-O ) :   1.1250
B(  4-S , 12-O ) :   1.3921 B(  4-S , 33-H ) :   0.1030 B(  5-H ,  9-O ) :   0.1890
B(  7-H ,  8-O ) :   0.1812 B(  7-H , 17-H ) :   0.1006 B( 10-H , 11-H ) :  -0.1215
B( 13-C , 14-H ) :   0.1663 B( 13-C , 15-H ) :   0.1024 B( 13-C , 16-C ) :   1.1640
B( 13-C , 17-H ) :   0.7200 B( 13-C , 18-H ) :   0.7966 B( 13-C , 20-H ) :   0.1848
B( 16-C , 17-H ) :   0.2052 B( 16-C , 18-H ) :   0.1726 B( 16-C , 19-C ) :   1.1690
B( 16-C , 20-H ) :   1.0255 B( 16-C , 21-H ) :   0.8566 B( 16-C , 23-H ) :   0.1486
B( 16-C , 24-H ) :   0.2504 B( 17-H , 26-H ) :   0.1150 B( 19-C , 22-C ) :   1.1270
B( 19-C , 23-H ) :   0.6976 B( 19-C , 24-H ) :   0.6969 B( 22-C , 23-H ) :   0.2215
B( 22-C , 24-H ) :   0.1162 B( 22-C , 25-C ) :   1.2412 B( 22-C , 26-H ) :   0.8142
B( 22-C , 27-H ) :   1.0277 B( 22-C , 28-C ) :   0.1068 B( 22-C , 29-H ) :   0.1083
B( 22-C , 30-H ) :   0.1153 B( 25-C , 27-H ) :   0.1863 B( 25-C , 28-C ) :   1.1350
B( 25-C , 29-H ) :   0.7269 B( 25-C , 30-H ) :   0.8861 B( 25-C , 32-H ) :   0.1919
B( 28-C , 29-H ) :   0.1214 B( 28-C , 31-H ) :   0.8437 B( 28-C , 32-H ) :   0.8439
B( 28-C , 34-H ) :   0.2078 B( 29-H , 30-H ) :   0.2534

Dispersion correction           -0.018858199
FINAL SINGLE POINT ENERGY     -1033.495257888364

DIPOLE MOMENT
-------------
                                X             Y             Z
Electronic contribution:     -5.97308     -15.17612     -11.37428
Nuclear contribution   :      8.59301      16.99497      12.41069
                        -----------------------------------------
Total Dipole Moment    :      2.61993       1.81885       1.03641
                        -----------------------------------------
Magnitude (a.u.)       :      3.35357
Magnitude (Debye)      :      8.52409

Rotational constants in cm-1:     0.025617     0.015295     0.010641
Rotational constants in MHz :   767.991150   458.522408   319.013093

                             ****ORCA TERMINATED NORMALLY****
TOTAL RUN TIME: 0 days 0 hours 1 minutes 29 seconds 515 msec
