                         Program Version 5.0.0 -  RELEASE  -
|  1> !wB97X-D3 RIJCOSX def2-SVPD def2/J TightSCF
|  2> *xyz 0 1
|  3> C         -7.33044       -2.67899       -3.20681
|  4> S         -6.01966       -2.92697       -4.41913
|  5> F         -5.64583       -1.58838       -4.91931
|  6> O         -4.88196       -3.50370       -3.66724
|  7> O         -6.54927       -3.80515       -5.42507
|  8> C         -6.28692       -0.73588       -1.89353
|  9> C         -7.46900       -1.24615       -2.71383
| 10> H         -7.60191       -0.60135       -3.58533
| 11> H         -8.38979       -1.17344       -2.12692
| 12> H         -7.11825       -3.37982       -2.39805
| 13> H         -8.24184       -3.00474       -3.70651
| 14> H         -5.39124       -0.81034       -2.47415
| 15> H         -6.18709       -1.32597       -1.00655
| 16> H         -6.45393        0.28631       -1.62495
| 17> *
| 18> %MaxCore 64000
| 19>
| 20> %pal nprocs 8
| 21> end
| 22>
| 23> %scf
| 24>   MaxIter 150
| 25> end
| 26>
| 27>
| 28>                          ****END OF INPUT****

CARTESIAN COORDINATES (ANGSTROEM)
---------------------------------
  C     -7.330440   -2.678990   -3.206810
  S     -6.019660   -2.926970   -4.419130
  F     -5.645830   -1.588380   -4.919310
  O     -4.881960   -3.503700   -3.667240
  O     -6.549270   -3.805150   -5.425070
  C     -6.286920   -0.735880   -1.893530
  C     -7.469000   -1.246150   -2.713830
  H     -7.601910   -0.601350   -3.585330
  H     -8.389790   -1.173440   -2.126920
  H     -7.118250   -3.379820   -2.398050
  H     -8.241840   -3.004740   -3.706510
  H     -5.391240   -0.810340   -2.474150
  H     -6.187090   -1.325970   -1.006550
  H     -6.453930    0.286310   -1.624950

 Total Charge           Charge          ....    0
 Multiplicity           Mult            ....    1
 Number of Electrons    NEL             ....   66
 Basis Dimension        Dim             ....  212

ORBITAL ENERGIES
----------------

  NO   OCC          E(Eh)            E(eV)
   0   2.0000     -89.233980     -2428.1800
   1   2.0000     -24.907515      -677.7679
   2   2.0000     -19.263347      -524.1823
   3   2.0000     -19.247751      -523.7579
   4   2.0000     -10.355516      -281.7879
   5   2.0000     -10.328051      -281.0406
   6   2.0000     -10.296693      -280.1873
   7   2.0000      -8.308283      -226.0799
   8   2.0000      -6.272004      -170.6699
   9   2.0000      -6.265583      -170.4952
  10   2.0000      -6.264248      -170.4589
  11   2.0000      -1.467562       -39.9344
  12   2.0000      -1.228303       -33.4238
  13   2.0000      -1.122570       -30.5467
  14   2.0000      -0.955604       -26.0033
  15   2.0000      -0.866666       -23.5832
  16   2.0000      -0.814520       -22.1642
  17   2.0000      -0.749392       -20.3920
  18   2.0000      -0.695485       -18.9251
  19   2.0000      -0.678586       -18.4653
  20   2.0000      -0.648778       -17.6541
  21   2.0000      -0.600060       -16.3285
  22   2.0000      -0.587040       -15.9742
  23   2.0000      -0.569342       -15.4926
  24   2.0000      -0.551136       -14.9972
  25   2.0000      -0.537693       -14.6314
  26   2.0000      -0.494440       -13.4544
  27   2.0000      -0.487235       -13.2583
  28   2.0000      -0.478173       -13.0117
  29   2.0000      -0.466598       -12.6968
  30   2.0000      -0.430790       -11.7224
  31   2.0000      -0.417849       -11.3702
  32   2.0000      -0.406975       -11.0744
  33   0.0000       0.062601         1.7035
  34   0.0000       0.090854         2.4723
  35   0.0000       0.095419         2.5965
  36   0.0000       0.097429         2.6512
  37   0.0000       0.110626         3.0103

MULLIKEN ATOMIC CHARGES
-----------------------
   0 C :   -0.014226
   1 S :    1.484177
   2 F :   -0.425100
   3 O :   -0.692516
   4 O :   -0.676027
   5 C :    0.700640
   6 C :   -0.222584
   7 H :    0.015681
   8 H :   -0.138325
   9 H :    0.048796
  10 H :    0.038527
  11 H :   -0.116540
  12 H :    0.013821
  13 H :   -0.016324
Sum of atomic charges:    0.0000000

LOEWDIN ATOMIC CHARGES
----------------------
   0 C :   -0.037478
   1 S :    1.134515
   2 F :   -0.272137
   3 O :   -0.490989
   4 O :   -0.464321
   5 C :    0.138032
   6 C :   -0.086828
   7 H :    0.023705
   8 H :    0.032200
   9 H :    0.035302
  10 H :    0.022537
  11 H :   -0.022422
  12 H :   -0.003882
  13 H :   -0.008235

  Mayer bond orders larger than 0.100000
B(  0-C ,  1-S ) :   0.9805 B(  0-C ,  6-C ) :   1.1806 B(  0-C ,  7-H ) :   0.1164
B(  0-C ,  9-H ) :   0.9421 B(  0-C , 10-H ) :   0.9489 B(  1-S ,  2-F ) :   0.6334
B(  1-S ,  3-O ) :   1.4924 B(  1-S ,  4-O ) :   1.5606 B(  5-C ,  6-C ) :   1.2537
B(  5-C , 11-H ) :   0.8392 B(  5-C , 12-H ) :   0.7940 B(  5-C , 13-H ) :   0.7936
B(  6-C ,  7-H ) :   0.9013 B(  6-C ,  8-H ) :   0.9607 B(  6-C ,  9-H ) :   0.1004
B(  6-C , 10-H ) :   0.1047 B(  6-C , 11-H ) :   0.1894 B(  6-C , 12-H ) :   0.1908
B(  6-C , 13-H ) :   0.1867

Dispersion correction           -0.004487415
FINAL SINGLE POINT ENERGY      -766.465147886075

DIPOLE MOMENT
-------------
                                X             Y             Z
Electronic contribution:      4.76685      -4.54311      -9.79703
Nuclear contribution   :     -5.93570       5.78812      10.65621
                        -----------------------------------------
Total Dipole Moment    :     -1.16885       1.24501       0.85917
                        -----------------------------------------
Magnitude (a.u.)       :      1.91166
Magnitude (Debye)      :      4.85905

Rotational constants in cm-1:     0.129417     0.054385     0.051980
Rotational constants in MHz :  3879.823072  1630.427453  1558.324762

                             ****ORCA TERMINATED NORMALLY****
TOTAL RUN TIME: 0 days 0 hours 0 minutes 25 seconds 292 msec
