                         Program Version 5.0.0 -  RELEASE  -
|  1> !wB97X-D3 RIJCOSX def2-SVPD def2/J TightSCF
|  2> *xyz 0 1
|  3> C         -2.16038       -1.36949       -3.46710
|  4> C         -3.03011       -1.91086       -4.54107
|  5> C         -2.04772        0.14658       -3.51177
|  6> H         -3.47744       -2.79151       -4.25710
|  7> H         -2.53801       -2.01786       -5.43808
|  8> H         -3.89159       -1.37604       -4.71437
|  9> H         -1.18444       -1.84400       -3.56639
| 10> H         -2.59819       -1.70838       -2.52848
| 11> C         -3.32876        0.87504       -3.10367
| 12> H         -1.74003        0.45234       -4.51713
| 13> H         -1.23261        0.43494       -2.84221
| 14> H         -4.12483        0.59148       -3.76000
| 15> H         -3.17368        1.93185       -3.16688
| 16> H         -3.58415        0.61151       -2.09857
| 17> *
| 18> %MaxCore 64000
| 19>
| 20> %pal nprocs 8
| 21> end
| 22>
| 23> %scf
| 24>   MaxIter 150
| 25> end
| 26>
| 27>
| 28>                          ****END OF INPUT****

CARTESIAN COORDINATES (ANGSTROEM)
---------------------------------
  C     -2.160380   -1.369490   -3.467100
  C     -3.030110   -1.910860   -4.541070
  C     -2.047720    0.146580   -3.511770
  H     -3.477440   -2.791510   -4.257100
  H     -2.538010   -2.017860   -5.438080
  H     -3.891590   -1.376040   -4.714370
  H     -1.184440   -1.844000   -3.566390
  H     -2.598190   -1.708380   -2.528480
  C     -3.328760    0.875040   -3.103670
  H     -1.740030    0.452340   -4.517130
  H     -1.232610    0.434940   -2.842210
  H     -4.124830    0.591480   -3.760000
  H     -3.173680    1.931850   -3.166880
  H     -3.584150    0.611510   -2.098570

 Total Charge           Charge          ....    0
 Multiplicity           Mult            ....    1
 Number of Electrons    NEL             ....   34
 Basis Dimension        Dim             ....  160

ORBITAL ENERGIES
----------------

  NO   OCC          E(Eh)            E(eV)
   0   2.0000     -10.278704      -279.6977
   1   2.0000     -10.274679      -279.5882
   2   2.0000     -10.268616      -279.4232
   3   2.0000     -10.249189      -278.8946
   4   2.0000      -0.913184       -24.8490
   5   2.0000      -0.838565       -22.8185
   6   2.0000      -0.752297       -20.4710
   7   2.0000      -0.673559       -18.3285
   8   2.0000      -0.568594       -15.4722
   9   2.0000      -0.561798       -15.2873
  10   2.0000      -0.527861       -14.3638
  11   2.0000      -0.485839       -13.2204
  12   2.0000      -0.474439       -12.9101
  13   2.0000      -0.460185       -12.5223
  14   2.0000      -0.415986       -11.3196
  15   2.0000      -0.414688       -11.2842
  16   2.0000      -0.411664       -11.2020
  17   0.0000       0.097399         2.6504
  18   0.0000       0.122032         3.3207
  19   0.0000       0.122711         3.3391
  20   0.0000       0.130990         3.5644
  21   0.0000       0.173729         4.7274

MULLIKEN ATOMIC CHARGES
-----------------------
   0 C :   -0.233858
   1 C :    0.991954
   2 C :   -0.283524
   3 H :   -0.128325
   4 H :   -0.086390
   5 H :   -0.477744
   6 H :   -0.115721
   7 H :   -0.011137
   8 C :    0.665722
   9 H :   -0.080195
  10 H :   -0.064351
  11 H :   -0.197959
  12 H :   -0.015712
  13 H :    0.037242
Sum of atomic charges:    0.0000000

LOEWDIN ATOMIC CHARGES
----------------------
   0 C :   -0.077029
   1 C :    0.115867
   2 C :   -0.083071
   3 H :   -0.031898
   4 H :   -0.023480
   5 H :   -0.045026
   6 H :    0.022783
   7 H :    0.023353
   8 C :    0.121087
   9 H :    0.023895
  10 H :    0.015773
  11 H :   -0.029566
  12 H :   -0.018000
  13 H :   -0.014690

  Mayer bond orders larger than 0.100000
B(  0-C ,  1-C ) :   1.2227 B(  0-C ,  2-C ) :   1.1672 B(  0-C ,  3-H ) :   0.1944
B(  0-C ,  4-H ) :   0.1965 B(  0-C ,  5-H ) :   0.2381 B(  0-C ,  6-H ) :   0.9445
B(  0-C ,  7-H ) :   0.8923 B(  0-C ,  9-H ) :   0.1336 B(  0-C , 10-H ) :   0.1092
B(  1-C ,  3-H ) :   0.6268 B(  1-C ,  4-H ) :   0.7267 B(  1-C ,  5-H ) :   0.5969
B(  1-C ,  6-H ) :   0.1013 B(  1-C ,  7-H ) :   0.1080 B(  2-C ,  6-H ) :   0.1054
B(  2-C ,  8-C ) :   1.2494 B(  2-C ,  9-H ) :   0.9473 B(  2-C , 10-H ) :   0.9351
B(  2-C , 11-H ) :   0.1930 B(  2-C , 12-H ) :   0.1852 B(  2-C , 13-H ) :   0.1934
B(  3-H ,  5-H ) :   0.2723 B(  4-H ,  5-H ) :   0.1176 B(  8-C , 11-H ) :   0.8639
B(  8-C , 12-H ) :   0.7939 B(  8-C , 13-H ) :   0.7777

Dispersion correction           -0.002735097
FINAL SINGLE POINT ENERGY      -158.287916298107

DIPOLE MOMENT
-------------
                                X             Y             Z
Electronic contribution:      0.86274       0.03209       0.25238
Nuclear contribution   :     -0.87438      -0.05339      -0.25605
                        -----------------------------------------
Total Dipole Moment    :     -0.01164      -0.02129      -0.00367
                        -----------------------------------------
Magnitude (a.u.)       :      0.02455
Magnitude (Debye)      :      0.06239

Rotational constants in cm-1:     0.464420     0.160323     0.139078
Rotational constants in MHz : 13922.972952  4806.377145  4169.443621

                             ****ORCA TERMINATED NORMALLY****
TOTAL RUN TIME: 0 days 0 hours 0 minutes 10 seconds 306 msec
