                         Program Version 5.0.0 -  RELEASE  -
|  1> !wB97X-D3 RIJCOSX def2-SVPD def2/J TightSCF
|  2> *xyz 0 1
|  3> C         -7.33044       -2.67899       -3.20681
|  4> S         -6.01966       -2.92697       -4.41913
|  5> O         -5.64583       -1.58838       -4.91931
|  6> F         -4.88196       -3.50370       -3.66724
|  7> O         -6.54927       -3.80515       -5.42507
|  8> C         -6.28692       -0.73588       -1.89353
|  9> C         -7.46900       -1.24615       -2.71383
| 10> H         -7.60191       -0.60135       -3.58533
| 11> H         -8.38979       -1.17344       -2.12692
| 12> H         -7.11825       -3.37982       -2.39805
| 13> H         -8.24184       -3.00474       -3.70651
| 14> H         -5.39124       -0.81034       -2.47415
| 15> H         -6.18709       -1.32597       -1.00655
| 16> H         -6.45393        0.28631       -1.62495
| 17> *
| 18> %MaxCore 64000
| 19>
| 20> %pal nprocs 8
| 21> end
| 22>
| 23> %scf
| 24>   MaxIter 150
| 25> end
| 26>
| 27>
| 28>                          ****END OF INPUT****

CARTESIAN COORDINATES (ANGSTROEM)
---------------------------------
  C     -7.330440   -2.678990   -3.206810
  S     -6.019660   -2.926970   -4.419130
  O     -5.645830   -1.588380   -4.919310
  F     -4.881960   -3.503700   -3.667240
  O     -6.549270   -3.805150   -5.425070
  C     -6.286920   -0.735880   -1.893530
  C     -7.469000   -1.246150   -2.713830
  H     -7.601910   -0.601350   -3.585330
  H     -8.389790   -1.173440   -2.126920
  H     -7.118250   -3.379820   -2.398050
  H     -8.241840   -3.004740   -3.706510
  H     -5.391240   -0.810340   -2.474150
  H     -6.187090   -1.325970   -1.006550
  H     -6.453930    0.286310   -1.624950

 Total Charge           Charge          ....    0
 Multiplicity           Mult            ....    1
 Number of Electrons    NEL             ....   66
 Basis Dimension        Dim             ....  212

ORBITAL ENERGIES
----------------

  NO   OCC          E(Eh)            E(eV)
   0   2.0000     -89.234585     -2428.1965
   1   2.0000     -24.904522      -677.6865
   2   2.0000     -19.263782      -524.1942
   3   2.0000     -19.251774      -523.8674
   4   2.0000     -10.356141      -281.8049
   5   2.0000     -10.319544      -280.8091
   6   2.0000     -10.290327      -280.0140
   7   2.0000      -8.308873      -226.0959
   8   2.0000      -6.272501      -170.6834
   9   2.0000      -6.266192      -170.5117
  10   2.0000      -6.264937      -170.4776
  11   2.0000      -1.463766       -39.8311
  12   2.0000      -1.229767       -33.4637
  13   2.0000      -1.126840       -30.6629
  14   2.0000      -0.950349       -25.8603
  15   2.0000      -0.865916       -23.5628
  16   2.0000      -0.811692       -22.0873
  17   2.0000      -0.743907       -20.2427
  18   2.0000      -0.681007       -18.5312
  19   2.0000      -0.674342       -18.3498
  20   2.0000      -0.660183       -17.9645
  21   2.0000      -0.602403       -16.3922
  22   2.0000      -0.590897       -16.0791
  23   2.0000      -0.557488       -15.1700
  24   2.0000      -0.549276       -14.9466
  25   2.0000      -0.538173       -14.6444
  26   2.0000      -0.494138       -13.4462
  27   2.0000      -0.481526       -13.1030
  28   2.0000      -0.467979       -12.7344
  29   2.0000      -0.461259       -12.5515
  30   2.0000      -0.429693       -11.6925
  31   2.0000      -0.425091       -11.5673
  32   2.0000      -0.410679       -11.1751
  33   0.0000       0.068551         1.8654
  34   0.0000       0.087858         2.3908
  35   0.0000       0.095375         2.5953
  36   0.0000       0.096606         2.6288
  37   0.0000       0.114527         3.1164

MULLIKEN ATOMIC CHARGES
-----------------------
   0 C :   -0.049059
   1 S :    1.502571
   2 O :   -0.720882
   3 F :   -0.407134
   4 O :   -0.676801
   5 C :    0.687263
   6 C :   -0.193918
   7 H :    0.047424
   8 H :   -0.146576
   9 H :    0.053356
  10 H :    0.036285
  11 H :   -0.118583
  12 H :    0.005965
  13 H :   -0.019913
Sum of atomic charges:   -0.0000000

LOEWDIN ATOMIC CHARGES
----------------------
   0 C :   -0.042791
   1 S :    1.139908
   2 O :   -0.479579
   3 F :   -0.276858
   4 O :   -0.464545
   5 C :    0.135898
   6 C :   -0.079381
   7 H :    0.028402
   8 H :    0.032258
   9 H :    0.023255
  10 H :    0.026885
  11 H :   -0.025109
  12 H :   -0.010817
  13 H :   -0.007526

  Mayer bond orders larger than 0.100000
B(  0-C ,  1-S ) :   0.9686 B(  0-C ,  6-C ) :   1.2212 B(  0-C ,  7-H ) :   0.1323
B(  0-C ,  8-H ) :   0.1091 B(  0-C ,  9-H ) :   0.9263 B(  0-C , 10-H ) :   0.9497
B(  1-S ,  2-O ) :   1.4944 B(  1-S ,  3-F ) :   0.6276 B(  1-S ,  4-O ) :   1.5653
B(  5-C ,  6-C ) :   1.2497 B(  5-C , 11-H ) :   0.8459 B(  5-C , 12-H ) :   0.7943
B(  5-C , 13-H ) :   0.7961 B(  6-C ,  7-H ) :   0.8909 B(  6-C ,  8-H ) :   0.9507
B(  6-C ,  9-H ) :   0.1065 B(  6-C , 11-H ) :   0.1875 B(  6-C , 12-H ) :   0.1885
B(  6-C , 13-H ) :   0.1861

Dispersion correction           -0.004440525
FINAL SINGLE POINT ENERGY      -766.468804210965

DIPOLE MOMENT
-------------
                                X             Y             Z
Electronic contribution:      6.12524      -7.86325      -7.68712
Nuclear contribution   :     -6.75719       7.84793       9.30968
                        -----------------------------------------
Total Dipole Moment    :     -0.63195      -0.01532       1.62255
                        -----------------------------------------
Magnitude (a.u.)       :      1.74134
Magnitude (Debye)      :      4.42615

Rotational constants in cm-1:     0.129104     0.054499     0.051192
Rotational constants in MHz :  3870.429564  1633.827608  1534.709243

                             ****ORCA TERMINATED NORMALLY****
TOTAL RUN TIME: 0 days 0 hours 0 minutes 25 seconds 722 msec
