                         Program Version 5.0.0 -  RELEASE  -
|  1> !wB97X-D3 RIJCOSX def2-SVPD def2/J TightSCF
|  2> *xyz 0 1
|  3> C         -7.33044       -2.67899       -3.20681
|  4> S         -6.01966       -2.92697       -4.41913
|  5> O         -5.64583       -1.58838       -4.91931
|  6> O         -4.88196       -3.50370       -3.66724
|  7> F         -6.54927       -3.80515       -5.42507
|  8> C         -6.28692       -0.73588       -1.89353
|  9> C         -7.46900       -1.24615       -2.71383
| 10> H         -7.60191       -0.60135       -3.58533
| 11> H         -8.38979       -1.17344       -2.12692
| 12> H         -7.11825       -3.37982       -2.39805
| 13> H         -8.24184       -3.00474       -3.70651
| 14> H         -5.39124       -0.81034       -2.47415
| 15> H         -6.18709       -1.32597       -1.00655
| 16> H         -6.45393        0.28631       -1.62495
| 17> *
| 18> %MaxCore 64000
| 19>
| 20> %pal nprocs 8
| 21> end
| 22>
| 23> %scf
| 24>   MaxIter 150
| 25> end
| 26>
| 27>
| 28>                          ****END OF INPUT****

CARTESIAN COORDINATES (ANGSTROEM)
---------------------------------
  C     -7.330440   -2.678990   -3.206810
  S     -6.019660   -2.926970   -4.419130
  O     -5.645830   -1.588380   -4.919310
  O     -4.881960   -3.503700   -3.667240
  F     -6.549270   -3.805150   -5.425070
  C     -6.286920   -0.735880   -1.893530
  C     -7.469000   -1.246150   -2.713830
  H     -7.601910   -0.601350   -3.585330
  H     -8.389790   -1.173440   -2.126920
  H     -7.118250   -3.379820   -2.398050
  H     -8.241840   -3.004740   -3.706510
  H     -5.391240   -0.810340   -2.474150
  H     -6.187090   -1.325970   -1.006550
  H     -6.453930    0.286310   -1.624950

 Total Charge           Charge          ....    0
 Multiplicity           Mult            ....    1
 Number of Electrons    NEL             ....   66
 Basis Dimension        Dim             ....  212

ORBITAL ENERGIES
----------------

  NO   OCC          E(Eh)            E(eV)
   0   2.0000     -89.236827     -2428.2575
   1   2.0000     -24.926681      -678.2895
   2   2.0000     -19.252839      -523.8964
   3   2.0000     -19.249451      -523.8042
   4   2.0000     -10.356869      -281.8247
   5   2.0000     -10.319164      -280.7987
   6   2.0000     -10.282401      -279.7984
   7   2.0000      -8.311249      -226.1606
   8   2.0000      -6.275002      -170.7515
   9   2.0000      -6.268425      -170.5725
  10   2.0000      -6.267105      -170.5366
  11   2.0000      -1.501507       -40.8581
  12   2.0000      -1.214627       -33.0517
  13   2.0000      -1.109512       -30.1914
  14   2.0000      -0.949072       -25.8256
  15   2.0000      -0.871944       -23.7268
  16   2.0000      -0.821454       -22.3529
  17   2.0000      -0.746849       -20.3228
  18   2.0000      -0.702162       -19.1068
  19   2.0000      -0.694188       -18.8898
  20   2.0000      -0.662176       -18.0187
  21   2.0000      -0.596632       -16.2352
  22   2.0000      -0.590943       -16.0804
  23   2.0000      -0.561886       -15.2897
  24   2.0000      -0.544712       -14.8224
  25   2.0000      -0.523980       -14.2582
  26   2.0000      -0.485848       -13.2206
  27   2.0000      -0.472215       -12.8496
  28   2.0000      -0.468371       -12.7450
  29   2.0000      -0.452627       -12.3166
  30   2.0000      -0.424929       -11.5629
  31   2.0000      -0.416834       -11.3426
  32   2.0000      -0.397872       -10.8266
  33   0.0000       0.064567         1.7570
  34   0.0000       0.085073         2.3149
  35   0.0000       0.093684         2.5493
  36   0.0000       0.099380         2.7043
  37   0.0000       0.110829         3.0158

MULLIKEN ATOMIC CHARGES
-----------------------
   0 C :   -0.043706
   1 S :    1.536165
   2 O :   -0.714565
   3 O :   -0.684892
   4 F :   -0.426673
   5 C :    0.691428
   6 C :   -0.230830
   7 H :    0.043768
   8 H :   -0.146503
   9 H :    0.045956
  10 H :    0.045086
  11 H :   -0.101868
  12 H :    0.006017
  13 H :   -0.019384
Sum of atomic charges:    0.0000000

LOEWDIN ATOMIC CHARGES
----------------------
   0 C :   -0.048316
   1 S :    1.145529
   2 O :   -0.481154
   3 O :   -0.489576
   4 F :   -0.257637
   5 C :    0.141364
   6 C :   -0.075984
   7 H :    0.025814
   8 H :    0.032294
   9 H :    0.028174
  10 H :    0.015228
  11 H :   -0.019273
  12 H :   -0.007838
  13 H :   -0.008624

  Mayer bond orders larger than 0.100000
B(  0-C ,  1-S ) :   0.9493 B(  0-C ,  6-C ) :   1.2296 B(  0-C ,  7-H ) :   0.1298
B(  0-C ,  8-H ) :   0.1014 B(  0-C ,  9-H ) :   0.9589 B(  0-C , 10-H ) :   0.8934
B(  1-S ,  2-O ) :   1.4729 B(  1-S ,  3-O ) :   1.4834 B(  1-S ,  4-F ) :   0.6737
B(  5-C ,  6-C ) :   1.2545 B(  5-C , 11-H ) :   0.8479 B(  5-C , 12-H ) :   0.7887
B(  5-C , 13-H ) :   0.7916 B(  6-C ,  7-H ) :   0.8874 B(  6-C ,  8-H ) :   0.9565
B(  6-C ,  9-H ) :   0.1020 B(  6-C , 10-H ) :   0.1188 B(  6-C , 11-H ) :   0.1895
B(  6-C , 12-H ) :   0.1910 B(  6-C , 13-H ) :   0.1867

Dispersion correction           -0.004488984
FINAL SINGLE POINT ENERGY      -766.449860115202

DIPOLE MOMENT
-------------
                                X             Y             Z
Electronic contribution:      3.24660      -8.39339     -10.75471
Nuclear contribution   :     -4.96410       8.17213      11.20012
                        -----------------------------------------
Total Dipole Moment    :     -1.71750      -0.22126       0.44541
                        -----------------------------------------
Magnitude (a.u.)       :      1.78805
Magnitude (Debye)      :      4.54487

Rotational constants in cm-1:     0.133784     0.053405     0.050278
Rotational constants in MHz :  4010.731548  1601.045142  1507.298018

                             ****ORCA TERMINATED NORMALLY****
TOTAL RUN TIME: 0 days 0 hours 0 minutes 22 seconds 401 msec
