                         Program Version 5.0.0 -  RELEASE  -
|  1> !wB97X-D3 RIJCOSX def2-SVPD def2/J TightSCF xyzfile
|  2>
|  3> *xyzfile 0 1 D2.xyz
|  4>
|  5> %MaxCore 64000
|  6>
|  7> %pal nprocs 18
|  8> end
|  9>
| 10> %scf
| 11>   MaxIter 150
| 12> end
| 13>
| 14>
| 15>                          ****END OF INPUT****

CARTESIAN COORDINATES (ANGSTROEM)
---------------------------------
  C     -2.160376   -1.369486   -3.467104
  C     -3.030108   -1.910857   -4.541074
  C     -2.047717    0.146583   -3.511774
  C     -7.330440   -2.678991   -3.206811
  S     -6.019659   -2.926965   -4.419128
  H     -3.477443   -2.791513   -4.257096
  H     -2.538013   -2.017860   -5.438075
  H     -3.891589   -1.376039   -4.714365
  O     -5.645830   -1.588384   -4.919307
  F     -4.881961   -3.503697   -3.667235
  H     -1.184438   -1.843997   -3.566393
  H     -2.598195   -1.708376   -2.528477
  O     -6.549267   -3.805150   -5.425071
  C     -3.328755    0.875037   -3.103669
  H     -1.740034    0.452343   -4.517126
  H     -1.232611    0.434938   -2.842208
  C     -3.628487    0.771601   -1.609363
  H     -4.175106    0.490791   -3.682203
  H     -3.237812    1.928663   -3.381480
  C     -4.975718    1.361432   -1.190644
  H     -2.830700    1.276234   -1.054766
  H     -3.594312   -0.275838   -1.294603
  C     -6.184720    0.784347   -1.926464
  H     -4.956292    2.445725   -1.342200
  H     -5.097256    1.205252   -0.114136
  C     -6.286921   -0.735882   -1.893531
  H     -6.163994    1.100199   -2.974250
  H     -7.094530    1.223459   -1.504509
  C     -7.468999   -1.246153   -2.713833
  H     -6.360641   -1.090347   -0.859176
  H     -5.369848   -1.171853   -2.295982
  H     -7.601914   -0.601349   -3.585329
  H     -8.389791   -1.173436   -2.126922
  H     -7.118254   -3.379818   -2.398055
  H     -8.241838   -3.004745   -3.706513

 Total Charge           Charge          ....    0
 Multiplicity           Mult            ....    1
 Number of Electrons    NEL             ....  122
 Basis Dimension        Dim             ....  464

ORBITAL ENERGIES
----------------

  NO   OCC          E(Eh)            E(eV)
   0   2.0000     -89.241894     -2428.3954
   1   2.0000     -24.910306      -677.8439
   2   2.0000     -19.269157      -524.3404
   3   2.0000     -19.256309      -523.9908
   4   2.0000     -10.358935      -281.8810
   5   2.0000     -10.318988      -280.7939
   6   2.0000     -10.300891      -280.3015
   7   2.0000     -10.290163      -280.0096
   8   2.0000     -10.284915      -279.8668
   9   2.0000     -10.278945      -279.7043
  10   2.0000     -10.273216      -279.5484
  11   2.0000     -10.270015      -279.4613
  12   2.0000     -10.263831      -279.2931
  13   2.0000     -10.216558      -278.0067
  14   2.0000      -8.314918      -226.2604
  15   2.0000      -6.278604      -170.8495
  16   2.0000      -6.272440      -170.6818
  17   2.0000      -6.270956      -170.6414
  18   2.0000      -1.473433       -40.0942
  19   2.0000      -1.235799       -33.6278
  20   2.0000      -1.134670       -30.8759
  21   2.0000      -0.958500       -26.0821
  22   2.0000      -0.927153       -25.2291
  23   2.0000      -0.899466       -24.4757
  24   2.0000      -0.873669       -23.7737
  25   2.0000      -0.832819       -22.6622
  26   2.0000      -0.817309       -22.2401
  27   2.0000      -0.778180       -21.1754
  28   2.0000      -0.742979       -20.2175
  29   2.0000      -0.728519       -19.8240
  30   2.0000      -0.690613       -18.7925
  31   2.0000      -0.687008       -18.6944
  32   2.0000      -0.679219       -18.4825
  33   2.0000      -0.665833       -18.1182
  34   2.0000      -0.647953       -17.6317
  35   2.0000      -0.609982       -16.5984
  36   2.0000      -0.590802       -16.0765
  37   2.0000      -0.581887       -15.8340
  38   2.0000      -0.574082       -15.6216
  39   2.0000      -0.567672       -15.4471
  40   2.0000      -0.547536       -14.8992
  41   2.0000      -0.535310       -14.5665
  42   2.0000      -0.532414       -14.4877
  43   2.0000      -0.527775       -14.3615
  44   2.0000      -0.506238       -13.7754
  45   2.0000      -0.498913       -13.5761
  46   2.0000      -0.487767       -13.2728
  47   2.0000      -0.480646       -13.0790
  48   2.0000      -0.471289       -12.8244
  49   2.0000      -0.461674       -12.5628
  50   2.0000      -0.454355       -12.3636
  51   2.0000      -0.440984       -11.9998
  52   2.0000      -0.433650       -11.8002
  53   2.0000      -0.429739       -11.6938
  54   2.0000      -0.423545       -11.5252
  55   2.0000      -0.420899       -11.4533
  56   2.0000      -0.412782       -11.2324
  57   2.0000      -0.406624       -11.0648
  58   2.0000      -0.394370       -10.7313
  59   2.0000      -0.391939       -10.6652
  60   2.0000      -0.379260       -10.3202
  61   0.0000       0.067244         1.8298
  62   0.0000       0.084296         2.2938
  63   0.0000       0.088394         2.4053
  64   0.0000       0.096594         2.6284
  65   0.0000       0.103414         2.8140

MULLIKEN ATOMIC CHARGES
-----------------------
   0 C :    0.028004
   1 C :    1.942504
   2 C :    0.531460
   3 C :    0.343642
   4 S :    1.482393
   5 H :   -0.579409
   6 H :   -0.256984
   7 H :   -0.924334
   8 O :   -0.722060
   9 F :   -0.499065
  10 H :   -0.250389
  11 H :   -0.018021
  12 O :   -0.738650
  13 C :    0.382556
  14 H :   -0.059753
  15 H :   -0.094902
  16 C :   -0.141062
  17 H :   -0.573956
  18 H :   -0.045931
  19 C :    0.661473
  20 H :   -0.316520
  21 H :    0.084454
  22 C :   -0.139693
  23 H :   -0.015709
  24 H :    0.012079
  25 C :    0.333679
  26 H :    0.200576
  27 H :   -0.383242
  28 C :    0.259890
  29 H :   -0.039204
  30 H :   -0.418636
  31 H :    0.111987
  32 H :   -0.174648
  33 H :    0.003248
  34 H :    0.014227
Sum of atomic charges:   -0.0000000

LOEWDIN ATOMIC CHARGES
----------------------
   0 C :   -0.044081
   1 C :    0.128733
   2 C :   -0.027425
   3 C :   -0.029099
   4 S :    1.171583
   5 H :   -0.093038
   6 H :   -0.008708
   7 H :   -0.115396
   8 O :   -0.454684
   9 F :   -0.278157
  10 H :    0.022547
  11 H :    0.007904
  12 O :   -0.448260
  13 C :   -0.019051
  14 H :    0.027852
  15 H :    0.018109
  16 C :   -0.037109
  17 H :   -0.000873
  18 H :    0.027724
  19 C :   -0.031240
  20 H :    0.025059
  21 H :    0.002746
  22 C :   -0.034228
  23 H :    0.024615
  24 H :    0.022362
  25 C :   -0.025922
  26 H :    0.022057
  27 H :    0.027003
  28 C :   -0.037116
  29 H :    0.037801
  30 H :   -0.003925
  31 H :    0.028158
  32 H :    0.038536
  33 H :    0.026889
  34 H :    0.028634

  Mayer bond orders larger than 0.100000
B(  0-C ,  1-C ) :   0.9761 B(  0-C ,  2-C ) :   1.1840 B(  0-C ,  5-H ) :   0.3761
B(  0-C ,  6-H ) :   0.1011 B(  0-C ,  7-H ) :   0.3857 B(  0-C , 10-H ) :   0.9174
B(  0-C , 11-H ) :   0.7605 B(  0-C , 14-H ) :   0.1438 B(  0-C , 15-H ) :   0.1737
B(  1-C ,  5-H ) :  -0.2758 B(  1-C ,  6-H ) :   0.6185 B(  1-C ,  7-H ) :  -0.5118
B(  1-C , 11-H ) :   0.1986 B(  2-C ,  7-H ) :  -0.1156 B(  2-C , 11-H ) :   0.1072
B(  2-C , 13-C ) :   1.1875 B(  2-C , 14-H ) :   0.7104 B(  2-C , 15-H ) :   0.7596
B(  2-C , 17-H ) :   0.1230 B(  3-C ,  4-S ) :   0.9019 B(  3-C , 12-O ) :   0.1278
B(  3-C , 28-C ) :   1.2349 B(  3-C , 33-H ) :   0.9061 B(  3-C , 34-H ) :   0.7852
B(  4-S ,  8-O ) :   1.4456 B(  4-S ,  9-F ) :   0.5656 B(  4-S , 12-O ) :   1.4918
B(  5-H ,  6-H ) :  -0.1407 B(  5-H ,  7-H ) :   0.8719 B(  5-H ,  9-F ) :   0.1958
B(  6-H ,  7-H ) :   0.1863 B(  7-H ,  9-F ) :   0.1189 B(  7-H , 17-H ) :   0.1637
B(  8-O , 12-O ) :   0.1042 B( 11-H , 21-H ) :   0.1026 B( 13-C , 14-H ) :   0.1984
B( 13-C , 15-H ) :   0.1497 B( 13-C , 16-C ) :   1.1488 B( 13-C , 17-H ) :   0.7669
B( 13-C , 18-H ) :   0.7494 B( 13-C , 20-H ) :   0.1820 B( 14-H , 15-H ) :  -0.1360
B( 16-C , 17-H ) :   0.1966 B( 16-C , 18-H ) :   0.1863 B( 16-C , 19-C ) :   1.1707
B( 16-C , 20-H ) :   0.9973 B( 16-C , 21-H ) :   0.8674 B( 16-C , 23-H ) :   0.1484
B( 16-C , 24-H ) :   0.2572 B( 17-H , 26-H ) :   0.1017 B( 19-C , 22-C ) :   1.1291
B( 19-C , 23-H ) :   0.6965 B( 19-C , 24-H ) :   0.6960 B( 22-C , 23-H ) :   0.2227
B( 22-C , 24-H ) :   0.1156 B( 22-C , 25-C ) :   1.2462 B( 22-C , 26-H ) :   0.7932
B( 22-C , 27-H ) :   1.0565 B( 22-C , 28-C ) :   0.1124 B( 22-C , 29-H ) :   0.1024
B( 22-C , 30-H ) :   0.1375 B( 25-C , 26-H ) :   0.1036 B( 25-C , 27-H ) :   0.1719
B( 25-C , 28-C ) :   1.1262 B( 25-C , 29-H ) :   0.7104 B( 25-C , 30-H ) :   0.8169
B( 25-C , 32-H ) :   0.1911 B( 28-C , 29-H ) :   0.1193 B( 28-C , 31-H ) :   0.8464
B( 28-C , 32-H ) :   0.8412 B( 28-C , 34-H ) :   0.1928 B( 29-H , 30-H ) :   0.2887

Dispersion correction           -0.018521771
FINAL SINGLE POINT ENERGY     -1041.372787594414

DIPOLE MOMENT
-------------
                                X             Y             Z
Electronic contribution:     -9.56257     -19.49687     -11.04164
Nuclear contribution   :      8.71934      19.48829      12.54264
                        -----------------------------------------
Total Dipole Moment    :     -0.84323      -0.00858       1.50100
                        -----------------------------------------
Magnitude (a.u.)       :      1.72166
Magnitude (Debye)      :      4.37612

Rotational constants in cm-1:     0.025810     0.015137     0.010647
Rotational constants in MHz :   773.773140   453.802427   319.195213

                             ****ORCA TERMINATED NORMALLY****
TOTAL RUN TIME: 0 days 0 hours 1 minutes 41 seconds 174 msec
