                         Program Version 5.0.0 -  RELEASE  -
|  1> !TPSS D3BJ RIJCOSX def2-SVPD def2/J TightSCF
|  2> *xyz -1 1
|  3> C         -0.77894        0.17197        1.80496
|  4> C         -0.60249       -0.63071        0.49224
|  5> H          0.31389       -1.24035        0.60350
|  6> H         -0.36383        0.11332       -0.30117
|  7> O         -1.71206       -1.37684        0.20253
|  8> H         -1.65864        0.77733        1.73736
|  9> H          0.07466        0.79896        1.95712
| 10> H         -0.87474       -0.50584        2.62734
| 11> *
| 12> %MaxCore 64000
| 13>
| 14> %pal nprocs 4
| 15> end
| 16>
| 17> %scf
| 18>   MaxIter 150
| 19> end
| 20>
| 21>
| 22>                          ****END OF INPUT****

CARTESIAN COORDINATES (ANGSTROEM)
---------------------------------
  C     -0.778940    0.171970    1.804960
  C     -0.602490   -0.630710    0.492240
  H      0.313890   -1.240350    0.603500
  H     -0.363830    0.113320   -0.301170
  O     -1.712060   -1.376840    0.202530
  H     -1.658640    0.777330    1.737360
  H      0.074660    0.798960    1.957120
  H     -0.874740   -0.505840    2.627340

 Total Charge           Charge          ....   -1
 Multiplicity           Mult            ....    1
 Number of Electrons    NEL             ....   26
 Basis Dimension        Dim             ....  103

ORBITAL ENERGIES
----------------

  NO   OCC          E(Eh)            E(eV)
   0   2.0000     -18.573601      -505.4134
   1   2.0000      -9.816700      -267.1260
   2   2.0000      -9.793307      -266.4894
   3   2.0000      -0.606725       -16.5098
   4   2.0000      -0.462955       -12.5976
   5   2.0000      -0.320695        -8.7266
   6   2.0000      -0.208687        -5.6787
   7   2.0000      -0.186077        -5.0634
   8   2.0000      -0.133415        -3.6304
   9   2.0000      -0.121922        -3.3177
  10   2.0000      -0.072069        -1.9611
  11   2.0000       0.067812         1.8453
  12   2.0000       0.069278         1.8852
  13   0.0000       0.171365         4.6631
  14   0.0000       0.200978         5.4689
  15   0.0000       0.232894         6.3374
  16   0.0000       0.246164         6.6985
  17   0.0000       0.262965         7.1556

MULLIKEN ATOMIC CHARGES
-----------------------
   0 C :    0.149299
   1 C :    0.178612
   2 H :   -0.164152
   3 H :   -0.140427
   4 O :   -0.901115
   5 H :   -0.052545
   6 H :   -0.021079
   7 H :   -0.048594
Sum of atomic charges:   -1.0000000

LOEWDIN ATOMIC CHARGES
----------------------
   0 C :    0.068107
   1 C :   -0.246955
   2 H :   -0.043804
   3 H :   -0.042213
   4 O :   -0.564207
   5 H :   -0.048719
   6 H :   -0.071546
   7 H :   -0.050664

  Mayer bond orders larger than 0.100000
B(  0-C ,  1-C ) :   1.1644 B(  0-C ,  2-H ) :   0.1376 B(  0-C ,  3-H ) :   0.1409
B(  0-C ,  4-O ) :   0.2874 B(  0-C ,  5-H ) :   0.9361 B(  0-C ,  6-H ) :   0.9466
B(  0-C ,  7-H ) :   0.9380 B(  1-C ,  2-H ) :   0.9928 B(  1-C ,  3-H ) :   0.9810
B(  1-C ,  4-O ) :   1.0875 B(  1-C ,  5-H ) :   0.1712 B(  1-C ,  6-H ) :   0.1210
B(  1-C ,  7-H ) :   0.1577

Dispersion correction           -0.004555562
FINAL SINGLE POINT ENERGY      -154.348428529251

DIPOLE MOMENT
-------------
                                X             Y             Z
Electronic contribution:     -1.66149      -1.89861      -1.54627
Nuclear contribution   :      2.47835       2.80827       2.30058
                        -----------------------------------------
Total Dipole Moment    :      0.81685       0.90966       0.75431
                        -----------------------------------------
Magnitude (a.u.)       :      1.43657
Magnitude (Debye)      :      3.65146

Rotational constants in cm-1:     1.255775     0.327783     0.287473
Rotational constants in MHz : 37647.186859  9826.677683  8618.224821

                             ****ORCA TERMINATED NORMALLY****
TOTAL RUN TIME: 0 days 0 hours 0 minutes 8 seconds 89 msec
