                         Program Version 5.0.0 -  RELEASE  -
|  1> !TPSS D3BJ RIJCOSX def2-SVPD def2/J TightSCF
|  2> *xyz 1 1
|  3> C         -2.12050        0.88520        1.78951
|  4> C         -0.77894        0.17197        1.80496
|  5> H         -2.32419        1.47265        2.68608
|  6> H         -2.18770        1.54127        0.91948
|  7> N         -3.17690       -0.15948        1.61070
|  8> H         -4.06474        0.23127        1.28675
|  9> H         -3.34407       -0.67151        2.48493
| 10> H         -2.71686       -0.78189        0.93588
| 11> H         -0.65708       -0.37837        0.89547
| 12> H         -0.74207       -0.50050        2.63642
| 13> H          0.00707        0.89251        1.89389
| 14> *
| 15> %MaxCore 64000
| 16>
| 17> %pal nprocs 4
| 18> end
| 19>
| 20> %scf
| 21>   MaxIter 150
| 22> end
| 23>
| 24>
| 25>                          ****END OF INPUT****

CARTESIAN COORDINATES (ANGSTROEM)
---------------------------------
  C     -2.120500    0.885200    1.789510
  C     -0.778940    0.171970    1.804960
  H     -2.324190    1.472650    2.686080
  H     -2.187700    1.541270    0.919480
  N     -3.176900   -0.159480    1.610700
  H     -4.064740    0.231270    1.286750
  H     -3.344070   -0.671510    2.484930
  H     -2.716860   -0.781890    0.935880
  H     -0.657080   -0.378370    0.895470
  H     -0.742070   -0.500500    2.636420
  H      0.007070    0.892510    1.893890

 Total Charge           Charge          ....    1
 Multiplicity           Mult            ....    1
 Number of Electrons    NEL             ....   26
 Basis Dimension        Dim             ....  124

ORBITAL ENERGIES
----------------

  NO   OCC          E(Eh)            E(eV)
   0   2.0000     -14.451237      -393.2382
   1   2.0000     -10.257353      -279.1168
   2   2.0000     -10.185024      -277.1486
   3   2.0000      -1.147798       -31.2332
   4   2.0000      -0.908208       -24.7136
   5   2.0000      -0.794109       -21.6088
   6   2.0000      -0.760402       -20.6916
   7   2.0000      -0.749608       -20.3979
   8   2.0000      -0.651728       -17.7344
   9   2.0000      -0.606047       -16.4914
  10   2.0000      -0.548194       -14.9171
  11   2.0000      -0.542034       -14.7495
  12   2.0000      -0.522824       -14.2268
  13   0.0000      -0.206035        -5.6065
  14   0.0000      -0.149417        -4.0659
  15   0.0000      -0.148533        -4.0418
  16   0.0000      -0.134701        -3.6654
  17   0.0000      -0.105663        -2.8752

MULLIKEN ATOMIC CHARGES
-----------------------
   0 C :    0.200172
   1 C :    0.493446
   2 H :   -0.094490
   3 H :   -0.016047
   4 N :   -0.759742
   5 H :    0.331572
   6 H :    0.373941
   7 H :    0.459243
   8 H :    0.005057
   9 H :    0.055830
  10 H :   -0.048981
Sum of atomic charges:    1.0000000

LOEWDIN ATOMIC CHARGES
----------------------
   0 C :    0.068063
   1 C :    0.180121
   2 H :    0.050684
   3 H :    0.051472
   4 N :    0.336115
   5 H :    0.104447
   6 H :    0.107781
   7 H :    0.087215
   8 H :   -0.002143
   9 H :    0.002088
  10 H :    0.014158

  Mayer bond orders larger than 0.100000
B(  0-C ,  1-C ) :   1.2875 B(  0-C ,  2-H ) :   0.9734 B(  0-C ,  3-H ) :   0.9217
B(  0-C ,  4-N ) :   0.8249 B(  0-C ,  8-H ) :   0.1279 B(  0-C ,  9-H ) :   0.1151
B(  0-C , 10-H ) :   0.1688 B(  1-C ,  8-H ) :   0.8606 B(  1-C ,  9-H ) :   0.8362
B(  1-C , 10-H ) :   0.8829 B(  4-N ,  5-H ) :   0.7914 B(  4-N ,  6-H ) :   0.7805
B(  4-N ,  7-H ) :   0.6154

Dispersion correction           -0.007538507
FINAL SINGLE POINT ENERGY      -135.469683027618

DIPOLE MOMENT
-------------
                                X             Y             Z
Electronic contribution:     -1.81385      -0.15146      -0.05642
Nuclear contribution   :      0.50278      -0.30871      -0.06979
                        -----------------------------------------
Total Dipole Moment    :     -1.31107      -0.46018      -0.12621
                        -----------------------------------------
Magnitude (a.u.)       :      1.39520
Magnitude (Debye)      :      3.54632

Rotational constants in cm-1:     0.963746     0.295157     0.256910
Rotational constants in MHz : 28892.375247  8848.576767  7701.963879

                             ****ORCA TERMINATED NORMALLY****
TOTAL RUN TIME: 0 days 0 hours 0 minutes 8 seconds 847 msec
