                         Program Version 5.0.0 -  RELEASE  -
|  1> !TPSS D3BJ RIJCOSX def2-SVPD def2/J TightSCF xyzfile
|  2>
|  3> *xyzfile 0 1 B.xyz
|  4>
|  5> %MaxCore 64000
|  6>
|  7> %pal nprocs 4
|  8> end
|  9>
| 10> %scf
| 11>   MaxIter 150
| 12> end
| 13>
| 14>
| 15>                          ****END OF INPUT****

CARTESIAN COORDINATES (ANGSTROEM)
---------------------------------
  C     -2.120502    0.885196    1.789506
  C     -0.778939    0.171966    1.804965
  H     -2.324193    1.472649    2.686078
  H     -2.187698    1.541272    0.919482
  N     -3.176900   -0.159484    1.610700
  H      0.015695    0.910767    1.939153
  H     -0.743553   -0.506827    2.665420
  C     -0.602493   -0.630712    0.492240
  H      0.313894   -1.240346    0.603498
  H     -0.363829    0.113322   -0.301169
  O     -1.712061   -1.376836    0.202535
  H     -4.064736    0.231272    1.286754
  H     -3.344073   -0.671511    2.484928
  H     -2.716861   -0.781886    0.935880

 Total Charge           Charge          ....    0
 Multiplicity           Mult            ....    1
 Number of Electrons    NEL             ....   42
 Basis Dimension        Dim             ....  175

ORBITAL ENERGIES
----------------

  NO   OCC          E(Eh)            E(eV)
   0   2.0000     -18.776122      -510.9243
   1   2.0000     -14.198242      -386.3538
   2   2.0000     -10.065446      -273.8947
   3   2.0000     -10.000818      -272.1361
   4   2.0000      -9.996553      -272.0200
   5   2.0000      -0.922156       -25.0931
   6   2.0000      -0.820848       -22.3364
   7   2.0000      -0.710355       -19.3297
   8   2.0000      -0.600622       -16.3437
   9   2.0000      -0.545280       -14.8378
  10   2.0000      -0.527511       -14.3543
  11   2.0000      -0.497566       -13.5395
  12   2.0000      -0.445888       -12.1332
  13   2.0000      -0.398618       -10.8469
  14   2.0000      -0.366918        -9.9843
  15   2.0000      -0.364978        -9.9316
  16   2.0000      -0.321528        -8.7492
  17   2.0000      -0.305537        -8.3141
  18   2.0000      -0.277204        -7.5431
  19   2.0000      -0.146882        -3.9969
  20   2.0000      -0.137856        -3.7513
  21   0.0000      -0.025534        -0.6948
  22   0.0000       0.015556         0.4233
  23   0.0000       0.018010         0.4901
  24   0.0000       0.044031         1.1982
  25   0.0000       0.065012         1.7691

MULLIKEN ATOMIC CHARGES
-----------------------
   0 C :    0.548640
   1 C :   -0.058804
   2 H :   -0.217715
   3 H :    0.002644
   4 N :   -0.449728
   5 H :   -0.077443
   6 H :    0.025961
   7 C :    0.574273
   8 H :   -0.150274
   9 H :   -0.029546
  10 O :   -0.798564
  11 H :    0.259170
  12 H :    0.374110
  13 H :   -0.002724
Sum of atomic charges:   -0.0000000

LOEWDIN ATOMIC CHARGES
----------------------
   0 C :    0.082276
   1 C :   -0.013536
   2 H :    0.018374
   3 H :    0.037857
   4 N :    0.306408
   5 H :    0.017356
   6 H :    0.019406
   7 C :   -0.064544
   8 H :    0.003700
   9 H :    0.003627
  10 O :   -0.383384
  11 H :    0.073547
  12 H :    0.081382
  13 H :   -0.182469

  Mayer bond orders larger than 0.100000
B(  0-C ,  1-C ) :   1.1534 B(  0-C ,  2-H ) :   0.9282 B(  0-C ,  3-H ) :   0.8693
B(  0-C ,  4-N ) :   0.8473 B(  0-C ,  5-H ) :   0.1026 B(  1-C ,  5-H ) :   0.9469
B(  1-C ,  6-H ) :   0.9068 B(  1-C ,  7-C ) :   1.1353 B(  1-C ,  8-H ) :   0.1328
B(  1-C ,  9-H ) :   0.1094 B(  2-H ,  4-N ) :   0.1430 B(  4-N , 11-H ) :   0.8618
B(  4-N , 12-H ) :   0.7758 B(  4-N , 13-H ) :   0.9852 B(  5-H ,  7-C ) :   0.1170
B(  7-C ,  8-H ) :   0.9240 B(  7-C ,  9-H ) :   0.9147 B(  7-C , 10-O ) :   1.0115
B( 10-O , 13-H ) :   0.4939

Dispersion correction           -0.012737707
FINAL SINGLE POINT ENERGY      -249.540965956417

DIPOLE MOMENT
-------------
                                X             Y             Z
Electronic contribution:     -1.49479      -1.48527      -0.82701
Nuclear contribution   :      0.08650       3.01678       2.47433
                        -----------------------------------------
Total Dipole Moment    :     -1.40829       1.53151       1.64732
                        -----------------------------------------
Magnitude (a.u.)       :      2.65376
Magnitude (Debye)      :      6.74533

Rotational constants in cm-1:     0.238796     0.156489     0.106146
Rotational constants in MHz :  7158.916762  4691.413084  3182.185740

                             ****ORCA TERMINATED NORMALLY****
TOTAL RUN TIME: 0 days 0 hours 0 minutes 14 seconds 3 msec
