                         Program Version 5.0.0 -  RELEASE  -
|  1> !TPSS D3BJ RIJCOSX def2-SVPD def2/J TightSCF
|  2> *xyz 0 1
|  3> C         -0.77894        0.17197        1.80496
|  4> C         -0.60249       -0.63071        0.49224
|  5> H          0.31389       -1.24035        0.60350
|  6> H         -0.36383        0.11332       -0.30117
|  7> F         -1.71206       -1.37684        0.20253
|  8> H         -1.65864        0.77733        1.73736
|  9> H          0.07466        0.79896        1.95712
| 10> H         -0.87474       -0.50584        2.62734
| 11> *
| 12> %MaxCore 64000
| 13>
| 14> %pal nprocs 4
| 15> end
| 16>
| 17> %scf
| 18>   MaxIter 150
| 19> end
| 20>
| 21>
| 22>                          ****END OF INPUT****

CARTESIAN COORDINATES (ANGSTROEM)
---------------------------------
  C     -0.778940    0.171970    1.804960
  C     -0.602490   -0.630710    0.492240
  H      0.313890   -1.240350    0.603500
  H     -0.363830    0.113320   -0.301170
  F     -1.712060   -1.376840    0.202530
  H     -1.658640    0.777330    1.737360
  H      0.074660    0.798960    1.957120
  H     -0.874740   -0.505840    2.627340

 Total Charge           Charge          ....    0
 Multiplicity           Mult            ....    1
 Number of Electrons    NEL             ....   26
 Basis Dimension        Dim             ....  103

ORBITAL ENERGIES
----------------

  NO   OCC          E(Eh)            E(eV)
   0   2.0000     -24.417094      -664.4229
   1   2.0000     -10.081340      -274.3272
   2   2.0000      -9.999426      -272.0982
   3   2.0000      -1.108272       -30.1576
   4   2.0000      -0.700990       -19.0749
   5   2.0000      -0.577281       -15.7086
   6   2.0000      -0.462790       -12.5932
   7   2.0000      -0.448706       -12.2099
   8   2.0000      -0.409068       -11.1313
   9   2.0000      -0.363614        -9.8944
  10   2.0000      -0.361878        -9.8472
  11   2.0000      -0.293190        -7.9781
  12   2.0000      -0.291400        -7.9294
  13   0.0000       0.012809         0.3486
  14   0.0000       0.044104         1.2001
  15   0.0000       0.058926         1.6035
  16   0.0000       0.069428         1.8892
  17   0.0000       0.093946         2.5564

MULLIKEN ATOMIC CHARGES
-----------------------
   0 C :    0.246731
   1 C :    0.409118
   2 H :   -0.058676
   3 H :   -0.034721
   4 F :   -0.452374
   5 H :   -0.046699
   6 H :   -0.021066
   7 H :   -0.042313
Sum of atomic charges:   -0.0000000

LOEWDIN ATOMIC CHARGES
----------------------
   0 C :    0.146400
   1 C :    0.072650
   2 H :    0.023567
   3 H :    0.026454
   4 F :   -0.209734
   5 H :   -0.019488
   6 H :   -0.019092
   7 H :   -0.020757

  Mayer bond orders larger than 0.100000
B(  0-C ,  1-C ) :   1.3247 B(  0-C ,  5-H ) :   0.9093 B(  0-C ,  6-H ) :   0.8775
B(  0-C ,  7-H ) :   0.9112 B(  1-C ,  2-H ) :   0.9533 B(  1-C ,  3-H ) :   0.9442
B(  1-C ,  4-F ) :   0.7279 B(  1-C ,  5-H ) :   0.1340 B(  1-C ,  6-H ) :   0.1071
B(  1-C ,  7-H ) :   0.1238

Dispersion correction           -0.004201306
FINAL SINGLE POINT ENERGY      -178.961076264330

DIPOLE MOMENT
-------------
                                X             Y             Z
Electronic contribution:     -2.74654      -3.29847      -2.82705
Nuclear contribution   :      3.27800       3.70743       3.04146
                        -----------------------------------------
Total Dipole Moment    :      0.53146       0.40896       0.21441
                        -----------------------------------------
Magnitude (a.u.)       :      0.70404
Magnitude (Debye)      :      1.78952

Rotational constants in cm-1:     1.234437     0.305084     0.268865
Rotational constants in MHz : 37007.496448  9146.194083  8060.380630

                             ****ORCA TERMINATED NORMALLY****
TOTAL RUN TIME: 0 days 0 hours 0 minutes 7 seconds 45 msec
