                         Program Version 5.0.0 -  RELEASE  -
|  1> !TPSS D3BJ RIJCOSX def2-SVPD def2/J TightSCF
|  2> *xyz 0 1
|  3> C         -2.12050        0.88520        1.78951
|  4> C         -0.77894        0.17197        1.80496
|  5> H         -2.32419        1.47265        2.68608
|  6> H         -2.18770        1.54127        0.91948
|  7> C         -3.17690       -0.15948        1.61070
|  8> H         -4.06474        0.23127        1.28675
|  9> H         -3.34407       -0.67151        2.48493
| 10> H         -2.71686       -0.78189        0.93588
| 11> H         -0.65708       -0.37837        0.89547
| 12> H         -0.74207       -0.50050        2.63642
| 13> H          0.00707        0.89251        1.89389
| 14> *
| 15> %MaxCore 64000
| 16>
| 17> %pal nprocs 4
| 18> end
| 19>
| 20> %scf
| 21>   MaxIter 150
| 22> end
| 23>
| 24>
| 25>                          ****END OF INPUT****

CARTESIAN COORDINATES (ANGSTROEM)
---------------------------------
  C     -2.120500    0.885200    1.789510
  C     -0.778940    0.171970    1.804960
  H     -2.324190    1.472650    2.686080
  H     -2.187700    1.541270    0.919480
  C     -3.176900   -0.159480    1.610700
  H     -4.064740    0.231270    1.286750
  H     -3.344070   -0.671510    2.484930
  H     -2.716860   -0.781890    0.935880
  H     -0.657080   -0.378370    0.895470
  H     -0.742070   -0.500500    2.636420
  H      0.007070    0.892510    1.893890

 Total Charge           Charge          ....    0
 Multiplicity           Mult            ....    1
 Number of Electrons    NEL             ....   26
 Basis Dimension        Dim             ....  124

ORBITAL ENERGIES
----------------

  NO   OCC          E(Eh)            E(eV)
   0   2.0000      -9.987791      -271.7816
   1   2.0000      -9.982339      -271.6333
   2   2.0000      -9.963379      -271.1173
   3   2.0000      -0.731690       -19.9103
   4   2.0000      -0.628093       -17.0913
   5   2.0000      -0.533796       -14.5253
   6   2.0000      -0.429569       -11.6892
   7   2.0000      -0.411552       -11.1989
   8   2.0000      -0.361275        -9.8308
   9   2.0000      -0.347580        -9.4581
  10   2.0000      -0.304068        -8.2741
  11   2.0000      -0.295758        -8.0480
  12   2.0000      -0.292894        -7.9701
  13   0.0000       0.018016         0.4902
  14   0.0000       0.046688         1.2705
  15   0.0000       0.052439         1.4269
  16   0.0000       0.071733         1.9519
  17   0.0000       0.092126         2.5069

MULLIKEN ATOMIC CHARGES
-----------------------
   0 C :   -0.565071
   1 C :    0.494279
   2 H :   -0.135486
   3 H :   -0.021013
   4 C :    0.903333
   5 H :   -0.252715
   6 H :   -0.141338
   7 H :   -0.154504
   8 H :    0.004096
   9 H :   -0.006834
  10 H :   -0.124747
Sum of atomic charges:   -0.0000000

LOEWDIN ATOMIC CHARGES
----------------------
   0 C :   -0.107456
   1 C :    0.118776
   2 H :    0.015709
   3 H :    0.018326
   4 C :    0.128414
   5 H :   -0.037496
   6 H :   -0.030874
   7 H :   -0.044569
   8 H :   -0.019817
   9 H :   -0.015012
  10 H :   -0.026002

  Mayer bond orders larger than 0.100000
B(  0-C ,  1-C ) :   1.2425 B(  0-C ,  2-H ) :   1.0152 B(  0-C ,  3-H ) :   0.9271
B(  0-C ,  4-C ) :   1.2236 B(  0-C ,  5-H ) :   0.1797 B(  0-C ,  6-H ) :   0.2021
B(  0-C ,  7-H ) :   0.2522 B(  0-C ,  8-H ) :   0.1360 B(  0-C ,  9-H ) :   0.1509
B(  0-C , 10-H ) :   0.1716 B(  1-C ,  8-H ) :   0.8606 B(  1-C ,  9-H ) :   0.8448
B(  1-C , 10-H ) :   0.8837 B(  4-C ,  5-H ) :   0.7843 B(  4-C ,  6-H ) :   0.7340
B(  4-C ,  7-H ) :   0.7699

Dispersion correction           -0.007560930
FINAL SINGLE POINT ENERGY      -119.068601576147

DIPOLE MOMENT
-------------
                                X             Y             Z
Electronic contribution:     -0.14570       0.47060       0.11255
Nuclear contribution   :      0.13334      -0.45108      -0.10852
                        -----------------------------------------
Total Dipole Moment    :     -0.01236       0.01951       0.00404
                        -----------------------------------------
Magnitude (a.u.)       :      0.02345
Magnitude (Debye)      :      0.05960

Rotational constants in cm-1:     0.972269     0.310387     0.269029
Rotational constants in MHz : 29147.878530  9305.178981  8065.286472

                             ****ORCA TERMINATED NORMALLY****
TOTAL RUN TIME: 0 days 0 hours 0 minutes 8 seconds 791 msec
