                         Program Version 5.0.0 -  RELEASE  -
|  1> !LC-BLYP RIJCOSX def2-SVP def2/J TightSCF
|  2> *xyz -1 1
|  3> C         -2.79070       -0.78527        5.70281
|  4> C         -2.45380        0.05510        6.94145
|  5> C         -2.07842        1.48042        6.56410
|  6> H         -1.62558       -0.38216        7.49891
|  7> H         -3.32527        0.08775        7.59917
|  8> O         -0.90125        1.85816        6.82810
|  9> O         -2.93658        2.17731        5.96415
| 10> H         -1.94052       -0.82114        5.05412
| 11> H         -3.61590       -0.34261        5.18514
| 12> H         -3.05063       -1.77815        6.00536
| 13> *
| 14> %MaxCore 64000
| 15>
| 16> %pal nprocs 4
| 17> end
| 18>
| 19> %scf
| 20>   MaxIter 150
| 21> end
| 22>
| 23>
| 24>                          ****END OF INPUT****

CARTESIAN COORDINATES (ANGSTROEM)
---------------------------------
  C     -2.790700   -0.785270    5.702810
  C     -2.453800    0.055100    6.941450
  C     -2.078420    1.480420    6.564100
  H     -1.625580   -0.382160    7.498910
  H     -3.325270    0.087750    7.599170
  O     -0.901250    1.858160    6.828100
  O     -2.936580    2.177310    5.964150
  H     -1.940520   -0.821140    5.054120
  H     -3.615900   -0.342610    5.185140
  H     -3.050630   -1.778150    6.005360

 Total Charge           Charge          ....   -1
 Multiplicity           Mult            ....    1
 Number of Electrons    NEL             ....   40
 Basis Dimension        Dim             ....   95

ORBITAL ENERGIES
----------------

  NO   OCC          E(Eh)            E(eV)
   0   2.0000     -18.645143      -507.3601
   1   2.0000     -18.642558      -507.2898
   2   2.0000      -9.933697      -270.3096
   3   2.0000      -9.914511      -269.7876
   4   2.0000      -9.892200      -269.1804
   5   2.0000      -0.860444       -23.4139
   6   2.0000      -0.763189       -20.7674
   7   2.0000      -0.694488       -18.8980
   8   2.0000      -0.561209       -15.2713
   9   2.0000      -0.405530       -11.0350
  10   2.0000      -0.384496       -10.4627
  11   2.0000      -0.335982        -9.1425
  12   2.0000      -0.311981        -8.4894
  13   2.0000      -0.293091        -7.9754
  14   2.0000      -0.279121        -7.5953
  15   2.0000      -0.243573        -6.6280
  16   2.0000      -0.235811        -6.4168
  17   2.0000      -0.103355        -2.8124
  18   2.0000      -0.102198        -2.7810
  19   2.0000      -0.083641        -2.2760
  20   0.0000       0.287688         7.8284
  21   0.0000       0.339809         9.2467
  22   0.0000       0.356525         9.7015
  23   0.0000       0.357416         9.7258
  24   0.0000       0.370543        10.0830

MULLIKEN ATOMIC CHARGES
-----------------------
   0 C :    0.020881
   1 C :    0.054763
   2 C :   -0.121777
   3 H :   -0.064945
   4 H :   -0.053402
   5 O :   -0.375648
   6 O :   -0.376027
   7 H :   -0.018122
   8 H :   -0.011048
   9 H :   -0.054673
Sum of atomic charges:   -1.0000000

LOEWDIN ATOMIC CHARGES
----------------------
   0 C :   -0.072869
   1 C :   -0.095793
   2 C :   -0.086505
   3 H :   -0.001763
   4 H :    0.004305
   5 O :   -0.386161
   6 O :   -0.384534
   7 H :    0.013785
   8 H :    0.013589
   9 H :   -0.004054

  Mayer bond orders larger than 0.100000
B(  0-C ,  1-C ) :   1.1016 B(  0-C ,  7-H ) :   0.9704 B(  0-C ,  8-H ) :   0.9599
B(  0-C ,  9-H ) :   0.9637 B(  1-C ,  2-C ) :   0.9218 B(  1-C ,  3-H ) :   0.9288
B(  1-C ,  4-H ) :   0.9288 B(  2-C ,  5-O ) :   1.9270 B(  2-C ,  6-O ) :   1.8975
B(  5-O ,  6-O ) :   0.1219

FINAL SINGLE POINT ENERGY      -267.005573531016

DIPOLE MOMENT
-------------
                                X             Y             Z
Electronic contribution:      1.70111       5.75541       0.63671
Nuclear contribution   :     -2.24498      -7.51881      -0.57245
                        -----------------------------------------
Total Dipole Moment    :     -0.54387      -1.76340       0.06426
                        -----------------------------------------
Magnitude (a.u.)       :      1.84648
Magnitude (Debye)      :      4.69339

Rotational constants in cm-1:     0.305589     0.135336     0.107479
Rotational constants in MHz :  9161.317320  4057.276612  3222.126231

                             ****ORCA TERMINATED NORMALLY****
TOTAL RUN TIME: 0 days 0 hours 0 minutes 12 seconds 628 msec
