                         Program Version 5.0.0 -  RELEASE  -
|  1> !LC-BLYP RIJCOSX def2-SVP def2/J TightSCF
|  2> *xyz 1 1
|  3> C         -0.69912        3.48945        3.75516
|  4> H         -0.96672        4.34901        3.14049
|  5> N         -1.08067        3.79296        5.15686
|  6> C          0.77696        3.13839        3.61741
|  7> H         -1.33146        2.65651        3.44632
|  8> H         -0.87449        4.76274        5.42734
|  9> H         -0.68079        3.13476        5.83900
| 10> H         -2.05755        3.53169        5.34620
| 11> H          0.99957        2.92898        2.59199
| 12> H          0.99576        2.27685        4.21303
| 13> H          1.37223        3.96279        3.95046
| 14> *
| 15> %MaxCore 64000
| 16>
| 17> %pal nprocs 4
| 18> end
| 19>
| 20> %scf
| 21>   MaxIter 150
| 22> end
| 23>
| 24>
| 25>                          ****END OF INPUT****

CARTESIAN COORDINATES (ANGSTROEM)
---------------------------------
  C     -0.699120    3.489450    3.755160
  H     -0.966720    4.349010    3.140490
  N     -1.080670    3.792960    5.156860
  C      0.776960    3.138390    3.617410
  H     -1.331460    2.656510    3.446320
  H     -0.874490    4.762740    5.427340
  H     -0.680790    3.134760    5.839000
  H     -2.057550    3.531690    5.346200
  H      0.999570    2.928980    2.591990
  H      0.995760    2.276850    4.213030
  H      1.372230    3.962790    3.950460

 Total Charge           Charge          ....    1
 Multiplicity           Mult            ....    1
 Number of Electrons    NEL             ....   26
 Basis Dimension        Dim             ....   82

ORBITAL ENERGIES
----------------

  NO   OCC          E(Eh)            E(eV)
   0   2.0000     -14.524430      -395.2298
   1   2.0000     -10.338109      -281.3143
   2   2.0000     -10.258749      -279.1548
   3   2.0000      -1.312058       -35.7029
   4   2.0000      -1.069143       -29.0929
   5   2.0000      -0.949214       -25.8294
   6   2.0000      -0.921278       -25.0692
   7   2.0000      -0.872480       -23.7414
   8   2.0000      -0.801775       -21.8174
   9   2.0000      -0.745595       -20.2887
  10   2.0000      -0.680548       -18.5186
  11   2.0000      -0.665627       -18.1126
  12   2.0000      -0.646127       -17.5820
  13   0.0000      -0.114873        -3.1259
  14   0.0000      -0.052524        -1.4292
  15   0.0000      -0.049647        -1.3510
  16   0.0000      -0.017237        -0.4690
  17   0.0000       0.025347         0.6897

MULLIKEN ATOMIC CHARGES
-----------------------
   0 C :   -0.058935
   1 H :    0.106056
   2 N :    0.014114
   3 C :   -0.020392
   4 H :    0.096573
   5 H :    0.229352
   6 H :    0.205526
   7 H :    0.215143
   8 H :    0.095569
   9 H :    0.057481
  10 H :    0.059514
Sum of atomic charges:    1.0000000

LOEWDIN ATOMIC CHARGES
----------------------
   0 C :    0.035515
   1 H :    0.061547
   2 N :    0.284900
   3 C :   -0.053584
   4 H :    0.058122
   5 H :    0.152656
   6 H :    0.149123
   7 H :    0.155141
   8 H :    0.068449
   9 H :    0.043382
  10 H :    0.044750

  Mayer bond orders larger than 0.100000
B(  0-C ,  1-H ) :   0.9507 B(  0-C ,  2-N ) :   0.9386 B(  0-C ,  3-C ) :   1.1071
B(  0-C ,  4-H ) :   0.9536 B(  2-N ,  5-H ) :   0.9303 B(  2-N ,  6-H ) :   0.9299
B(  2-N ,  7-H ) :   0.9313 B(  3-C ,  8-H ) :   0.9548 B(  3-C ,  9-H ) :   0.9653
B(  3-C , 10-H ) :   0.9694

FINAL SINGLE POINT ENERGY      -135.029287774741

DIPOLE MOMENT
-------------
                                X             Y             Z
Electronic contribution:     -1.37105       0.58874       1.16227
Nuclear contribution   :      0.33986      -0.24565       0.10678
                        -----------------------------------------
Total Dipole Moment    :     -1.03119       0.34308       1.26905
                        -----------------------------------------
Magnitude (a.u.)       :      1.67079
Magnitude (Debye)      :      4.24682

Rotational constants in cm-1:     1.016237     0.277523     0.247812
Rotational constants in MHz : 30466.024354  8319.937961  7429.230177

                             ****ORCA TERMINATED NORMALLY****
TOTAL RUN TIME: 0 days 0 hours 0 minutes 8 seconds 832 msec
