                         Program Version 5.0.0 -  RELEASE  -
|  1> !LC-BLYP RIJCOSX def2-SVP def2/J TightSCF
|  2> *xyz 0 1
|  3> C         -2.79070       -0.78527        5.70281
|  4> C         -2.45380        0.05510        6.94145
|  5> C         -2.07842        1.48042        6.56410
|  6> H         -1.62558       -0.38216        7.49891
|  7> H         -3.32527        0.08775        7.59917
|  8> F         -0.90125        1.85816        6.82810
|  9> O         -2.93658        2.17731        5.96415
| 10> H         -1.94052       -0.82114        5.05412
| 11> H         -3.61590       -0.34261        5.18514
| 12> H         -3.05063       -1.77815        6.00536
| 13> *
| 14> %MaxCore 64000
| 15>
| 16> %pal nprocs 4
| 17> end
| 18>
| 19> %scf
| 20>   MaxIter 150
| 21> end
| 22>
| 23>
| 24>                          ****END OF INPUT****

CARTESIAN COORDINATES (ANGSTROEM)
---------------------------------
  C     -2.790700   -0.785270    5.702810
  C     -2.453800    0.055100    6.941450
  C     -2.078420    1.480420    6.564100
  H     -1.625580   -0.382160    7.498910
  H     -3.325270    0.087750    7.599170
  F     -0.901250    1.858160    6.828100
  O     -2.936580    2.177310    5.964150
  H     -1.940520   -0.821140    5.054120
  H     -3.615900   -0.342610    5.185140
  H     -3.050630   -1.778150    6.005360

 Total Charge           Charge          ....    0
 Multiplicity           Mult            ....    1
 Number of Electrons    NEL             ....   40
 Basis Dimension        Dim             ....   95

ORBITAL ENERGIES
----------------

  NO   OCC          E(Eh)            E(eV)
   0   2.0000     -24.522169      -667.2821
   1   2.0000     -18.948951      -515.6272
   2   2.0000     -10.253926      -279.0235
   3   2.0000     -10.112217      -275.1674
   4   2.0000     -10.089882      -274.5596
   5   2.0000      -1.364316       -37.1249
   6   2.0000      -1.103506       -30.0279
   7   2.0000      -0.900953       -24.5162
   8   2.0000      -0.782568       -21.2947
   9   2.0000      -0.728004       -19.8100
  10   2.0000      -0.643765       -17.5177
  11   2.0000      -0.626195       -17.0396
  12   2.0000      -0.599298       -16.3077
  13   2.0000      -0.563753       -15.3405
  14   2.0000      -0.528104       -14.3704
  15   2.0000      -0.495901       -13.4941
  16   2.0000      -0.473129       -12.8745
  17   2.0000      -0.467896       -12.7321
  18   2.0000      -0.438886       -11.9427
  19   2.0000      -0.382347       -10.4042
  20   0.0000       0.064974         1.7680
  21   0.0000       0.133410         3.6303
  22   0.0000       0.178129         4.8471
  23   0.0000       0.183303         4.9879
  24   0.0000       0.203596         5.5401

MULLIKEN ATOMIC CHARGES
-----------------------
   0 C :    0.002191
   1 C :   -0.038058
   2 C :    0.107478
   3 H :    0.018320
   4 H :    0.054870
   5 F :   -0.032962
   6 O :   -0.197771
   7 H :    0.020945
   8 H :    0.041101
   9 H :    0.023886
Sum of atomic charges:   -0.0000000

LOEWDIN ATOMIC CHARGES
----------------------
   0 C :   -0.050356
   1 C :   -0.079228
   2 C :    0.071910
   3 H :    0.031295
   4 H :    0.053547
   5 F :    0.053607
   6 O :   -0.177455
   7 H :    0.029598
   8 H :    0.035229
   9 H :    0.031853

  Mayer bond orders larger than 0.100000
B(  0-C ,  1-C ) :   1.0974 B(  0-C ,  7-H ) :   0.9755 B(  0-C ,  8-H ) :   0.9690
B(  0-C ,  9-H ) :   0.9684 B(  1-C ,  2-C ) :   0.9949 B(  1-C ,  3-H ) :   0.9354
B(  1-C ,  4-H ) :   0.9319 B(  2-C ,  5-F ) :   1.2562 B(  2-C ,  6-O ) :   2.1360

FINAL SINGLE POINT ENERGY      -291.552605572781

DIPOLE MOMENT
-------------
                                X             Y             Z
Electronic contribution:      3.96774       7.52540       1.46844
Nuclear contribution   :     -3.69486      -8.49563      -1.04945
                        -----------------------------------------
Total Dipole Moment    :      0.27289      -0.97023       0.41899
                        -----------------------------------------
Magnitude (a.u.)       :      1.09149
Magnitude (Debye)      :      2.77436

Rotational constants in cm-1:     0.293725     0.129218     0.102393
Rotational constants in MHz :  8805.653529  3873.869810  3069.666716

                             ****ORCA TERMINATED NORMALLY****
TOTAL RUN TIME: 0 days 0 hours 0 minutes 11 seconds 250 msec
