                         Program Version 5.0.0 -  RELEASE  -
|  1> !LC-BLYP RIJCOSX def2-SVP def2/J TightSCF
|  2> *xyz 0 1
|  3> C         -0.69912        3.48945        3.75516
|  4> H         -0.96672        4.34901        3.14049
|  5> C         -1.08067        3.79296        5.15686
|  6> C          0.77696        3.13839        3.61741
|  7> H         -1.33146        2.65651        3.44632
|  8> H         -0.87449        4.76274        5.42734
|  9> H         -0.68079        3.13476        5.83900
| 10> H         -2.05755        3.53169        5.34620
| 11> H          0.99957        2.92898        2.59199
| 12> H          0.99576        2.27685        4.21303
| 13> H          1.37223        3.96279        3.95046
| 14> *
| 15> %MaxCore 64000
| 16>
| 17> %pal nprocs 4
| 18> end
| 19>
| 20> %scf
| 21>   MaxIter 150
| 22> end
| 23>
| 24>
| 25>                          ****END OF INPUT****

CARTESIAN COORDINATES (ANGSTROEM)
---------------------------------
  C     -0.699120    3.489450    3.755160
  H     -0.966720    4.349010    3.140490
  C     -1.080670    3.792960    5.156860
  C      0.776960    3.138390    3.617410
  H     -1.331460    2.656510    3.446320
  H     -0.874490    4.762740    5.427340
  H     -0.680790    3.134760    5.839000
  H     -2.057550    3.531690    5.346200
  H      0.999570    2.928980    2.591990
  H      0.995760    2.276850    4.213030
  H      1.372230    3.962790    3.950460

 Total Charge           Charge          ....    0
 Multiplicity           Mult            ....    1
 Number of Electrons    NEL             ....   26
 Basis Dimension        Dim             ....   82

ORBITAL ENERGIES
----------------

  NO   OCC          E(Eh)            E(eV)
   0   2.0000     -10.070238      -274.0251
   1   2.0000     -10.062420      -273.8124
   2   2.0000     -10.046521      -273.3797
   3   2.0000      -0.891846       -24.2684
   4   2.0000      -0.791200       -21.5296
   5   2.0000      -0.687730       -18.7141
   6   2.0000      -0.575918       -15.6715
   7   2.0000      -0.542036       -14.7495
   8   2.0000      -0.499479       -13.5915
   9   2.0000      -0.494186       -13.4475
  10   2.0000      -0.435872       -11.8607
  11   2.0000      -0.422429       -11.4949
  12   2.0000      -0.420704       -11.4479
  13   0.0000       0.133984         3.6459
  14   0.0000       0.182864         4.9760
  15   0.0000       0.187497         5.1020
  16   0.0000       0.188920         5.1408
  17   0.0000       0.221055         6.0152

MULLIKEN ATOMIC CHARGES
-----------------------
   0 C :   -0.051373
   1 H :    0.003529
   2 C :    0.064877
   3 C :    0.015820
   4 H :   -0.001912
   5 H :   -0.000369
   6 H :   -0.027155
   7 H :   -0.022271
   8 H :    0.006435
   9 H :    0.006006
  10 H :    0.006414
Sum of atomic charges:   -0.0000000

LOEWDIN ATOMIC CHARGES
----------------------
   0 C :   -0.047402
   1 H :    0.023958
   2 C :   -0.065522
   3 C :   -0.064839
   4 H :    0.023265
   5 H :    0.017746
   6 H :    0.019375
   7 H :    0.023018
   8 H :    0.023905
   9 H :    0.023078
  10 H :    0.023417

  Mayer bond orders larger than 0.100000
B(  0-C ,  1-H ) :   0.9553 B(  0-C ,  2-C ) :   1.1162 B(  0-C ,  3-C ) :   1.1080
B(  0-C ,  4-H ) :   0.9555 B(  2-C ,  5-H ) :   0.9700 B(  2-C ,  6-H ) :   0.9531
B(  2-C ,  7-H ) :   0.9516 B(  3-C ,  8-H ) :   0.9682 B(  3-C ,  9-H ) :   0.9713
B(  3-C , 10-H ) :   0.9745

FINAL SINGLE POINT ENERGY      -118.637705340613

DIPOLE MOMENT
-------------
                                X             Y             Z
Electronic contribution:     -0.13671       0.11838      -0.39254
Nuclear contribution   :      0.10024      -0.14218       0.41628
                        -----------------------------------------
Total Dipole Moment    :     -0.03647      -0.02380       0.02375
                        -----------------------------------------
Magnitude (a.u.)       :      0.04960
Magnitude (Debye)      :      0.12608

Rotational constants in cm-1:     1.024179     0.291605     0.259489
Rotational constants in MHz : 30704.103454  8742.106283  7779.285909

                             ****ORCA TERMINATED NORMALLY****
TOTAL RUN TIME: 0 days 0 hours 0 minutes 9 seconds 664 msec
