                         Program Version 5.0.0 -  RELEASE  -
|  1> !LC-BLYP RIJCOSX def2-SVP def2/J TightSCF
|  2> *xyz 0 1
|  3> C         -2.79070       -0.78527        5.70281
|  4> C         -2.45380        0.05510        6.94145
|  5> C         -2.07842        1.48042        6.56410
|  6> H         -1.62558       -0.38216        7.49891
|  7> H         -3.32527        0.08775        7.59917
|  8> O         -0.90125        1.85816        6.82810
|  9> F         -2.93658        2.17731        5.96415
| 10> H         -1.94052       -0.82114        5.05412
| 11> H         -3.61590       -0.34261        5.18514
| 12> H         -3.05063       -1.77815        6.00536
| 13> *
| 14> %MaxCore 64000
| 15>
| 16> %pal nprocs 4
| 17> end
| 18>
| 19> %scf
| 20>   MaxIter 150
| 21> end
| 22>
| 23>
| 24>                          ****END OF INPUT****

CARTESIAN COORDINATES (ANGSTROEM)
---------------------------------
  C     -2.790700   -0.785270    5.702810
  C     -2.453800    0.055100    6.941450
  C     -2.078420    1.480420    6.564100
  H     -1.625580   -0.382160    7.498910
  H     -3.325270    0.087750    7.599170
  O     -0.901250    1.858160    6.828100
  F     -2.936580    2.177310    5.964150
  H     -1.940520   -0.821140    5.054120
  H     -3.615900   -0.342610    5.185140
  H     -3.050630   -1.778150    6.005360

 Total Charge           Charge          ....    0
 Multiplicity           Mult            ....    1
 Number of Electrons    NEL             ....   40
 Basis Dimension        Dim             ....   95

ORBITAL ENERGIES
----------------

  NO   OCC          E(Eh)            E(eV)
   0   2.0000     -24.526195      -667.3917
   1   2.0000     -18.946186      -515.5519
   2   2.0000     -10.253306      -279.0066
   3   2.0000     -10.111401      -275.1452
   4   2.0000     -10.093883      -274.6685
   5   2.0000      -1.370053       -37.2810
   6   2.0000      -1.098060       -29.8797
   7   2.0000      -0.904090       -24.6015
   8   2.0000      -0.780012       -21.2252
   9   2.0000      -0.734905       -19.9978
  10   2.0000      -0.648021       -17.6335
  11   2.0000      -0.632801       -17.2194
  12   2.0000      -0.593669       -16.1545
  13   2.0000      -0.562948       -15.3186
  14   2.0000      -0.530119       -14.4253
  15   2.0000      -0.498484       -13.5644
  16   2.0000      -0.476038       -12.9536
  17   2.0000      -0.470581       -12.8051
  18   2.0000      -0.439599       -11.9621
  19   2.0000      -0.375616       -10.2210
  20   0.0000       0.068365         1.8603
  21   0.0000       0.129521         3.5245
  22   0.0000       0.175549         4.7769
  23   0.0000       0.185169         5.0387
  24   0.0000       0.206422         5.6170

MULLIKEN ATOMIC CHARGES
-----------------------
   0 C :   -0.017905
   1 C :   -0.029778
   2 C :    0.105224
   3 H :    0.045445
   4 H :    0.036613
   5 O :   -0.198246
   6 F :   -0.029263
   7 H :    0.032643
   8 H :    0.025872
   9 H :    0.029395
Sum of atomic charges:    0.0000000

LOEWDIN ATOMIC CHARGES
----------------------
   0 C :   -0.058306
   1 C :   -0.075492
   2 C :    0.069459
   3 H :    0.047506
   4 H :    0.042382
   5 O :   -0.180705
   6 F :    0.060204
   7 H :    0.032400
   8 H :    0.028282
   9 H :    0.034269

  Mayer bond orders larger than 0.100000
B(  0-C ,  1-C ) :   1.0815 B(  0-C ,  7-H ) :   0.9752 B(  0-C ,  8-H ) :   0.9725
B(  0-C ,  9-H ) :   0.9679 B(  1-C ,  2-C ) :   1.0055 B(  1-C ,  3-H ) :   0.9460
B(  1-C ,  4-H ) :   0.9294 B(  2-C ,  5-O ) :   2.1478 B(  2-C ,  6-F ) :   1.2504

FINAL SINGLE POINT ENERGY      -291.549722978582

DIPOLE MOMENT
-------------
                                X             Y             Z
Electronic contribution:      0.63394       8.03470       0.04860
Nuclear contribution   :     -1.47571      -8.84360      -0.10748
                        -----------------------------------------
Total Dipole Moment    :     -0.84177      -0.80890      -0.05888
                        -----------------------------------------
Magnitude (a.u.)       :      1.16892
Magnitude (Debye)      :      2.97115

Rotational constants in cm-1:     0.283081     0.133379     0.103386
Rotational constants in MHz :  8486.545774  3998.599544  3099.448040

                             ****ORCA TERMINATED NORMALLY****
TOTAL RUN TIME: 0 days 0 hours 0 minutes 11 seconds 363 msec
