                         Program Version 5.0.0 -  RELEASE  -
|  1> !LC-BLYP RIJCOSX def2-TZVP def2/J TightSCF xyzfile
|  2>
|  3> *xyzfile 0 1 D1.xyz
|  4>
|  5> %MaxCore 64000
|  6>
|  7> %pal nprocs 18
|  8> end
|  9>
| 10> %scf
| 11>   MaxIter 150
| 12> end
| 13>
| 14>
| 15>                          ****END OF INPUT****

CARTESIAN COORDINATES (ANGSTROEM)
---------------------------------
  C     -0.699123    3.489451    3.755163
  H     -0.966716    4.349013    3.140491
  C     -1.080669    3.792957    5.156857
  C      0.776956    3.138391    3.617408
  H     -1.331455    2.656510    3.446323
  H      1.371398    3.888342    4.149744
  H      1.046926    3.232057    2.561331
  C      1.118917    1.731170    4.115155
  H      2.200573    1.654226    4.254882
  C      0.659466    0.635182    3.153306
  H      0.677024    1.576674    5.103150
  H      1.312288    0.638870    2.274207
  H     -0.339563    0.868049    2.772876
  C      0.639957   -0.771175    3.755619
  C     -0.341821   -0.965537    4.915046
  H      1.648266   -1.028665    4.097015
  H      0.398568   -1.482386    2.958453
  H     -0.279892   -2.005646    5.252547
  C     -1.789164   -0.639231    4.557496
  H     -0.032380   -0.352918    5.765118
  H     -2.107151   -1.270102    3.719619
  H     -1.856352    0.391636    4.197604
  C     -2.790700   -0.785275    5.702812
  H     -2.867308   -1.835651    6.001675
  H     -3.774554   -0.486577    5.334807
  C     -2.453797    0.055101    6.941445
  C     -2.078419    1.480421    6.564098
  H     -1.625584   -0.382163    7.498914
  H     -3.325274    0.087746    7.599175
  H     -0.874488    4.762737    5.427344
  H     -0.680793    3.134762    5.839000
  H     -2.057550    3.531691    5.346197
  F     -0.901252    1.858156    6.828104
  O     -2.936582    2.177309    5.964151

 Total Charge           Charge          ....    0
 Multiplicity           Mult            ....    1
 Number of Electrons    NEL             ....  104
 Basis Dimension        Dim             ....  529

ORBITAL ENERGIES
----------------

  NO   OCC          E(Eh)            E(eV)
   0   2.0000     -24.532433      -667.5615
   1   2.0000     -18.952292      -515.7181
   2   2.0000     -10.260859      -279.2122
   3   2.0000     -10.103674      -274.9349
   4   2.0000     -10.085523      -274.4410
   5   2.0000     -10.070798      -274.0403
   6   2.0000     -10.067816      -273.9592
   7   2.0000     -10.062567      -273.8164
   8   2.0000     -10.055265      -273.6177
   9   2.0000     -10.052594      -273.5450
  10   2.0000     -10.045401      -273.3492
  11   2.0000     -10.035782      -273.0875
  12   2.0000      -9.982253      -271.6309
  13   2.0000      -1.410845       -38.3910
  14   2.0000      -1.140551       -31.0360
  15   2.0000      -0.943446       -25.6725
  16   2.0000      -0.919041       -25.0084
  17   2.0000      -0.888047       -24.1650
  18   2.0000      -0.859265       -23.3818
  19   2.0000      -0.816938       -22.2300
  20   2.0000      -0.792691       -21.5702
  21   2.0000      -0.764909       -20.8142
  22   2.0000      -0.735168       -20.0049
  23   2.0000      -0.717183       -19.5155
  24   2.0000      -0.675475       -18.3806
  25   2.0000      -0.671597       -18.2751
  26   2.0000      -0.661468       -17.9994
  27   2.0000      -0.642778       -17.4909
  28   2.0000      -0.625501       -17.0207
  29   2.0000      -0.587897       -15.9975
  30   2.0000      -0.584269       -15.8988
  31   2.0000      -0.566844       -15.4246
  32   2.0000      -0.564699       -15.3662
  33   2.0000      -0.542027       -14.7493
  34   2.0000      -0.532385       -14.4869
  35   2.0000      -0.516460       -14.0536
  36   2.0000      -0.510975       -13.9043
  37   2.0000      -0.501732       -13.6528
  38   2.0000      -0.491523       -13.3750
  39   2.0000      -0.480413       -13.0727
  40   2.0000      -0.468080       -12.7371
  41   2.0000      -0.461039       -12.5455
  42   2.0000      -0.451664       -12.2904
  43   2.0000      -0.442960       -12.0536
  44   2.0000      -0.437018       -11.8919
  45   2.0000      -0.425519       -11.5790
  46   2.0000      -0.421013       -11.4564
  47   2.0000      -0.408739       -11.1224
  48   2.0000      -0.404917       -11.0183
  49   2.0000      -0.393998       -10.7212
  50   2.0000      -0.391351       -10.6492
  51   2.0000      -0.362994        -9.8776
  52   0.0000       0.039083         1.0635
  53   0.0000       0.092437         2.5153
  54   0.0000       0.109662         2.9841
  55   0.0000       0.112535         3.0622
  56   0.0000       0.121163         3.2970

MULLIKEN ATOMIC CHARGES
-----------------------
   0 C :   -0.253840
   1 H :    0.113908
   2 C :   -0.453376
   3 C :   -0.198378
   4 H :    0.116233
   5 H :    0.120958
   6 H :    0.111933
   7 C :   -0.250942
   8 H :    0.125354
   9 C :   -0.298924
  10 H :    0.103977
  11 H :    0.131579
  12 H :    0.147702
  13 C :   -0.215860
  14 C :   -0.289549
  15 H :    0.128195
  16 H :    0.130812
  17 H :    0.132875
  18 C :   -0.322804
  19 H :    0.138582
  20 H :    0.138818
  21 H :    0.154009
  22 C :   -0.219921
  23 H :    0.138599
  24 H :    0.153550
  25 C :   -0.316308
  26 C :    0.330084
  27 H :    0.166273
  28 H :    0.170142
  29 H :    0.122095
  30 H :    0.115036
  31 H :    0.182041
  32 F :   -0.075526
  33 O :   -0.277329
Sum of atomic charges:   -0.0000000

LOEWDIN ATOMIC CHARGES
----------------------
   0 C :   -0.311372
   1 H :    0.137256
   2 C :   -0.346204
   3 C :   -0.276210
   4 H :    0.133593
   5 H :    0.139755
   6 H :    0.137823
   7 C :   -0.274248
   8 H :    0.138864
   9 C :   -0.279299
  10 H :    0.134110
  11 H :    0.140848
  12 H :    0.138543
  13 C :   -0.276679
  14 C :   -0.279203
  15 H :    0.141311
  16 H :    0.141238
  17 H :    0.141543
  18 C :   -0.277421
  19 H :    0.134908
  20 H :    0.145767
  21 H :    0.144155
  22 C :   -0.263587
  23 H :    0.144980
  24 H :    0.150389
  25 C :   -0.241643
  26 C :   -0.496164
  27 H :    0.148011
  28 H :    0.163074
  29 H :    0.104803
  30 H :    0.102381
  31 H :    0.114162
  32 F :    0.341777
  33 O :    0.102738

  Mayer bond orders larger than 0.100000
B(  0-C ,  1-H ) :   0.9899 B(  0-C ,  2-C ) :   0.8624 B(  0-C ,  3-C ) :   0.9125
B(  0-C ,  4-H ) :   1.0184 B(  2-C , 29-H ) :   0.9696 B(  2-C , 30-H ) :   0.9924
B(  2-C , 31-H ) :   0.9648 B(  3-C ,  5-H ) :   0.9814 B(  3-C ,  6-H ) :   0.9826
B(  3-C ,  7-C ) :   0.9441 B(  7-C ,  8-H ) :   0.9801 B(  7-C ,  9-C ) :   0.8779
B(  7-C , 10-H ) :   1.0010 B(  9-C , 11-H ) :   0.9804 B(  9-C , 12-H ) :   0.9967
B(  9-C , 13-C ) :   0.9180 B( 13-C , 14-C ) :   0.9374 B( 13-C , 15-H ) :   0.9903
B( 13-C , 16-H ) :   0.9888 B( 14-C , 17-H ) :   0.9817 B( 14-C , 18-C ) :   0.8566
B( 14-C , 19-H ) :   0.9903 B( 18-C , 20-H ) :   0.9781 B( 18-C , 21-H ) :   0.9817
B( 18-C , 22-C ) :   0.9404 B( 22-C , 23-H ) :   0.9803 B( 22-C , 24-H ) :   0.9789
B( 22-C , 25-C ) :   0.9026 B( 25-C , 26-C ) :   0.9344 B( 25-C , 27-H ) :   0.9750
B( 25-C , 28-H ) :   0.9595 B( 26-C , 32-F ) :   1.1501 B( 26-C , 33-O ) :   2.0364

FINAL SINGLE POINT ENERGY      -605.513542007904

DIPOLE MOMENT
-------------
                                X             Y             Z
Electronic contribution:     -5.47552       2.47475      10.84502
Nuclear contribution   :      5.54676      -3.70047     -10.28793
                        -----------------------------------------
Total Dipole Moment    :      0.07124      -1.22572       0.55709
                        -----------------------------------------
Magnitude (a.u.)       :      1.34826
Magnitude (Debye)      :      3.42702

Rotational constants in cm-1:     0.028503     0.023389     0.015214
Rotational constants in MHz :   854.502405   701.197575   456.108322

                             ****ORCA TERMINATED NORMALLY****
TOTAL RUN TIME: 0 days 0 hours 1 minutes 27 seconds 297 msec
