                         Program Version 5.0.0 -  RELEASE  -
|  1> !LC-BLYP RIJCOSX def2-TZVP def2/J TightSCF xyzfile
|  2>
|  3> *xyzfile 0 1 D2.xyz
|  4>
|  5> %MaxCore 64000
|  6>
|  7> %pal nprocs 18
|  8> end
|  9>
| 10> %scf
| 11>   MaxIter 150
| 12> end
| 13>
| 14>
| 15>                          ****END OF INPUT****

CARTESIAN COORDINATES (ANGSTROEM)
---------------------------------
  C     -0.699123    3.489451    3.755163
  H     -0.966716    4.349013    3.140491
  C     -1.080669    3.792957    5.156857
  C      0.776956    3.138391    3.617408
  H     -1.331455    2.656510    3.446323
  H      1.371398    3.888342    4.149744
  H      1.046926    3.232057    2.561331
  C      1.118917    1.731170    4.115155
  H      2.200573    1.654226    4.254882
  C      0.659466    0.635182    3.153306
  H      0.677024    1.576674    5.103150
  H      1.312288    0.638870    2.274207
  H     -0.339563    0.868049    2.772876
  C      0.639957   -0.771175    3.755619
  C     -0.341821   -0.965537    4.915046
  H      1.648266   -1.028665    4.097015
  H      0.398568   -1.482386    2.958453
  H     -0.279892   -2.005646    5.252547
  C     -1.789164   -0.639231    4.557496
  H     -0.032380   -0.352918    5.765118
  H     -2.107151   -1.270102    3.719619
  H     -1.856352    0.391636    4.197604
  C     -2.790700   -0.785275    5.702812
  H     -2.867308   -1.835651    6.001675
  H     -3.774554   -0.486577    5.334807
  C     -2.453797    0.055101    6.941445
  C     -2.078419    1.480421    6.564098
  H     -1.625584   -0.382163    7.498914
  H     -3.325274    0.087746    7.599175
  H     -0.874488    4.762737    5.427344
  H     -0.680793    3.134762    5.839000
  H     -2.057550    3.531691    5.346197
  O     -0.901252    1.858156    6.828104
  F     -2.936582    2.177309    5.964151

 Total Charge           Charge          ....    0
 Multiplicity           Mult            ....    1
 Number of Electrons    NEL             ....  104
 Basis Dimension        Dim             ....  529

ORBITAL ENERGIES
----------------

  NO   OCC          E(Eh)            E(eV)
   0   2.0000     -24.535931      -667.6566
   1   2.0000     -18.952188      -515.7152
   2   2.0000     -10.262707      -279.2624
   3   2.0000     -10.104101      -274.9466
   4   2.0000     -10.088985      -274.5352
   5   2.0000     -10.073100      -274.1030
   6   2.0000     -10.062326      -273.8098
   7   2.0000     -10.058498      -273.7056
   8   2.0000     -10.051096      -273.5042
   9   2.0000     -10.044255      -273.3181
  10   2.0000     -10.041931      -273.2548
  11   2.0000     -10.035591      -273.0823
  12   2.0000      -9.981043      -271.5980
  13   2.0000      -1.414366       -38.4868
  14   2.0000      -1.140287       -31.0288
  15   2.0000      -0.944738       -25.7076
  16   2.0000      -0.916112       -24.9287
  17   2.0000      -0.886241       -24.1158
  18   2.0000      -0.857753       -23.3406
  19   2.0000      -0.813632       -22.1401
  20   2.0000      -0.789637       -21.4871
  21   2.0000      -0.767052       -20.8725
  22   2.0000      -0.730993       -19.8913
  23   2.0000      -0.718716       -19.5573
  24   2.0000      -0.673776       -18.3344
  25   2.0000      -0.672040       -18.2871
  26   2.0000      -0.663786       -18.0625
  27   2.0000      -0.642888       -17.4939
  28   2.0000      -0.621540       -16.9130
  29   2.0000      -0.590606       -16.0712
  30   2.0000      -0.585305       -15.9270
  31   2.0000      -0.565583       -15.3903
  32   2.0000      -0.559122       -15.2145
  33   2.0000      -0.536744       -14.6055
  34   2.0000      -0.527289       -14.3483
  35   2.0000      -0.519086       -14.1251
  36   2.0000      -0.510860       -13.9012
  37   2.0000      -0.504657       -13.7324
  38   2.0000      -0.489925       -13.3315
  39   2.0000      -0.476903       -12.9772
  40   2.0000      -0.472939       -12.8693
  41   2.0000      -0.466915       -12.7054
  42   2.0000      -0.450245       -12.2518
  43   2.0000      -0.442158       -12.0317
  44   2.0000      -0.434262       -11.8169
  45   2.0000      -0.424093       -11.5402
  46   2.0000      -0.417775       -11.3682
  47   2.0000      -0.407385       -11.0855
  48   2.0000      -0.401156       -10.9160
  49   2.0000      -0.390723       -10.6321
  50   2.0000      -0.388636       -10.5753
  51   2.0000      -0.353556        -9.6207
  52   0.0000       0.039935         1.0867
  53   0.0000       0.089025         2.4225
  54   0.0000       0.110725         3.0130
  55   0.0000       0.112789         3.0691
  56   0.0000       0.122463         3.3324

MULLIKEN ATOMIC CHARGES
-----------------------
   0 C :   -0.239239
   1 H :    0.112164
   2 C :   -0.464815
   3 C :   -0.201332
   4 H :    0.100138
   5 H :    0.121509
   6 H :    0.109419
   7 C :   -0.267317
   8 H :    0.121137
   9 C :   -0.297137
  10 H :    0.145515
  11 H :    0.129408
  12 H :    0.141739
  13 C :   -0.219661
  14 C :   -0.294056
  15 H :    0.127862
  16 H :    0.127503
  17 H :    0.129135
  18 C :   -0.296978
  19 H :    0.166106
  20 H :    0.139593
  21 H :    0.133401
  22 C :   -0.252140
  23 H :    0.143001
  24 H :    0.151008
  25 C :   -0.308147
  26 C :    0.338322
  27 H :    0.181235
  28 H :    0.164143
  29 H :    0.124383
  30 H :    0.191203
  31 H :    0.109655
  32 O :   -0.295051
  33 F :   -0.071704
Sum of atomic charges:    0.0000000

LOEWDIN ATOMIC CHARGES
----------------------
   0 C :   -0.314461
   1 H :    0.135539
   2 C :   -0.345847
   3 C :   -0.274952
   4 H :    0.129994
   5 H :    0.140563
   6 H :    0.136797
   7 C :   -0.272784
   8 H :    0.138199
   9 C :   -0.280312
  10 H :    0.143322
  11 H :    0.139878
  12 H :    0.136445
  13 C :   -0.277041
  14 C :   -0.277853
  15 H :    0.141756
  16 H :    0.139687
  17 H :    0.140555
  18 C :   -0.276920
  19 H :    0.142991
  20 H :    0.145554
  21 H :    0.140379
  22 C :   -0.271211
  23 H :    0.146526
  24 H :    0.145639
  25 C :   -0.238451
  26 C :   -0.493013
  27 H :    0.160121
  28 H :    0.156635
  29 H :    0.105370
  30 H :    0.107016
  31 H :    0.105309
  32 O :    0.089246
  33 F :    0.355324

  Mayer bond orders larger than 0.100000
B(  0-C ,  1-H ) :   0.9898 B(  0-C ,  2-C ) :   0.8595 B(  0-C ,  3-C ) :   0.9275
B(  0-C ,  4-H ) :   1.0126 B(  2-C , 29-H ) :   0.9731 B(  2-C , 30-H ) :   0.9614
B(  2-C , 31-H ) :   0.9891 B(  3-C ,  5-H ) :   0.9809 B(  3-C ,  6-H ) :   0.9833
B(  3-C ,  7-C ) :   0.9423 B(  7-C ,  8-H ) :   0.9802 B(  7-C ,  9-C ) :   0.8729
B(  7-C , 10-H ) :   0.9964 B(  9-C , 11-H ) :   0.9805 B(  9-C , 12-H ) :   0.9981
B(  9-C , 13-C ) :   0.9207 B( 13-C , 14-C ) :   0.9375 B( 13-C , 15-H ) :   0.9892
B( 13-C , 16-H ) :   0.9906 B( 14-C , 17-H ) :   0.9808 B( 14-C , 18-C ) :   0.8535
B( 14-C , 19-H ) :   0.9828 B( 18-C , 20-H ) :   0.9783 B( 18-C , 21-H ) :   0.9865
B( 18-C , 22-C ) :   0.9219 B( 22-C , 23-H ) :   0.9775 B( 22-C , 24-H ) :   0.9890
B( 22-C , 25-C ) :   0.8894 B( 25-C , 26-C ) :   0.9441 B( 25-C , 27-H ) :   0.9812
B( 25-C , 28-H ) :   0.9610 B( 26-C , 32-O ) :   2.0015 B( 26-C , 33-F ) :   1.1604

FINAL SINGLE POINT ENERGY      -605.511525973118

DIPOLE MOMENT
-------------
                                X             Y             Z
Electronic contribution:     -8.95746       3.00291       9.46730
Nuclear contribution   :      8.07181      -4.09641      -9.21610
                        -----------------------------------------
Total Dipole Moment    :     -0.88566      -1.09350       0.25120
                        -----------------------------------------
Magnitude (a.u.)       :      1.42942
Magnitude (Debye)      :      3.63329

Rotational constants in cm-1:     0.028400     0.023377     0.015073
Rotational constants in MHz :   851.414727   700.831775   451.871218

                             ****ORCA TERMINATED NORMALLY****
TOTAL RUN TIME: 0 days 0 hours 1 minutes 7 seconds 214 msec
