                         Program Version 5.0.0 -  RELEASE  -
|  1> !PBE0 D3BJ RIJCOSX def2-SVPD def2/J TightSCF
|  2> *xyz -1 1
|  3> C          3.93993        0.32036       -4.36773
|  4> C          5.10585        0.66802       -5.30546
|  5> O          4.80913        1.15019       -6.41436
|  6> O          6.26737        0.56500       -4.81948
|  7> H          3.01376        0.44480       -4.88890
|  8> H          3.96058        0.96928       -3.51722
|  9> H          4.03331       -0.69517       -4.04388
| 10> *
| 11>
| 12> %MaxCore 64000
| 13>
| 14> %pal nprocs 4
| 15> end
| 16>
| 17> %scf
| 18>   MaxIter 150
| 19> end
| 20>
| 21>
| 22>                          ****END OF INPUT****

CARTESIAN COORDINATES (ANGSTROEM)
---------------------------------
  C      3.939930    0.320360   -4.367730
  C      5.105850    0.668020   -5.305460
  O      4.809130    1.150190   -6.414360
  O      6.267370    0.565000   -4.819480
  H      3.013760    0.444800   -4.888900
  H      3.960580    0.969280   -3.517220
  H      4.033310   -0.695170   -4.043880

 Total Charge           Charge          ....   -1
 Multiplicity           Mult            ....    1
 Number of Electrons    NEL             ....   32
 Basis Dimension        Dim             ....  110

ORBITAL ENERGIES
----------------

  NO   OCC          E(Eh)            E(eV)
   0   2.0000     -18.953263      -515.7445
   1   2.0000     -18.948966      -515.6276
   2   2.0000     -10.115237      -275.2496
   3   2.0000     -10.042364      -273.2666
   4   2.0000      -0.837557       -22.7911
   5   2.0000      -0.743757       -20.2386
   6   2.0000      -0.556001       -15.1296
   7   2.0000      -0.315955        -8.5976
   8   2.0000      -0.271476        -7.3872
   9   2.0000      -0.257414        -7.0046
  10   2.0000      -0.240574        -6.5463
  11   2.0000      -0.199685        -5.4337
  12   2.0000      -0.179583        -4.8867
  13   2.0000      -0.060835        -1.6554
  14   2.0000      -0.052112        -1.4180
  15   2.0000      -0.040267        -1.0957
  16   0.0000       0.179318         4.8795
  17   0.0000       0.220219         5.9925
  18   0.0000       0.231276         6.2933
  19   0.0000       0.248801         6.7702
  20   0.0000       0.272299         7.4096

MULLIKEN ATOMIC CHARGES
-----------------------
   0 C :    0.289447
   1 C :    0.177141
   2 O :   -0.691494
   3 O :   -0.746596
   4 H :   -0.021383
   5 H :   -0.004896
   6 H :   -0.002219
Sum of atomic charges:   -1.0000000

LOEWDIN ATOMIC CHARGES
----------------------
   0 C :    0.136647
   1 C :   -0.325517
   2 O :   -0.337513
   3 O :   -0.355190
   4 H :   -0.044397
   5 H :   -0.034755
   6 H :   -0.039274

  Mayer bond orders larger than 0.100000
B(  0-C ,  1-C ) :   1.2369 B(  0-C ,  4-H ) :   0.9025 B(  0-C ,  5-H ) :   0.8635
B(  0-C ,  6-H ) :   0.8472 B(  1-C ,  2-O ) :   1.4213 B(  1-C ,  3-O ) :   1.3885
B(  1-C ,  4-H ) :   0.2069 B(  1-C ,  5-H ) :   0.1307 B(  1-C ,  6-H ) :   0.1459

Dispersion correction           -0.003027513
FINAL SINGLE POINT ENERGY      -228.120566829664

DIPOLE MOMENT
-------------
                                X             Y             Z
Electronic contribution:      2.72547       0.86636      -2.23525
Nuclear contribution   :     -3.81330      -1.22874       3.01208
                        -----------------------------------------
Total Dipole Moment    :     -1.08784      -0.36238       0.77683
                        -----------------------------------------
Magnitude (a.u.)       :      1.38498
Magnitude (Debye)      :      3.52034

Rotational constants in cm-1:     0.390282     0.335702     0.186718
Rotational constants in MHz : 11700.346989 10064.094211  5597.661196

                             ****ORCA TERMINATED NORMALLY****
TOTAL RUN TIME: 0 days 0 hours 0 minutes 7 seconds 512 msec
