                         Program Version 5.0.0 -  RELEASE  -
|  1> !PBE0 D3BJ RIJCOSX def2-SVPD def2/J TightSCF
|  2> *xyz 1 1
|  3> C          3.90595        2.81985       -3.75292
|  4> N          5.29562        3.13151       -4.10533
|  5> C          5.70862        3.46889       -5.32419
|  6> N          6.90470        3.03895       -5.71708
|  7> N          4.98188        4.29357       -6.09746
|  8> H          5.00055        4.10131       -7.08776
|  9> H          4.08469        4.59690       -5.73965
| 10> H          5.96336        2.52611       -3.64239
| 11> H          7.04716        2.06686       -5.47360
| 12> H          7.19815        3.30799       -6.64523
| 13> H          3.24866        3.48801       -4.26909
| 14> H          3.77188        2.93227       -2.69732
| 15> H          3.68381        1.81198       -4.03533
| 16> *
| 17>
| 18> %MaxCore 64000
| 19>
| 20> %pal nprocs 4
| 21> end
| 22>
| 23> %scf
| 24>   MaxIter 150
| 25> end
| 26>
| 27>
| 28>                          ****END OF INPUT****

CARTESIAN COORDINATES (ANGSTROEM)
---------------------------------
  C      3.905950    2.819850   -3.752920
  N      5.295620    3.131510   -4.105330
  C      5.708620    3.468890   -5.324190
  N      6.904700    3.038950   -5.717080
  N      4.981880    4.293570   -6.097460
  H      5.000550    4.101310   -7.087760
  H      4.084690    4.596900   -5.739650
  H      5.963360    2.526110   -3.642390
  H      7.047160    2.066860   -5.473600
  H      7.198150    3.307990   -6.645230
  H      3.248660    3.488010   -4.269090
  H      3.771880    2.932270   -2.697320
  H      3.683810    1.811980   -4.035330

 Total Charge           Charge          ....    1
 Multiplicity           Mult            ....    1
 Number of Electrons    NEL             ....   40
 Basis Dimension        Dim             ....  164

ORBITAL ENERGIES
----------------

  NO   OCC          E(Eh)            E(eV)
   0   2.0000     -14.633261      -398.1913
   1   2.0000     -14.628751      -398.0685
   2   2.0000     -14.628401      -398.0590
   3   2.0000     -10.576141      -287.7914
   4   2.0000     -10.443600      -284.1848
   5   2.0000      -1.248103       -33.9626
   6   2.0000      -1.132324       -30.8121
   7   2.0000      -1.124034       -30.5865
   8   2.0000      -0.928680       -25.2707
   9   2.0000      -0.845007       -22.9938
  10   2.0000      -0.802921       -21.8486
  11   2.0000      -0.777403       -21.1542
  12   2.0000      -0.724122       -19.7044
  13   2.0000      -0.710237       -19.3265
  14   2.0000      -0.667261       -18.1571
  15   2.0000      -0.657884       -17.9019
  16   2.0000      -0.604978       -16.4623
  17   2.0000      -0.597209       -16.2509
  18   2.0000      -0.510072       -13.8798
  19   2.0000      -0.482491       -13.1292
  20   0.0000      -0.196632        -5.3506
  21   0.0000      -0.154023        -4.1912
  22   0.0000      -0.114398        -3.1129
  23   0.0000      -0.106840        -2.9073
  24   0.0000      -0.080737        -2.1970

MULLIKEN ATOMIC CHARGES
-----------------------
   0 C :    1.054575
   1 N :   -0.603260
   2 C :    1.044573
   3 N :   -0.106907
   4 N :   -0.044113
   5 H :    0.005689
   6 H :    0.005505
   7 H :   -0.151230
   8 H :    0.037003
   9 H :    0.039306
  10 H :   -0.129937
  11 H :   -0.114049
  12 H :   -0.037156
Sum of atomic charges:    1.0000000

LOEWDIN ATOMIC CHARGES
----------------------
   0 C :    0.266169
   1 N :    0.021544
   2 C :   -0.045687
   3 N :    0.268309
   4 N :    0.279936
   5 H :    0.040042
   6 H :    0.020751
   7 H :    0.052554
   8 H :    0.040630
   9 H :    0.039398
  10 H :   -0.010463
  11 H :    0.014950
  12 H :    0.011868

  Mayer bond orders larger than 0.100000
B(  0-C ,  1-N ) :   0.8494 B(  0-C , 10-H ) :   0.8614 B(  0-C , 11-H ) :   0.8242
B(  0-C , 12-H ) :   0.8275 B(  1-N ,  2-C ) :   1.1126 B(  1-N ,  3-N ) :   0.1910
B(  1-N ,  7-H ) :   1.1953 B(  1-N , 10-H ) :   0.1372 B(  1-N , 11-H ) :   0.1873
B(  1-N , 12-H ) :   0.1244 B(  2-C ,  3-N ) :   0.9679 B(  2-C ,  4-N ) :   0.9807
B(  2-C ,  7-H ) :  -0.1534 B(  3-N ,  4-N ) :   0.1242 B(  3-N ,  8-H ) :   1.0513
B(  3-N ,  9-H ) :   0.9702 B(  4-N ,  5-H ) :   1.1200 B(  4-N ,  6-H ) :   0.9857
B(  5-H ,  6-H ) :  -0.1147

Dispersion correction           -0.007646734
FINAL SINGLE POINT ENERGY      -244.634761102652

DIPOLE MOMENT
-------------
                                X             Y             Z
Electronic contribution:      2.50539       1.08295      -1.19428
Nuclear contribution   :     -2.62204      -1.73043       0.52001
                        -----------------------------------------
Total Dipole Moment    :     -0.11665      -0.64748      -0.67428
                        -----------------------------------------
Magnitude (a.u.)       :      0.94206
Magnitude (Debye)      :      2.39454

Rotational constants in cm-1:     0.299316     0.133886     0.097604
Rotational constants in MHz :  8973.254382  4013.798371  2926.103660

                             ****ORCA TERMINATED NORMALLY****
TOTAL RUN TIME: 0 days 0 hours 0 minutes 15 seconds 388 msec
