                         Program Version 5.0.0 -  RELEASE  -
|  1> !PBE0 D3BJ RIJCOSX def2-SVPD def2/J TightSCF xyzfile
|  2>
|  3> *xyzfile 0 1 B.xyz
|  4>
|  5> %MaxCore 64000
|  6>
|  7> %pal nprocs 4
|  8> end
|  9>
| 10> %scf
| 11>   MaxIter 150
| 12> end
| 13>
| 14>
| 15>                          ****END OF INPUT****

CARTESIAN COORDINATES (ANGSTROEM)
---------------------------------
  C      3.905947    2.819855   -3.752920
  N      5.295615    3.131515   -4.105334
  C      3.803511    1.374716   -3.260807
  C      3.939934    0.320362   -4.367729
  H      4.105043   -0.655085   -3.907733
  H      3.022801    0.280517   -4.957117
  C      5.105846    0.668022   -5.305463
  C      5.708619    3.468885   -5.324190
  N      6.904696    3.038954   -5.717084
  N      4.981884    4.293570   -6.097457
  H      5.000546    4.101311   -7.087761
  H      4.084693    4.596899   -5.739652
  H      5.963358    2.526112   -3.642391
  H      7.047164    2.066861   -5.473604
  H      7.198145    3.307994   -6.645225
  H      3.282025    2.949187   -4.640259
  H      3.565254    3.514574   -2.982523
  H      4.574833    1.215157   -2.500443
  H      2.843514    1.260845   -2.751465
  O      4.809132    1.150187   -6.414361
  O      6.267366    0.564999   -4.819481

 Total Charge           Charge          ....    0
 Multiplicity           Mult            ....    1
 Number of Electrons    NEL             ....   78
 Basis Dimension        Dim             ....  294

ORBITAL ENERGIES
----------------

  NO   OCC          E(Eh)            E(eV)
   0   2.0000     -19.137868      -520.7679
   1   2.0000     -19.134173      -520.6673
   2   2.0000     -14.462363      -393.5409
   3   2.0000     -14.455551      -393.3555
   4   2.0000     -14.431664      -392.7055
   5   2.0000     -10.400062      -283.0001
   6   2.0000     -10.295904      -280.1658
   7   2.0000     -10.293308      -280.0951
   8   2.0000     -10.246857      -278.8312
   9   2.0000     -10.212567      -277.8981
  10   2.0000      -1.072159       -29.1749
  11   2.0000      -1.024465       -27.8771
  12   2.0000      -0.962545       -26.1922
  13   2.0000      -0.943669       -25.6785
  14   2.0000      -0.930381       -25.3169
  15   2.0000      -0.814847       -22.1731
  16   2.0000      -0.731692       -19.9103
  17   2.0000      -0.674894       -18.3648
  18   2.0000      -0.640981       -17.4420
  19   2.0000      -0.626163       -17.0388
  20   2.0000      -0.592446       -16.1213
  21   2.0000      -0.552854       -15.0439
  22   2.0000      -0.533308       -14.5120
  23   2.0000      -0.513968       -13.9858
  24   2.0000      -0.496578       -13.5126
  25   2.0000      -0.489357       -13.3161
  26   2.0000      -0.446605       -12.1527
  27   2.0000      -0.439009       -11.9460
  28   2.0000      -0.426568       -11.6075
  29   2.0000      -0.404373       -11.0035
  30   2.0000      -0.397870       -10.8266
  31   2.0000      -0.392411       -10.6781
  32   2.0000      -0.355890        -9.6842
  33   2.0000      -0.350182        -9.5289
  34   2.0000      -0.331737        -9.0270
  35   2.0000      -0.306651        -8.3444
  36   2.0000      -0.249247        -6.7824
  37   2.0000      -0.233170        -6.3449
  38   2.0000      -0.224038        -6.0964
  39   0.0000      -0.018486        -0.5030
  40   0.0000       0.003390         0.0923
  41   0.0000       0.026620         0.7244
  42   0.0000       0.037711         1.0262
  43   0.0000       0.056784         1.5452

MULLIKEN ATOMIC CHARGES
-----------------------
   0 C :    0.738016
   1 N :   -0.517531
   2 C :   -0.078441
   3 C :    0.193570
   4 H :   -0.024231
   5 H :    0.057947
   6 C :    0.503861
   7 C :    1.127765
   8 N :   -0.012441
   9 N :   -0.204947
  10 H :   -0.008969
  11 H :    0.036797
  12 H :   -0.101167
  13 H :   -0.058718
  14 H :    0.032158
  15 H :    0.048562
  16 H :   -0.294455
  17 H :    0.112726
  18 H :   -0.101182
  19 O :   -0.671056
  20 O :   -0.778264
Sum of atomic charges:   -0.0000000

LOEWDIN ATOMIC CHARGES
----------------------
   0 C :    0.073334
   1 N :    0.058712
   2 C :   -0.012496
   3 C :    0.036437
   4 H :    0.027290
   5 H :    0.021849
   6 C :   -0.250833
   7 C :   -0.073649
   8 N :    0.280480
   9 N :    0.260239
  10 H :    0.025970
  11 H :    0.008892
  12 H :    0.024967
  13 H :   -0.060316
  14 H :    0.027697
  15 H :    0.026050
  16 H :    0.021134
  17 H :    0.029710
  18 H :    0.024017
  19 O :   -0.268098
  20 O :   -0.281386

  Mayer bond orders larger than 0.100000
B(  0-C ,  1-N ) :   0.7793 B(  0-C ,  2-C ) :   1.1843 B(  0-C , 15-H ) :   0.7546
B(  0-C , 16-H ) :   0.9272 B(  0-C , 18-H ) :   0.1615 B(  1-N ,  2-C ) :   0.1536
B(  1-N ,  7-C ) :   1.0128 B(  1-N ,  8-N ) :   0.1674 B(  1-N ,  9-N ) :   0.1146
B(  1-N , 12-H ) :   1.1512 B(  1-N , 15-H ) :   0.1135 B(  1-N , 16-H ) :   0.1088
B(  2-C ,  3-C ) :   1.2256 B(  2-C ,  4-H ) :   0.1536 B(  2-C ,  5-H ) :   0.1109
B(  2-C , 17-H ) :   0.8468 B(  2-C , 18-H ) :   0.9613 B(  3-C ,  4-H ) :   0.8368
B(  3-C ,  5-H ) :   0.8485 B(  3-C ,  6-C ) :   1.0431 B(  4-H ,  6-C ) :   0.1246
B(  5-H ,  6-C ) :   0.2280 B(  6-C , 19-O ) :   1.4621 B(  6-C , 20-O ) :   1.2324
B(  7-C ,  8-N ) :   0.9284 B(  7-C ,  9-N ) :   0.7661 B(  7-C , 12-H ) :  -0.2111
B(  7-C , 19-O ) :   0.1000 B(  8-N ,  9-N ) :   0.1543 B(  8-N , 13-H ) :   0.9472
B(  8-N , 14-H ) :   0.9365 B(  9-N , 10-H ) :   1.1428 B(  9-N , 11-H ) :   0.9342
B( 10-H , 11-H ) :  -0.1121 B( 13-H , 20-O ) :   0.1811

Dispersion correction           -0.019740434
FINAL SINGLE POINT ENERGY      -510.996024707823

DIPOLE MOMENT
-------------
                                X             Y             Z
Electronic contribution:      4.16740       0.41721      -3.41617
Nuclear contribution   :     -4.94498       2.03334       3.78956
                        -----------------------------------------
Total Dipole Moment    :     -0.77758       2.45055       0.37339
                        -----------------------------------------
Magnitude (a.u.)       :      2.59794
Magnitude (Debye)      :      6.60343

Rotational constants in cm-1:     0.062533     0.042832     0.033687
Rotational constants in MHz :  1874.701390  1284.063603  1009.911042

                             ****ORCA TERMINATED NORMALLY****
TOTAL RUN TIME: 0 days 0 hours 1 minutes 4 seconds 851 msec
