                         Program Version 5.0.0 -  RELEASE  -
|  1> !PBE0 D3BJ RIJCOSX def2-SVPD def2/J TightSCF
|  2> *xyz 0 1
|  3> C          3.93993        0.32036       -4.36773
|  4> C          5.10585        0.66802       -5.30546
|  5> F          4.80913        1.15019       -6.41436
|  6> O          6.26737        0.56500       -4.81948
|  7> H          3.01376        0.44480       -4.88890
|  8> H          3.96058        0.96928       -3.51722
|  9> H          4.03331       -0.69517       -4.04388
| 10> *
| 11>
| 12> %MaxCore 64000
| 13>
| 14> %pal nprocs 4
| 15> end
| 16>
| 17> %scf
| 18>   MaxIter 150
| 19> end
| 20>
| 21>
| 22>                          ****END OF INPUT****

CARTESIAN COORDINATES (ANGSTROEM)
---------------------------------
  C      3.939930    0.320360   -4.367730
  C      5.105850    0.668020   -5.305460
  F      4.809130    1.150190   -6.414360
  O      6.267370    0.565000   -4.819480
  H      3.013760    0.444800   -4.888900
  H      3.960580    0.969280   -3.517220
  H      4.033310   -0.695170   -4.043880

 Total Charge           Charge          ....    0
 Multiplicity           Mult            ....    1
 Number of Electrons    NEL             ....   32
 Basis Dimension        Dim             ....  110

ORBITAL ENERGIES
----------------

  NO   OCC          E(Eh)            E(eV)
   0   2.0000     -24.864248      -676.5906
   1   2.0000     -19.228540      -523.2352
   2   2.0000     -10.422784      -283.6184
   3   2.0000     -10.260317      -279.1974
   4   2.0000      -1.352231       -36.7961
   5   2.0000      -1.052899       -28.6508
   6   2.0000      -0.789767       -21.4907
   7   2.0000      -0.687872       -18.7179
   8   2.0000      -0.577453       -15.7133
   9   2.0000      -0.572071       -15.5668
  10   2.0000      -0.522741       -14.2245
  11   2.0000      -0.461501       -12.5581
  12   2.0000      -0.448221       -12.1967
  13   2.0000      -0.420489       -11.4421
  14   2.0000      -0.369785       -10.0624
  15   2.0000      -0.311695        -8.4816
  16   0.0000      -0.032722        -0.8904
  17   0.0000       0.019734         0.5370
  18   0.0000       0.065271         1.7761
  19   0.0000       0.095134         2.5887
  20   0.0000       0.095713         2.6045

MULLIKEN ATOMIC CHARGES
-----------------------
   0 C :    0.221060
   1 C :    0.520600
   2 F :   -0.361759
   3 O :   -0.551142
   4 H :    0.026143
   5 H :    0.077012
   6 H :    0.068086
Sum of atomic charges:   -0.0000000

LOEWDIN ATOMIC CHARGES
----------------------
   0 C :    0.210284
   1 C :   -0.021800
   2 F :   -0.034466
   3 O :   -0.151019
   4 H :   -0.013496
   5 H :    0.006505
   6 H :    0.003992

  Mayer bond orders larger than 0.100000
B(  0-C ,  1-C ) :   1.2624 B(  0-C ,  4-H ) :   0.9026 B(  0-C ,  5-H ) :   0.8424
B(  0-C ,  6-H ) :   0.8299 B(  1-C ,  2-F ) :   0.7662 B(  1-C ,  3-O ) :   1.7223
B(  1-C ,  4-H ) :   0.1273 B(  1-C ,  5-H ) :   0.1069 B(  1-C ,  6-H ) :   0.1263

Dispersion correction           -0.002787824
FINAL SINGLE POINT ENERGY      -252.637504515973

DIPOLE MOMENT
-------------
                                X             Y             Z
Electronic contribution:      2.40180       1.62656      -4.16634
Nuclear contribution   :     -3.58567      -1.71656       4.24175
                        -----------------------------------------
Total Dipole Moment    :     -1.18387      -0.08999       0.07541
                        -----------------------------------------
Magnitude (a.u.)       :      1.18967
Magnitude (Debye)      :      3.02391

Rotational constants in cm-1:     0.365806     0.323297     0.177262
Rotational constants in MHz : 10966.600844  9692.195205  5314.176777

                             ****ORCA TERMINATED NORMALLY****
TOTAL RUN TIME: 0 days 0 hours 0 minutes 6 seconds 798 msec
