                         Program Version 5.0.0 -  RELEASE  -
|  1> !PBE0 D3BJ RIJCOSX def2-SVPD def2/J TightSCF
|  2> *xyz 0 1
|  3> C          3.90595        2.81985       -3.75292
|  4> C          5.29562        3.13151       -4.10533
|  5> C          5.70862        3.46889       -5.32419
|  6> N          6.90470        3.03895       -5.71708
|  7> N          4.98188        4.29357       -6.09746
|  8> H          5.00055        4.10131       -7.08776
|  9> H          4.08469        4.59690       -5.73965
| 10> H          5.96336        2.52611       -3.64239
| 11> H          7.04716        2.06686       -5.47360
| 12> H          7.19815        3.30799       -6.64523
| 13> H          3.24866        3.48801       -4.26909
| 14> H          3.77188        2.93227       -2.69732
| 15> H          3.68381        1.81198       -4.03533
| 16> *
| 17>
| 18> %MaxCore 64000
| 19>
| 20> %pal nprocs 4
| 21> end
| 22>
| 23> %scf
| 24>   MaxIter 150
| 25> end
| 26>
| 27>
| 28>                          ****END OF INPUT****

CARTESIAN COORDINATES (ANGSTROEM)
---------------------------------
  C      3.905950    2.819850   -3.752920
  C      5.295620    3.131510   -4.105330
  C      5.708620    3.468890   -5.324190
  N      6.904700    3.038950   -5.717080
  N      4.981880    4.293570   -6.097460
  H      5.000550    4.101310   -7.087760
  H      4.084690    4.596900   -5.739650
  H      5.963360    2.526110   -3.642390
  H      7.047160    2.066860   -5.473600
  H      7.198150    3.307990   -6.645230
  H      3.248660    3.488010   -4.269090
  H      3.771880    2.932270   -2.697320
  H      3.683810    1.811980   -4.035330

 Total Charge           Charge          ....    0
 Multiplicity           Mult            ....    1
 Number of Electrons    NEL             ....   40
 Basis Dimension        Dim             ....  164

ORBITAL ENERGIES
----------------

  NO   OCC          E(Eh)            E(eV)
   0   2.0000     -14.399181      -391.8216
   1   2.0000     -14.397420      -391.7737
   2   2.0000     -10.274375      -279.5800
   3   2.0000     -10.201448      -277.5955
   4   2.0000     -10.161470      -276.5077
   5   2.0000      -0.984762       -26.7967
   6   2.0000      -0.893940       -24.3253
   7   2.0000      -0.772052       -21.0086
   8   2.0000      -0.673067       -18.3151
   9   2.0000      -0.597638       -16.2626
  10   2.0000      -0.554078       -15.0772
  11   2.0000      -0.522779       -14.2255
  12   2.0000      -0.493489       -13.4285
  13   2.0000      -0.444308       -12.0902
  14   2.0000      -0.416783       -11.3412
  15   2.0000      -0.394768       -10.7422
  16   2.0000      -0.367940       -10.0122
  17   2.0000      -0.346068        -9.4170
  18   2.0000      -0.287982        -7.8364
  19   2.0000      -0.179106        -4.8737
  20   0.0000       0.018991         0.5168
  21   0.0000       0.045633         1.2417
  22   0.0000       0.059941         1.6311
  23   0.0000       0.064262         1.7487
  24   0.0000       0.094762         2.5786

MULLIKEN ATOMIC CHARGES
-----------------------
   0 C :    0.677070
   1 C :   -0.516742
   2 C :    0.380680
   3 N :   -0.066958
   4 N :   -0.068629
   5 H :   -0.064785
   6 H :   -0.005424
   7 H :   -0.118880
   8 H :    0.016344
   9 H :   -0.062362
  10 H :   -0.181750
  11 H :    0.046171
  12 H :   -0.034735
Sum of atomic charges:    0.0000000

LOEWDIN ATOMIC CHARGES
----------------------
   0 C :    0.091642
   1 C :   -0.056766
   2 C :   -0.245165
   3 N :    0.180399
   4 N :    0.190319
   5 H :   -0.011377
   6 H :   -0.011087
   7 H :   -0.052765
   8 H :    0.004977
   9 H :   -0.010572
  10 H :   -0.041322
  11 H :   -0.020645
  12 H :   -0.017637

  Mayer bond orders larger than 0.100000
B(  0-C ,  1-C ) :   1.1471 B(  0-C ,  7-H ) :   0.1772 B(  0-C , 10-H ) :   0.7990
B(  0-C , 11-H ) :   0.7307 B(  0-C , 12-H ) :   0.8594 B(  1-C ,  2-C ) :   1.9446
B(  1-C ,  3-N ) :   0.3062 B(  1-C ,  4-N ) :   0.1374 B(  1-C ,  7-H ) :   0.7422
B(  1-C , 10-H ) :   0.2665 B(  1-C , 11-H ) :   0.2025 B(  2-C ,  3-N ) :   0.9213
B(  2-C ,  4-N ) :   0.9748 B(  2-C ,  7-H ) :   0.2887 B(  3-N ,  8-H ) :   1.0328
B(  3-N ,  9-H ) :   0.9516 B(  4-N ,  5-H ) :   1.0944 B(  4-N ,  6-H ) :   0.9690
B( 10-H , 11-H ) :   0.1207

Dispersion correction           -0.008001952
FINAL SINGLE POINT ENERGY      -228.183596828872

DIPOLE MOMENT
-------------
                                X             Y             Z
Electronic contribution:      2.52327       1.34924      -1.81193
Nuclear contribution   :     -2.63304      -1.77161       0.70501
                        -----------------------------------------
Total Dipole Moment    :     -0.10977      -0.42238      -1.10692
                        -----------------------------------------
Magnitude (a.u.)       :      1.18985
Magnitude (Debye)      :      3.02435

Rotational constants in cm-1:     0.303572     0.135185     0.098519
Rotational constants in MHz :  9100.846149  4052.756012  2953.539431

                             ****ORCA TERMINATED NORMALLY****
TOTAL RUN TIME: 0 days 0 hours 0 minutes 14 seconds 946 msec
