                         Program Version 5.0.0 -  RELEASE  -
|  1> !PBE0 D3BJ RIJCOSX def2-SVPD def2/J TightSCF
|  2> *xyz 0 1
|  3> C          3.93993        0.32036       -4.36773
|  4> C          5.10585        0.66802       -5.30546
|  5> O          4.80913        1.15019       -6.41436
|  6> F          6.26737        0.56500       -4.81948
|  7> H          3.01376        0.44480       -4.88890
|  8> H          3.96058        0.96928       -3.51722
|  9> H          4.03331       -0.69517       -4.04388
| 10> *
| 11>
| 12> %MaxCore 64000
| 13>
| 14> %pal nprocs 4
| 15> end
| 16>
| 17> %scf
| 18>   MaxIter 150
| 19> end
| 20>
| 21>
| 22>                          ****END OF INPUT****

CARTESIAN COORDINATES (ANGSTROEM)
---------------------------------
  C      3.939930    0.320360   -4.367730
  C      5.105850    0.668020   -5.305460
  O      4.809130    1.150190   -6.414360
  F      6.267370    0.565000   -4.819480
  H      3.013760    0.444800   -4.888900
  H      3.960580    0.969280   -3.517220
  H      4.033310   -0.695170   -4.043880

 Total Charge           Charge          ....    0
 Multiplicity           Mult            ....    1
 Number of Electrons    NEL             ....   32
 Basis Dimension        Dim             ....  110

ORBITAL ENERGIES
----------------

  NO   OCC          E(Eh)            E(eV)
   0   2.0000     -24.857426      -676.4049
   1   2.0000     -19.231653      -523.3199
   2   2.0000     -10.420999      -283.5698
   3   2.0000     -10.260007      -279.1890
   4   2.0000      -1.338147       -36.4128
   5   2.0000      -1.064721       -28.9725
   6   2.0000      -0.788995       -21.4697
   7   2.0000      -0.680119       -18.5070
   8   2.0000      -0.569854       -15.5065
   9   2.0000      -0.565031       -15.3753
  10   2.0000      -0.523117       -14.2347
  11   2.0000      -0.460219       -12.5232
  12   2.0000      -0.449375       -12.2281
  13   2.0000      -0.423011       -11.5107
  14   2.0000      -0.379235       -10.3195
  15   2.0000      -0.314030        -8.5452
  16   0.0000      -0.027966        -0.7610
  17   0.0000       0.020140         0.5480
  18   0.0000       0.065493         1.7822
  19   0.0000       0.092031         2.5043
  20   0.0000       0.100196         2.7265

MULLIKEN ATOMIC CHARGES
-----------------------
   0 C :    0.233643
   1 C :    0.530973
   2 O :   -0.509808
   3 F :   -0.402758
   4 H :    0.003716
   5 H :    0.074944
   6 H :    0.069289
Sum of atomic charges:   -0.0000000

LOEWDIN ATOMIC CHARGES
----------------------
   0 C :    0.210176
   1 C :   -0.022432
   2 O :   -0.138201
   3 F :   -0.046813
   4 H :   -0.000262
   5 H :    0.001332
   6 H :   -0.003800

  Mayer bond orders larger than 0.100000
B(  0-C ,  1-C ) :   1.2428 B(  0-C ,  4-H ) :   0.9179 B(  0-C ,  5-H ) :   0.8377
B(  0-C ,  6-H ) :   0.8298 B(  1-C ,  2-O ) :   1.7690 B(  1-C ,  3-F ) :   0.7025
B(  1-C ,  4-H ) :   0.1740 B(  1-C ,  6-H ) :   0.1084

Dispersion correction           -0.002787918
FINAL SINGLE POINT ENERGY      -252.643299687456

DIPOLE MOMENT
-------------
                                X             Y             Z
Electronic contribution:      4.76959       0.67546      -1.57314
Nuclear contribution   :     -5.09247      -1.11188       2.59376
                        -----------------------------------------
Total Dipole Moment    :     -0.32288      -0.43643       1.02062
                        -----------------------------------------
Magnitude (a.u.)       :      1.15602
Magnitude (Debye)      :      2.93838

Rotational constants in cm-1:     0.367940     0.321271     0.177147
Rotational constants in MHz : 11030.570495  9631.458923  5310.737691

                             ****ORCA TERMINATED NORMALLY****
TOTAL RUN TIME: 0 days 0 hours 0 minutes 6 seconds 667 msec
