                         Program Version 5.0.0 -  RELEASE  -
|  1> !PBE0 D3BJ RIJCOSX def2-SVPD def2/J TightSCF
|  2> *xyz 0 1
|  3> C          3.90595        2.81985       -3.75292
|  4> N          5.29562        3.13151       -4.10533
|  5> C          5.70862        3.46889       -5.32419
|  6> C          6.90470        3.03895       -5.71708
|  7> N          4.98188        4.29357       -6.09746
|  8> H          5.00055        4.10131       -7.08776
|  9> H          4.08469        4.59690       -5.73965
| 10> H          5.96336        2.52611       -3.64239
| 11> H          7.04716        2.06686       -5.47360
| 12> H          7.19815        3.30799       -6.64523
| 13> H          3.24866        3.48801       -4.26909
| 14> H          3.77188        2.93227       -2.69732
| 15> H          3.68381        1.81198       -4.03533
| 16> *
| 17>
| 18> %MaxCore 64000
| 19>
| 20> %pal nprocs 4
| 21> end
| 22>
| 23> %scf
| 24>   MaxIter 150
| 25> end
| 26>
| 27>
| 28>                          ****END OF INPUT****

CARTESIAN COORDINATES (ANGSTROEM)
---------------------------------
  C      3.905950    2.819850   -3.752920
  N      5.295620    3.131510   -4.105330
  C      5.708620    3.468890   -5.324190
  C      6.904700    3.038950   -5.717080
  N      4.981880    4.293570   -6.097460
  H      5.000550    4.101310   -7.087760
  H      4.084690    4.596900   -5.739650
  H      5.963360    2.526110   -3.642390
  H      7.047160    2.066860   -5.473600
  H      7.198150    3.307990   -6.645230
  H      3.248660    3.488010   -4.269090
  H      3.771880    2.932270   -2.697320
  H      3.683810    1.811980   -4.035330

 Total Charge           Charge          ....    0
 Multiplicity           Mult            ....    1
 Number of Electrons    NEL             ....   40
 Basis Dimension        Dim             ....  164

ORBITAL ENERGIES
----------------

  NO   OCC          E(Eh)            E(eV)
   0   2.0000     -14.402728      -391.9182
   1   2.0000     -14.400989      -391.8708
   2   2.0000     -10.281117      -279.7634
   3   2.0000     -10.266215      -279.3579
   4   2.0000     -10.147482      -276.1270
   5   2.0000      -0.990824       -26.9617
   6   2.0000      -0.904935       -24.6245
   7   2.0000      -0.764561       -20.8048
   8   2.0000      -0.689191       -18.7538
   9   2.0000      -0.613806       -16.7025
  10   2.0000      -0.551434       -15.0053
  11   2.0000      -0.509274       -13.8581
  12   2.0000      -0.496741       -13.5170
  13   2.0000      -0.466908       -12.7052
  14   2.0000      -0.421008       -11.4562
  15   2.0000      -0.405487       -11.0339
  16   2.0000      -0.401293       -10.9197
  17   2.0000      -0.357881        -9.7384
  18   2.0000      -0.273580        -7.4445
  19   2.0000      -0.187703        -5.1077
  20   0.0000       0.016687         0.4541
  21   0.0000       0.043485         1.1833
  22   0.0000       0.057147         1.5551
  23   0.0000       0.066098         1.7986
  24   0.0000       0.089624         2.4388

MULLIKEN ATOMIC CHARGES
-----------------------
   0 C :    1.019778
   1 N :   -0.635106
   2 C :    0.302254
   3 C :    0.390742
   4 N :   -0.001160
   5 H :   -0.032270
   6 H :   -0.089706
   7 H :   -0.134493
   8 H :   -0.181705
   9 H :   -0.247984
  10 H :   -0.170004
  11 H :   -0.161215
  12 H :   -0.059131
Sum of atomic charges:   -0.0000000

LOEWDIN ATOMIC CHARGES
----------------------
   0 C :    0.209693
   1 N :   -0.045192
   2 C :   -0.246652
   3 C :    0.139228
   4 N :    0.196930
   5 H :    0.005854
   6 H :   -0.024168
   7 H :    0.023796
   8 H :   -0.099619
   9 H :   -0.101154
  10 H :   -0.030429
  11 H :   -0.013451
  12 H :   -0.014836

  Mayer bond orders larger than 0.100000
B(  0-C ,  1-N ) :   0.8647 B(  0-C , 10-H ) :   0.8619 B(  0-C , 11-H ) :   0.8181
B(  0-C , 12-H ) :   0.8273 B(  1-N ,  2-C ) :   1.0986 B(  1-N ,  3-C ) :   0.2032
B(  1-N ,  7-H ) :   1.1506 B(  1-N , 10-H ) :   0.1416 B(  1-N , 11-H ) :   0.1917
B(  1-N , 12-H ) :   0.1161 B(  2-C ,  3-C ) :   1.8125 B(  2-C ,  4-N ) :   0.9466
B(  2-C ,  7-H ) :  -0.1084 B(  2-C ,  8-H ) :   0.2021 B(  2-C ,  9-H ) :   0.3074
B(  3-C ,  4-N ) :   0.2145 B(  3-C ,  8-H ) :   0.8914 B(  3-C ,  9-H ) :   0.6325
B(  4-N ,  5-H ) :   1.0975 B(  4-N ,  6-H ) :   0.9805 B(  5-H ,  6-H ) :  -0.1071
B(  8-H ,  9-H ) :   0.1956

Dispersion correction           -0.007956812
FINAL SINGLE POINT ENERGY      -228.169325600225

DIPOLE MOMENT
-------------
                                X             Y             Z
Electronic contribution:      0.95604       1.45638      -0.29515
Nuclear contribution   :     -2.30713      -1.79036       0.37856
                        -----------------------------------------
Total Dipole Moment    :     -1.35109      -0.33398       0.08341
                        -----------------------------------------
Magnitude (a.u.)       :      1.39426
Magnitude (Debye)      :      3.54393

Rotational constants in cm-1:     0.307513     0.139026     0.101190
Rotational constants in MHz :  9218.994719  4167.905268  3033.592538

                             ****ORCA TERMINATED NORMALLY****
TOTAL RUN TIME: 0 days 0 hours 0 minutes 14 seconds 766 msec
