                         Program Version 5.0.0 -  RELEASE  -
|  1> !PBE0 D3BJ RIJCOSX def2-SVPD def2/J TightSCF
|  2> *xyz 0 1
|  3> C          3.90595        2.81985       -3.75292
|  4> N          5.29562        3.13151       -4.10533
|  5> C          5.70862        3.46889       -5.32419
|  6> N          6.90470        3.03895       -5.71708
|  7> C          4.98188        4.29357       -6.09746
|  8> H          5.00055        4.10131       -7.08776
|  9> H          4.08469        4.59690       -5.73965
| 10> H          5.96336        2.52611       -3.64239
| 11> H          7.04716        2.06686       -5.47360
| 12> H          7.19815        3.30799       -6.64523
| 13> H          3.24866        3.48801       -4.26909
| 14> H          3.77188        2.93227       -2.69732
| 15> H          3.68381        1.81198       -4.03533
| 16> *
| 17>
| 18> %MaxCore 64000
| 19>
| 20> %pal nprocs 4
| 21> end
| 22>
| 23> %scf
| 24>   MaxIter 150
| 25> end
| 26>
| 27>
| 28>                          ****END OF INPUT****

CARTESIAN COORDINATES (ANGSTROEM)
---------------------------------
  C      3.905950    2.819850   -3.752920
  N      5.295620    3.131510   -4.105330
  C      5.708620    3.468890   -5.324190
  N      6.904700    3.038950   -5.717080
  C      4.981880    4.293570   -6.097460
  H      5.000550    4.101310   -7.087760
  H      4.084690    4.596900   -5.739650
  H      5.963360    2.526110   -3.642390
  H      7.047160    2.066860   -5.473600
  H      7.198150    3.307990   -6.645230
  H      3.248660    3.488010   -4.269090
  H      3.771880    2.932270   -2.697320
  H      3.683810    1.811980   -4.035330

 Total Charge           Charge          ....    0
 Multiplicity           Mult            ....    1
 Number of Electrons    NEL             ....   40
 Basis Dimension        Dim             ....  164

ORBITAL ENERGIES
----------------

  NO   OCC          E(Eh)            E(eV)
   0   2.0000     -14.404170      -391.9574
   1   2.0000     -14.400549      -391.8589
   2   2.0000     -10.280399      -279.7439
   3   2.0000     -10.260119      -279.1920
   4   2.0000     -10.151774      -276.2438
   5   2.0000      -0.995996       -27.1024
   6   2.0000      -0.906698       -24.6725
   7   2.0000      -0.740898       -20.1609
   8   2.0000      -0.713936       -19.4272
   9   2.0000      -0.583862       -15.8877
  10   2.0000      -0.558608       -15.2005
  11   2.0000      -0.538430       -14.6514
  12   2.0000      -0.470169       -12.7940
  13   2.0000      -0.463414       -12.6101
  14   2.0000      -0.432570       -11.7708
  15   2.0000      -0.400053       -10.8860
  16   2.0000      -0.392942       -10.6925
  17   2.0000      -0.361059        -9.8249
  18   2.0000      -0.274693        -7.4748
  19   2.0000      -0.187912        -5.1134
  20   0.0000       0.018858         0.5131
  21   0.0000       0.045489         1.2378
  22   0.0000       0.058665         1.5964
  23   0.0000       0.063206         1.7199
  24   0.0000       0.089555         2.4369

MULLIKEN ATOMIC CHARGES
-----------------------
   0 C :    1.070790
   1 N :   -0.534933
   2 C :    0.221298
   3 N :   -0.129641
   4 C :    0.368366
   5 H :   -0.272182
   6 H :   -0.118745
   7 H :   -0.253520
   8 H :   -0.010856
   9 H :    0.043470
  10 H :   -0.144283
  11 H :   -0.152452
  12 H :   -0.087312
Sum of atomic charges:    0.0000000

LOEWDIN ATOMIC CHARGES
----------------------
   0 C :    0.218878
   1 N :   -0.045805
   2 C :   -0.258001
   3 N :    0.182652
   4 C :    0.158720
   5 H :   -0.101484
   6 H :   -0.112275
   7 H :    0.011921
   8 H :   -0.007537
   9 H :    0.004847
  10 H :   -0.024178
  11 H :   -0.013375
  12 H :   -0.014365

  Mayer bond orders larger than 0.100000
B(  0-C ,  1-N ) :   0.8362 B(  0-C , 10-H ) :   0.8655 B(  0-C , 11-H ) :   0.8019
B(  0-C , 12-H ) :   0.8223 B(  1-N ,  2-C ) :   1.0716 B(  1-N ,  3-N ) :   0.1508
B(  1-N ,  4-C ) :   0.2131 B(  1-N ,  7-H ) :   1.1415 B(  1-N , 10-H ) :   0.1224
B(  1-N , 11-H ) :   0.1814 B(  1-N , 12-H ) :   0.1473 B(  2-C ,  3-N ) :   0.9716
B(  2-C ,  4-C ) :   1.8823 B(  2-C ,  5-H ) :   0.1897 B(  2-C ,  6-H ) :   0.2545
B(  3-N ,  4-C ) :   0.1432 B(  3-N ,  8-H ) :   0.9966 B(  3-N ,  9-H ) :   0.9613
B(  4-C ,  5-H ) :   0.8898 B(  4-C ,  6-H ) :   0.5775 B(  5-H ,  6-H ) :   0.2764

Dispersion correction           -0.007985758
FINAL SINGLE POINT ENERGY      -228.172714964839

DIPOLE MOMENT
-------------
                                X             Y             Z
Electronic contribution:      2.79312       0.27949      -0.00002
Nuclear contribution   :     -2.69659      -1.53624       0.30152
                        -----------------------------------------
Total Dipole Moment    :      0.09653      -1.25676       0.30150
                        -----------------------------------------
Magnitude (a.u.)       :      1.29602
Magnitude (Debye)      :      3.29421

Rotational constants in cm-1:     0.320409     0.134796     0.100241
Rotational constants in MHz :  9605.632807  4041.079317  3005.150506

                             ****ORCA TERMINATED NORMALLY****
TOTAL RUN TIME: 0 days 0 hours 0 minutes 15 seconds 123 msec
