                         Program Version 5.0.0 -  RELEASE  -
|  1> !PBE0 D3BJ RIJCOSX def2-SVPD def2/J TightSCF xyzfile
|  2>
|  3> *xyzfile 0 1 D2.xyz
|  4>
|  5> %MaxCore 64000
|  6>
|  7> %pal nprocs 4
|  8> end
|  9>
| 10> %scf
| 11>   MaxIter 150
| 12> end
| 13>
| 14>
| 15>                          ****END OF INPUT****

CARTESIAN COORDINATES (ANGSTROEM)
---------------------------------
  C      3.905947    2.819855   -3.752920
  N      5.295615    3.131515   -4.105334
  C      3.803511    1.374716   -3.260807
  C      3.939934    0.320362   -4.367729
  H      4.105043   -0.655085   -3.907733
  H      3.022801    0.280517   -4.957117
  C      5.105846    0.668022   -5.305463
  C      5.708619    3.468885   -5.324190
  C      6.904696    3.038954   -5.717084
  N      4.981884    4.293570   -6.097457
  H      5.000546    4.101311   -7.087761
  H      4.084693    4.596899   -5.739652
  H      5.963358    2.526112   -3.642391
  H      7.047164    2.066861   -5.473604
  H      7.198145    3.307994   -6.645225
  H      3.282025    2.949187   -4.640259
  H      3.565254    3.514574   -2.982523
  H      4.574833    1.215157   -2.500443
  H      2.843514    1.260845   -2.751465
  F      4.809132    1.150187   -6.414361
  O      6.267366    0.564999   -4.819481

 Total Charge           Charge          ....    0
 Multiplicity           Mult            ....    1
 Number of Electrons    NEL             ....   78
 Basis Dimension        Dim             ....  294

ORBITAL ENERGIES
----------------

  NO   OCC          E(Eh)            E(eV)
   0   2.0000     -24.865781      -676.6323
   1   2.0000     -19.229176      -523.2525
   2   2.0000     -14.400680      -391.8624
   3   2.0000     -14.396888      -391.7592
   4   2.0000     -10.424265      -283.6587
   5   2.0000     -10.282632      -279.8046
   6   2.0000     -10.274632      -279.5869
   7   2.0000     -10.271499      -279.5017
   8   2.0000     -10.266133      -279.3557
   9   2.0000     -10.129664      -275.6422
  10   2.0000      -1.353068       -36.8189
  11   2.0000      -1.060398       -28.8549
  12   2.0000      -0.990378       -26.9496
  13   2.0000      -0.907777       -24.7019
  14   2.0000      -0.838867       -22.8267
  15   2.0000      -0.762633       -20.7523
  16   2.0000      -0.718718       -19.5573
  17   2.0000      -0.685701       -18.6589
  18   2.0000      -0.639231       -17.3944
  19   2.0000      -0.613309       -16.6890
  20   2.0000      -0.583814       -15.8864
  21   2.0000      -0.567265       -15.4361
  22   2.0000      -0.554241       -15.0817
  23   2.0000      -0.528918       -14.3926
  24   2.0000      -0.514617       -14.0034
  25   2.0000      -0.500248       -13.6124
  26   2.0000      -0.486148       -13.2288
  27   2.0000      -0.458627       -12.4799
  28   2.0000      -0.435182       -11.8419
  29   2.0000      -0.421985       -11.4828
  30   2.0000      -0.411963       -11.2101
  31   2.0000      -0.407433       -11.0868
  32   2.0000      -0.384239       -10.4557
  33   2.0000      -0.381115       -10.3707
  34   2.0000      -0.361188        -9.8284
  35   2.0000      -0.351073        -9.5532
  36   2.0000      -0.299536        -8.1508
  37   2.0000      -0.272765        -7.4223
  38   2.0000      -0.177647        -4.8340
  39   0.0000      -0.039875        -1.0850
  40   0.0000       0.012335         0.3357
  41   0.0000       0.033090         0.9004
  42   0.0000       0.040690         1.1072
  43   0.0000       0.049613         1.3500

MULLIKEN ATOMIC CHARGES
-----------------------
   0 C :    0.691861
   1 N :   -0.443328
   2 C :   -0.035543
   3 C :    0.076714
   4 H :   -0.002917
   5 H :    0.073204
   6 C :    0.884108
   7 C :    0.151573
   8 C :    0.652645
   9 N :   -0.092159
  10 H :   -0.003548
  11 H :   -0.003464
  12 H :   -0.061239
  13 H :   -0.348841
  14 H :   -0.187275
  15 H :    0.018271
  16 H :   -0.282440
  17 H :    0.108636
  18 H :   -0.081845
  19 F :   -0.435547
  20 O :   -0.678866
Sum of atomic charges:    0.0000000

LOEWDIN ATOMIC CHARGES
----------------------
   0 C :    0.056257
   1 N :    0.005366
   2 C :   -0.008953
   3 C :    0.061324
   4 H :    0.040640
   5 H :    0.027799
   6 C :    0.017995
   7 C :   -0.257693
   8 C :    0.165379
   9 N :    0.201578
  10 H :    0.004456
  11 H :   -0.019686
  12 H :    0.015676
  13 H :   -0.150289
  14 H :   -0.088032
  15 H :    0.017273
  16 H :    0.017798
  17 H :    0.034835
  18 H :    0.027106
  19 F :   -0.017858
  20 O :   -0.150971

  Mayer bond orders larger than 0.100000
B(  0-C ,  1-N ) :   0.7825 B(  0-C ,  2-C ) :   1.1839 B(  0-C , 15-H ) :   0.7580
B(  0-C , 16-H ) :   0.9111 B(  0-C , 18-H ) :   0.1632 B(  1-N ,  2-C ) :   0.1388
B(  1-N ,  7-C ) :   1.0493 B(  1-N ,  8-C ) :   0.1765 B(  1-N , 12-H ) :   1.0596
B(  1-N , 15-H ) :   0.1357 B(  1-N , 16-H ) :   0.1122 B(  2-C ,  3-C ) :   1.2320
B(  2-C ,  4-H ) :   0.1618 B(  2-C ,  5-H ) :   0.1050 B(  2-C , 17-H ) :   0.8443
B(  2-C , 18-H ) :   0.9572 B(  3-C ,  4-H ) :   0.8373 B(  3-C ,  5-H ) :   0.8816
B(  3-C ,  6-C ) :   1.1167 B(  4-H ,  6-C ) :   0.1164 B(  5-H ,  6-C ) :   0.1071
B(  6-C , 19-F ) :   0.5831 B(  6-C , 20-O ) :   1.6009 B(  7-C ,  8-C ) :   1.8644
B(  7-C ,  9-N ) :   0.7960 B(  7-C , 11-H ) :   0.1488 B(  7-C , 12-H ) :  -0.1319
B(  7-C , 13-H ) :   0.1745 B(  7-C , 14-H ) :   0.4254 B(  8-C ,  9-N ) :   0.2852
B(  8-C , 13-H ) :   0.6375 B(  8-C , 14-H ) :   0.4009 B(  9-N , 10-H ) :   1.0657
B(  9-N , 11-H ) :   0.8578 B( 10-H , 11-H ) :  -0.1161 B( 13-H , 14-H ) :   0.1769
B( 13-H , 20-O ) :   0.1820

Dispersion correction           -0.019558826
FINAL SINGLE POINT ENERGY      -518.849183384871

DIPOLE MOMENT
-------------
                                X             Y             Z
Electronic contribution:      2.07539      -3.75709      -5.17078
Nuclear contribution   :     -4.40347       3.21582       5.36161
                        -----------------------------------------
Total Dipole Moment    :     -2.32808      -0.54128       0.19083
                        -----------------------------------------
Magnitude (a.u.)       :      2.39778
Magnitude (Debye)      :      6.09468

Rotational constants in cm-1:     0.061226     0.043199     0.033926
Rotational constants in MHz :  1835.503528  1295.087558  1017.061512

                             ****ORCA TERMINATED NORMALLY****
TOTAL RUN TIME: 0 days 0 hours 1 minutes 9 seconds 596 msec
