                         Program Version 5.0.0 -  RELEASE  -
|  1> !DLPNO-CCSD(T) aug-cc-pVTZ aug-cc-pVTZ/C TightSCF TightPNO RIJCOSX def2/J
|  2> *xyz -1 1
|  3> C          0.28725       -1.71177       -2.52740
|  4> O          0.71050       -0.92751       -1.48177
|  5> H          0.92384       -1.55316       -3.37267
|  6> H         -0.71828       -1.45137       -2.78433
|  7> H          0.32655       -2.74158       -2.23955
|  8> *
|  9> %MaxCore 64000
| 10>
| 11> %pal nprocs 8
| 12> end
| 13>
| 14> %scf
| 15>   MaxIter 150
| 16> end
| 17>
| 18>
| 19>                          ****END OF INPUT****

CARTESIAN COORDINATES (ANGSTROEM)
---------------------------------
  C      0.287250   -1.711770   -2.527400
  O      0.710500   -0.927510   -1.481770
  H      0.923840   -1.553160   -3.372670
  H     -0.718280   -1.451370   -2.784330
  H      0.326550   -2.741580   -2.239550

 Total Charge           Charge          ....   -1
 Multiplicity           Mult            ....    1
 Number of Electrons    NEL             ....   18
 Basis Dimension        Dim             ....  161

ORBITAL ENERGIES
----------------

  NO   OCC          E(Eh)            E(eV)
   0   2.0000     -20.186261      -549.2961
   1   2.0000     -11.004920      -299.4591
   2   2.0000      -0.972282       -26.4571
   3   2.0000      -0.633494       -17.2383
   4   2.0000      -0.356855        -9.7105
   5   2.0000      -0.356825        -9.7097
   6   2.0000      -0.247908        -6.7459
   7   2.0000      -0.096530        -2.6267
   8   2.0000      -0.096488        -2.6256
   9   0.0000       0.144730         3.9383
  10   0.0000       0.154617         4.2073
  11   0.0000       0.154619         4.2074
  12   0.0000       0.215852         5.8736
  13   0.0000       0.262358         7.1391

MULLIKEN ATOMIC CHARGES
-----------------------
   0 C :   -0.670095
   1 O :   -1.050192
   2 H :    0.239455
   3 H :    0.240856
   4 H :    0.239976
Sum of atomic charges:   -1.0000000

LOEWDIN ATOMIC CHARGES
----------------------
   0 C :   -0.134515
   1 O :    0.035319
   2 H :   -0.300256
   3 H :   -0.300285
   4 H :   -0.300263

  Mayer bond orders larger than 0.100000
B(  0-C ,  1-O ) :   1.1037 B(  0-C ,  2-H ) :   0.9425 B(  0-C ,  3-H ) :   0.9404
B(  0-C ,  4-H ) :   0.9418

E(0)                                       ...   -114.448418695
E(0)                                       ...   -114.448418695
E(CORR)(strong-pairs)                      ...     -0.463394454
E(CORR)(weak-pairs)                        ...     -0.000190721
E(CORR)(corrected)                         ...     -0.463585175
E(TOT)                                     ...   -114.912003870
E(CCSD(T))                                 ...   -114.930158286
FINAL SINGLE POINT ENERGY      -114.930158285613

DIPOLE MOMENT
-------------
                                X             Y             Z
Electronic contribution:      0.55748       1.03251       1.37692
Nuclear contribution   :     -0.89006      -1.64923      -2.19886
                        -----------------------------------------
Total Dipole Moment    :     -0.33258      -0.61672      -0.82194
                        -----------------------------------------
Magnitude (a.u.)       :      1.08006
Magnitude (Debye)      :      2.74530

Rotational constants in cm-1:     5.477712     0.934243     0.934241
Rotational constants in MHz : 164217.678885 28007.889263 28007.851448

                             ****ORCA TERMINATED NORMALLY****
TOTAL RUN TIME: 0 days 0 hours 1 minutes 5 seconds 85 msec
