                         Program Version 5.0.0 -  RELEASE  -
|  1> !DLPNO-CCSD(T) aug-cc-pVTZ aug-cc-pVTZ/C TightSCF TightPNO RIJCOSX def2/J
|  2> *xyz 1 1
|  3> C          3.48828        1.60092       -1.52204
|  4> N          2.81029        0.42878       -1.01420
|  5> C          3.29098       -0.41802       -0.12908
|  6> N          2.51754       -1.43202        0.23936
|  7> N          4.53549       -0.28441        0.39580
|  8> H          5.04363        0.57189        0.22290
|  9> H          4.72335       -0.73327        1.28180
| 10> H          1.93479        0.10230       -1.40379
| 11> H          1.67464       -1.50562       -0.31610
| 12> H          2.92850       -2.21850        0.72549
| 13> H          2.85802        2.09943       -2.22855
| 14> H          4.39853        1.30677       -2.00144
| 15> H          3.70992        2.26379       -0.71187
| 16> *
| 17> %MaxCore 64000
| 18>
| 19> %pal nprocs 2
| 20> end
| 21>
| 22> %scf
| 23>   MaxIter 150
| 24> end
| 25>
| 26>
| 27>                          ****END OF INPUT****

CARTESIAN COORDINATES (ANGSTROEM)
---------------------------------
  C      3.488280    1.600920   -1.522040
  N      2.810290    0.428780   -1.014200
  C      3.290980   -0.418020   -0.129080
  N      2.517540   -1.432020    0.239360
  N      4.535490   -0.284410    0.395800
  H      5.043630    0.571890    0.222900
  H      4.723350   -0.733270    1.281800
  H      1.934790    0.102300   -1.403790
  H      1.674640   -1.505620   -0.316100
  H      2.928500   -2.218500    0.725490
  H      2.858020    2.099430   -2.228550
  H      4.398530    1.306770   -2.001440
  H      3.709920    2.263790   -0.711870

 Total Charge           Charge          ....    1
 Multiplicity           Mult            ....    1
 Number of Electrons    NEL             ....   40
 Basis Dimension        Dim             ....  414

ORBITAL ENERGIES
----------------

  NO   OCC          E(Eh)            E(eV)
   0   2.0000     -15.794501      -429.7902
   1   2.0000     -15.790254      -429.6747
   2   2.0000     -15.789615      -429.6573
   3   2.0000     -11.591121      -315.4104
   4   2.0000     -11.433272      -311.1152
   5   2.0000      -1.550018       -42.1781
   6   2.0000      -1.411333       -38.4043
   7   2.0000      -1.394488       -37.9460
   8   2.0000      -1.158504       -31.5245
   9   2.0000      -1.041111       -28.3301
  10   2.0000      -0.971751       -26.4427
  11   2.0000      -0.947779       -25.7904
  12   2.0000      -0.867813       -23.6144
  13   2.0000      -0.856371       -23.3030
  14   2.0000      -0.835154       -22.7257
  15   2.0000      -0.809099       -22.0167
  16   2.0000      -0.753818       -20.5124
  17   2.0000      -0.739645       -20.1268
  18   2.0000      -0.630734       -17.1631
  19   2.0000      -0.598206       -16.2780
  20   0.0000      -0.096610        -2.6289
  21   0.0000      -0.077750        -2.1157
  22   0.0000      -0.071472        -1.9448
  23   0.0000      -0.059464        -1.6181
  24   0.0000      -0.048794        -1.3278

MULLIKEN ATOMIC CHARGES
-----------------------
   0 C :   -0.857716
   1 N :    0.015637
   2 C :    0.505611
   3 N :   -0.360101
   4 N :   -0.272994
   5 H :    0.186921
   6 H :    0.147701
   7 H :    0.154255
   8 H :    0.166007
   9 H :    0.172377
  10 H :    0.413952
  11 H :    0.369566
  12 H :    0.358785
Sum of atomic charges:    1.0000000

LOEWDIN ATOMIC CHARGES
----------------------
   0 C :    0.582405
   1 N :    0.612737
   2 C :   -0.361469
   3 N :    0.940584
   4 N :    0.948981
   5 H :   -0.271114
   6 H :   -0.247118
   7 H :   -0.248363
   8 H :   -0.258417
   9 H :   -0.232289
  10 H :   -0.145115
  11 H :   -0.159701
  12 H :   -0.161122

  Mayer bond orders larger than 0.100000
B(  0-C ,  1-N ) :   0.8602 B(  0-C ,  2-C ) :  -0.1265 B(  0-C , 10-H ) :   0.8639
B(  0-C , 11-H ) :   0.8842 B(  0-C , 12-H ) :   0.8899 B(  1-N ,  2-C ) :   1.0052
B(  1-N ,  3-N ) :  -0.1110 B(  1-N ,  7-H ) :   1.0269 B(  2-C ,  3-N ) :   1.0642
B(  2-C ,  4-N ) :   1.0049 B(  3-N ,  4-N ) :  -0.1027 B(  3-N ,  8-H ) :   1.0497
B(  3-N ,  9-H ) :   1.0611 B(  4-N ,  5-H ) :   1.0048 B(  4-N ,  6-H ) :   1.0557

E(0)                                       ...   -243.652956589
E(0)                                       ...   -243.652956589
E(CORR)(strong-pairs)                      ...     -0.995601947
E(CORR)(weak-pairs)                        ...     -0.000985649
E(CORR)(corrected)                         ...     -0.996587596
E(TOT)                                     ...   -244.649544185
E(CCSD(T))                                 ...   -244.689270598
FINAL SINGLE POINT ENERGY      -244.689270597676

DIPOLE MOMENT
-------------
                                X             Y             Z
Electronic contribution:     -0.68225      -2.30252       1.34999
Nuclear contribution   :      0.56176       1.95858      -1.15445
                        -----------------------------------------
Total Dipole Moment    :     -0.12049      -0.34394       0.19554
                        -----------------------------------------
Magnitude (a.u.)       :      0.41358
Magnitude (Debye)      :      1.05123

Rotational constants in cm-1:     0.309570     0.135399     0.096056
Rotational constants in MHz :  9280.673410  4059.171112  2879.675555

                             ****ORCA TERMINATED NORMALLY****
TOTAL RUN TIME: 0 days 1 hours 58 minutes 49 seconds 631 msec
