                         Program Version 5.0.0 -  RELEASE  -
|  1> !DLPNO-CCSD(T) aug-cc-pVTZ aug-cc-pVTZ/C TightSCF TightPNO RIJCOSX def2/J
|  2>
|  3> *xyzfile 0 1 B.xyz
|  4>
|  5> %MaxCore 64000
|  6>
|  7> %pal nprocs 18
|  8> end
|  9>
| 10> %scf
| 11>   MaxIter 150
| 12> end
| 13>
| 14>
| 15>                          ****END OF INPUT****

CARTESIAN COORDINATES (ANGSTROEM)
---------------------------------
  C      3.488276    1.600919   -1.522040
  C      4.342970    1.313419   -2.756826
  N      2.810285    0.428783   -1.014196
  H      5.132033    0.604994   -2.484466
  C      3.535896    0.749253   -3.924604
  H      4.841247    2.242136   -3.054083
  H      2.991617   -0.132199   -3.574137
  H      4.225505    0.392784   -4.695962
  C      2.564776    1.750890   -4.544523
  H      1.918749    2.171679   -3.769419
  C      1.686235    1.161657   -5.650111
  H      3.132494    2.594775   -4.951604
  C      0.839616   -0.037582   -5.220473
  H      2.323886    0.866395   -6.490796
  H      1.029518    1.951850   -6.029329
  C     -0.151019    0.254955   -4.094256
  H      1.499442   -0.857141   -4.922958
  H      0.290097   -0.410143   -6.091131
  H      0.328265    0.833022   -3.299125
  C     -0.721843   -0.999513   -3.439309
  H     -0.957367    0.884951   -4.485450
  H     -1.083403   -1.697555   -4.205656
  H     -1.581056   -0.723848   -2.820490
  C      0.287250   -1.711771   -2.527405
  H      1.131780   -2.067380   -3.159396
  H     -0.204137   -2.637326   -2.170480
  O      0.710505   -0.927506   -1.481767
  H      2.714548    2.331455   -1.760302
  H      4.090991    2.063151   -0.733382
  C      3.290978   -0.418021   -0.129083
  N      2.517536   -1.432017    0.239360
  N      4.535490   -0.284410    0.395800
  H      5.043627    0.571888    0.222899
  H      4.723346   -0.733273    1.281800
  H      1.934787    0.102305   -1.403788
  H      1.674638   -1.505616   -0.316095
  H      2.928503   -2.218502    0.725494

 Total Charge           Charge          ....    0
 Multiplicity           Mult            ....    1
 Number of Electrons    NEL             ....  112
 Basis Dimension        Dim             .... 1173

ORBITAL ENERGIES
----------------

  NO   OCC          E(Eh)            E(eV)
   0   2.0000     -20.404142      -555.2249
   1   2.0000     -15.625165      -425.1824
   2   2.0000     -15.580091      -423.9558
   3   2.0000     -15.575395      -423.8280
   4   2.0000     -11.400534      -310.2243
   5   2.0000     -11.280943      -306.9701
   6   2.0000     -11.232368      -305.6483
   7   2.0000     -11.214334      -305.1575
   8   2.0000     -11.208533      -304.9997
   9   2.0000     -11.201769      -304.8156
  10   2.0000     -11.199531      -304.7547
  11   2.0000     -11.188990      -304.4679
  12   2.0000     -11.177557      -304.1568
  13   2.0000     -11.164762      -303.8086
  14   2.0000      -1.359996       -37.0074
  15   2.0000      -1.232421       -33.5359
  16   2.0000      -1.212074       -32.9822
  17   2.0000      -1.196352       -32.5544
  18   2.0000      -1.090144       -29.6643
  19   2.0000      -1.049005       -28.5449
  20   2.0000      -1.002526       -27.2801
  21   2.0000      -0.951454       -25.8904
  22   2.0000      -0.900993       -24.5173
  23   2.0000      -0.870646       -23.6915
  24   2.0000      -0.831919       -22.6377
  25   2.0000      -0.812604       -22.1121
  26   2.0000      -0.790621       -21.5139
  27   2.0000      -0.760966       -20.7069
  28   2.0000      -0.746086       -20.3020
  29   2.0000      -0.717505       -19.5243
  30   2.0000      -0.689787       -18.7701
  31   2.0000      -0.671578       -18.2746
  32   2.0000      -0.654523       -17.8105
  33   2.0000      -0.636517       -17.3205
  34   2.0000      -0.626967       -17.0607
  35   2.0000      -0.619073       -16.8458
  36   2.0000      -0.596319       -16.2267
  37   2.0000      -0.578968       -15.7545
  38   2.0000      -0.570379       -15.5208
  39   2.0000      -0.549075       -14.9411
  40   2.0000      -0.542085       -14.7509
  41   2.0000      -0.528999       -14.3948
  42   2.0000      -0.507844       -13.8191
  43   2.0000      -0.499931       -13.6038
  44   2.0000      -0.492070       -13.3899
  45   2.0000      -0.476991       -12.9796
  46   2.0000      -0.463070       -12.6008
  47   2.0000      -0.454491       -12.3673
  48   2.0000      -0.448576       -12.2064
  49   2.0000      -0.447179       -12.1684
  50   2.0000      -0.426029       -11.5928
  51   2.0000      -0.419614       -11.4183
  52   2.0000      -0.413371       -11.2484
  53   2.0000      -0.396096       -10.7783
  54   2.0000      -0.319702        -8.6995
  55   2.0000      -0.316336        -8.6080
  56   0.0000       0.010160         0.2765
  57   0.0000       0.024757         0.6737
  58   0.0000       0.031235         0.8500
  59   0.0000       0.035401         0.9633
  60   0.0000       0.041553         1.1307

MULLIKEN ATOMIC CHARGES
-----------------------
   0 C :   -0.798366
   1 C :   -0.424784
   2 N :   -0.249660
   3 H :    0.140764
   4 C :   -0.418514
   5 H :    0.308722
   6 H :    0.388032
   7 H :    0.278164
   8 C :   -0.301986
   9 H :    0.160000
  10 C :   -0.758312
  11 H :    0.303804
  12 C :   -0.261937
  13 H :    0.131288
  14 H :    0.170866
  15 C :   -0.387239
  16 H :    0.080054
  17 H :    0.484912
  18 H :    0.295012
  19 C :   -0.694382
  20 H :    0.229294
  21 H :    0.153610
  22 H :    0.248600
  23 C :   -0.196510
  24 H :    0.162005
  25 H :    0.341029
  26 O :   -0.905390
  27 H :    0.233505
  28 H :    0.268718
  29 C :    0.503103
  30 N :   -0.702291
  31 N :   -0.438669
  32 H :    0.169840
  33 H :    0.117012
  34 H :    0.991456
  35 H :    0.312245
  36 H :    0.066007
Sum of atomic charges:   -0.0000000

LOEWDIN ATOMIC CHARGES
----------------------
   0 C :    0.239852
   1 C :    0.312497
   2 N :    0.636415
   3 H :   -0.143881
   4 C :    0.295960
   5 H :   -0.137874
   6 H :   -0.168591
   7 H :   -0.127143
   8 C :    0.287795
   9 H :   -0.173491
  10 C :    0.300644
  11 H :   -0.134532
  12 C :    0.281810
  13 H :   -0.142513
  14 H :   -0.140086
  15 C :    0.273558
  16 H :   -0.180537
  17 H :   -0.136051
  18 H :   -0.182107
  19 C :    0.259669
  20 H :   -0.136883
  21 H :   -0.152211
  22 H :   -0.155641
  23 C :   -0.154656
  24 H :   -0.186340
  25 H :   -0.182094
  26 O :    0.542356
  27 H :   -0.139197
  28 H :   -0.149437
  29 C :   -0.358315
  30 N :    0.929296
  31 N :    0.919979
  32 H :   -0.303675
  33 H :   -0.266175
  34 H :   -0.591752
  35 H :   -0.584981
  36 H :   -0.251672

  Mayer bond orders larger than 0.100000
B(  0-C ,  1-C ) :   0.8976 B(  0-C ,  2-N ) :   1.2752 B(  0-C ,  4-C ) :   0.1004
B(  0-C , 27-H ) :   1.0537 B(  0-C , 28-H ) :   0.9914 B(  0-C , 29-C ) :  -0.1744
B(  0-C , 34-H ) :  -0.2953 B(  1-C ,  2-N ) :  -0.1076 B(  1-C ,  3-H ) :   1.0974
B(  1-C ,  4-C ) :   0.9366 B(  1-C ,  5-H ) :   0.8898 B(  2-N , 27-H ) :   0.1881
B(  2-N , 28-H ) :  -0.1126 B(  2-N , 29-C ) :   1.1796 B(  2-N , 34-H ) :  -0.1827
B(  4-C ,  6-H ) :   0.9027 B(  4-C ,  7-H ) :   0.9910 B(  4-C ,  8-C ) :   0.7762
B(  6-H ,  8-C ) :   0.1043 B(  8-C ,  9-H ) :   1.0612 B(  8-C , 10-C ) :   0.8871
B(  8-C , 11-H ) :   0.9503 B( 10-C , 12-C ) :   0.9558 B( 10-C , 13-H ) :   1.0875
B( 10-C , 14-H ) :   1.0607 B( 10-C , 16-H ) :   0.1302 B( 12-C , 15-C ) :   0.7423
B( 12-C , 16-H ) :   1.1023 B( 12-C , 17-H ) :   0.8051 B( 15-C , 16-H ) :   0.1019
B( 15-C , 18-H ) :   1.0096 B( 15-C , 19-C ) :   0.9695 B( 15-C , 20-H ) :   0.9871
B( 15-C , 26-O ) :  -0.1238 B( 19-C , 21-H ) :   1.0555 B( 19-C , 22-H ) :   0.9966
B( 19-C , 23-C ) :   0.8358 B( 23-C , 24-H ) :   1.1053 B( 23-C , 25-H ) :   0.8826
B( 23-C , 26-O ) :   1.0390 B( 26-O , 29-C ) :   0.1202 B( 26-O , 34-H ) :   0.1275
B( 26-O , 35-H ) :   0.1960 B( 29-C , 30-N ) :   1.0348 B( 29-C , 31-N ) :   0.7826
B( 29-C , 34-H ) :  -0.4452 B( 29-C , 36-H ) :  -0.1035 B( 30-N , 31-N ) :  -0.1386
B( 30-N , 34-H ) :  -0.1558 B( 30-N , 35-H ) :   0.7976 B( 30-N , 36-H ) :   1.1811
B( 31-N , 32-H ) :   1.0171 B( 31-N , 33-H ) :   1.0696

E(0)                                       ...   -630.479781673
E(0)                                       ...   -630.479781673
E(CORR)(strong-pairs)                      ...     -2.754587925
E(CORR)(weak-pairs)                        ...     -0.005145662
E(CORR)(corrected)                         ...     -2.759733588
E(TOT)                                     ...   -633.239515261
E(CCSD(T))                                 ...   -633.355503447
FINAL SINGLE POINT ENERGY      -633.355503446709

DIPOLE MOMENT
-------------
                                X             Y             Z
Electronic contribution:      3.76719      -2.01697      11.42407
Nuclear contribution   :     -0.74583       2.62534      -9.91488
                        -----------------------------------------
Total Dipole Moment    :      3.02137       0.60837       1.50919
                        -----------------------------------------
Magnitude (a.u.)       :      3.43168
Magnitude (Debye)      :      8.72264

Rotational constants in cm-1:     0.027028     0.016098     0.010898
Rotational constants in MHz :   810.278072   482.590922   326.703462

                             ****ORCA TERMINATED NORMALLY****
TOTAL RUN TIME: 0 days 6 hours 10 minutes 17 seconds 331 msec
