                         Program Version 5.0.0 -  RELEASE  -
|  1> !DLPNO-CCSD(T) aug-cc-pVTZ aug-cc-pVTZ/C TightSCF TightPNO RIJCOSX def2/J
|  2> *xyz 0 1
|  3> C          0.28725       -1.71177       -2.52740
|  4> F          0.71050       -0.92751       -1.48177
|  5> H          0.92384       -1.55316       -3.37267
|  6> H         -0.71828       -1.45137       -2.78433
|  7> H          0.32655       -2.74158       -2.23955
|  8> *
|  9> %MaxCore 64000
| 10>
| 11> %pal nprocs 8
| 12> end
| 13>
| 14> %scf
| 15>   MaxIter 150
| 16> end
| 17>
| 18>
| 19>                          ****END OF INPUT****

CARTESIAN COORDINATES (ANGSTROEM)
---------------------------------
  C      0.287250   -1.711770   -2.527400
  F      0.710500   -0.927510   -1.481770
  H      0.923840   -1.553160   -3.372670
  H     -0.718280   -1.451370   -2.784330
  H      0.326550   -2.741580   -2.239550

 Total Charge           Charge          ....    0
 Multiplicity           Mult            ....    1
 Number of Electrons    NEL             ....   18
 Basis Dimension        Dim             ....  161

ORBITAL ENERGIES
----------------

  NO   OCC          E(Eh)            E(eV)
   0   2.0000     -26.279456      -715.1003
   1   2.0000     -11.298063      -307.4359
   2   2.0000      -1.590987       -43.2930
   3   2.0000      -0.961824       -26.1726
   4   2.0000      -0.699528       -19.0351
   5   2.0000      -0.699496       -19.0343
   6   2.0000      -0.679986       -18.5034
   7   2.0000      -0.533266       -14.5109
   8   2.0000      -0.533228       -14.5099
   9   0.0000       0.029367         0.7991
  10   0.0000       0.047144         1.2829
  11   0.0000       0.047145         1.2829
  12   0.0000       0.074936         2.0391
  13   0.0000       0.124028         3.3750

MULLIKEN ATOMIC CHARGES
-----------------------
   0 C :   -0.484829
   1 F :   -0.426154
   2 H :    0.303913
   3 H :    0.304039
   4 H :    0.303031
Sum of atomic charges:   -0.0000000

LOEWDIN ATOMIC CHARGES
----------------------
   0 C :    0.223461
   1 F :    0.425763
   2 H :   -0.216398
   3 H :   -0.216429
   4 H :   -0.216397

  Mayer bond orders larger than 0.100000
B(  0-C ,  1-F ) :   0.6737 B(  0-C ,  2-H ) :   0.9131 B(  0-C ,  3-H ) :   0.9132
B(  0-C ,  4-H ) :   0.9136

E(0)                                       ...   -139.097606034
E(0)                                       ...   -139.097606034
E(CORR)(strong-pairs)                      ...     -0.458549719
E(CORR)(weak-pairs)                        ...     -0.000194991
E(CORR)(corrected)                         ...     -0.458744710
E(TOT)                                     ...   -139.556350743
E(CCSD(T))                                 ...   -139.570018316
FINAL SINGLE POINT ENERGY      -139.570018315581

DIPOLE MOMENT
-------------
                                X             Y             Z
Electronic contribution:      0.88381       1.63709       2.18284
Nuclear contribution   :     -1.12906      -2.09208      -2.78929
                        -----------------------------------------
Total Dipole Moment    :     -0.24524      -0.45499      -0.60645
                        -----------------------------------------
Magnitude (a.u.)       :      0.79683
Magnitude (Debye)      :      2.02538

Rotational constants in cm-1:     5.477712     0.869598     0.869597
Rotational constants in MHz : 164217.678885 26069.889584 26069.856821

                             ****ORCA TERMINATED NORMALLY****
TOTAL RUN TIME: 0 days 0 hours 0 minutes 35 seconds 683 msec
