                         Program Version 5.0.0 -  RELEASE  -
|  1> !DLPNO-CCSD(T) aug-cc-pVTZ aug-cc-pVTZ/C TightSCF TightPNO RIJCOSX def2/J
|  2> *xyz 0 1
|  3> C          3.48828        1.60092       -1.52204
|  4> C          2.81029        0.42878       -1.01420
|  5> C          3.29098       -0.41802       -0.12908
|  6> N          2.51754       -1.43202        0.23936
|  7> N          4.53549       -0.28441        0.39580
|  8> H          5.04363        0.57189        0.22290
|  9> H          4.72335       -0.73327        1.28180
| 10> H          1.93479        0.10230       -1.40379
| 11> H          1.67464       -1.50562       -0.31610
| 12> H          2.92850       -2.21850        0.72549
| 13> H          2.85802        2.09943       -2.22855
| 14> H          4.39853        1.30677       -2.00144
| 15> H          3.70992        2.26379       -0.71187
| 16> *
| 17> %MaxCore 64000
| 18>
| 19> %pal nprocs 2
| 20> end
| 21>
| 22> %scf
| 23>   MaxIter 150
| 24> end
| 25>
| 26>
| 27>                          ****END OF INPUT****

CARTESIAN COORDINATES (ANGSTROEM)
---------------------------------
  C      3.488280    1.600920   -1.522040
  C      2.810290    0.428780   -1.014200
  C      3.290980   -0.418020   -0.129080
  N      2.517540   -1.432020    0.239360
  N      4.535490   -0.284410    0.395800
  H      5.043630    0.571890    0.222900
  H      4.723350   -0.733270    1.281800
  H      1.934790    0.102300   -1.403790
  H      1.674640   -1.505620   -0.316100
  H      2.928500   -2.218500    0.725490
  H      2.858020    2.099430   -2.228550
  H      4.398530    1.306770   -2.001440
  H      3.709920    2.263790   -0.711870

 Total Charge           Charge          ....    0
 Multiplicity           Mult            ....    1
 Number of Electrons    NEL             ....   40
 Basis Dimension        Dim             ....  414

ORBITAL ENERGIES
----------------

  NO   OCC          E(Eh)            E(eV)
   0   2.0000     -15.563223      -423.4968
   1   2.0000     -15.555575      -423.2887
   2   2.0000     -11.276063      -306.8373
   3   2.0000     -11.186545      -304.4014
   4   2.0000     -11.140840      -303.1577
   5   2.0000      -1.274512       -34.6812
   6   2.0000      -1.163637       -31.6642
   7   2.0000      -1.027896       -27.9705
   8   2.0000      -0.897676       -24.4270
   9   2.0000      -0.781510       -21.2660
  10   2.0000      -0.715540       -19.4708
  11   2.0000      -0.692193       -18.8355
  12   2.0000      -0.629703       -17.1351
  13   2.0000      -0.594565       -16.1789
  14   2.0000      -0.575308       -15.6549
  15   2.0000      -0.530837       -14.4448
  16   2.0000      -0.518943       -14.1212
  17   2.0000      -0.492343       -13.3973
  18   2.0000      -0.415710       -11.3121
  19   2.0000      -0.261223        -7.1082
  20   0.0000       0.025500         0.6939
  21   0.0000       0.036316         0.9882
  22   0.0000       0.039946         1.0870
  23   0.0000       0.052506         1.4287
  24   0.0000       0.054550         1.4844

MULLIKEN ATOMIC CHARGES
-----------------------
   0 C :   -0.764503
   1 C :   -0.403061
   2 C :    0.615320
   3 N :   -0.504205
   4 N :   -0.461338
   5 H :    0.118229
   6 H :    0.141677
   7 H :    0.297446
   8 H :    0.083047
   9 H :    0.090428
  10 H :    0.271225
  11 H :    0.272955
  12 H :    0.242779
Sum of atomic charges:   -0.0000000

LOEWDIN ATOMIC CHARGES
----------------------
   0 C :    0.534654
   1 C :    0.185156
   2 C :   -0.430988
   3 N :    0.847772
   4 N :    0.871381
   5 H :   -0.296486
   6 H :   -0.287813
   7 H :   -0.287687
   8 H :   -0.294965
   9 H :   -0.278135
  10 H :   -0.181519
  11 H :   -0.189257
  12 H :   -0.192112

  Mayer bond orders larger than 0.100000
B(  0-C ,  1-C ) :   0.7176 B(  0-C , 10-H ) :   1.0521 B(  0-C , 11-H ) :   0.9221
B(  0-C , 12-H ) :   0.9772 B(  1-C ,  2-C ) :   1.3064 B(  1-C ,  3-N ) :  -0.2061
B(  1-C ,  4-N ) :  -0.1379 B(  1-C ,  7-H ) :   0.9437 B(  2-C ,  3-N ) :   0.8055
B(  2-C ,  4-N ) :   0.7578 B(  3-N ,  4-N ) :  -0.1415 B(  3-N ,  8-H ) :   1.1179
B(  3-N ,  9-H ) :   1.1341 B(  4-N ,  5-H ) :   1.0840 B(  4-N ,  6-H ) :   1.0359

E(0)                                       ...   -227.206341870
E(0)                                       ...   -227.206341870
E(CORR)(strong-pairs)                      ...     -0.978710594
E(CORR)(weak-pairs)                        ...     -0.000966079
E(CORR)(corrected)                         ...     -0.979676673
E(TOT)                                     ...   -228.186018542
E(CCSD(T))                                 ...   -228.225925929
FINAL SINGLE POINT ENERGY      -228.225925929273

DIPOLE MOMENT
-------------
                                X             Y             Z
Electronic contribution:     -0.22244      -2.57417       1.81738
Nuclear contribution   :      0.45569       2.05070      -1.27895
                        -----------------------------------------
Total Dipole Moment    :      0.23325      -0.52347       0.53843
                        -----------------------------------------
Magnitude (a.u.)       :      0.78634
Magnitude (Debye)      :      1.99872

Rotational constants in cm-1:     0.314404     0.136412     0.097030
Rotational constants in MHz :  9425.600285  4089.541372  2908.875289

                             ****ORCA TERMINATED NORMALLY****
TOTAL RUN TIME: 0 days 2 hours 11 minutes 5 seconds 401 msec
