                         Program Version 5.0.0 -  RELEASE  -
|  1> !DLPNO-CCSD(T) aug-cc-pVTZ aug-cc-pVTZ/C TightSCF TightPNO RIJCOSX def2/J
|  2> *xyz 0 1
|  3> C          3.48828        1.60092       -1.52204
|  4> N          2.81029        0.42878       -1.01420
|  5> C          3.29098       -0.41802       -0.12908
|  6> C          2.51754       -1.43202        0.23936
|  7> N          4.53549       -0.28441        0.39580
|  8> H          5.04363        0.57189        0.22290
|  9> H          4.72335       -0.73327        1.28180
| 10> H          1.93479        0.10230       -1.40379
| 11> H          1.67464       -1.50562       -0.31610
| 12> H          2.92850       -2.21850        0.72549
| 13> H          2.85802        2.09943       -2.22855
| 14> H          4.39853        1.30677       -2.00144
| 15> H          3.70992        2.26379       -0.71187
| 16> *
| 17> %MaxCore 64000
| 18>
| 19> %pal nprocs 2
| 20> end
| 21>
| 22> %scf
| 23>   MaxIter 150
| 24> end
| 25>
| 26>
| 27>                          ****END OF INPUT****

CARTESIAN COORDINATES (ANGSTROEM)
---------------------------------
  C      3.488280    1.600920   -1.522040
  N      2.810290    0.428780   -1.014200
  C      3.290980   -0.418020   -0.129080
  C      2.517540   -1.432020    0.239360
  N      4.535490   -0.284410    0.395800
  H      5.043630    0.571890    0.222900
  H      4.723350   -0.733270    1.281800
  H      1.934790    0.102300   -1.403790
  H      1.674640   -1.505620   -0.316100
  H      2.928500   -2.218500    0.725490
  H      2.858020    2.099430   -2.228550
  H      4.398530    1.306770   -2.001440
  H      3.709920    2.263790   -0.711870

 Total Charge           Charge          ....    0
 Multiplicity           Mult            ....    1
 Number of Electrons    NEL             ....   40
 Basis Dimension        Dim             ....  414

ORBITAL ENERGIES
----------------

  NO   OCC          E(Eh)            E(eV)
   0   2.0000     -15.563844      -423.5137
   1   2.0000     -15.560660      -423.4271
   2   2.0000     -11.286219      -307.1136
   3   2.0000     -11.261226      -306.4335
   4   2.0000     -11.125647      -302.7442
   5   2.0000      -1.288540       -35.0630
   6   2.0000      -1.180292       -32.1174
   7   2.0000      -1.012171       -27.5426
   8   2.0000      -0.913496       -24.8575
   9   2.0000      -0.800151       -21.7732
  10   2.0000      -0.715565       -19.4715
  11   2.0000      -0.668819       -18.1995
  12   2.0000      -0.648254       -17.6399
  13   2.0000      -0.629449       -17.1282
  14   2.0000      -0.563426       -15.3316
  15   2.0000      -0.546258       -14.8644
  16   2.0000      -0.536315       -14.5939
  17   2.0000      -0.521834       -14.1998
  18   2.0000      -0.407057       -11.0766
  19   2.0000      -0.263383        -7.1670
  20   0.0000       0.025023         0.6809
  21   0.0000       0.034281         0.9328
  22   0.0000       0.042744         1.1631
  23   0.0000       0.045850         1.2476
  24   0.0000       0.054978         1.4960

MULLIKEN ATOMIC CHARGES
-----------------------
   0 C :   -0.938687
   1 N :   -0.025699
   2 C :    0.413702
   3 C :   -1.217854
   4 N :   -0.421510
   5 H :    0.145757
   6 H :    0.068270
   7 H :    0.076992
   8 H :    0.359660
   9 H :    0.445067
  10 H :    0.401068
  11 H :    0.351456
  12 H :    0.341778
Sum of atomic charges:   -0.0000000

LOEWDIN ATOMIC CHARGES
----------------------
   0 C :    0.525529
   1 N :    0.553446
   2 C :   -0.456254
   3 C :    0.538203
   4 N :    0.868338
   5 H :   -0.310039
   6 H :   -0.276225
   7 H :   -0.278282
   8 H :   -0.326775
   9 H :   -0.307257
  10 H :   -0.169895
  11 H :   -0.179660
  12 H :   -0.181127

  Mayer bond orders larger than 0.100000
B(  0-C ,  1-N ) :   0.9084 B(  0-C ,  2-C ) :  -0.1411 B(  0-C , 10-H ) :   0.8814
B(  0-C , 11-H ) :   0.9126 B(  0-C , 12-H ) :   0.9042 B(  1-N ,  2-C ) :   0.7013
B(  1-N ,  3-C ) :  -0.2314 B(  1-N ,  4-N ) :  -0.1267 B(  1-N ,  7-H ) :   1.1086
B(  2-C ,  3-C ) :   1.1400 B(  2-C ,  4-N ) :   0.7979 B(  3-C ,  4-N ) :  -0.1710
B(  3-C ,  8-H ) :   0.9661 B(  3-C ,  9-H ) :   0.8368 B(  4-N ,  5-H ) :   1.0300
B(  4-N ,  6-H ) :   1.1517

E(0)                                       ...   -227.194273373
E(0)                                       ...   -227.194273373
E(CORR)(strong-pairs)                      ...     -0.975470174
E(CORR)(weak-pairs)                        ...     -0.000974902
E(CORR)(corrected)                         ...     -0.976445076
E(TOT)                                     ...   -228.170718449
E(CCSD(T))                                 ...   -228.210559547
FINAL SINGLE POINT ENERGY      -228.210559547243

DIPOLE MOMENT
-------------
                                X             Y             Z
Electronic contribution:      0.15376      -0.65521       0.60153
Nuclear contribution   :      0.39640       1.67380      -1.02505
                        -----------------------------------------
Total Dipole Moment    :      0.55016       1.01859      -0.42352
                        -----------------------------------------
Magnitude (a.u.)       :      1.23270
Magnitude (Debye)      :      3.13329

Rotational constants in cm-1:     0.316500     0.141146     0.099607
Rotational constants in MHz :  9488.425850  4231.454938  2986.155520

                             ****ORCA TERMINATED NORMALLY****
TOTAL RUN TIME: 0 days 2 hours 10 minutes 46 seconds 559 msec
