                         Program Version 5.0.0 -  RELEASE  -
|  1> !DLPNO-CCSD(T) aug-cc-pVTZ aug-cc-pVTZ/C TightSCF TightPNO RIJCOSX def2/J
|  2> *xyz 0 1
|  3> C          3.48828        1.60092       -1.52204
|  4> N          2.81029        0.42878       -1.01420
|  5> C          3.29098       -0.41802       -0.12908
|  6> N          2.51754       -1.43202        0.23936
|  7> C          4.53549       -0.28441        0.39580
|  8> H          5.04363        0.57189        0.22290
|  9> H          4.72335       -0.73327        1.28180
| 10> H          1.93479        0.10230       -1.40379
| 11> H          1.67464       -1.50562       -0.31610
| 12> H          2.92850       -2.21850        0.72549
| 13> H          2.85802        2.09943       -2.22855
| 14> H          4.39853        1.30677       -2.00144
| 15> H          3.70992        2.26379       -0.71187
| 16> *
| 17> %MaxCore 64000
| 18>
| 19> %pal nprocs 2
| 20> end
| 21>
| 22> %scf
| 23>   MaxIter 150
| 24> end
| 25>
| 26>
| 27>                          ****END OF INPUT****

CARTESIAN COORDINATES (ANGSTROEM)
---------------------------------
  C      3.488280    1.600920   -1.522040
  N      2.810290    0.428780   -1.014200
  C      3.290980   -0.418020   -0.129080
  N      2.517540   -1.432020    0.239360
  C      4.535490   -0.284410    0.395800
  H      5.043630    0.571890    0.222900
  H      4.723350   -0.733270    1.281800
  H      1.934790    0.102300   -1.403790
  H      1.674640   -1.505620   -0.316100
  H      2.928500   -2.218500    0.725490
  H      2.858020    2.099430   -2.228550
  H      4.398530    1.306770   -2.001440
  H      3.709920    2.263790   -0.711870

 Total Charge           Charge          ....    0
 Multiplicity           Mult            ....    1
 Number of Electrons    NEL             ....   40
 Basis Dimension        Dim             ....  414

ORBITAL ENERGIES
----------------

  NO   OCC          E(Eh)            E(eV)
   0   2.0000     -15.569184      -423.6590
   1   2.0000     -15.565314      -423.5537
   2   2.0000     -11.289706      -307.2085
   3   2.0000     -11.254107      -306.2398
   4   2.0000     -11.129326      -302.8443
   5   2.0000      -1.299671       -35.3658
   6   2.0000      -1.186041       -32.2738
   7   2.0000      -0.977411       -26.5967
   8   2.0000      -0.948227       -25.8026
   9   2.0000      -0.770742       -20.9730
  10   2.0000      -0.724980       -19.7277
  11   2.0000      -0.713260       -19.4088
  12   2.0000      -0.629124       -17.1193
  13   2.0000      -0.612622       -16.6703
  14   2.0000      -0.578480       -15.7412
  15   2.0000      -0.543423       -14.7873
  16   2.0000      -0.526447       -14.3253
  17   2.0000      -0.523967       -14.2579
  18   2.0000      -0.396822       -10.7981
  19   2.0000      -0.267411        -7.2766
  20   0.0000       0.023373         0.6360
  21   0.0000       0.034491         0.9386
  22   0.0000       0.041603         1.1321
  23   0.0000       0.051807         1.4098
  24   0.0000       0.054773         1.4905

MULLIKEN ATOMIC CHARGES
-----------------------
   0 C :   -0.952687
   1 N :   -0.104935
   2 C :    0.446021
   3 N :   -0.463874
   4 C :   -1.151099
   5 H :    0.435165
   6 H :    0.344714
   7 H :    0.119228
   8 H :    0.118945
   9 H :    0.108938
  10 H :    0.403419
  11 H :    0.342494
  12 H :    0.353673
Sum of atomic charges:    0.0000000

LOEWDIN ATOMIC CHARGES
----------------------
   0 C :    0.526846
   1 N :    0.552677
   2 C :   -0.464428
   3 N :    0.860088
   4 C :    0.548758
   5 H :   -0.337943
   6 H :   -0.320178
   7 H :   -0.281997
   8 H :   -0.298357
   9 H :   -0.262102
  10 H :   -0.172162
  11 H :   -0.175229
  12 H :   -0.175973

  Mayer bond orders larger than 0.100000
B(  0-C ,  1-N ) :   0.9616 B(  0-C ,  2-C ) :  -0.1091 B(  0-C , 10-H ) :   0.8672
B(  0-C , 11-H ) :   0.9131 B(  0-C , 12-H ) :   0.9049 B(  1-N ,  2-C ) :   0.7540
B(  1-N ,  3-N ) :  -0.1820 B(  1-N ,  4-C ) :  -0.1376 B(  1-N ,  7-H ) :   1.1001
B(  2-C ,  3-N ) :   0.8809 B(  2-C ,  4-C ) :   1.1442 B(  3-N ,  4-C ) :  -0.1454
B(  3-N ,  8-H ) :   1.0977 B(  3-N ,  9-H ) :   1.1111 B(  4-C ,  5-H ) :   0.8182
B(  4-C ,  6-H ) :   0.9744

E(0)                                       ...   -227.196135224
E(0)                                       ...   -227.196135224
E(CORR)(strong-pairs)                      ...     -0.975995029
E(CORR)(weak-pairs)                        ...     -0.000984788
E(CORR)(corrected)                         ...     -0.976979817
E(TOT)                                     ...   -228.173115041
E(CCSD(T))                                 ...   -228.213188859
FINAL SINGLE POINT ENERGY      -228.213188859105

DIPOLE MOMENT
-------------
                                X             Y             Z
Electronic contribution:     -1.91920      -1.93092       0.37180
Nuclear contribution   :      0.80512       1.90624      -0.99336
                        -----------------------------------------
Total Dipole Moment    :     -1.11408      -0.02468      -0.62156
                        -----------------------------------------
Magnitude (a.u.)       :      1.27598
Magnitude (Debye)      :      3.24328

Rotational constants in cm-1:     0.332728     0.136065     0.098521
Rotational constants in MHz :  9974.927067  4079.126590  2953.598000

                             ****ORCA TERMINATED NORMALLY****
TOTAL RUN TIME: 0 days 2 hours 14 minutes 10 seconds 444 msec
