                         Program Version 5.0.0 -  RELEASE  -
|  1> !DLPNO-CCSD(T) aug-cc-pVTZ aug-cc-pVTZ/C TightSCF TightPNO RIJCOSX def2/J
|  2>
|  3> *xyzfile 0 1 D2.xyz
|  4>
|  5> %MaxCore 64000
|  6>
|  7> %pal nprocs 18
|  8> end
|  9>
| 10> %scf
| 11>   MaxIter 150
| 12> end
| 13>
| 14>
| 15>                          ****END OF INPUT****

CARTESIAN COORDINATES (ANGSTROEM)
---------------------------------
  C      3.488276    1.600919   -1.522040
  C      4.342970    1.313419   -2.756826
  N      2.810285    0.428783   -1.014196
  H      5.132033    0.604994   -2.484466
  C      3.535896    0.749253   -3.924604
  H      4.841247    2.242136   -3.054083
  H      2.991617   -0.132199   -3.574137
  H      4.225505    0.392784   -4.695962
  C      2.564776    1.750890   -4.544523
  H      1.918749    2.171679   -3.769419
  C      1.686235    1.161657   -5.650111
  H      3.132494    2.594775   -4.951604
  C      0.839616   -0.037582   -5.220473
  H      2.323886    0.866395   -6.490796
  H      1.029518    1.951850   -6.029329
  C     -0.151019    0.254955   -4.094256
  H      1.499442   -0.857141   -4.922958
  H      0.290097   -0.410143   -6.091131
  H      0.328265    0.833022   -3.299125
  C     -0.721843   -0.999513   -3.439309
  H     -0.957367    0.884951   -4.485450
  H     -1.083403   -1.697555   -4.205656
  H     -1.581056   -0.723848   -2.820490
  C      0.287250   -1.711771   -2.527405
  H      1.131780   -2.067380   -3.159396
  H     -0.204137   -2.637326   -2.170480
  F      0.710505   -0.927506   -1.481767
  H      2.714548    2.331455   -1.760302
  H      4.090991    2.063151   -0.733382
  C      3.290978   -0.418021   -0.129083
  C      2.517536   -1.432017    0.239360
  N      4.535490   -0.284410    0.395800
  H      5.043627    0.571888    0.222899
  H      4.723346   -0.733273    1.281800
  H      1.934787    0.102305   -1.403788
  H      1.674638   -1.505616   -0.316095
  H      2.928503   -2.218502    0.725494

 Total Charge           Charge          ....    0
 Multiplicity           Mult            ....    1
 Number of Electrons    NEL             ....  112
 Basis Dimension        Dim             .... 1173

ORBITAL ENERGIES
----------------

  NO   OCC          E(Eh)            E(eV)
   0   2.0000     -26.306354      -715.8323
   1   2.0000     -15.545544      -423.0158
   2   2.0000     -15.529874      -422.5893
   3   2.0000     -11.320530      -308.0473
   4   2.0000     -11.264375      -306.5192
   5   2.0000     -11.253951      -306.2356
   6   2.0000     -11.237958      -305.8004
   7   2.0000     -11.226809      -305.4970
   8   2.0000     -11.223262      -305.4005
   9   2.0000     -11.221301      -305.3471
  10   2.0000     -11.217858      -305.2534
  11   2.0000     -11.216068      -305.2047
  12   2.0000     -11.215437      -305.1875
  13   2.0000     -11.095216      -301.9162
  14   2.0000      -1.632006       -44.4091
  15   2.0000      -1.269046       -34.5325
  16   2.0000      -1.164424       -31.6856
  17   2.0000      -1.108462       -30.1628
  18   2.0000      -1.075739       -29.2723
  19   2.0000      -1.040947       -28.3256
  20   2.0000      -0.986352       -26.8400
  21   2.0000      -0.957067       -26.0431
  22   2.0000      -0.915625       -24.9154
  23   2.0000      -0.878342       -23.9009
  24   2.0000      -0.832479       -22.6529
  25   2.0000      -0.809076       -22.0161
  26   2.0000      -0.785534       -21.3755
  27   2.0000      -0.763970       -20.7887
  28   2.0000      -0.744341       -20.2545
  29   2.0000      -0.723703       -19.6930
  30   2.0000      -0.695135       -18.9156
  31   2.0000      -0.688684       -18.7401
  32   2.0000      -0.659164       -17.9368
  33   2.0000      -0.646703       -17.5977
  34   2.0000      -0.640755       -17.4358
  35   2.0000      -0.621578       -16.9140
  36   2.0000      -0.605542       -16.4776
  37   2.0000      -0.594879       -16.1875
  38   2.0000      -0.590581       -16.0705
  39   2.0000      -0.572466       -15.5776
  40   2.0000      -0.553306       -15.0562
  41   2.0000      -0.538427       -14.6513
  42   2.0000      -0.527668       -14.3586
  43   2.0000      -0.523843       -14.2545
  44   2.0000      -0.515694       -14.0328
  45   2.0000      -0.511836       -13.9278
  46   2.0000      -0.494429       -13.4541
  47   2.0000      -0.487512       -13.2659
  48   2.0000      -0.482057       -13.1174
  49   2.0000      -0.474201       -12.9037
  50   2.0000      -0.464671       -12.6443
  51   2.0000      -0.450624       -12.2621
  52   2.0000      -0.449320       -12.2266
  53   2.0000      -0.445122       -12.1124
  54   2.0000      -0.382977       -10.4213
  55   2.0000      -0.240982        -6.5575
  56   0.0000       0.024940         0.6787
  57   0.0000       0.028805         0.7838
  58   0.0000       0.031590         0.8596
  59   0.0000       0.032918         0.8957
  60   0.0000       0.041681         1.1342

MULLIKEN ATOMIC CHARGES
-----------------------
   0 C :   -0.784226
   1 C :   -0.448253
   2 N :   -0.070992
   3 H :    0.146824
   4 C :   -0.447809
   5 H :    0.327942
   6 H :    0.359820
   7 H :    0.275524
   8 C :   -0.278761
   9 H :    0.150301
  10 C :   -0.736360
  11 H :    0.305997
  12 C :   -0.290281
  13 H :    0.166043
  14 H :    0.148447
  15 C :   -0.342826
  16 H :    0.060896
  17 H :    0.480204
  18 H :    0.251758
  19 C :   -0.709398
  20 H :    0.249215
  21 H :    0.187412
  22 H :    0.251790
  23 C :   -0.191667
  24 H :    0.299298
  25 H :    0.367065
  26 F :   -0.645726
  27 H :    0.222067
  28 H :    0.284286
  29 C :    0.426577
  30 C :   -1.599735
  31 N :   -0.570787
  32 H :    0.082258
  33 H :    0.055615
  34 H :    0.899982
  35 H :    0.907044
  36 H :    0.210460
Sum of atomic charges:    0.0000000

LOEWDIN ATOMIC CHARGES
----------------------
   0 C :    0.224373
   1 C :    0.311524
   2 N :    0.585225
   3 H :   -0.140942
   4 C :    0.291460
   5 H :   -0.141556
   6 H :   -0.172534
   7 H :   -0.128050
   8 C :    0.287875
   9 H :   -0.174597
  10 C :    0.304855
  11 H :   -0.131030
  12 C :    0.286504
  13 H :   -0.138796
  14 H :   -0.138905
  15 C :    0.286284
  16 H :   -0.178361
  17 H :   -0.133621
  18 H :   -0.171026
  19 C :    0.294757
  20 H :   -0.127627
  21 H :   -0.134186
  22 H :   -0.147368
  23 C :    0.014458
  24 H :   -0.147012
  25 H :   -0.141330
  26 F :    0.747389
  27 H :   -0.151224
  28 H :   -0.148738
  29 C :   -0.429205
  30 C :    0.544955
  31 N :    0.872845
  32 H :   -0.323945
  33 H :   -0.276495
  34 H :   -0.524611
  35 H :   -0.547937
  36 H :   -0.303407

  Mayer bond orders larger than 0.100000
B(  0-C ,  1-C ) :   0.9058 B(  0-C ,  2-N ) :   1.1918 B(  0-C ,  4-C ) :   0.1161
B(  0-C , 27-H ) :   1.0626 B(  0-C , 28-H ) :   0.9897 B(  0-C , 29-C ) :  -0.1870
B(  0-C , 34-H ) :  -0.2633 B(  1-C ,  2-N ) :  -0.1003 B(  1-C ,  3-H ) :   1.1138
B(  1-C ,  4-C ) :   0.9611 B(  1-C ,  5-H ) :   0.8644 B(  2-N , 26-F ) :  -0.1580
B(  2-N , 27-H ) :   0.1872 B(  2-N , 28-H ) :  -0.1419 B(  2-N , 29-C ) :   0.7935
B(  2-N , 30-C ) :  -0.2091 B(  2-N , 31-N ) :  -0.1247 B(  2-N , 34-H ) :   0.2270
B(  4-C ,  6-H ) :   0.8920 B(  4-C ,  7-H ) :   0.9917 B(  4-C ,  8-C ) :   0.7814
B(  6-H ,  8-C ) :   0.1074 B(  8-C ,  9-H ) :   1.0762 B(  8-C , 10-C ) :   0.8809
B(  8-C , 11-H ) :   0.9412 B( 10-C , 12-C ) :   0.9666 B( 10-C , 13-H ) :   1.0519
B( 10-C , 14-H ) :   1.0779 B( 10-C , 16-H ) :   0.1336 B( 12-C , 15-C ) :   0.7481
B( 12-C , 16-H ) :   1.1115 B( 12-C , 17-H ) :   0.8031 B( 15-C , 18-H ) :   1.0233
B( 15-C , 19-C ) :   0.9756 B( 15-C , 20-H ) :   0.9815 B( 15-C , 26-F ) :  -0.1528
B( 19-C , 21-H ) :   1.0430 B( 19-C , 22-H ) :   0.9933 B( 19-C , 23-C ) :   0.9080
B( 19-C , 26-F ) :   0.1817 B( 23-C , 24-H ) :   0.9853 B( 23-C , 25-H ) :   0.8804
B( 23-C , 26-F ) :   0.7762 B( 26-F , 34-H ) :  -0.1726 B( 26-F , 35-H ) :  -0.1522
B( 29-C , 30-C ) :   1.3897 B( 29-C , 31-N ) :   0.6376 B( 29-C , 32-H ) :  -0.1272
B( 29-C , 34-H ) :  -0.3586 B( 29-C , 35-H ) :  -0.1451 B( 30-C , 31-N ) :  -0.2525
B( 30-C , 34-H ) :  -0.1716 B( 30-C , 35-H ) :   0.2166 B( 30-C , 36-H ) :   1.3250
B( 31-N , 32-H ) :   1.1430 B( 31-N , 33-H ) :   1.1438

E(0)                                       ...   -638.422731220
E(0)                                       ...   -638.422731220
E(CORR)(strong-pairs)                      ...     -2.727696278
E(CORR)(weak-pairs)                        ...     -0.005039532
E(CORR)(corrected)                         ...     -2.732735810
E(TOT)                                     ...   -641.155467030
E(CCSD(T))                                 ...   -641.266315178
FINAL SINGLE POINT ENERGY      -641.266315178356

DIPOLE MOMENT
-------------
                                X             Y             Z
Electronic contribution:     -1.25273      -3.10413       9.34321
Nuclear contribution   :      1.09892       3.58083     -10.64472
                        -----------------------------------------
Total Dipole Moment    :     -0.15381       0.47671      -1.30151
                        -----------------------------------------
Magnitude (a.u.)       :      1.39457
Magnitude (Debye)      :      3.54473

Rotational constants in cm-1:     0.026768     0.016312     0.010954
Rotational constants in MHz :   802.489946   489.033275   328.388904

                             ****ORCA TERMINATED NORMALLY****
TOTAL RUN TIME: 0 days 5 hours 24 minutes 9 seconds 855 msec
