                         Program Version 5.0.0 -  RELEASE  -
|  1> !B3LYP D3BJ RIJCOSX def2-TZVPD def2/J TightSCF
|  2>
|  3> *xyz -1 1
|  4> C          2.95263        1.86308       -3.57485
|  5> C          4.12921        0.89839       -3.41895
|  6> H          3.73369       -0.10060       -3.23763
|  7> H          4.71910        0.86256       -4.33901
|  8> C          5.01734        1.31521       -2.22130
|  9> O          4.73706        0.85411       -1.12283
| 10> O          5.92815        2.16811       -2.49136
| 11> H          2.35067        1.56005       -4.40594
| 12> H          3.32277        2.85258       -3.74453
| 13> H          2.36134        1.85149       -2.68315
| 14> *
| 15> %MaxCore 64000
| 16>
| 17> %pal nprocs 4
| 18> end
| 19>
| 20> %scf
| 21>   MaxIter 150
| 22> end
| 23>
| 24>
| 25>                          ****END OF INPUT****

CARTESIAN COORDINATES (ANGSTROEM)
---------------------------------
  C      2.952630    1.863080   -3.574850
  C      4.129210    0.898390   -3.418950
  H      3.733690   -0.100600   -3.237630
  H      4.719100    0.862560   -4.339010
  C      5.017340    1.315210   -2.221300
  O      4.737060    0.854110   -1.122830
  O      5.928150    2.168110   -2.491360
  H      2.350670    1.560050   -4.405940
  H      3.322770    2.852580   -3.744530
  H      2.361340    1.851490   -2.683150

 Total Charge           Charge          ....   -1
 Multiplicity           Mult            ....    1
 Number of Electrons    NEL             ....   40
 Basis Dimension        Dim             ....  236

ORBITAL ENERGIES
----------------

  NO   OCC          E(Eh)            E(eV)
   0   2.0000     -18.867123      -513.4005
   1   2.0000     -18.856923      -513.1230
   2   2.0000     -10.050873      -273.4982
   3   2.0000     -10.004875      -272.2465
   4   2.0000      -9.991392      -271.8796
   5   2.0000      -0.826154       -22.4808
   6   2.0000      -0.730532       -19.8788
   7   2.0000      -0.603933       -16.4339
   8   2.0000      -0.468959       -12.7610
   9   2.0000      -0.320303        -8.7159
  10   2.0000      -0.289934        -7.8895
  11   2.0000      -0.260382        -7.0854
  12   2.0000      -0.229501        -6.2450
  13   2.0000      -0.211662        -5.7596
  14   2.0000      -0.211006        -5.7418
  15   2.0000      -0.178605        -4.8601
  16   2.0000      -0.167020        -4.5448
  17   2.0000      -0.050791        -1.3821
  18   2.0000      -0.040805        -1.1104
  19   2.0000      -0.029654        -0.8069
  20   0.0000       0.134068         3.6482
  21   0.0000       0.159420         4.3381
  22   0.0000       0.173445         4.7197
  23   0.0000       0.183044         4.9809
  24   0.0000       0.211242         5.7482

MULLIKEN ATOMIC CHARGES
-----------------------
   0 C :   -1.142559
   1 C :   -0.005444
   2 H :    0.185606
   3 H :    0.195249
   4 C :    0.404988
   5 O :   -0.688601
   6 O :   -0.760812
   7 H :    0.237695
   8 H :    0.287748
   9 H :    0.286129
Sum of atomic charges:   -1.0000000

LOEWDIN ATOMIC CHARGES
----------------------
   0 C :   -0.128106
   1 C :   -0.209822
   2 H :    0.081835
   3 H :    0.085394
   4 C :   -0.781653
   5 O :   -0.070607
   6 O :   -0.132755
   7 H :    0.039751
   8 H :    0.057766
   9 H :    0.058198

  Mayer bond orders larger than 0.100000
B(  0-C ,  1-C ) :   0.5392 B(  0-C ,  4-C ) :   0.1605 B(  0-C ,  7-H ) :   0.9612
B(  0-C ,  8-H ) :   0.9920 B(  0-C ,  9-H ) :   0.9886 B(  1-C ,  2-H ) :   0.9993
B(  1-C ,  3-H ) :   0.9853 B(  1-C ,  4-C ) :   0.8483 B(  4-C ,  5-O ) :   1.4905
B(  4-C ,  6-O ) :   1.3967

Dispersion correction           -0.010997444
FINAL SINGLE POINT ENERGY      -267.816324292652

DIPOLE MOMENT
-------------
                                X             Y             Z
Electronic contribution:      4.42855      -0.20413       3.91001
Nuclear contribution   :     -5.85873      -0.10793      -5.24103
                        -----------------------------------------
Total Dipole Moment    :     -1.43018      -0.31206      -1.33102
                        -----------------------------------------
Magnitude (a.u.)       :      1.97848
Magnitude (Debye)      :      5.02891

Rotational constants in cm-1:     0.292505     0.135951     0.110253
Rotational constants in MHz :  8769.065873  4075.717001  3305.311891

                             ****ORCA TERMINATED NORMALLY****
TOTAL RUN TIME: 0 days 0 hours 0 minutes 30 seconds 537 msec
