                         Program Version 5.0.0 -  RELEASE  -
|  1> !B3LYP D3BJ RIJCOSX def2-TZVPD def2/J TightSCF
|  2>
|  3> *xyz 1 1
|  4> C          3.34350        3.35457       -3.59200
|  5> C          2.95263        1.86308       -3.57485
|  6> C          4.25587        3.70385       -4.72605
|  7> N          3.73403        4.29378       -5.80077
|  8> N          5.51504        3.40725       -4.63718
|  9> H          6.14919        3.60120       -5.39905
| 10> H          5.81358        2.89950       -3.80879
| 11> H          2.74138        4.51311       -5.82470
| 12> H          4.28755        4.52126       -6.61434
| 13> H          3.86125        3.59725       -2.66298
| 14> H          2.44649        3.97346       -3.65656
| 15> H          2.44395        1.61721       -4.48352
| 16> H          2.30781        1.67290       -2.74242
| 17> H          3.83491        1.26414       -3.48670
| 18> *
| 19> %MaxCore 64000
| 20>
| 21> %pal nprocs 4
| 22> end
| 23>
| 24> %scf
| 25>   MaxIter 150
| 26> end
| 27>
| 28>
| 29>                          ****END OF INPUT****

CARTESIAN COORDINATES (ANGSTROEM)
---------------------------------
  C      3.343500    3.354570   -3.592000
  C      2.952630    1.863080   -3.574850
  C      4.255870    3.703850   -4.726050
  N      3.734030    4.293780   -5.800770
  N      5.515040    3.407250   -4.637180
  H      6.149190    3.601200   -5.399050
  H      5.813580    2.899500   -3.808790
  H      2.741380    4.513110   -5.824700
  H      4.287550    4.521260   -6.614340
  H      3.861250    3.597250   -2.662980
  H      2.446490    3.973460   -3.656560
  H      2.443950    1.617210   -4.483520
  H      2.307810    1.672900   -2.742420
  H      3.834910    1.264140   -3.486700

 Total Charge           Charge          ....    1
 Multiplicity           Mult            ....    1
 Number of Electrons    NEL             ....   40
 Basis Dimension        Dim             ....  266

ORBITAL ENERGIES
----------------

  NO   OCC          E(Eh)            E(eV)
   0   2.0000     -14.563049      -396.2807
   1   2.0000     -14.558623      -396.1603
   2   2.0000     -10.490020      -285.4479
   3   2.0000     -10.367325      -282.1093
   4   2.0000     -10.323638      -280.9205
   5   2.0000      -1.204206       -32.7681
   6   2.0000      -1.110446       -30.2168
   7   2.0000      -0.967762       -26.3341
   8   2.0000      -0.861106       -23.4319
   9   2.0000      -0.815706       -22.1965
  10   2.0000      -0.778181       -21.1754
  11   2.0000      -0.751397       -20.4465
  12   2.0000      -0.703593       -19.1458
  13   2.0000      -0.647765       -17.6266
  14   2.0000      -0.624503       -16.9936
  15   2.0000      -0.612923       -16.6785
  16   2.0000      -0.545572       -14.8458
  17   2.0000      -0.537568       -14.6280
  18   2.0000      -0.530244       -14.4287
  19   2.0000      -0.493499       -13.4288
  20   0.0000      -0.211135        -5.7453
  21   0.0000      -0.171136        -4.6569
  22   0.0000      -0.129281        -3.5179
  23   0.0000      -0.124051        -3.3756
  24   0.0000      -0.098114        -2.6698

MULLIKEN ATOMIC CHARGES
-----------------------
   0 C :   -0.402352
   1 C :   -1.065009
   2 C :    0.695792
   3 N :   -0.294247
   4 N :   -0.268640
   5 H :    0.198331
   6 H :    0.229673
   7 H :    0.218902
   8 H :    0.181345
   9 H :    0.274526
  10 H :    0.263472
  11 H :    0.332991
  12 H :    0.310702
  13 H :    0.324515
Sum of atomic charges:    1.0000000

LOEWDIN ATOMIC CHARGES
----------------------
   0 C :   -0.143848
   1 C :   -0.046208
   2 C :   -0.362066
   3 N :    0.228721
   4 N :    0.239114
   5 H :    0.150435
   6 H :    0.154927
   7 H :    0.146384
   8 H :    0.140428
   9 H :    0.129849
  10 H :    0.124585
  11 H :    0.080237
  12 H :    0.084329
  13 H :    0.073113

  Mayer bond orders larger than 0.100000
B(  0-C ,  1-C ) :   0.6411 B(  0-C ,  2-C ) :   0.7648 B(  0-C ,  9-H ) :   0.9597
B(  0-C , 10-H ) :   0.9767 B(  1-C , 11-H ) :   0.9610 B(  1-C , 12-H ) :   0.9818
B(  1-C , 13-H ) :   0.9236 B(  2-C ,  3-N ) :   1.1458 B(  2-C ,  4-N ) :   1.2538
B(  3-N ,  4-N ) :   0.1033 B(  3-N ,  7-H ) :   0.9537 B(  3-N ,  8-H ) :   1.0316
B(  4-N ,  5-H ) :   1.0007 B(  4-N ,  6-H ) :   0.9371

Dispersion correction           -0.016658870
FINAL SINGLE POINT ENERGY      -228.994366849392

DIPOLE MOMENT
-------------
                                X             Y             Z
Electronic contribution:      2.36572       2.56783      -2.27079
Nuclear contribution   :     -1.74195      -2.09431       1.58516
                        -----------------------------------------
Total Dipole Moment    :      0.62377       0.47352      -0.68562
                        -----------------------------------------
Magnitude (a.u.)       :      1.04086
Magnitude (Debye)      :      2.64566

Rotational constants in cm-1:     0.258965     0.126500     0.098780
Rotational constants in MHz :  7763.584551  3792.383135  2961.336502

                             ****ORCA TERMINATED NORMALLY****
TOTAL RUN TIME: 0 days 0 hours 0 minutes 35 seconds 749 msec
