                         Program Version 5.0.0 -  RELEASE  -
|  1> !B3LYP D3BJ RIJCOSX def2-TZVPD def2/J TightSCF xyzfile
|  2>
|  3> *xyzfile 0 1 B.xyz
|  4>
|  5> %MaxCore 64000
|  6>
|  7> %pal nprocs 4
|  8> end
|  9>
| 10> %scf
| 11>   MaxIter 150
| 12> end
| 13>
| 14>
| 15>                          ****END OF INPUT****

CARTESIAN COORDINATES (ANGSTROEM)
---------------------------------
  C      3.343500    3.354571   -3.591998
  C      2.952633    1.863077   -3.574849
  C      4.129209    0.898394   -3.418950
  H      3.733687   -0.100605   -3.237633
  H      4.719095    0.862556   -4.339005
  C      5.017344    1.315212   -2.221305
  C      4.255868    3.703851   -4.726054
  N      3.734032    4.293783   -5.800770
  N      5.515039    3.407255   -4.637185
  H      6.149187    3.601203   -5.399053
  H      5.813584    2.899504   -3.808785
  H      2.741380    4.513109   -5.824701
  H      4.287548    4.521260   -6.614341
  H      2.278938    1.735250   -2.725496
  H      2.377466    1.625787   -4.475869
  O      4.737055    0.854112   -1.122825
  O      5.928146    2.168108   -2.491365
  H      3.861246    3.597252   -2.662979
  H      2.446493    3.973461   -3.656556

 Total Charge           Charge          ....    0
 Multiplicity           Mult            ....    1
 Number of Electrons    NEL             ....   70
 Basis Dimension        Dim             ....  429

ORBITAL ENERGIES
----------------

  NO   OCC          E(Eh)            E(eV)
   0   2.0000     -19.035733      -517.9886
   1   2.0000     -19.022928      -517.6402
   2   2.0000     -14.413387      -392.2082
   3   2.0000     -14.373882      -391.1332
   4   2.0000     -10.329909      -281.0911
   5   2.0000     -10.216552      -278.0065
   6   2.0000     -10.213114      -277.9130
   7   2.0000     -10.188533      -277.2441
   8   2.0000     -10.148083      -276.1434
   9   2.0000      -1.044844       -28.4316
  10   2.0000      -0.993757       -27.0415
  11   2.0000      -0.950806       -25.8728
  12   2.0000      -0.905900       -24.6508
  13   2.0000      -0.822830       -22.3903
  14   2.0000      -0.737930       -20.0801
  15   2.0000      -0.677491       -18.4355
  16   2.0000      -0.632158       -17.2019
  17   2.0000      -0.619792       -16.8654
  18   2.0000      -0.587829       -15.9956
  19   2.0000      -0.545065       -14.8320
  20   2.0000      -0.500669       -13.6239
  21   2.0000      -0.484007       -13.1705
  22   2.0000      -0.463034       -12.5998
  23   2.0000      -0.449023       -12.2185
  24   2.0000      -0.424692       -11.5565
  25   2.0000      -0.399441       -10.8693
  26   2.0000      -0.379479       -10.3261
  27   2.0000      -0.373184       -10.1549
  28   2.0000      -0.368474       -10.0267
  29   2.0000      -0.340845        -9.2749
  30   2.0000      -0.331345        -9.0164
  31   2.0000      -0.329220        -8.9585
  32   2.0000      -0.221695        -6.0326
  33   2.0000      -0.215608        -5.8670
  34   2.0000      -0.193991        -5.2788
  35   0.0000      -0.056452        -1.5361
  36   0.0000      -0.046391        -1.2624
  37   0.0000      -0.008745        -0.2380
  38   0.0000       0.010175         0.2769
  39   0.0000       0.018912         0.5146

MULLIKEN ATOMIC CHARGES
-----------------------
   0 C :   -0.418947
   1 C :   -0.575311
   2 C :   -0.293822
   3 H :    0.205517
   4 H :    0.248940
   5 C :    0.459258
   6 C :    0.433789
   7 N :   -0.306355
   8 N :   -0.238857
   9 H :    0.139543
  10 H :    0.392985
  11 H :    0.202877
  12 H :    0.157955
  13 H :    0.273311
  14 H :    0.187555
  15 O :   -0.633470
  16 O :   -0.799495
  17 H :    0.316053
  18 H :    0.248474
Sum of atomic charges:    0.0000000

LOEWDIN ATOMIC CHARGES
----------------------
   0 C :   -0.102311
   1 C :   -0.171224
   2 C :   -0.125076
   3 H :    0.109698
   4 H :    0.099523
   5 C :   -0.693743
   6 C :   -0.360043
   7 N :    0.187753
   8 N :    0.234031
   9 H :    0.138740
  10 H :    0.022608
  11 H :    0.127464
  12 H :    0.122897
  13 H :    0.119331
  14 H :    0.107363
  15 O :    0.013901
  16 O :   -0.079251
  17 H :    0.132176
  18 H :    0.116167

  Mayer bond orders larger than 0.100000
B(  0-C ,  1-C ) :   0.7548 B(  0-C ,  6-C ) :   0.7326 B(  0-C , 17-H ) :   0.9199
B(  0-C , 18-H ) :   0.9934 B(  1-C ,  2-C ) :   0.8547 B(  1-C ,  5-C ) :   0.1279
B(  1-C ,  6-C ) :   0.1969 B(  1-C , 13-H ) :   0.9207 B(  1-C , 14-H ) :   0.9800
B(  2-C ,  3-H ) :   1.0115 B(  2-C ,  4-H ) :   0.9250 B(  2-C ,  5-C ) :   0.8661
B(  2-C ,  8-N ) :   0.1121 B(  5-C , 15-O ) :   1.5602 B(  5-C , 16-O ) :   1.2591
B(  6-C ,  7-N ) :   1.0530 B(  6-C ,  8-N ) :   1.3683 B(  7-N , 11-H ) :   0.9788
B(  7-N , 12-H ) :   1.0288 B(  8-N ,  9-H ) :   1.0287 B(  8-N , 10-H ) :   0.6995
B( 10-H , 16-O ) :   0.1156

Dispersion correction           -0.031225525
FINAL SINGLE POINT ENERGY      -456.472373592511

DIPOLE MOMENT
-------------
                                X             Y             Z
Electronic contribution:      3.90615       0.00241       2.63895
Nuclear contribution   :     -5.42217       2.65262      -7.07590
                        -----------------------------------------
Total Dipole Moment    :     -1.51602       2.65503      -4.43695
                        -----------------------------------------
Magnitude (a.u.)       :      5.38832
Magnitude (Debye)      :     13.69603

Rotational constants in cm-1:     0.107541     0.035862     0.030371
Rotational constants in MHz :  3223.996852  1075.120464   910.508313

                             ****ORCA TERMINATED NORMALLY****
TOTAL RUN TIME: 0 days 0 hours 2 minutes 21 seconds 918 msec
