                         Program Version 5.0.0 -  RELEASE  -
|  1> !B3LYP D3BJ RIJCOSX def2-TZVPD def2/J TightSCF
|  2>
|  3> *xyz 0 1
|  4> C          2.95263        1.86308       -3.57485
|  5> C          4.12921        0.89839       -3.41895
|  6> H          3.73369       -0.10060       -3.23763
|  7> H          4.71910        0.86256       -4.33901
|  8> C          5.01734        1.31521       -2.22130
|  9> F          4.73706        0.85411       -1.12283
| 10> O          5.92815        2.16811       -2.49136
| 11> H          2.35067        1.56005       -4.40594
| 12> H          3.32277        2.85258       -3.74453
| 13> H          2.36134        1.85149       -2.68315
| 14> *
| 15> %MaxCore 64000
| 16>
| 17> %pal nprocs 4
| 18> end
| 19>
| 20> %scf
| 21>   MaxIter 150
| 22> end
| 23>
| 24>
| 25>                          ****END OF INPUT****

CARTESIAN COORDINATES (ANGSTROEM)
---------------------------------
  C      2.952630    1.863080   -3.574850
  C      4.129210    0.898390   -3.418950
  H      3.733690   -0.100600   -3.237630
  H      4.719100    0.862560   -4.339010
  C      5.017340    1.315210   -2.221300
  F      4.737060    0.854110   -1.122830
  O      5.928150    2.168110   -2.491360
  H      2.350670    1.560050   -4.405940
  H      3.322770    2.852580   -3.744530
  H      2.361340    1.851490   -2.683150

 Total Charge           Charge          ....    0
 Multiplicity           Mult            ....    1
 Number of Electrons    NEL             ....   40
 Basis Dimension        Dim             ....  236

ORBITAL ENERGIES
----------------

  NO   OCC          E(Eh)            E(eV)
   0   2.0000     -24.766253      -673.9240
   1   2.0000     -19.128774      -520.5204
   2   2.0000     -10.350970      -281.6642
   3   2.0000     -10.199698      -277.5479
   4   2.0000     -10.175797      -276.8975
   5   2.0000      -1.345988       -36.6262
   6   2.0000      -1.021322       -27.7916
   7   2.0000      -0.800886       -21.7932
   8   2.0000      -0.695159       -18.9162
   9   2.0000      -0.649493       -17.6736
  10   2.0000      -0.564538       -15.3619
  11   2.0000      -0.550552       -14.9813
  12   2.0000      -0.507827       -13.8187
  13   2.0000      -0.465911       -12.6781
  14   2.0000      -0.436619       -11.8810
  15   2.0000      -0.400999       -10.9117
  16   2.0000      -0.379894       -10.3375
  17   2.0000      -0.374288       -10.1849
  18   2.0000      -0.344822        -9.3831
  19   2.0000      -0.286714        -7.8019
  20   0.0000      -0.034079        -0.9273
  21   0.0000       0.000879         0.0239
  22   0.0000       0.027461         0.7473
  23   0.0000       0.037608         1.0234
  24   0.0000       0.047654         1.2967

MULLIKEN ATOMIC CHARGES
-----------------------
   0 C :   -1.142497
   1 C :   -0.061289
   2 H :    0.231408
   3 H :    0.223357
   4 C :    0.554869
   5 F :   -0.197869
   6 O :   -0.515141
   7 H :    0.263783
   8 H :    0.320801
   9 H :    0.322576
Sum of atomic charges:   -0.0000000

LOEWDIN ATOMIC CHARGES
----------------------
   0 C :   -0.086285
   1 C :   -0.152490
   2 H :    0.103999
   3 H :    0.115501
   4 C :   -0.498703
   5 F :    0.247683
   6 O :    0.057485
   7 H :    0.067773
   8 H :    0.074007
   9 H :    0.071031

  Mayer bond orders larger than 0.100000
B(  0-C ,  1-C ) :   0.5915 B(  0-C ,  4-C ) :   0.1481 B(  0-C ,  7-H ) :   0.9779
B(  0-C ,  8-H ) :   0.9784 B(  0-C ,  9-H ) :   0.9361 B(  1-C ,  2-H ) :   0.9679
B(  1-C ,  3-H ) :   0.9776 B(  1-C ,  4-C ) :   0.8540 B(  4-C ,  5-F ) :   1.0375
B(  4-C ,  6-O ) :   1.7119

Dispersion correction           -0.010391843
FINAL SINGLE POINT ENERGY      -292.371005997477

DIPOLE MOMENT
-------------
                                X             Y             Z
Electronic contribution:      5.04881      -1.18043       6.51756
Nuclear contribution   :     -6.06116       0.51860      -6.80802
                        -----------------------------------------
Total Dipole Moment    :     -1.01234      -0.66183      -0.29046
                        -----------------------------------------
Magnitude (a.u.)       :      1.24388
Magnitude (Debye)      :      3.16168

Rotational constants in cm-1:     0.276196     0.132056     0.105465
Rotational constants in MHz :  8280.156449  3958.940601  3161.775929

                             ****ORCA TERMINATED NORMALLY****
TOTAL RUN TIME: 0 days 0 hours 0 minutes 27 seconds 773 msec
