                         Program Version 5.0.0 -  RELEASE  -
|  1> !B3LYP D3BJ RIJCOSX def2-TZVPD def2/J TightSCF
|  2>
|  3> *xyz 0 1
|  4> C          3.34350        3.35457       -3.59200
|  5> C          2.95263        1.86308       -3.57485
|  6> C          4.25587        3.70385       -4.72605
|  7> C          3.73403        4.29378       -5.80077
|  8> N          5.51504        3.40725       -4.63718
|  9> H          6.14919        3.60120       -5.39905
| 10> H          5.81358        2.89950       -3.80879
| 11> H          2.74138        4.51311       -5.82470
| 12> H          4.28755        4.52126       -6.61434
| 13> H          3.86125        3.59725       -2.66298
| 14> H          2.44649        3.97346       -3.65656
| 15> H          2.44395        1.61721       -4.48352
| 16> H          2.30781        1.67290       -2.74242
| 17> H          3.83491        1.26414       -3.48670
| 18> *
| 19> %MaxCore 64000
| 20>
| 21> %pal nprocs 4
| 22> end
| 23>
| 24> %scf
| 25>   MaxIter 150
| 26> end
| 27>
| 28>
| 29>                          ****END OF INPUT****

CARTESIAN COORDINATES (ANGSTROEM)
---------------------------------
  C      3.343500    3.354570   -3.592000
  C      2.952630    1.863080   -3.574850
  C      4.255870    3.703850   -4.726050
  C      3.734030    4.293780   -5.800770
  N      5.515040    3.407250   -4.637180
  H      6.149190    3.601200   -5.399050
  H      5.813580    2.899500   -3.808790
  H      2.741380    4.513110   -5.824700
  H      4.287550    4.521260   -6.614340
  H      3.861250    3.597250   -2.662980
  H      2.446490    3.973460   -3.656560
  H      2.443950    1.617210   -4.483520
  H      2.307810    1.672900   -2.742420
  H      3.834910    1.264140   -3.486700

 Total Charge           Charge          ....    0
 Multiplicity           Mult            ....    1
 Number of Electrons    NEL             ....   40
 Basis Dimension        Dim             ....  266

ORBITAL ENERGIES
----------------

  NO   OCC          E(Eh)            E(eV)
   0   2.0000     -14.319145      -389.6437
   1   2.0000     -10.187151      -277.2065
   2   2.0000     -10.167526      -276.6725
   3   2.0000     -10.153413      -276.2884
   4   2.0000     -10.099188      -274.8129
   5   2.0000      -0.937807       -25.5190
   6   2.0000      -0.777094       -21.1458
   7   2.0000      -0.713114       -19.4048
   8   2.0000      -0.635583       -17.2951
   9   2.0000      -0.570238       -15.5170
  10   2.0000      -0.532808       -14.4984
  11   2.0000      -0.478802       -13.0289
  12   2.0000      -0.437749       -11.9118
  13   2.0000      -0.420902       -11.4533
  14   2.0000      -0.393719       -10.7136
  15   2.0000      -0.382537       -10.4094
  16   2.0000      -0.355053        -9.6615
  17   2.0000      -0.334701        -9.1077
  18   2.0000      -0.331567        -9.0224
  19   2.0000      -0.187360        -5.0983
  20   0.0000      -0.000340        -0.0093
  21   0.0000       0.026842         0.7304
  22   0.0000       0.034909         0.9499
  23   0.0000       0.039022         1.0618
  24   0.0000       0.051789         1.4093

MULLIKEN ATOMIC CHARGES
-----------------------
   0 C :   -0.425717
   1 C :   -1.025405
   2 C :    0.831481
   3 C :   -1.217714
   4 N :   -0.345596
   5 H :    0.152142
   6 H :    0.158802
   7 H :    0.253742
   8 H :    0.275186
   9 H :    0.265454
  10 H :    0.200898
  11 H :    0.306857
  12 H :    0.279299
  13 H :    0.290572
Sum of atomic charges:    0.0000000

LOEWDIN ATOMIC CHARGES
----------------------
   0 C :   -0.197347
   1 C :   -0.085293
   2 C :   -0.507692
   3 C :    0.025966
   4 N :    0.110908
   5 H :    0.115979
   6 H :    0.111607
   7 H :    0.016038
   8 H :    0.011308
   9 H :    0.105477
  10 H :    0.107320
  11 H :    0.068189
  12 H :    0.059652
  13 H :    0.057888

  Mayer bond orders larger than 0.100000
B(  0-C ,  1-C ) :   0.6262 B(  0-C ,  2-C ) :   0.7005 B(  0-C ,  9-H ) :   0.9858
B(  0-C , 10-H ) :   1.0013 B(  1-C , 11-H ) :   0.9947 B(  1-C , 12-H ) :   0.9796
B(  1-C , 13-H ) :   0.9502 B(  2-C ,  3-C ) :   1.1482 B(  2-C ,  4-N ) :   1.0238
B(  2-C ,  8-H ) :  -0.1027 B(  3-C ,  7-H ) :   0.9959 B(  3-C ,  8-H ) :   1.0343
B(  4-N ,  5-H ) :   1.0129 B(  4-N ,  6-H ) :   1.0127

Dispersion correction           -0.017393645
FINAL SINGLE POINT ENERGY      -212.523387829600

DIPOLE MOMENT
-------------
                                X             Y             Z
Electronic contribution:      2.32913       1.47915      -0.85734
Nuclear contribution   :     -1.79713      -1.86925       1.28073
                        -----------------------------------------
Total Dipole Moment    :      0.53200      -0.39010       0.42339
                        -----------------------------------------
Magnitude (a.u.)       :      0.78388
Magnitude (Debye)      :      1.99246

Rotational constants in cm-1:     0.269040     0.129645     0.102087
Rotational constants in MHz :  8065.609820  3886.645139  3060.489045

                             ****ORCA TERMINATED NORMALLY****
TOTAL RUN TIME: 0 days 0 hours 0 minutes 38 seconds 44 msec
