                         Program Version 5.0.0 -  RELEASE  -
|  1> !B3LYP D3BJ RIJCOSX def2-TZVPD def2/J TightSCF
|  2>
|  3> *xyz 0 1
|  4> C          2.95263        1.86308       -3.57485
|  5> C          4.12921        0.89839       -3.41895
|  6> H          3.73369       -0.10060       -3.23763
|  7> H          4.71910        0.86256       -4.33901
|  8> C          5.01734        1.31521       -2.22130
|  9> O          4.73706        0.85411       -1.12283
| 10> F          5.92815        2.16811       -2.49136
| 11> H          2.35067        1.56005       -4.40594
| 12> H          3.32277        2.85258       -3.74453
| 13> H          2.36134        1.85149       -2.68315
| 14> *
| 15> %MaxCore 64000
| 16>
| 17> %pal nprocs 4
| 18> end
| 19>
| 20> %scf
| 21>   MaxIter 150
| 22> end
| 23>
| 24>
| 25>                          ****END OF INPUT****

CARTESIAN COORDINATES (ANGSTROEM)
---------------------------------
  C      2.952630    1.863080   -3.574850
  C      4.129210    0.898390   -3.418950
  H      3.733690   -0.100600   -3.237630
  H      4.719100    0.862560   -4.339010
  C      5.017340    1.315210   -2.221300
  O      4.737060    0.854110   -1.122830
  F      5.928150    2.168110   -2.491360
  H      2.350670    1.560050   -4.405940
  H      3.322770    2.852580   -3.744530
  H      2.361340    1.851490   -2.683150

 Total Charge           Charge          ....    0
 Multiplicity           Mult            ....    1
 Number of Electrons    NEL             ....   40
 Basis Dimension        Dim             ....  236

ORBITAL ENERGIES
----------------

  NO   OCC          E(Eh)            E(eV)
   0   2.0000     -24.745350      -673.3552
   1   2.0000     -19.137812      -520.7663
   2   2.0000     -10.346444      -281.5410
   3   2.0000     -10.199293      -277.5369
   4   2.0000     -10.176045      -276.9043
   5   2.0000      -1.305534       -35.5254
   6   2.0000      -1.055166       -28.7125
   7   2.0000      -0.800552       -21.7841
   8   2.0000      -0.683382       -18.5958
   9   2.0000      -0.636994       -17.3335
  10   2.0000      -0.543932       -14.8011
  11   2.0000      -0.530545       -14.4369
  12   2.0000      -0.507561       -13.8114
  13   2.0000      -0.465201       -12.6588
  14   2.0000      -0.439868       -11.9694
  15   2.0000      -0.404807       -11.0153
  16   2.0000      -0.387576       -10.5465
  17   2.0000      -0.374186       -10.1821
  18   2.0000      -0.361348        -9.8328
  19   2.0000      -0.297784        -8.1031
  20   0.0000      -0.029013        -0.7895
  21   0.0000       0.001798         0.0489
  22   0.0000       0.027697         0.7537
  23   0.0000       0.038736         1.0541
  24   0.0000       0.047425         1.2905

MULLIKEN ATOMIC CHARGES
-----------------------
   0 C :   -1.139632
   1 C :   -0.066167
   2 H :    0.212813
   3 H :    0.243126
   4 C :    0.533625
   5 O :   -0.462371
   6 F :   -0.226902
   7 H :    0.262691
   8 H :    0.319421
   9 H :    0.323395
Sum of atomic charges:   -0.0000000

LOEWDIN ATOMIC CHARGES
----------------------
   0 C :   -0.086240
   1 C :   -0.150648
   2 H :    0.111997
   3 H :    0.108237
   4 C :   -0.492342
   5 O :    0.112334
   6 F :    0.183785
   7 H :    0.067759
   8 H :    0.070658
   9 H :    0.074461

  Mayer bond orders larger than 0.100000
B(  0-C ,  1-C ) :   0.5922 B(  0-C ,  4-C ) :   0.1442 B(  0-C ,  7-H ) :   0.9781
B(  0-C ,  8-H ) :   0.9394 B(  0-C ,  9-H ) :   0.9748 B(  1-C ,  2-H ) :   0.9863
B(  1-C ,  3-H ) :   0.9575 B(  1-C ,  4-C ) :   0.8503 B(  4-C ,  5-O ) :   1.7814
B(  4-C ,  6-F ) :   0.9756

Dispersion correction           -0.010391214
FINAL SINGLE POINT ENERGY      -292.387233421200

DIPOLE MOMENT
-------------
                                X             Y             Z
Electronic contribution:      7.03120       1.00705       4.23166
Nuclear contribution   :     -7.35982      -0.91407      -5.31589
                        -----------------------------------------
Total Dipole Moment    :     -0.32861       0.09298      -1.08424
                        -----------------------------------------
Magnitude (a.u.)       :      1.13675
Magnitude (Debye)      :      2.88940

Rotational constants in cm-1:     0.275433     0.132201     0.105422
Rotational constants in MHz :  8257.268192  3963.279062  3160.465566

                             ****ORCA TERMINATED NORMALLY****
TOTAL RUN TIME: 0 days 0 hours 0 minutes 27 seconds 612 msec
