                         Program Version 5.0.0 -  RELEASE  -
|  1> !B3LYP D3BJ RIJCOSX def2-TZVPD def2/J TightSCF
|  2>
|  3> *xyz 0 1
|  4> C          3.34350        3.35457       -3.59200
|  5> C          2.95263        1.86308       -3.57485
|  6> C          4.25587        3.70385       -4.72605
|  7> N          3.73403        4.29378       -5.80077
|  8> C          5.51504        3.40725       -4.63718
|  9> H          6.14919        3.60120       -5.39905
| 10> H          5.81358        2.89950       -3.80879
| 11> H          2.74138        4.51311       -5.82470
| 12> H          4.28755        4.52126       -6.61434
| 13> H          3.86125        3.59725       -2.66298
| 14> H          2.44649        3.97346       -3.65656
| 15> H          2.44395        1.61721       -4.48352
| 16> H          2.30781        1.67290       -2.74242
| 17> H          3.83491        1.26414       -3.48670
| 18> *
| 19> %MaxCore 64000
| 20>
| 21> %pal nprocs 4
| 22> end
| 23>
| 24> %scf
| 25>   MaxIter 150
| 26> end
| 27>
| 28>
| 29>                          ****END OF INPUT****

CARTESIAN COORDINATES (ANGSTROEM)
---------------------------------
  C      3.343500    3.354570   -3.592000
  C      2.952630    1.863080   -3.574850
  C      4.255870    3.703850   -4.726050
  N      3.734030    4.293780   -5.800770
  C      5.515040    3.407250   -4.637180
  H      6.149190    3.601200   -5.399050
  H      5.813580    2.899500   -3.808790
  H      2.741380    4.513110   -5.824700
  H      4.287550    4.521260   -6.614340
  H      3.861250    3.597250   -2.662980
  H      2.446490    3.973460   -3.656560
  H      2.443950    1.617210   -4.483520
  H      2.307810    1.672900   -2.742420
  H      3.834910    1.264140   -3.486700

 Total Charge           Charge          ....    0
 Multiplicity           Mult            ....    1
 Number of Electrons    NEL             ....   40
 Basis Dimension        Dim             ....  266

ORBITAL ENERGIES
----------------

  NO   OCC          E(Eh)            E(eV)
   0   2.0000     -14.315346      -389.5404
   1   2.0000     -10.184587      -277.1367
   2   2.0000     -10.167086      -276.6605
   3   2.0000     -10.151313      -276.2313
   4   2.0000     -10.097388      -274.7639
   5   2.0000      -0.922981       -25.1156
   6   2.0000      -0.779684       -21.2163
   7   2.0000      -0.717071       -19.5125
   8   2.0000      -0.636561       -17.3217
   9   2.0000      -0.563838       -15.3428
  10   2.0000      -0.520636       -14.1672
  11   2.0000      -0.482444       -13.1280
  12   2.0000      -0.439168       -11.9504
  13   2.0000      -0.414537       -11.2801
  14   2.0000      -0.394139       -10.7251
  15   2.0000      -0.382871       -10.4185
  16   2.0000      -0.350705        -9.5432
  17   2.0000      -0.338981        -9.2241
  18   2.0000      -0.327217        -8.9040
  19   2.0000      -0.191741        -5.2175
  20   0.0000       0.001430         0.0389
  21   0.0000       0.026246         0.7142
  22   0.0000       0.034858         0.9485
  23   0.0000       0.040034         1.0894
  24   0.0000       0.053127         1.4457

MULLIKEN ATOMIC CHARGES
-----------------------
   0 C :   -0.394152
   1 C :   -1.039644
   2 C :    0.837061
   3 N :   -0.358558
   4 C :   -1.213354
   5 H :    0.285217
   6 H :    0.270990
   7 H :    0.153403
   8 H :    0.128638
   9 H :    0.223434
  10 H :    0.237765
  11 H :    0.289035
  12 H :    0.274950
  13 H :    0.305215
Sum of atomic charges:   -0.0000000

LOEWDIN ATOMIC CHARGES
----------------------
   0 C :   -0.196051
   1 C :   -0.084211
   2 C :   -0.495666
   3 N :    0.103075
   4 C :    0.016514
   5 H :    0.022360
   6 H :    0.029448
   7 H :    0.100663
   8 H :    0.104799
   9 H :    0.109587
  10 H :    0.101505
  11 H :    0.065638
  12 H :    0.059014
  13 H :    0.063323

  Mayer bond orders larger than 0.100000
B(  0-C ,  1-C ) :   0.6127 B(  0-C ,  2-C ) :   0.6537 B(  0-C ,  9-H ) :   0.9787
B(  0-C , 10-H ) :   1.0389 B(  1-C , 11-H ) :   0.9719 B(  1-C , 12-H ) :   0.9745
B(  1-C , 13-H ) :   0.9683 B(  2-C ,  3-N ) :   0.9126 B(  2-C ,  4-C ) :   1.2435
B(  3-N ,  4-C ) :   0.1004 B(  3-N ,  7-H ) :   1.0301 B(  3-N ,  8-H ) :   1.0526
B(  4-C ,  5-H ) :   1.0135 B(  4-C ,  6-H ) :   0.9710

Dispersion correction           -0.017415736
FINAL SINGLE POINT ENERGY      -212.523729220781

DIPOLE MOMENT
-------------
                                X             Y             Z
Electronic contribution:      0.78529       2.26523      -1.85792
Nuclear contribution   :     -1.38463      -2.07457       1.55023
                        -----------------------------------------
Total Dipole Moment    :     -0.59934       0.19066      -0.30769
                        -----------------------------------------
Magnitude (a.u.)       :      0.70017
Magnitude (Debye)      :      1.77968

Rotational constants in cm-1:     0.272312     0.128195     0.101724
Rotational constants in MHz :  8163.717141  3843.180148  3049.598073

                             ****ORCA TERMINATED NORMALLY****
TOTAL RUN TIME: 0 days 0 hours 0 minutes 40 seconds 730 msec
