                         Program Version 5.0.0 -  RELEASE  -
|  1> !B3LYP D3BJ RIJCOSX def2-TZVPD def2/J TightSCF xyzfile
|  2>
|  3> *xyzfile 0 1 D1.xyz
|  4>
|  5> %MaxCore 64000
|  6>
|  7> %pal nprocs 4
|  8> end
|  9>
| 10> %scf
| 11>   MaxIter 150
| 12> end
| 13>
| 14>
| 15>                          ****END OF INPUT****

CARTESIAN COORDINATES (ANGSTROEM)
---------------------------------
  C      3.343500    3.354571   -3.591998
  C      2.952633    1.863077   -3.574849
  C      4.129209    0.898394   -3.418950
  H      3.733687   -0.100605   -3.237633
  H      4.719095    0.862556   -4.339005
  C      5.017344    1.315212   -2.221305
  C      4.255868    3.703851   -4.726054
  C      3.734032    4.293783   -5.800770
  N      5.515039    3.407255   -4.637185
  H      6.149187    3.601203   -5.399053
  H      5.813584    2.899504   -3.808785
  H      2.741380    4.513109   -5.824701
  H      4.287548    4.521260   -6.614341
  H      2.278938    1.735250   -2.725496
  H      2.377466    1.625787   -4.475869
  F      4.737055    0.854112   -1.122825
  O      5.928146    2.168108   -2.491365
  H      3.861246    3.597252   -2.662979
  H      2.446493    3.973461   -3.656556

 Total Charge           Charge          ....    0
 Multiplicity           Mult            ....    1
 Number of Electrons    NEL             ....   70
 Basis Dimension        Dim             ....  429

ORBITAL ENERGIES
----------------

  NO   OCC          E(Eh)            E(eV)
   0   2.0000     -24.788308      -674.5242
   1   2.0000     -19.157040      -521.2896
   2   2.0000     -14.281456      -388.6182
   3   2.0000     -10.379090      -282.4294
   4   2.0000     -10.209288      -277.8089
   5   2.0000     -10.191801      -277.3330
   6   2.0000     -10.177610      -276.9468
   7   2.0000     -10.170499      -276.7534
   8   2.0000     -10.089330      -274.5446
   9   2.0000      -1.367382       -37.2083
  10   2.0000      -1.060236       -28.8505
  11   2.0000      -0.916547       -24.9405
  12   2.0000      -0.822967       -22.3941
  13   2.0000      -0.751373       -20.4459
  14   2.0000      -0.712039       -19.3756
  15   2.0000      -0.680744       -18.5240
  16   2.0000      -0.631405       -17.1814
  17   2.0000      -0.586241       -15.9524
  18   2.0000      -0.577459       -15.7135
  19   2.0000      -0.549973       -14.9655
  20   2.0000      -0.546702       -14.8765
  21   2.0000      -0.507091       -13.7986
  22   2.0000      -0.484369       -13.1803
  23   2.0000      -0.460195       -12.5226
  24   2.0000      -0.444895       -12.1062
  25   2.0000      -0.431675       -11.7465
  26   2.0000      -0.394818       -10.7435
  27   2.0000      -0.386362       -10.5134
  28   2.0000      -0.376097       -10.2341
  29   2.0000      -0.374604       -10.1935
  30   2.0000      -0.359906        -9.7935
  31   2.0000      -0.330091        -8.9822
  32   2.0000      -0.323237        -8.7957
  33   2.0000      -0.307211        -8.3596
  34   2.0000      -0.173569        -4.7231
  35   0.0000      -0.059710        -1.6248
  36   0.0000      -0.004765        -0.1297
  37   0.0000       0.019027         0.5177
  38   0.0000       0.024822         0.6754
  39   0.0000       0.026477         0.7205

MULLIKEN ATOMIC CHARGES
-----------------------
   0 C :   -0.421801
   1 C :   -0.532717
   2 C :   -0.291104
   3 H :    0.242002
   4 H :    0.285350
   5 C :    0.549907
   6 C :    0.606784
   7 C :   -1.264636
   8 N :   -0.342186
   9 H :    0.086206
  10 H :    0.367311
  11 H :    0.267634
  12 H :    0.284408
  13 H :    0.222382
  14 H :    0.248630
  15 F :   -0.216177
  16 O :   -0.596675
  17 H :    0.291276
  18 H :    0.213407
Sum of atomic charges:    0.0000000

LOEWDIN ATOMIC CHARGES
----------------------
   0 C :   -0.139244
   1 C :   -0.168944
   2 C :   -0.087644
   3 H :    0.112394
   4 H :    0.122580
   5 C :   -0.439248
   6 C :   -0.486304
   7 C :    0.021499
   8 N :    0.121701
   9 H :    0.119922
  10 H :    0.016654
  11 H :    0.010620
  12 H :    0.009816
  13 H :    0.109450
  14 H :    0.120765
  15 F :    0.271928
  16 O :    0.056216
  17 H :    0.111657
  18 H :    0.116183

  Mayer bond orders larger than 0.100000
B(  0-C ,  1-C ) :   0.7859 B(  0-C ,  6-C ) :   0.7610 B(  0-C , 17-H ) :   0.8661
B(  0-C , 18-H ) :   1.0517 B(  1-C ,  2-C ) :   0.8457 B(  1-C ,  5-C ) :   0.1572
B(  1-C ,  6-C ) :   0.1289 B(  1-C , 13-H ) :   0.9476 B(  1-C , 14-H ) :   0.9414
B(  2-C ,  3-H ) :   0.9895 B(  2-C ,  4-H ) :   0.9423 B(  2-C ,  5-C ) :   0.8614
B(  2-C ,  8-N ) :   0.1691 B(  5-C , 15-F ) :   1.0314 B(  5-C , 16-O ) :   1.6342
B(  6-C ,  7-C ) :   1.2133 B(  6-C ,  8-N ) :   1.0419 B(  7-C ,  8-N ) :   0.1097
B(  7-C , 11-H ) :   1.0209 B(  7-C , 12-H ) :   1.0036 B(  8-N ,  9-H ) :   1.0525
B(  8-N , 10-H ) :   0.8107

Dispersion correction           -0.031301689
FINAL SINGLE POINT ENERGY      -464.389079202680

DIPOLE MOMENT
-------------
                                X             Y             Z
Electronic contribution:      5.54159      -5.95008      10.55474
Nuclear contribution   :     -5.86483       4.68058     -10.07545
                        -----------------------------------------
Total Dipole Moment    :     -0.32325      -1.26950       0.47929
                        -----------------------------------------
Magnitude (a.u.)       :      1.39493
Magnitude (Debye)      :      3.54564

Rotational constants in cm-1:     0.107256     0.035474     0.030113
Rotational constants in MHz :  3215.453922  1063.481574   902.777619

                             ****ORCA TERMINATED NORMALLY****
TOTAL RUN TIME: 0 days 0 hours 2 minutes 10 seconds 936 msec
