                         Program Version 5.0.0 -  RELEASE  -
|  1> !B3LYP D3BJ RIJCOSX def2-TZVPD def2/J TightSCF xyzfile
|  2>
|  3> *xyzfile 0 1 D2.xyz
|  4>
|  5> %MaxCore 64000
|  6>
|  7> %pal nprocs 4
|  8> end
|  9>
| 10> %scf
| 11>   MaxIter 150
| 12> end
| 13>
| 14>
| 15>                          ****END OF INPUT****

CARTESIAN COORDINATES (ANGSTROEM)
---------------------------------
  C      3.343500    3.354571   -3.591998
  C      2.952633    1.863077   -3.574849
  C      4.129209    0.898394   -3.418950
  H      3.733687   -0.100605   -3.237633
  H      4.719095    0.862556   -4.339005
  C      5.017344    1.315212   -2.221305
  C      4.255868    3.703851   -4.726054
  N      3.734032    4.293783   -5.800770
  C      5.515039    3.407255   -4.637185
  H      6.149187    3.601203   -5.399053
  H      5.813584    2.899504   -3.808785
  H      2.741380    4.513109   -5.824701
  H      4.287548    4.521260   -6.614341
  H      2.278938    1.735250   -2.725496
  H      2.377466    1.625787   -4.475869
  F      4.737055    0.854112   -1.122825
  O      5.928146    2.168108   -2.491365
  H      3.861246    3.597252   -2.662979
  H      2.446493    3.973461   -3.656556

 Total Charge           Charge          ....    0
 Multiplicity           Mult            ....    1
 Number of Electrons    NEL             ....   70
 Basis Dimension        Dim             ....  429

ORBITAL ENERGIES
----------------

  NO   OCC          E(Eh)            E(eV)
   0   2.0000     -24.769788      -674.0202
   1   2.0000     -19.131018      -520.5815
   2   2.0000     -14.305976      -389.2854
   3   2.0000     -10.356871      -281.8248
   4   2.0000     -10.196488      -277.4605
   5   2.0000     -10.187869      -277.2260
   6   2.0000     -10.172270      -276.8015
   7   2.0000     -10.169885      -276.7366
   8   2.0000     -10.067072      -273.9390
   9   2.0000      -1.349459       -36.7207
  10   2.0000      -1.035078       -28.1659
  11   2.0000      -0.914411       -24.8824
  12   2.0000      -0.816392       -22.2152
  13   2.0000      -0.749384       -20.3918
  14   2.0000      -0.701543       -19.0900
  15   2.0000      -0.679948       -18.5023
  16   2.0000      -0.621169       -16.9029
  17   2.0000      -0.573826       -15.6146
  18   2.0000      -0.563338       -15.3292
  19   2.0000      -0.545574       -14.8458
  20   2.0000      -0.529041       -14.3959
  21   2.0000      -0.499242       -13.5851
  22   2.0000      -0.478009       -13.0073
  23   2.0000      -0.464700       -12.6451
  24   2.0000      -0.448162       -12.1951
  25   2.0000      -0.417358       -11.3569
  26   2.0000      -0.391886       -10.6638
  27   2.0000      -0.390541       -10.6272
  28   2.0000      -0.363625        -9.8947
  29   2.0000      -0.355868        -9.6837
  30   2.0000      -0.351238        -9.5577
  31   2.0000      -0.326248        -8.8776
  32   2.0000      -0.319592        -8.6965
  33   2.0000      -0.268897        -7.3171
  34   2.0000      -0.178977        -4.8702
  35   0.0000      -0.040846        -1.1115
  36   0.0000      -0.001600        -0.0435
  37   0.0000       0.014909         0.4057
  38   0.0000       0.023125         0.6293
  39   0.0000       0.029479         0.8022

MULLIKEN ATOMIC CHARGES
-----------------------
   0 C :   -0.491795
   1 C :   -0.510089
   2 C :   -0.314717
   3 H :    0.241787
   4 H :    0.350614
   5 C :    0.483613
   6 C :    0.711450
   7 N :   -0.363974
   8 C :   -1.471178
   9 H :    0.220655
  10 H :    0.700405
  11 H :    0.151182
  12 H :    0.128501
  13 H :    0.220575
  14 H :    0.219179
  15 F :   -0.231867
  16 O :   -0.542129
  17 H :    0.240949
  18 H :    0.256837
Sum of atomic charges:    0.0000000

LOEWDIN ATOMIC CHARGES
----------------------
   0 C :   -0.136587
   1 C :   -0.170879
   2 C :   -0.088916
   3 H :    0.110443
   4 H :    0.120678
   5 C :   -0.448682
   6 C :   -0.467426
   7 N :    0.097000
   8 C :    0.032222
   9 H :    0.034511
  10 H :   -0.040301
  11 H :    0.095839
  12 H :    0.103031
  13 H :    0.108721
  14 H :    0.117139
  15 F :    0.261285
  16 O :    0.047551
  17 H :    0.114212
  18 H :    0.110161

  Mayer bond orders larger than 0.100000
B(  0-C ,  1-C ) :   0.7981 B(  0-C ,  2-C ) :  -0.1045 B(  0-C ,  6-C ) :   0.6764
B(  0-C , 17-H ) :   0.9199 B(  0-C , 18-H ) :   1.0442 B(  1-C ,  2-C ) :   0.8375
B(  1-C ,  5-C ) :   0.1706 B(  1-C , 13-H ) :   0.9447 B(  1-C , 14-H ) :   0.9622
B(  2-C ,  3-H ) :   0.9837 B(  2-C ,  4-H ) :   0.9168 B(  2-C ,  5-C ) :   0.8522
B(  2-C ,  8-C ) :   0.1396 B(  5-C , 15-F ) :   1.0168 B(  5-C , 16-O ) :   1.7155
B(  6-C ,  7-N ) :   0.8585 B(  6-C ,  8-C ) :   1.0674 B(  6-C ,  9-H ) :  -0.1413
B(  7-N , 11-H ) :   1.0441 B(  7-N , 12-H ) :   1.0504 B(  8-C ,  9-H ) :   1.1976
B(  8-C , 10-H ) :   0.7307 B(  8-C , 16-O ) :   0.1082 B( 10-H , 16-O ) :  -0.3569

Dispersion correction           -0.031530930
FINAL SINGLE POINT ENERGY      -464.364231959087

DIPOLE MOMENT
-------------
                                X             Y             Z
Electronic contribution:      4.31383      -5.13697       9.56290
Nuclear contribution   :     -5.64491       4.57111      -9.93176
                        -----------------------------------------
Total Dipole Moment    :     -1.33108      -0.56586      -0.36887
                        -----------------------------------------
Magnitude (a.u.)       :      1.49266
Magnitude (Debye)      :      3.79404

Rotational constants in cm-1:     0.109825     0.034347     0.029470
Rotational constants in MHz :  3292.465653  1029.684117   883.494260

                             ****ORCA TERMINATED NORMALLY****
TOTAL RUN TIME: 0 days 0 hours 2 minutes 4 seconds 428 msec
