                         Program Version 5.0.0 -  RELEASE  -
|  1> !B3LYP D3BJ RIJCOSX def2-TZVPD def2/J TightSCF xyzfile
|  2>
|  3> *xyzfile 0 1 D3.xyz
|  4>
|  5> %MaxCore 64000
|  6>
|  7> %pal nprocs 4
|  8> end
|  9>
| 10> %scf
| 11>   MaxIter 150
| 12> end
| 13>
| 14>
| 15>                          ****END OF INPUT****

CARTESIAN COORDINATES (ANGSTROEM)
---------------------------------
  C      3.343500    3.354571   -3.591998
  C      2.952633    1.863077   -3.574849
  C      4.129209    0.898394   -3.418950
  H      3.733687   -0.100605   -3.237633
  H      4.719095    0.862556   -4.339005
  C      5.017344    1.315212   -2.221305
  C      4.255868    3.703851   -4.726054
  C      3.734032    4.293783   -5.800770
  N      5.515039    3.407255   -4.637185
  H      6.149187    3.601203   -5.399053
  H      5.813584    2.899504   -3.808785
  H      2.741380    4.513109   -5.824701
  H      4.287548    4.521260   -6.614341
  H      2.278938    1.735250   -2.725496
  H      2.377466    1.625787   -4.475869
  O      4.737055    0.854112   -1.122825
  F      5.928146    2.168108   -2.491365
  H      3.861246    3.597252   -2.662979
  H      2.446493    3.973461   -3.656556

 Total Charge           Charge          ....    0
 Multiplicity           Mult            ....    1
 Number of Electrons    NEL             ....   70
 Basis Dimension        Dim             ....  429

ORBITAL ENERGIES
----------------

  NO   OCC          E(Eh)            E(eV)
   0   2.0000     -24.776339      -674.1985
   1   2.0000     -19.154783      -521.2281
   2   2.0000     -14.308369      -389.3505
   3   2.0000     -10.363842      -282.0145
   4   2.0000     -10.205402      -277.7031
   5   2.0000     -10.191179      -277.3161
   6   2.0000     -10.190687      -277.3027
   7   2.0000     -10.179344      -276.9940
   8   2.0000     -10.102824      -274.9118
   9   2.0000      -1.342740       -36.5378
  10   2.0000      -1.071909       -29.1681
  11   2.0000      -0.938641       -25.5417
  12   2.0000      -0.823098       -22.3976
  13   2.0000      -0.757450       -20.6113
  14   2.0000      -0.718904       -19.5624
  15   2.0000      -0.680965       -18.5300
  16   2.0000      -0.639602       -17.4045
  17   2.0000      -0.588431       -16.0120
  18   2.0000      -0.572120       -15.5682
  19   2.0000      -0.554495       -15.0886
  20   2.0000      -0.527210       -14.3461
  21   2.0000      -0.509095       -13.8532
  22   2.0000      -0.486251       -13.2316
  23   2.0000      -0.469721       -12.7818
  24   2.0000      -0.448909       -12.2154
  25   2.0000      -0.427085       -11.6216
  26   2.0000      -0.404256       -11.0004
  27   2.0000      -0.396581       -10.7915
  28   2.0000      -0.387137       -10.5345
  29   2.0000      -0.380840       -10.3632
  30   2.0000      -0.362397        -9.8613
  31   2.0000      -0.338433        -9.2092
  32   2.0000      -0.335499        -9.1294
  33   2.0000      -0.311221        -8.4688
  34   2.0000      -0.189449        -5.1552
  35   0.0000      -0.045278        -1.2321
  36   0.0000      -0.002013        -0.0548
  37   0.0000       0.016129         0.4389
  38   0.0000       0.022542         0.6134
  39   0.0000       0.024347         0.6625

MULLIKEN ATOMIC CHARGES
-----------------------
   0 C :   -0.489696
   1 C :   -0.499188
   2 C :   -0.275769
   3 H :    0.204377
   4 H :    0.311738
   5 C :    0.490359
   6 C :    0.669466
   7 C :   -1.252784
   8 N :   -0.372651
   9 H :    0.090988
  10 H :    0.394544
  11 H :    0.269437
  12 H :    0.280397
  13 H :    0.235983
  14 H :    0.252732
  15 O :   -0.474398
  16 F :   -0.326990
  17 H :    0.279126
  18 H :    0.212327
Sum of atomic charges:    0.0000000

LOEWDIN ATOMIC CHARGES
----------------------
   0 C :   -0.137254
   1 C :   -0.168251
   2 C :   -0.094676
   3 H :    0.119215
   4 H :    0.114334
   5 C :   -0.467879
   6 C :   -0.484540
   7 C :    0.030541
   8 N :    0.124392
   9 H :    0.123340
  10 H :    0.049828
  11 H :    0.015586
  12 H :    0.012729
  13 H :    0.113918
  14 H :    0.119875
  15 O :    0.135153
  16 F :    0.162363
  17 H :    0.113461
  18 H :    0.117864

  Mayer bond orders larger than 0.100000
B(  0-C ,  1-C ) :   0.7840 B(  0-C ,  6-C ) :   0.7279 B(  0-C , 17-H ) :   0.8918
B(  0-C , 18-H ) :   1.0451 B(  1-C ,  2-C ) :   0.8367 B(  1-C ,  5-C ) :   0.1565
B(  1-C ,  6-C ) :   0.1141 B(  1-C , 13-H ) :   0.9477 B(  1-C , 14-H ) :   0.9441
B(  2-C ,  3-H ) :   1.0019 B(  2-C ,  4-H ) :   0.9207 B(  2-C ,  5-C ) :   0.8419
B(  2-C ,  8-N ) :   0.1740 B(  5-C , 15-O ) :   1.7717 B(  5-C , 16-F ) :   0.8982
B(  6-C ,  7-C ) :   1.1811 B(  6-C ,  8-N ) :   1.0125 B(  7-C ,  8-N ) :   0.1052
B(  7-C , 11-H ) :   1.0146 B(  7-C , 12-H ) :   1.0116 B(  8-N ,  9-H ) :   1.0585
B(  8-N , 10-H ) :   0.8292

Dispersion correction           -0.030993779
FINAL SINGLE POINT ENERGY      -464.394900711214

DIPOLE MOMENT
-------------
                                X             Y             Z
Electronic contribution:      7.44966      -3.58470       8.04792
Nuclear contribution   :     -7.21688       3.18902      -8.52197
                        -----------------------------------------
Total Dipole Moment    :      0.23278      -0.39568      -0.47405
                        -----------------------------------------
Magnitude (a.u.)       :      0.65990
Magnitude (Debye)      :      1.67734

Rotational constants in cm-1:     0.103917     0.036987     0.030872
Rotational constants in MHz :  3115.342573  1108.839114   925.506342

                             ****ORCA TERMINATED NORMALLY****
TOTAL RUN TIME: 0 days 0 hours 2 minutes 10 seconds 828 msec
