                         Program Version 5.0.0 -  RELEASE  -
|  1> !B3LYP D3BJ RIJCOSX def2-TZVPD def2/J TightSCF xyzfile
|  2>
|  3> *xyzfile 0 1 D4.xyz
|  4>
|  5> %MaxCore 64000
|  6>
|  7> %pal nprocs 4
|  8> end
|  9>
| 10> %scf
| 11>   MaxIter 150
| 12> end
| 13>
| 14>
| 15>                          ****END OF INPUT****

CARTESIAN COORDINATES (ANGSTROEM)
---------------------------------
  C      3.343500    3.354571   -3.591998
  C      2.952633    1.863077   -3.574849
  C      4.129209    0.898394   -3.418950
  H      3.733687   -0.100605   -3.237633
  H      4.719095    0.862556   -4.339005
  C      5.017344    1.315212   -2.221305
  C      4.255868    3.703851   -4.726054
  N      3.734032    4.293783   -5.800770
  C      5.515039    3.407255   -4.637185
  H      6.149187    3.601203   -5.399053
  H      5.813584    2.899504   -3.808785
  H      2.741380    4.513109   -5.824701
  H      4.287548    4.521260   -6.614341
  H      2.278938    1.735250   -2.725496
  H      2.377466    1.625787   -4.475869
  O      4.737055    0.854112   -1.122825
  F      5.928146    2.168108   -2.491365
  H      3.861246    3.597252   -2.662979
  H      2.446493    3.973461   -3.656556

 Total Charge           Charge          ....    0
 Multiplicity           Mult            ....    1
 Number of Electrons    NEL             ....   70
 Basis Dimension        Dim             ....  429

ORBITAL ENERGIES
----------------

  NO   OCC          E(Eh)            E(eV)
   0   2.0000     -24.747573      -673.4157
   1   2.0000     -19.139363      -520.8085
   2   2.0000     -14.318826      -389.6351
   3   2.0000     -10.347929      -281.5815
   4   2.0000     -10.193847      -277.3887
   5   2.0000     -10.188253      -277.2365
   6   2.0000     -10.188152      -277.2337
   7   2.0000     -10.179192      -276.9899
   8   2.0000     -10.089584      -274.5515
   9   2.0000      -1.316032       -35.8111
  10   2.0000      -1.056922       -28.7603
  11   2.0000      -0.927490       -25.2383
  12   2.0000      -0.819610       -22.3027
  13   2.0000      -0.755180       -20.5495
  14   2.0000      -0.710615       -19.3368
  15   2.0000      -0.676077       -18.3970
  16   2.0000      -0.620341       -16.8803
  17   2.0000      -0.585113       -15.9217
  18   2.0000      -0.545730       -14.8501
  19   2.0000      -0.536618       -14.6021
  20   2.0000      -0.525082       -14.2882
  21   2.0000      -0.507428       -13.8078
  22   2.0000      -0.483073       -13.1451
  23   2.0000      -0.463802       -12.6207
  24   2.0000      -0.447676       -12.1819
  25   2.0000      -0.421687       -11.4747
  26   2.0000      -0.399121       -10.8606
  27   2.0000      -0.385743       -10.4966
  28   2.0000      -0.377360       -10.2685
  29   2.0000      -0.368457       -10.0262
  30   2.0000      -0.353828        -9.6281
  31   2.0000      -0.334626        -9.1056
  32   2.0000      -0.330469        -8.9925
  33   2.0000      -0.297926        -8.1070
  34   2.0000      -0.194916        -5.3039
  35   0.0000      -0.031055        -0.8451
  36   0.0000      -0.003061        -0.0833
  37   0.0000       0.017520         0.4767
  38   0.0000       0.019014         0.5174
  39   0.0000       0.027813         0.7568

MULLIKEN ATOMIC CHARGES
-----------------------
   0 C :   -0.550029
   1 C :   -0.490216
   2 C :   -0.275834
   3 H :    0.202491
   4 H :    0.378424
   5 C :    0.439945
   6 C :    0.764727
   7 N :   -0.358228
   8 C :   -1.553949
   9 H :    0.225228
  10 H :    0.747220
  11 H :    0.156041
  12 H :    0.130615
  13 H :    0.239080
  14 H :    0.223842
  15 O :   -0.493601
  16 F :   -0.278638
  17 H :    0.237616
  18 H :    0.255268
Sum of atomic charges:   -0.0000000

LOEWDIN ATOMIC CHARGES
----------------------
   0 C :   -0.133801
   1 C :   -0.169488
   2 C :   -0.094609
   3 H :    0.117660
   4 H :    0.113483
   5 C :   -0.470159
   6 C :   -0.465322
   7 N :    0.105147
   8 C :    0.032735
   9 H :    0.035606
  10 H :   -0.012350
  11 H :    0.100112
  12 H :    0.105591
  13 H :    0.113409
  14 H :    0.116542
  15 O :    0.125764
  16 F :    0.150877
  17 H :    0.116706
  18 H :    0.112099

  Mayer bond orders larger than 0.100000
B(  0-C ,  1-C ) :   0.8020 B(  0-C ,  6-C ) :   0.6539 B(  0-C , 17-H ) :   0.9319
B(  0-C , 18-H ) :   1.0410 B(  1-C ,  2-C ) :   0.8308 B(  1-C ,  5-C ) :   0.1749
B(  1-C , 13-H ) :   0.9467 B(  1-C , 14-H ) :   0.9607 B(  2-C ,  3-H ) :   1.0000
B(  2-C ,  4-H ) :   0.8890 B(  2-C ,  5-C ) :   0.8233 B(  2-C ,  8-C ) :   0.1515
B(  5-C , 15-O ) :   1.7563 B(  5-C , 16-F ) :   0.9676 B(  6-C ,  7-N ) :   0.8673
B(  6-C ,  8-C ) :   1.0815 B(  6-C ,  9-H ) :  -0.1236 B(  7-N , 11-H ) :   1.0365
B(  7-N , 12-H ) :   1.0487 B(  8-C ,  9-H ) :   1.1647 B(  8-C , 10-H ) :   0.6075
B( 10-H , 16-F ) :  -0.3126

Dispersion correction           -0.031207379
FINAL SINGLE POINT ENERGY      -464.382037281054

DIPOLE MOMENT
-------------
                                X             Y             Z
Electronic contribution:      6.19231      -2.82094       7.10492
Nuclear contribution   :     -6.99695       3.07955      -8.37829
                        -----------------------------------------
Total Dipole Moment    :     -0.80465       0.25861      -1.27337
                        -----------------------------------------
Magnitude (a.u.)       :      1.52834
Magnitude (Debye)      :      3.88473

Rotational constants in cm-1:     0.106302     0.035771     0.030198
Rotational constants in MHz :  3186.860872  1072.397550   905.318354

                             ****ORCA TERMINATED NORMALLY****
TOTAL RUN TIME: 0 days 0 hours 2 minutes 20 seconds 15 msec
