                         Program Version 5.0.0 -  RELEASE  -
|  1> !PBE D3BJ RIJCOSX def2-TZVPD def2/J TightSCF
|  2> *xyz -1 1
|  3> C          2.49556        1.81615       -2.13636
|  4> C          1.87218        0.42790       -2.07750
|  5> H          2.61427       -0.36583       -2.19889
|  6> H          1.38995        0.27309       -1.11236
|  7> S          0.57902        0.14047       -3.29794
|  8> O          0.22886       -1.24687       -3.12787
|  9> O         -0.43927        1.11897       -3.01455
| 10> O          1.24788        0.40347       -4.59565
| 11> H          2.96535        1.95613       -3.08747
| 12> H          3.22581        1.91242       -1.36024
| 13> H          1.73350        2.55528       -2.00274
| 14> *
| 15>
| 16> %MaxCore 64000
| 17>
| 18> %pal nprocs 4
| 19> end
| 20>
| 21> %scf
| 22>   MaxIter 150
| 23> end
| 24>
| 25>
| 26>                          ****END OF INPUT****

CARTESIAN COORDINATES (ANGSTROEM)
---------------------------------
  C      2.495560    1.816150   -2.136360
  C      1.872180    0.427900   -2.077500
  H      2.614270   -0.365830   -2.198890
  H      1.389950    0.273090   -1.112360
  S      0.579020    0.140470   -3.297940
  O      0.228860   -1.246870   -3.127870
  O     -0.439270    1.118970   -3.014550
  O      1.247880    0.403470   -4.595650
  H      2.965350    1.956130   -3.087470
  H      3.225810    1.912420   -1.360240
  H      1.733500    2.555280   -2.002740

 Total Charge           Charge          ....   -1
 Multiplicity           Mult            ....    1
 Number of Electrons    NEL             ....   58
 Basis Dimension        Dim             ....  285

ORBITAL ENERGIES
----------------

  NO   OCC          E(Eh)            E(eV)
   0   2.0000     -88.009338     -2394.8558
   1   2.0000     -18.531945      -504.2799
   2   2.0000     -18.531813      -504.2763
   3   2.0000     -18.518397      -503.9112
   4   2.0000      -9.737168      -264.9618
   5   2.0000      -9.730601      -264.7831
   6   2.0000      -7.604766      -206.9362
   7   2.0000      -5.625685      -153.0827
   8   2.0000      -5.624632      -153.0540
   9   2.0000      -5.624363      -153.0467
  10   2.0000      -0.834943       -22.7200
  11   2.0000      -0.711826       -19.3698
  12   2.0000      -0.686746       -18.6873
  13   2.0000      -0.556371       -15.1396
  14   2.0000      -0.437132       -11.8950
  15   2.0000      -0.321137        -8.7386
  16   2.0000      -0.264588        -7.1998
  17   2.0000      -0.260321        -7.0837
  18   2.0000      -0.223702        -6.0872
  19   2.0000      -0.209448        -5.6994
  20   2.0000      -0.202940        -5.5223
  21   2.0000      -0.183188        -4.9848
  22   2.0000      -0.165121        -4.4932
  23   2.0000      -0.104901        -2.8545
  24   2.0000      -0.104277        -2.8375
  25   2.0000      -0.073396        -1.9972
  26   2.0000      -0.066906        -1.8206
  27   2.0000      -0.056109        -1.5268
  28   2.0000      -0.020350        -0.5538
  29   0.0000       0.111427         3.0321
  30   0.0000       0.134461         3.6589
  31   0.0000       0.140909         3.8343
  32   0.0000       0.148361         4.0371
  33   0.0000       0.166358         4.5268

MULLIKEN ATOMIC CHARGES
-----------------------
   0 C :   -0.922839
   1 C :   -0.206106
   2 H :    0.190356
   3 H :    0.187211
   4 S :    1.023113
   5 O :   -0.633722
   6 O :   -0.645347
   7 O :   -0.692007
   8 H :    0.243188
   9 H :    0.218657
  10 H :    0.237495
Sum of atomic charges:   -1.0000000

LOEWDIN ATOMIC CHARGES
----------------------
   0 C :   -0.153731
   1 C :   -0.340770
   2 H :    0.082501
   3 H :    0.078136
   4 S :    0.287001
   5 O :   -0.365087
   6 O :   -0.358571
   7 O :   -0.391261
   8 H :    0.056990
   9 H :    0.046388
  10 H :    0.058403

  Mayer bond orders larger than 0.100000
B(  0-C ,  1-C ) :   0.8641 B(  0-C ,  4-S ) :   0.1005 B(  0-C ,  8-H ) :   0.9864
B(  0-C ,  9-H ) :   0.9650 B(  0-C , 10-H ) :   0.9814 B(  1-C ,  2-H ) :   0.9540
B(  1-C ,  3-H ) :   0.9583 B(  1-C ,  4-S ) :   0.8304 B(  1-C ,  5-O ) :   0.1541
B(  1-C ,  6-O ) :   0.1245 B(  1-C ,  7-O ) :   0.1102 B(  4-S ,  5-O ) :   1.5493
B(  4-S ,  6-O ) :   1.5605 B(  4-S ,  7-O ) :   1.5047

Dispersion correction           -0.009694301
FINAL SINGLE POINT ENERGY      -702.815982967396

DIPOLE MOMENT
-------------
                                X             Y             Z
Electronic contribution:     -5.75230      -3.61728      -4.15700
Nuclear contribution   :      6.89220       4.11756       5.35566
                        -----------------------------------------
Total Dipole Moment    :      1.13990       0.50028       1.19866
                        -----------------------------------------
Magnitude (a.u.)       :      1.72813
Magnitude (Debye)      :      4.39255

Rotational constants in cm-1:     0.162183     0.084017     0.082390
Rotational constants in MHz :  4862.117324  2518.774315  2469.980309

                             ****ORCA TERMINATED NORMALLY****
TOTAL RUN TIME: 0 days 0 hours 0 minutes 10 seconds 665 msec
