                         Program Version 5.0.0 -  RELEASE  -
|  1> !PBE D3BJ RIJCOSX def2-TZVPD def2/J TightSCF
|  2> *xyz 1 1
|  3> C          3.38093        2.08304       -3.35013
|  4> N          4.53592        1.18245       -3.42852
|  5> C          2.49556        1.81615       -2.13636
|  6> C          4.67196        0.12227       -4.22060
|  7> N          5.86602       -0.50785       -4.22428
|  8> N          3.69888       -0.31284       -4.98699
|  9> H          2.73141       -0.05009       -4.84900
| 10> H          3.89005       -1.05517       -5.64373
| 11> H          5.25193        1.30346       -2.72101
| 12> H          6.69516       -0.06232       -3.85160
| 13> H          5.97538       -1.39688       -4.69141
| 14> H          2.80646        1.98651       -4.26848
| 15> H          3.77871        3.09828       -3.30738
| 16> H          2.11090        0.81901       -2.18783
| 17> H          1.68276        2.51198       -2.12786
| 18> H          3.07216        1.93031       -1.24227
| 19> *
| 20>
| 21> %MaxCore 64000
| 22>
| 23> %pal nprocs 4
| 24> end
| 25>
| 26> %scf
| 27>   MaxIter 150
| 28> end
| 29>
| 30>
| 31>                          ****END OF INPUT****

CARTESIAN COORDINATES (ANGSTROEM)
---------------------------------
  C      3.380930    2.083040   -3.350130
  N      4.535920    1.182450   -3.428520
  C      2.495560    1.816150   -2.136360
  C      4.671960    0.122270   -4.220600
  N      5.866020   -0.507850   -4.224280
  N      3.698880   -0.312840   -4.986990
  H      2.731410   -0.050090   -4.849000
  H      3.890050   -1.055170   -5.643730
  H      5.251930    1.303460   -2.721010
  H      6.695160   -0.062320   -3.851600
  H      5.975380   -1.396880   -4.691410
  H      2.806460    1.986510   -4.268480
  H      3.778710    3.098280   -3.307380
  H      2.110900    0.819010   -2.187830
  H      1.682760    2.511980   -2.127860
  H      3.072160    1.930310   -1.242270

 Total Charge           Charge          ....    1
 Multiplicity           Mult            ....    1
 Number of Electrons    NEL             ....   48
 Basis Dimension        Dim             ....  312

ORBITAL ENERGIES
----------------

  NO   OCC          E(Eh)            E(eV)
   0   2.0000     -14.208646      -386.6369
   1   2.0000     -14.206796      -386.5866
   2   2.0000     -14.201283      -386.4365
   3   2.0000     -10.203542      -277.6525
   4   2.0000     -10.086801      -274.4758
   5   2.0000     -10.015516      -272.5360
   6   2.0000      -1.127680       -30.6857
   7   2.0000      -1.025765       -27.9125
   8   2.0000      -1.011313       -27.5192
   9   2.0000      -0.861253       -23.4359
  10   2.0000      -0.781197       -21.2575
  11   2.0000      -0.743308       -20.2265
  12   2.0000      -0.731299       -19.8997
  13   2.0000      -0.687969       -18.7206
  14   2.0000      -0.645977       -17.5779
  15   2.0000      -0.642598       -17.4860
  16   2.0000      -0.595019       -16.1913
  17   2.0000      -0.581184       -15.8148
  18   2.0000      -0.556338       -15.1387
  19   2.0000      -0.514208       -13.9923
  20   2.0000      -0.486869       -13.2484
  21   2.0000      -0.471228       -12.8228
  22   2.0000      -0.436328       -11.8731
  23   2.0000      -0.408765       -11.1231
  24   0.0000      -0.200909        -5.4670
  25   0.0000      -0.181708        -4.9445
  26   0.0000      -0.150093        -4.0842
  27   0.0000      -0.140436        -3.8215
  28   0.0000      -0.123700        -3.3660

MULLIKEN ATOMIC CHARGES
-----------------------
   0 C :   -0.419426
   1 N :   -0.018913
   2 C :   -0.688551
   3 C :    0.508217
   4 N :   -0.222978
   5 N :   -0.172387
   6 H :    0.175683
   7 H :    0.168505
   8 H :    0.200568
   9 H :    0.174256
  10 H :    0.158433
  11 H :    0.252810
  12 H :    0.156171
  13 H :    0.231195
  14 H :    0.252746
  15 H :    0.243671
Sum of atomic charges:    1.0000000

LOEWDIN ATOMIC CHARGES
----------------------
   0 C :   -0.203339
   1 N :    0.095866
   2 C :   -0.058052
   3 C :   -0.458824
   4 N :    0.208259
   5 N :    0.232794
   6 H :    0.134431
   7 H :    0.139863
   8 H :    0.166341
   9 H :    0.134024
  10 H :    0.130120
  11 H :    0.115577
  12 H :    0.129982
  13 H :    0.072601
  14 H :    0.083256
  15 H :    0.077101

  Mayer bond orders larger than 0.100000
B(  0-C ,  1-N ) :   0.9933 B(  0-C ,  2-C ) :   0.8178 B(  0-C ,  3-C ) :  -0.1120
B(  0-C , 11-H ) :   0.9041 B(  0-C , 12-H ) :   1.0026 B(  1-N ,  3-C ) :   1.2347
B(  1-N ,  4-N ) :   0.1296 B(  1-N ,  8-H ) :   0.9590 B(  2-C , 13-H ) :   0.9928
B(  2-C , 14-H ) :   0.9793 B(  2-C , 15-H ) :   0.9517 B(  3-C ,  4-N ) :   1.0856
B(  3-C ,  5-N ) :   1.2161 B(  4-N ,  9-H ) :   0.9873 B(  4-N , 10-H ) :   1.0232
B(  5-N ,  6-H ) :   0.9607 B(  5-N ,  7-H ) :   1.0126

Dispersion correction           -0.012138605
FINAL SINGLE POINT ENERGY      -284.158426458590

DIPOLE MOMENT
-------------
                                X             Y             Z
Electronic contribution:      3.54442      -2.62847      -2.80135
Nuclear contribution   :     -2.93277       1.85779       2.25966
                        -----------------------------------------
Total Dipole Moment    :      0.61166      -0.77068      -0.54169
                        -----------------------------------------
Magnitude (a.u.)       :      1.12316
Magnitude (Debye)      :      2.85486

Rotational constants in cm-1:     0.245511     0.068839     0.059711
Rotational constants in MHz :  7360.233487  2063.743353  1790.088408

                             ****ORCA TERMINATED NORMALLY****
TOTAL RUN TIME: 0 days 0 hours 0 minutes 12 seconds 636 msec
