                         Program Version 5.0.0 -  RELEASE  -
|  1> !PBE D3BJ RIJCOSX def2-TZVPD def2/J TightSCF xyzfile
|  2>
|  3> *xyzfile 0 1 B.xyz
|  4>
|  5> %MaxCore 64000
|  6>
|  7> %pal nprocs 4
|  8> end
|  9>
| 10> %scf
| 11>   MaxIter 150
| 12> end
| 13>
| 14>
| 15>                          ****END OF INPUT****

CARTESIAN COORDINATES (ANGSTROEM)
---------------------------------
  C      3.380928    2.083045   -3.350127
  N      4.535924    1.182447   -3.428518
  C      2.495557    1.816150   -2.136364
  C      1.872181    0.427903   -2.077497
  H      2.614270   -0.365825   -2.198894
  H      1.389953    0.273087   -1.112360
  S      0.579024    0.140472   -3.297943
  C      4.671956    0.122273   -4.220598
  N      5.866023   -0.507849   -4.224284
  N      3.698881   -0.312844   -4.986988
  H      2.731405   -0.050091   -4.849000
  H      3.890046   -1.055172   -5.643730
  H      5.251933    1.303459   -2.721014
  H      6.695165   -0.062322   -3.851596
  H      5.975383   -1.396884   -4.691414
  O      0.228860   -1.246868   -3.127871
  O     -0.439269    1.118966   -3.014550
  O      1.247881    0.403474   -4.595647
  H      1.697003    2.561969   -2.141109
  H      3.080787    1.987436   -1.225838
  H      2.806463    1.986511   -4.268484
  H      3.778714    3.098282   -3.307383

 Total Charge           Charge          ....    0
 Multiplicity           Mult            ....    1
 Number of Electrons    NEL             ....   96
 Basis Dimension        Dim             ....  524

ORBITAL ENERGIES
----------------

  NO   OCC          E(Eh)            E(eV)
   0   2.0000     -88.156770     -2398.8677
   1   2.0000     -18.685672      -508.4630
   2   2.0000     -18.670083      -508.0388
   3   2.0000     -18.669793      -508.0309
   4   2.0000     -14.076208      -383.0331
   5   2.0000     -14.073296      -382.9538
   6   2.0000     -14.041309      -382.0835
   7   2.0000     -10.063558      -273.8433
   8   2.0000      -9.944380      -270.6003
   9   2.0000      -9.896302      -269.2921
  10   2.0000      -9.880751      -268.8689
  11   2.0000      -7.752329      -210.9516
  12   2.0000      -5.773567      -157.1067
  13   2.0000      -5.772481      -157.0772
  14   2.0000      -5.771284      -157.0446
  15   2.0000      -0.989770       -26.9330
  16   2.0000      -0.982235       -26.7280
  17   2.0000      -0.888381       -24.1741
  18   2.0000      -0.872854       -23.7516
  19   2.0000      -0.849682       -23.1210
  20   2.0000      -0.849381       -23.1128
  21   2.0000      -0.737530       -20.0692
  22   2.0000      -0.671732       -18.2788
  23   2.0000      -0.625389       -17.0177
  24   2.0000      -0.594162       -16.1680
  25   2.0000      -0.581582       -15.8256
  26   2.0000      -0.549006       -14.9392
  27   2.0000      -0.512581       -13.9480
  28   2.0000      -0.498709       -13.5706
  29   2.0000      -0.475403       -12.9364
  30   2.0000      -0.456607       -12.4249
  31   2.0000      -0.438662       -11.9366
  32   2.0000      -0.423380       -11.5207
  33   2.0000      -0.403116       -10.9694
  34   2.0000      -0.385119       -10.4796
  35   2.0000      -0.367918       -10.0115
  36   2.0000      -0.348147        -9.4736
  37   2.0000      -0.336455        -9.1554
  38   2.0000      -0.329631        -8.9697
  39   2.0000      -0.318543        -8.6680
  40   2.0000      -0.297929        -8.1070
  41   2.0000      -0.273593        -7.4448
  42   2.0000      -0.255513        -6.9529
  43   2.0000      -0.247635        -6.7385
  44   2.0000      -0.220783        -6.0078
  45   2.0000      -0.210531        -5.7288
  46   2.0000      -0.207551        -5.6478
  47   2.0000      -0.171630        -4.6703
  48   0.0000      -0.070692        -1.9236
  49   0.0000      -0.064738        -1.7616
  50   0.0000      -0.035965        -0.9787
  51   0.0000      -0.019203        -0.5225
  52   0.0000       0.001863         0.0507

MULLIKEN ATOMIC CHARGES
-----------------------
   0 C :   -0.564445
   1 N :   -0.044440
   2 C :   -0.190006
   3 C :   -0.419135
   4 H :    0.177858
   5 H :    0.184896
   6 S :    1.061894
   7 C :    0.395949
   8 N :   -0.229093
   9 N :   -0.036465
  10 H :    0.136062
  11 H :    0.173248
  12 H :    0.212231
  13 H :    0.158273
  14 H :    0.148454
  15 O :   -0.616985
  16 O :   -0.608228
  17 O :   -0.782378
  18 H :    0.171821
  19 H :    0.150630
  20 H :    0.414149
  21 H :    0.105711
Sum of atomic charges:   -0.0000000

LOEWDIN ATOMIC CHARGES
----------------------
   0 C :   -0.165400
   1 N :    0.096285
   2 C :   -0.205895
   3 C :   -0.260693
   4 H :    0.088474
   5 H :    0.100836
   6 S :    0.365203
   7 C :   -0.470684
   8 N :    0.179519
   9 N :    0.242223
  10 H :    0.019548
  11 H :    0.134499
  12 H :    0.156090
  13 H :    0.117114
  14 H :    0.117468
  15 O :   -0.312481
  16 O :   -0.301527
  17 O :   -0.366454
  18 H :    0.119423
  19 H :    0.109407
  20 H :    0.113287
  21 H :    0.123757

  Mayer bond orders larger than 0.100000
B(  0-C ,  1-N ) :   1.0033 B(  0-C ,  2-C ) :   0.9456 B(  0-C ,  7-C ) :  -0.1371
B(  0-C , 20-H ) :   0.8027 B(  0-C , 21-H ) :   0.9718 B(  1-N ,  7-C ) :   1.2409
B(  1-N ,  8-N ) :   0.1334 B(  1-N , 12-H ) :   0.9297 B(  2-C ,  3-C ) :   1.1847
B(  2-C ,  6-S ) :   0.1469 B(  2-C , 18-H ) :   0.9580 B(  2-C , 19-H ) :   0.8910
B(  3-C ,  4-H ) :   0.9226 B(  3-C ,  5-H ) :   0.9410 B(  3-C ,  6-S ) :   0.8047
B(  3-C , 15-O ) :   0.1607 B(  3-C , 16-O ) :   0.1220 B(  6-S , 15-O ) :   1.5327
B(  6-S , 16-O ) :   1.5543 B(  6-S , 17-O ) :   1.3778 B(  7-C ,  8-N ) :   1.0550
B(  7-C ,  9-N ) :   1.2846 B(  8-N , 13-H ) :   0.9884 B(  8-N , 14-H ) :   1.0241
B(  9-N , 10-H ) :   0.8240 B(  9-N , 11-H ) :   0.9866 B( 10-H , 17-O ) :   0.1743

Dispersion correction           -0.025202895
FINAL SINGLE POINT ENERGY      -946.657619933691

DIPOLE MOMENT
-------------
                                X             Y             Z
Electronic contribution:     -7.26761      -3.20451      -2.46268
Nuclear contribution   :     13.40759       3.44219       2.21042
                        -----------------------------------------
Total Dipole Moment    :      6.13999       0.23768      -0.25225
                        -----------------------------------------
Magnitude (a.u.)       :      6.14976
Magnitude (Debye)      :     15.63145

Rotational constants in cm-1:     0.059860     0.020817     0.017914
Rotational constants in MHz :  1794.564877   624.092098   537.039275

                             ****ORCA TERMINATED NORMALLY****
TOTAL RUN TIME: 0 days 0 hours 0 minutes 50 seconds 33 msec
