                         Program Version 5.0.0 -  RELEASE  -
|  1> !PBE D3BJ RIJCOSX def2-TZVPD def2/J TightSCF
|  2> *xyz 0 1
|  3> C          3.38093        2.08304       -3.35013
|  4> C          4.53592        1.18245       -3.42852
|  5> C          2.49556        1.81615       -2.13636
|  6> C          4.67196        0.12227       -4.22060
|  7> N          5.86602       -0.50785       -4.22428
|  8> N          3.69888       -0.31284       -4.98699
|  9> H          2.73141       -0.05009       -4.84900
| 10> H          3.89005       -1.05517       -5.64373
| 11> H          5.25193        1.30346       -2.72101
| 12> H          6.69516       -0.06232       -3.85160
| 13> H          5.97538       -1.39688       -4.69141
| 14> H          2.80646        1.98651       -4.26848
| 15> H          3.77871        3.09828       -3.30738
| 16> H          2.11090        0.81901       -2.18783
| 17> H          1.68276        2.51198       -2.12786
| 18> H          3.07216        1.93031       -1.24227
| 19> *
| 20>
| 21> %MaxCore 64000
| 22>
| 23> %pal nprocs 4
| 24> end
| 25>
| 26> %scf
| 27>   MaxIter 150
| 28> end
| 29>
| 30>
| 31>                          ****END OF INPUT****

CARTESIAN COORDINATES (ANGSTROEM)
---------------------------------
  C      3.380930    2.083040   -3.350130
  C      4.535920    1.182450   -3.428520
  C      2.495560    1.816150   -2.136360
  C      4.671960    0.122270   -4.220600
  N      5.866020   -0.507850   -4.224280
  N      3.698880   -0.312840   -4.986990
  H      2.731410   -0.050090   -4.849000
  H      3.890050   -1.055170   -5.643730
  H      5.251930    1.303460   -2.721010
  H      6.695160   -0.062320   -3.851600
  H      5.975380   -1.396880   -4.691410
  H      2.806460    1.986510   -4.268480
  H      3.778710    3.098280   -3.307380
  H      2.110900    0.819010   -2.187830
  H      1.682760    2.511980   -2.127860
  H      3.072160    1.930310   -1.242270

 Total Charge           Charge          ....    0
 Multiplicity           Mult            ....    1
 Number of Electrons    NEL             ....   48
 Basis Dimension        Dim             ....  312

ORBITAL ENERGIES
----------------

  NO   OCC          E(Eh)            E(eV)
   0   2.0000     -13.989441      -380.6720
   1   2.0000     -13.982373      -380.4797
   2   2.0000      -9.919180      -269.9146
   3   2.0000      -9.855328      -268.1771
   4   2.0000      -9.844460      -267.8814
   5   2.0000      -9.805892      -266.8319
   6   2.0000      -0.880141       -23.9499
   7   2.0000      -0.794393       -21.6165
   8   2.0000      -0.698252       -19.0004
   9   2.0000      -0.627104       -17.0644
  10   2.0000      -0.557168       -15.1613
  11   2.0000      -0.522015       -14.2047
  12   2.0000      -0.493073       -13.4172
  13   2.0000      -0.455094       -12.3837
  14   2.0000      -0.432996       -11.7824
  15   2.0000      -0.393609       -10.7106
  16   2.0000      -0.368117       -10.0170
  17   2.0000      -0.346554        -9.4302
  18   2.0000      -0.332090        -9.0366
  19   2.0000      -0.308313        -8.3896
  20   2.0000      -0.284257        -7.7350
  21   2.0000      -0.278314        -7.5733
  22   2.0000      -0.223239        -6.0746
  23   2.0000      -0.129407        -3.5213
  24   0.0000      -0.020887        -0.5684
  25   0.0000       0.004268         0.1161
  26   0.0000       0.016720         0.4550
  27   0.0000       0.026881         0.7315
  28   0.0000       0.040829         1.1110

MULLIKEN ATOMIC CHARGES
-----------------------
   0 C :   -0.294678
   1 C :   -0.690918
   2 C :   -0.783928
   3 C :    0.505503
   4 N :   -0.279253
   5 N :   -0.226395
   6 H :    0.136648
   7 H :    0.119726
   8 H :    0.303410
   9 H :    0.135929
  10 H :    0.116331
  11 H :    0.173537
  12 H :    0.107682
  13 H :    0.226117
  14 H :    0.212513
  15 H :    0.237777
Sum of atomic charges:    0.0000000

LOEWDIN ATOMIC CHARGES
----------------------
   0 C :   -0.283436
   1 C :   -0.140013
   2 C :   -0.110200
   3 C :   -0.561509
   4 N :    0.114457
   5 N :    0.141341
   6 H :    0.106657
   7 H :    0.098690
   8 H :    0.067840
   9 H :    0.103511
  10 H :    0.086890
  11 H :    0.093071
  12 H :    0.100731
  13 H :    0.061987
  14 H :    0.055983
  15 H :    0.064000

  Mayer bond orders larger than 0.100000
B(  0-C ,  1-C ) :   0.9565 B(  0-C ,  2-C ) :   0.6448 B(  0-C , 11-H ) :   0.9751
B(  0-C , 12-H ) :   1.0746 B(  1-C ,  2-C ) :   0.1472 B(  1-C ,  3-C ) :   1.3770
B(  1-C ,  4-N ) :   0.2232 B(  1-C ,  5-N ) :   0.1308 B(  1-C ,  8-H ) :   0.8990
B(  2-C , 13-H ) :   1.0042 B(  2-C , 14-H ) :   0.9813 B(  2-C , 15-H ) :   0.9863
B(  3-C ,  4-N ) :   0.8891 B(  3-C ,  5-N ) :   1.0336 B(  4-N ,  9-H ) :   1.0229
B(  4-N , 10-H ) :   1.0642 B(  5-N ,  6-H ) :   0.9903 B(  5-N ,  7-H ) :   1.0521

Dispersion correction           -0.012599318
FINAL SINGLE POINT ENERGY      -267.678457555862

DIPOLE MOMENT
-------------
                                X             Y             Z
Electronic contribution:      3.00992      -2.78192      -2.89032
Nuclear contribution   :     -2.84307       1.95814       2.32378
                        -----------------------------------------
Total Dipole Moment    :      0.16684      -0.82379      -0.56655
                        -----------------------------------------
Magnitude (a.u.)       :      1.01362
Magnitude (Debye)      :      2.57643

Rotational constants in cm-1:     0.248902     0.068887     0.059904
Rotational constants in MHz :  7461.898926  2065.183281  1795.882140

                             ****ORCA TERMINATED NORMALLY****
TOTAL RUN TIME: 0 days 0 hours 0 minutes 14 seconds 987 msec
