                         Program Version 5.0.0 -  RELEASE  -
|  1> !PBE D3BJ RIJCOSX def2-TZVPD def2/J TightSCF
|  2> *xyz 0 1
|  3> C          2.49556        1.81615       -2.13636
|  4> C          1.87218        0.42790       -2.07750
|  5> H          2.61427       -0.36583       -2.19889
|  6> H          1.38995        0.27309       -1.11236
|  7> S          0.57902        0.14047       -3.29794
|  8> O          0.22886       -1.24687       -3.12787
|  9> F         -0.43927        1.11897       -3.01455
| 10> O          1.24788        0.40347       -4.59565
| 11> H          2.96535        1.95613       -3.08747
| 12> H          3.22581        1.91242       -1.36024
| 13> H          1.73350        2.55528       -2.00274
| 14> *
| 15>
| 16> %MaxCore 64000
| 17>
| 18> %pal nprocs 4
| 19> end
| 20>
| 21> %scf
| 22>   MaxIter 150
| 23> end
| 24>
| 25>
| 26>                          ****END OF INPUT****

CARTESIAN COORDINATES (ANGSTROEM)
---------------------------------
  C      2.495560    1.816150   -2.136360
  C      1.872180    0.427900   -2.077500
  H      2.614270   -0.365830   -2.198890
  H      1.389950    0.273090   -1.112360
  S      0.579020    0.140470   -3.297940
  O      0.228860   -1.246870   -3.127870
  F     -0.439270    1.118970   -3.014550
  O      1.247880    0.403470   -4.595650
  H      2.965350    1.956130   -3.087470
  H      3.225810    1.912420   -1.360240
  H      1.733500    2.555280   -2.002740

 Total Charge           Charge          ....    0
 Multiplicity           Mult            ....    1
 Number of Electrons    NEL             ....   58
 Basis Dimension        Dim             ....  285

ORBITAL ENERGIES
----------------

  NO   OCC          E(Eh)            E(eV)
   0   2.0000     -88.268434     -2401.9062
   1   2.0000     -24.375870      -663.3012
   2   2.0000     -18.764471      -510.6072
   3   2.0000     -18.751041      -510.2418
   4   2.0000      -9.938020      -270.4273
   5   2.0000      -9.897583      -269.3269
   6   2.0000      -7.864339      -213.9996
   7   2.0000      -5.888754      -160.2412
   8   2.0000      -5.882084      -160.0596
   9   2.0000      -5.881875      -160.0540
  10   2.0000      -1.279775       -34.8244
  11   2.0000      -1.016060       -27.6484
  12   2.0000      -0.920327       -25.0434
  13   2.0000      -0.749098       -20.3840
  14   2.0000      -0.666043       -18.1239
  15   2.0000      -0.613394       -16.6913
  16   2.0000      -0.533631       -14.5208
  17   2.0000      -0.521282       -14.1848
  18   2.0000      -0.491539       -13.3755
  19   2.0000      -0.442376       -12.0377
  20   2.0000      -0.427024       -11.6199
  21   2.0000      -0.402725       -10.9587
  22   2.0000      -0.385788       -10.4978
  23   2.0000      -0.362337        -9.8597
  24   2.0000      -0.352352        -9.5880
  25   2.0000      -0.332642        -9.0516
  26   2.0000      -0.290630        -7.9085
  27   2.0000      -0.278272        -7.5722
  28   2.0000      -0.262126        -7.1328
  29   0.0000      -0.035186        -0.9575
  30   0.0000      -0.004944        -0.1345
  31   0.0000       0.008382         0.2281
  32   0.0000       0.009045         0.2461
  33   0.0000       0.018666         0.5079

MULLIKEN ATOMIC CHARGES
-----------------------
   0 C :   -0.922157
   1 C :   -0.170376
   2 H :    0.224360
   3 H :    0.241620
   4 S :    0.955694
   5 O :   -0.482324
   6 F :   -0.085364
   7 O :   -0.531503
   8 H :    0.275233
   9 H :    0.216067
  10 H :    0.278750
Sum of atomic charges:    0.0000000

LOEWDIN ATOMIC CHARGES
----------------------
   0 C :   -0.116893
   1 C :   -0.288752
   2 H :    0.112202
   3 H :    0.097088
   4 S :    0.532860
   5 O :   -0.247463
   6 F :   -0.030989
   7 O :   -0.272200
   8 H :    0.072002
   9 H :    0.072736
  10 H :    0.069409

  Mayer bond orders larger than 0.100000
B(  0-C ,  1-C ) :   0.8698 B(  0-C ,  8-H ) :   0.9822 B(  0-C ,  9-H ) :   0.9788
B(  0-C , 10-H ) :   0.9267 B(  1-C ,  2-H ) :   0.9260 B(  1-C ,  3-H ) :   0.9236
B(  1-C ,  4-S ) :   0.8288 B(  1-C ,  5-O ) :   0.1222 B(  4-S ,  5-O ) :   1.7610
B(  4-S ,  6-F ) :   1.0823 B(  4-S ,  7-O ) :   1.7105 B(  5-O ,  7-O ) :   0.1167

Dispersion correction           -0.009238299
FINAL SINGLE POINT ENERGY      -727.320051509767

DIPOLE MOMENT
-------------
                                X             Y             Z
Electronic contribution:     -7.95091      -2.45383      -3.96717
Nuclear contribution   :      8.30151       3.35500       5.26935
                        -----------------------------------------
Total Dipole Moment    :      0.35060       0.90117       1.30218
                        -----------------------------------------
Magnitude (a.u.)       :      1.62194
Magnitude (Debye)      :      4.12265

Rotational constants in cm-1:     0.152913     0.083043     0.080351
Rotational constants in MHz :  4584.227971  2489.580280  2408.872860

                             ****ORCA TERMINATED NORMALLY****
TOTAL RUN TIME: 0 days 0 hours 0 minutes 10 seconds 604 msec
