                         Program Version 5.0.0 -  RELEASE  -
|  1> !PBE D3BJ RIJCOSX def2-TZVPD def2/J TightSCF
|  2> *xyz 0 1
|  3> C          3.38093        2.08304       -3.35013
|  4> N          4.53592        1.18245       -3.42852
|  5> C          2.49556        1.81615       -2.13636
|  6> C          4.67196        0.12227       -4.22060
|  7> C          5.86602       -0.50785       -4.22428
|  8> N          3.69888       -0.31284       -4.98699
|  9> H          2.73141       -0.05009       -4.84900
| 10> H          3.89005       -1.05517       -5.64373
| 11> H          5.25193        1.30346       -2.72101
| 12> H          6.69516       -0.06232       -3.85160
| 13> H          5.97538       -1.39688       -4.69141
| 14> H          2.80646        1.98651       -4.26848
| 15> H          3.77871        3.09828       -3.30738
| 16> H          2.11090        0.81901       -2.18783
| 17> H          1.68276        2.51198       -2.12786
| 18> H          3.07216        1.93031       -1.24227
| 19> *
| 20>
| 21> %MaxCore 64000
| 22>
| 23> %pal nprocs 4
| 24> end
| 25>
| 26> %scf
| 27>   MaxIter 150
| 28> end
| 29>
| 30>
| 31>                          ****END OF INPUT****

CARTESIAN COORDINATES (ANGSTROEM)
---------------------------------
  C      3.380930    2.083040   -3.350130
  N      4.535920    1.182450   -3.428520
  C      2.495560    1.816150   -2.136360
  C      4.671960    0.122270   -4.220600
  C      5.866020   -0.507850   -4.224280
  N      3.698880   -0.312840   -4.986990
  H      2.731410   -0.050090   -4.849000
  H      3.890050   -1.055170   -5.643730
  H      5.251930    1.303460   -2.721010
  H      6.695160   -0.062320   -3.851600
  H      5.975380   -1.396880   -4.691410
  H      2.806460    1.986510   -4.268480
  H      3.778710    3.098280   -3.307380
  H      2.110900    0.819010   -2.187830
  H      1.682760    2.511980   -2.127860
  H      3.072160    1.930310   -1.242270

 Total Charge           Charge          ....    0
 Multiplicity           Mult            ....    1
 Number of Electrons    NEL             ....   48
 Basis Dimension        Dim             ....  312

ORBITAL ENERGIES
----------------

  NO   OCC          E(Eh)            E(eV)
   0   2.0000     -13.988439      -380.6448
   1   2.0000     -13.987733      -380.6256
   2   2.0000      -9.922328      -270.0003
   3   2.0000      -9.920585      -269.9529
   4   2.0000      -9.872897      -268.6552
   5   2.0000      -9.791738      -266.4467
   6   2.0000      -0.886692       -24.1281
   7   2.0000      -0.811550       -22.0834
   8   2.0000      -0.701338       -19.0844
   9   2.0000      -0.629755       -17.1365
  10   2.0000      -0.566460       -15.4141
  11   2.0000      -0.547350       -14.8942
  12   2.0000      -0.492063       -13.3897
  13   2.0000      -0.448871       -12.2144
  14   2.0000      -0.433330       -11.7915
  15   2.0000      -0.399082       -10.8596
  16   2.0000      -0.381784       -10.3889
  17   2.0000      -0.356339        -9.6965
  18   2.0000      -0.343070        -9.3354
  19   2.0000      -0.325905        -8.8683
  20   2.0000      -0.319766        -8.7013
  21   2.0000      -0.308882        -8.4051
  22   2.0000      -0.214155        -5.8274
  23   2.0000      -0.128437        -3.4949
  24   0.0000      -0.021099        -0.5741
  25   0.0000       0.006489         0.1766
  26   0.0000       0.011601         0.3157
  27   0.0000       0.018901         0.5143
  28   0.0000       0.040529         1.1028

MULLIKEN ATOMIC CHARGES
-----------------------
   0 C :   -0.398177
   1 N :   -0.044815
   2 C :   -0.711262
   3 C :    0.690033
   4 C :   -1.252361
   5 N :   -0.222319
   6 H :    0.127842
   7 H :    0.141863
   8 H :    0.164184
   9 H :    0.234478
  10 H :    0.209276
  11 H :    0.248879
  12 H :    0.145130
  13 H :    0.213789
  14 H :    0.243748
  15 H :    0.209713
Sum of atomic charges:    0.0000000

LOEWDIN ATOMIC CHARGES
----------------------
   0 C :   -0.242907
   1 N :    0.032642
   2 C :   -0.088840
   3 C :   -0.585106
   4 C :   -0.002261
   5 N :    0.136496
   6 H :    0.094898
   7 H :    0.111769
   8 H :    0.143264
   9 H :    0.001093
  10 H :   -0.003655
  11 H :    0.102719
  12 H :    0.108183
  13 H :    0.064491
  14 H :    0.062769
  15 H :    0.064444

  Mayer bond orders larger than 0.100000
B(  0-C ,  1-N ) :   0.9653 B(  0-C ,  2-C ) :   0.7749 B(  0-C , 11-H ) :   0.9271
B(  0-C , 12-H ) :   1.0131 B(  1-N ,  3-C ) :   1.1251 B(  1-N ,  4-C ) :   0.1522
B(  1-N ,  8-H ) :   0.9636 B(  2-C , 13-H ) :   1.0254 B(  2-C , 14-H ) :   0.9886
B(  2-C , 15-H ) :   0.9722 B(  3-C ,  4-C ) :   1.0360 B(  3-C ,  5-N ) :   1.0834
B(  3-C , 10-H ) :  -0.1013 B(  4-C ,  5-N ) :   0.1096 B(  4-C ,  9-H ) :   0.9656
B(  4-C , 10-H ) :   1.1245 B(  5-N ,  6-H ) :   1.0086 B(  5-N ,  7-H ) :   1.0158

Dispersion correction           -0.012481133
FINAL SINGLE POINT ENERGY      -267.667233096874

DIPOLE MOMENT
-------------
                                X             Y             Z
Electronic contribution:      1.53605      -1.10822      -2.04591
Nuclear contribution   :     -2.56090       1.59955       2.15496
                        -----------------------------------------
Total Dipole Moment    :     -1.02485       0.49133       0.10906
                        -----------------------------------------
Magnitude (a.u.)       :      1.14176
Magnitude (Debye)      :      2.90213

Rotational constants in cm-1:     0.249834     0.071381     0.061833
Rotational constants in MHz :  7489.842787  2139.945635  1853.706310

                             ****ORCA TERMINATED NORMALLY****
TOTAL RUN TIME: 0 days 0 hours 0 minutes 14 seconds 293 msec
