                         Program Version 5.0.0 -  RELEASE  -
|  1> !PBE D3BJ RIJCOSX def2-TZVPD def2/J TightSCF
|  2> *xyz 0 1
|  3> C          2.49556        1.81615       -2.13636
|  4> C          1.87218        0.42790       -2.07750
|  5> H          2.61427       -0.36583       -2.19889
|  6> H          1.38995        0.27309       -1.11236
|  7> S          0.57902        0.14047       -3.29794
|  8> O          0.22886       -1.24687       -3.12787
|  9> O         -0.43927        1.11897       -3.01455
| 10> F          1.24788        0.40347       -4.59565
| 11> H          2.96535        1.95613       -3.08747
| 12> H          3.22581        1.91242       -1.36024
| 13> H          1.73350        2.55528       -2.00274
| 14> *
| 15>
| 16> %MaxCore 64000
| 17>
| 18> %pal nprocs 4
| 19> end
| 20>
| 21> %scf
| 22>   MaxIter 150
| 23> end
| 24>
| 25>
| 26>                          ****END OF INPUT****

CARTESIAN COORDINATES (ANGSTROEM)
---------------------------------
  C      2.495560    1.816150   -2.136360
  C      1.872180    0.427900   -2.077500
  H      2.614270   -0.365830   -2.198890
  H      1.389950    0.273090   -1.112360
  S      0.579020    0.140470   -3.297940
  O      0.228860   -1.246870   -3.127870
  O     -0.439270    1.118970   -3.014550
  F      1.247880    0.403470   -4.595650
  H      2.965350    1.956130   -3.087470
  H      3.225810    1.912420   -1.360240
  H      1.733500    2.555280   -2.002740

 Total Charge           Charge          ....    0
 Multiplicity           Mult            ....    1
 Number of Electrons    NEL             ....   58
 Basis Dimension        Dim             ....  285

ORBITAL ENERGIES
----------------

  NO   OCC          E(Eh)            E(eV)
   0   2.0000     -88.265689     -2401.8315
   1   2.0000     -24.354101      -662.7088
   2   2.0000     -18.764250      -510.6012
   3   2.0000     -18.763932      -510.5925
   4   2.0000      -9.936934      -270.3977
   5   2.0000      -9.898059      -269.3399
   6   2.0000      -7.861750      -213.9291
   7   2.0000      -5.886183      -160.1712
   8   2.0000      -5.879628      -159.9928
   9   2.0000      -5.879236      -159.9822
  10   2.0000      -1.244690       -33.8697
  11   2.0000      -1.026142       -27.9228
  12   2.0000      -0.940335       -25.5878
  13   2.0000      -0.748404       -20.3651
  14   2.0000      -0.652839       -17.7647
  15   2.0000      -0.607027       -16.5180
  16   2.0000      -0.518134       -14.0991
  17   2.0000      -0.497460       -13.5366
  18   2.0000      -0.487989       -13.2788
  19   2.0000      -0.443064       -12.0564
  20   2.0000      -0.423124       -11.5138
  21   2.0000      -0.405053       -11.0221
  22   2.0000      -0.389196       -10.5906
  23   2.0000      -0.363030        -9.8786
  24   2.0000      -0.356997        -9.7144
  25   2.0000      -0.335453        -9.1281
  26   2.0000      -0.297089        -8.0842
  27   2.0000      -0.289566        -7.8795
  28   2.0000      -0.277033        -7.5385
  29   0.0000      -0.033040        -0.8991
  30   0.0000      -0.001574        -0.0428
  31   0.0000       0.009431         0.2566
  32   0.0000       0.010855         0.2954
  33   0.0000       0.020491         0.5576

MULLIKEN ATOMIC CHARGES
-----------------------
   0 C :   -0.929203
   1 C :   -0.164154
   2 H :    0.239493
   3 H :    0.224486
   4 S :    0.975392
   5 O :   -0.488435
   6 O :   -0.500963
   7 F :   -0.126882
   8 H :    0.279205
   9 H :    0.213492
  10 H :    0.277569
Sum of atomic charges:   -0.0000000

LOEWDIN ATOMIC CHARGES
----------------------
   0 C :   -0.116746
   1 C :   -0.287390
   2 H :    0.102349
   3 H :    0.107964
   4 S :    0.534315
   5 O :   -0.247846
   6 O :   -0.242394
   7 F :   -0.064288
   8 H :    0.068815
   9 H :    0.072757
  10 H :    0.072463

  Mayer bond orders larger than 0.100000
B(  0-C ,  1-C ) :   0.8642 B(  0-C ,  8-H ) :   0.9345 B(  0-C ,  9-H ) :   0.9801
B(  0-C , 10-H ) :   0.9713 B(  1-C ,  2-H ) :   0.9251 B(  1-C ,  3-H ) :   0.9288
B(  1-C ,  4-S ) :   0.8226 B(  1-C ,  5-O ) :   0.1208 B(  4-S ,  5-O ) :   1.7529
B(  4-S ,  6-O ) :   1.7576 B(  4-S ,  7-F ) :   1.0331 B(  5-O ,  6-O ) :   0.1138

Dispersion correction           -0.009235838
FINAL SINGLE POINT ENERGY      -727.337803151290

DIPOLE MOMENT
-------------
                                X             Y             Z
Electronic contribution:     -5.15124      -3.63041      -6.59438
Nuclear contribution   :      6.54345       4.10057       6.91691
                        -----------------------------------------
Total Dipole Moment    :      1.39220       0.47017       0.32253
                        -----------------------------------------
Magnitude (a.u.)       :      1.50443
Magnitude (Debye)      :      3.82395

Rotational constants in cm-1:     0.152835     0.082826     0.080611
Rotational constants in MHz :  4581.878371  2483.049050  2416.647141

                             ****ORCA TERMINATED NORMALLY****
TOTAL RUN TIME: 0 days 0 hours 0 minutes 10 seconds 474 msec
