                         Program Version 5.0.0 -  RELEASE  -
|  1> !PBE D3BJ RIJCOSX def2-TZVPD def2/J TightSCF
|  2> *xyz 0 1
|  3> C          3.38093        2.08304       -3.35013
|  4> N          4.53592        1.18245       -3.42852
|  5> C          2.49556        1.81615       -2.13636
|  6> C          4.67196        0.12227       -4.22060
|  7> N          5.86602       -0.50785       -4.22428
|  8> C          3.69888       -0.31284       -4.98699
|  9> H          2.73141       -0.05009       -4.84900
| 10> H          3.89005       -1.05517       -5.64373
| 11> H          5.25193        1.30346       -2.72101
| 12> H          6.69516       -0.06232       -3.85160
| 13> H          5.97538       -1.39688       -4.69141
| 14> H          2.80646        1.98651       -4.26848
| 15> H          3.77871        3.09828       -3.30738
| 16> H          2.11090        0.81901       -2.18783
| 17> H          1.68276        2.51198       -2.12786
| 18> H          3.07216        1.93031       -1.24227
| 19> *
| 20>
| 21> %MaxCore 64000
| 22>
| 23> %pal nprocs 4
| 24> end
| 25>
| 26> %scf
| 27>   MaxIter 150
| 28> end
| 29>
| 30>
| 31>                          ****END OF INPUT****

CARTESIAN COORDINATES (ANGSTROEM)
---------------------------------
  C      3.380930    2.083040   -3.350130
  N      4.535920    1.182450   -3.428520
  C      2.495560    1.816150   -2.136360
  C      4.671960    0.122270   -4.220600
  N      5.866020   -0.507850   -4.224280
  C      3.698880   -0.312840   -4.986990
  H      2.731410   -0.050090   -4.849000
  H      3.890050   -1.055170   -5.643730
  H      5.251930    1.303460   -2.721010
  H      6.695160   -0.062320   -3.851600
  H      5.975380   -1.396880   -4.691410
  H      2.806460    1.986510   -4.268480
  H      3.778710    3.098280   -3.307380
  H      2.110900    0.819010   -2.187830
  H      1.682760    2.511980   -2.127860
  H      3.072160    1.930310   -1.242270

 Total Charge           Charge          ....    0
 Multiplicity           Mult            ....    1
 Number of Electrons    NEL             ....   48
 Basis Dimension        Dim             ....  312

ORBITAL ENERGIES
----------------

  NO   OCC          E(Eh)            E(eV)
   0   2.0000     -13.988148      -380.6369
   1   2.0000     -13.982360      -380.4794
   2   2.0000      -9.919867      -269.9333
   3   2.0000      -9.912958      -269.7453
   4   2.0000      -9.865937      -268.4658
   5   2.0000      -9.794873      -266.5321
   6   2.0000      -0.880624       -23.9630
   7   2.0000      -0.802745       -21.8438
   8   2.0000      -0.687493       -18.7076
   9   2.0000      -0.642990       -17.4966
  10   2.0000      -0.578298       -15.7363
  11   2.0000      -0.509972       -13.8770
  12   2.0000      -0.492582       -13.4038
  13   2.0000      -0.464125       -12.6295
  14   2.0000      -0.412306       -11.2194
  15   2.0000      -0.400557       -10.8997
  16   2.0000      -0.373551       -10.1648
  17   2.0000      -0.355978        -9.6867
  18   2.0000      -0.335290        -9.1237
  19   2.0000      -0.332259        -9.0412
  20   2.0000      -0.310714        -8.4550
  21   2.0000      -0.305781        -8.3207
  22   2.0000      -0.206645        -5.6231
  23   2.0000      -0.139946        -3.8081
  24   0.0000      -0.016651        -0.4531
  25   0.0000       0.003846         0.1047
  26   0.0000       0.016606         0.4519
  27   0.0000       0.022467         0.6114
  28   0.0000       0.043332         1.1791

MULLIKEN ATOMIC CHARGES
-----------------------
   0 C :   -0.387389
   1 N :   -0.102623
   2 C :   -0.722410
   3 C :    0.760013
   4 N :   -0.250401
   5 C :   -1.247018
   6 H :    0.231378
   7 H :    0.213724
   8 H :    0.174410
   9 H :    0.128687
  10 H :    0.129343
  11 H :    0.275050
  12 H :    0.133968
  13 H :    0.202201
  14 H :    0.243947
  15 H :    0.217119
Sum of atomic charges:   -0.0000000

LOEWDIN ATOMIC CHARGES
----------------------
   0 C :   -0.237505
   1 N :    0.023704
   2 C :   -0.085305
   3 C :   -0.577698
   4 N :    0.117728
   5 C :    0.005963
   6 H :    0.008366
   7 H :    0.010629
   8 H :    0.134434
   9 H :    0.091324
  10 H :    0.100895
  11 H :    0.106370
  12 H :    0.108404
  13 H :    0.067294
  14 H :    0.063608
  15 H :    0.061789

  Mayer bond orders larger than 0.100000
B(  0-C ,  1-N ) :   0.9556 B(  0-C ,  2-C ) :   0.7622 B(  0-C ,  5-C ) :   0.1483
B(  0-C , 11-H ) :   0.9138 B(  0-C , 12-H ) :   0.9811 B(  1-N ,  3-C ) :   1.0945
B(  1-N ,  8-H ) :   0.9782 B(  2-C , 13-H ) :   1.0456 B(  2-C , 14-H ) :   0.9708
B(  2-C , 15-H ) :   0.9657 B(  3-C ,  4-N ) :   0.9474 B(  3-C ,  5-C ) :   1.2101
B(  3-C ,  7-H ) :  -0.1184 B(  4-N ,  5-C ) :   0.1300 B(  4-N ,  9-H ) :   1.0346
B(  4-N , 10-H ) :   1.0315 B(  5-C ,  6-H ) :   0.9466 B(  5-C ,  7-H ) :   1.1275

Dispersion correction           -0.012543954
FINAL SINGLE POINT ENERGY      -267.671748681771

DIPOLE MOMENT
-------------
                                X             Y             Z
Electronic contribution:      3.65686      -1.32448      -1.35827
Nuclear contribution   :     -3.02065       1.64092       1.99316
                        -----------------------------------------
Total Dipole Moment    :      0.63621       0.31644       0.63489
                        -----------------------------------------
Magnitude (a.u.)       :      0.95289
Magnitude (Debye)      :      2.42205

Rotational constants in cm-1:     0.259304     0.069422     0.060943
Rotational constants in MHz :  7773.747720  2081.225169  1827.013389

                             ****ORCA TERMINATED NORMALLY****
TOTAL RUN TIME: 0 days 0 hours 0 minutes 14 seconds 443 msec
