                         Program Version 5.0.0 -  RELEASE  -
|  1> !PBE D3BJ RIJCOSX def2-TZVPD def2/J TightSCF xyzfile
|  2>
|  3> *xyzfile 0 1 D1.xyz
|  4>
|  5> %MaxCore 64000
|  6>
|  7> %pal nprocs 4
|  8> end
|  9>
| 10> %scf
| 11>   MaxIter 150
| 12> end
| 13>
| 14>
| 15>                          ****END OF INPUT****

CARTESIAN COORDINATES (ANGSTROEM)
---------------------------------
  C      3.380928    2.083045   -3.350127
  C      4.535924    1.182447   -3.428518
  C      2.495557    1.816150   -2.136364
  C      1.872181    0.427903   -2.077497
  H      2.614270   -0.365825   -2.198894
  H      1.389953    0.273087   -1.112360
  S      0.579024    0.140472   -3.297943
  C      4.671956    0.122273   -4.220598
  N      5.866023   -0.507849   -4.224284
  N      3.698881   -0.312844   -4.986988
  H      2.731405   -0.050091   -4.849000
  H      3.890046   -1.055172   -5.643730
  H      5.251933    1.303459   -2.721014
  H      6.695165   -0.062322   -3.851596
  H      5.975383   -1.396884   -4.691414
  F      0.228860   -1.246868   -3.127871
  O     -0.439269    1.118966   -3.014550
  O      1.247881    0.403474   -4.595647
  H      1.697003    2.561969   -2.141109
  H      3.080787    1.987436   -1.225838
  H      2.806463    1.986511   -4.268484
  H      3.778714    3.098282   -3.307383

 Total Charge           Charge          ....    0
 Multiplicity           Mult            ....    1
 Number of Electrons    NEL             ....   96
 Basis Dimension        Dim             ....  524

ORBITAL ENERGIES
----------------

  NO   OCC          E(Eh)            E(eV)
   0   2.0000     -88.277794     -2402.1609
   1   2.0000     -24.382338      -663.4771
   2   2.0000     -18.771541      -510.7996
   3   2.0000     -18.767561      -510.6913
   4   2.0000     -13.979699      -380.4070
   5   2.0000     -13.963686      -379.9712
   6   2.0000      -9.930665      -270.2271
   7   2.0000      -9.916342      -269.8374
   8   2.0000      -9.890947      -269.1463
   9   2.0000      -9.859135      -268.2807
  10   2.0000      -9.805742      -266.8278
  11   2.0000      -7.873994      -214.2623
  12   2.0000      -5.898263      -160.4999
  13   2.0000      -5.892077      -160.3316
  14   2.0000      -5.891276      -160.3098
  15   2.0000      -1.286207       -34.9995
  16   2.0000      -1.028694       -27.9922
  17   2.0000      -0.938407       -25.5353
  18   2.0000      -0.871131       -23.7047
  19   2.0000      -0.785218       -21.3669
  20   2.0000      -0.750052       -20.4099
  21   2.0000      -0.694237       -18.8911
  22   2.0000      -0.658819       -17.9274
  23   2.0000      -0.616508       -16.7760
  24   2.0000      -0.566179       -15.4065
  25   2.0000      -0.536677       -14.6037
  26   2.0000      -0.528057       -14.3692
  27   2.0000      -0.518178       -14.1003
  28   2.0000      -0.497881       -13.5480
  29   2.0000      -0.483680       -13.1616
  30   2.0000      -0.462955       -12.5977
  31   2.0000      -0.441014       -12.0006
  32   2.0000      -0.432952       -11.7812
  33   2.0000      -0.418623       -11.3913
  34   2.0000      -0.403167       -10.9707
  35   2.0000      -0.390021       -10.6130
  36   2.0000      -0.363226        -9.8839
  37   2.0000      -0.356019        -9.6878
  38   2.0000      -0.346480        -9.4282
  39   2.0000      -0.336187        -9.1481
  40   2.0000      -0.315190        -8.5767
  41   2.0000      -0.307294        -8.3619
  42   2.0000      -0.294842        -8.0230
  43   2.0000      -0.294075        -8.0022
  44   2.0000      -0.274682        -7.4745
  45   2.0000      -0.270759        -7.3677
  46   2.0000      -0.214305        -5.8315
  47   2.0000      -0.130099        -3.5402
  48   0.0000      -0.034597        -0.9414
  49   0.0000      -0.013646        -0.3713
  50   0.0000      -0.005265        -0.1433
  51   0.0000       0.006704         0.1824
  52   0.0000       0.013617         0.3705

MULLIKEN ATOMIC CHARGES
-----------------------
   0 C :   -0.266837
   1 C :   -0.966427
   2 C :   -0.297322
   3 C :   -0.408362
   4 H :    0.289882
   5 H :    0.204508
   6 S :    0.981193
   7 C :    0.579654
   8 N :   -0.266116
   9 N :   -0.153042
  10 H :    0.152960
  11 H :    0.120530
  12 H :    0.262452
  13 H :    0.145173
  14 H :    0.116835
  15 F :   -0.083624
  16 O :   -0.495743
  17 O :   -0.632905
  18 H :    0.071480
  19 H :    0.232846
  20 H :    0.295247
  21 H :    0.117620
Sum of atomic charges:   -0.0000000

LOEWDIN ATOMIC CHARGES
----------------------
   0 C :   -0.223105
   1 C :   -0.131641
   2 C :   -0.210213
   3 C :   -0.229144
   4 H :    0.104598
   5 H :    0.102347
   6 S :    0.585145
   7 C :   -0.555508
   8 N :    0.117097
   9 N :    0.155974
  10 H :    0.010229
  11 H :    0.103655
  12 H :    0.067774
  13 H :    0.101731
  14 H :    0.087211
  15 F :   -0.023985
  16 O :   -0.226415
  17 O :   -0.280862
  18 H :    0.110962
  19 H :    0.123010
  20 H :    0.099847
  21 H :    0.111292

  Mayer bond orders larger than 0.100000
B(  0-C ,  1-C ) :   0.7840 B(  0-C ,  2-C ) :   0.8015 B(  0-C , 20-H ) :   0.9083
B(  0-C , 21-H ) :   1.0433 B(  1-C ,  2-C ) :   0.1822 B(  1-C ,  3-C ) :   0.1358
B(  1-C ,  7-C ) :   1.2613 B(  1-C ,  8-N ) :   0.2322 B(  1-C ,  9-N ) :   0.1289
B(  1-C , 12-H ) :   0.9824 B(  2-C ,  3-C ) :   1.2455 B(  2-C ,  6-S ) :   0.1714
B(  2-C , 18-H ) :   0.9460 B(  2-C , 19-H ) :   0.8788 B(  3-C ,  4-H ) :   0.8479
B(  3-C ,  5-H ) :   0.8940 B(  3-C ,  6-S ) :   0.7871 B(  6-S , 15-F ) :   1.0379
B(  6-S , 16-O ) :   1.7483 B(  6-S , 17-O ) :   1.6446 B(  7-C ,  8-N ) :   0.9035
B(  7-C ,  9-N ) :   0.9912 B(  7-C , 10-H ) :  -0.1003 B(  7-C , 12-H ) :  -0.1046
B(  8-N , 13-H ) :   1.0056 B(  8-N , 14-H ) :   1.0628 B(  9-N , 10-H ) :   0.8826
B(  9-N , 11-H ) :   1.0253

Dispersion correction           -0.025309502
FINAL SINGLE POINT ENERGY      -954.542843395421

DIPOLE MOMENT
-------------
                                X             Y             Z
Electronic contribution:    -15.31773      -6.65030      -1.20793
Nuclear contribution   :     15.92508       5.34175       1.81950
                        -----------------------------------------
Total Dipole Moment    :      0.60735      -1.30855       0.61157
                        -----------------------------------------
Magnitude (a.u.)       :      1.56690
Magnitude (Debye)      :      3.98275

Rotational constants in cm-1:     0.058561     0.020662     0.017762
Rotational constants in MHz :  1755.621534   619.433801   532.501507

                             ****ORCA TERMINATED NORMALLY****
TOTAL RUN TIME: 0 days 0 hours 0 minutes 46 seconds 858 msec
