                         Program Version 5.0.0 -  RELEASE  -
|  1> !PBE D3BJ RIJCOSX def2-TZVPD def2/J TightSCF xyzfile
|  2>
|  3> *xyzfile 0 1 D2.xyz
|  4>
|  5> %MaxCore 64000
|  6>
|  7> %pal nprocs 4
|  8> end
|  9>
| 10> %scf
| 11>   MaxIter 150
| 12> end
| 13>
| 14>
| 15>                          ****END OF INPUT****

CARTESIAN COORDINATES (ANGSTROEM)
---------------------------------
  C      3.380928    2.083045   -3.350127
  N      4.535924    1.182447   -3.428518
  C      2.495557    1.816150   -2.136364
  C      1.872181    0.427903   -2.077497
  H      2.614270   -0.365825   -2.198894
  H      1.389953    0.273087   -1.112360
  S      0.579024    0.140472   -3.297943
  C      4.671956    0.122273   -4.220598
  C      5.866023   -0.507849   -4.224284
  N      3.698881   -0.312844   -4.986988
  H      2.731405   -0.050091   -4.849000
  H      3.890046   -1.055172   -5.643730
  H      5.251933    1.303459   -2.721014
  H      6.695165   -0.062322   -3.851596
  H      5.975383   -1.396884   -4.691414
  F      0.228860   -1.246868   -3.127871
  O     -0.439269    1.118966   -3.014550
  O      1.247881    0.403474   -4.595647
  H      1.697003    2.561969   -2.141109
  H      3.080787    1.987436   -1.225838
  H      2.806463    1.986511   -4.268484
  H      3.778714    3.098282   -3.307383

 Total Charge           Charge          ....    0
 Multiplicity           Mult            ....    1
 Number of Electrons    NEL             ....   96
 Basis Dimension        Dim             ....  524

ORBITAL ENERGIES
----------------

  NO   OCC          E(Eh)            E(eV)
   0   2.0000     -88.291305     -2402.5286
   1   2.0000     -24.393741      -663.7874
   2   2.0000     -18.784239      -511.1451
   3   2.0000     -18.779266      -511.0098
   4   2.0000     -13.988887      -380.6570
   5   2.0000     -13.960490      -379.8842
   6   2.0000      -9.949192      -270.7313
   7   2.0000      -9.923745      -270.0388
   8   2.0000      -9.917834      -269.8780
   9   2.0000      -9.915170      -269.8055
  10   2.0000      -9.785600      -266.2797
  11   2.0000      -7.887349      -214.6257
  12   2.0000      -5.911552      -160.8615
  13   2.0000      -5.905420      -160.6946
  14   2.0000      -5.904767      -160.6769
  15   2.0000      -1.297418       -35.3045
  16   2.0000      -1.041281       -28.3347
  17   2.0000      -0.950613       -25.8675
  18   2.0000      -0.880676       -23.9644
  19   2.0000      -0.804526       -21.8923
  20   2.0000      -0.762013       -20.7354
  21   2.0000      -0.702097       -19.1050
  22   2.0000      -0.660494       -17.9730
  23   2.0000      -0.621666       -16.9164
  24   2.0000      -0.575513       -15.6605
  25   2.0000      -0.543588       -14.7918
  26   2.0000      -0.541276       -14.7289
  27   2.0000      -0.534300       -14.5390
  28   2.0000      -0.524237       -14.2652
  29   2.0000      -0.490247       -13.3403
  30   2.0000      -0.457081       -12.4378
  31   2.0000      -0.441934       -12.0256
  32   2.0000      -0.438820       -11.9409
  33   2.0000      -0.433397       -11.7933
  34   2.0000      -0.415217       -11.2986
  35   2.0000      -0.399606       -10.8738
  36   2.0000      -0.370806       -10.0901
  37   2.0000      -0.362765        -9.8713
  38   2.0000      -0.361276        -9.8308
  39   2.0000      -0.342974        -9.3328
  40   2.0000      -0.338817        -9.2197
  41   2.0000      -0.325634        -8.8609
  42   2.0000      -0.312307        -8.4983
  43   2.0000      -0.303272        -8.2525
  44   2.0000      -0.297961        -8.1079
  45   2.0000      -0.281873        -7.6701
  46   2.0000      -0.208503        -5.6737
  47   2.0000      -0.123112        -3.3501
  48   0.0000      -0.044174        -1.2020
  49   0.0000      -0.025127        -0.6837
  50   0.0000      -0.004262        -0.1160
  51   0.0000       0.000237         0.0064
  52   0.0000       0.004331         0.1179

MULLIKEN ATOMIC CHARGES
-----------------------
   0 C :   -0.570006
   1 N :   -0.052749
   2 C :   -0.223774
   3 C :   -0.424176
   4 H :    0.286109
   5 H :    0.208325
   6 S :    0.985970
   7 C :    0.591116
   8 C :   -1.276458
   9 N :   -0.138984
  10 H :    0.175799
  11 H :    0.128565
  12 H :    0.187661
  13 H :    0.232030
  14 H :    0.230614
  15 F :   -0.077979
  16 O :   -0.493026
  17 O :   -0.629851
  18 H :    0.161627
  19 H :    0.170663
  20 H :    0.386214
  21 H :    0.142312
Sum of atomic charges:    0.0000000

LOEWDIN ATOMIC CHARGES
----------------------
   0 C :   -0.182496
   1 N :    0.044716
   2 C :   -0.194402
   3 C :   -0.226044
   4 H :    0.107920
   5 H :    0.104576
   6 S :    0.586591
   7 C :   -0.585817
   8 C :   -0.006429
   9 N :    0.151982
  10 H :    0.004599
  11 H :    0.116103
  12 H :    0.143999
  13 H :   -0.003289
  14 H :   -0.004952
  15 F :   -0.017513
  16 O :   -0.224131
  17 O :   -0.280875
  18 H :    0.115880
  19 H :    0.122257
  20 H :    0.108265
  21 H :    0.119060

  Mayer bond orders larger than 0.100000
B(  0-C ,  1-N ) :   0.9520 B(  0-C ,  2-C ) :   0.9629 B(  0-C ,  7-C ) :  -0.1056
B(  0-C , 20-H ) :   0.8319 B(  0-C , 21-H ) :   0.9893 B(  1-N ,  7-C ) :   1.1536
B(  1-N ,  8-C ) :   0.1694 B(  1-N , 12-H ) :   0.9306 B(  2-C ,  3-C ) :   1.2126
B(  2-C ,  6-S ) :   0.1684 B(  2-C , 18-H ) :   0.9578 B(  2-C , 19-H ) :   0.8814
B(  3-C ,  4-H ) :   0.8512 B(  3-C ,  5-H ) :   0.9102 B(  3-C ,  6-S ) :   0.7898
B(  6-S , 15-F ) :   1.0454 B(  6-S , 16-O ) :   1.7498 B(  6-S , 17-O ) :   1.6474
B(  7-C ,  8-C ) :   1.0943 B(  7-C ,  9-N ) :   1.1086 B(  8-C ,  9-N ) :   0.1191
B(  8-C , 13-H ) :   1.0152 B(  8-C , 14-H ) :   1.0822 B(  9-N , 10-H ) :   0.8442
B(  9-N , 11-H ) :   1.0043

Dispersion correction           -0.025099932
FINAL SINGLE POINT ENERGY      -954.526540942704

DIPOLE MOMENT
-------------
                                X             Y             Z
Electronic contribution:    -16.78147      -5.21763      -0.44797
Nuclear contribution   :     16.05479       5.17692       1.74190
                        -----------------------------------------
Total Dipole Moment    :     -0.72668      -0.04071       1.29392
                        -----------------------------------------
Magnitude (a.u.)       :      1.48457
Magnitude (Debye)      :      3.77348

Rotational constants in cm-1:     0.058652     0.021107     0.018077
Rotational constants in MHz :  1758.344290   632.763813   541.920558

                             ****ORCA TERMINATED NORMALLY****
TOTAL RUN TIME: 0 days 0 hours 0 minutes 47 seconds 273 msec
