                         Program Version 5.0.0 -  RELEASE  -
|  1> !PBE D3BJ RIJCOSX def2-TZVPD def2/J TightSCF xyzfile
|  2>
|  3> *xyzfile 0 1 D3.xyz
|  4>
|  5> %MaxCore 64000
|  6>
|  7> %pal nprocs 4
|  8> end
|  9>
| 10> %scf
| 11>   MaxIter 150
| 12> end
| 13>
| 14>
| 15>                          ****END OF INPUT****

CARTESIAN COORDINATES (ANGSTROEM)
---------------------------------
  C      3.380928    2.083045   -3.350127
  N      4.535924    1.182447   -3.428518
  C      2.495557    1.816150   -2.136364
  C      1.872181    0.427903   -2.077497
  H      2.614270   -0.365825   -2.198894
  H      1.389953    0.273087   -1.112360
  S      0.579024    0.140472   -3.297943
  C      4.671956    0.122273   -4.220598
  N      5.866023   -0.507849   -4.224284
  C      3.698881   -0.312844   -4.986988
  H      2.731405   -0.050091   -4.849000
  H      3.890046   -1.055172   -5.643730
  H      5.251933    1.303459   -2.721014
  H      6.695165   -0.062322   -3.851596
  H      5.975383   -1.396884   -4.691414
  F      0.228860   -1.246868   -3.127871
  O     -0.439269    1.118966   -3.014550
  O      1.247881    0.403474   -4.595647
  H      1.697003    2.561969   -2.141109
  H      3.080787    1.987436   -1.225838
  H      2.806463    1.986511   -4.268484
  H      3.778714    3.098282   -3.307383

 Total Charge           Charge          ....    0
 Multiplicity           Mult            ....    1
 Number of Electrons    NEL             ....   96
 Basis Dimension        Dim             ....  524

ORBITAL ENERGIES
----------------

  NO   OCC          E(Eh)            E(eV)
   0   2.0000     -88.269221     -2401.9276
   1   2.0000     -24.374923      -663.2754
   2   2.0000     -18.764164      -510.5989
   3   2.0000     -18.750698      -510.2324
   4   2.0000     -13.990412      -380.6985
   5   2.0000     -13.978730      -380.3806
   6   2.0000      -9.934978      -270.3445
   7   2.0000      -9.918008      -269.8827
   8   2.0000      -9.913776      -269.7676
   9   2.0000      -9.909726      -269.6574
  10   2.0000      -9.774733      -265.9840
  11   2.0000      -7.865307      -214.0259
  12   2.0000      -5.889587      -160.2638
  13   2.0000      -5.883139      -160.0883
  14   2.0000      -5.882861      -160.0808
  15   2.0000      -1.278473       -34.7890
  16   2.0000      -1.019056       -27.7299
  17   2.0000      -0.925591       -25.1866
  18   2.0000      -0.880503       -23.9597
  19   2.0000      -0.804220       -21.8839
  20   2.0000      -0.749054       -20.3828
  21   2.0000      -0.684675       -18.6310
  22   2.0000      -0.649549       -17.6751
  23   2.0000      -0.629018       -17.1164
  24   2.0000      -0.581580       -15.8256
  25   2.0000      -0.526386       -14.3237
  26   2.0000      -0.522632       -14.2215
  27   2.0000      -0.512928       -13.9575
  28   2.0000      -0.500766       -13.6265
  29   2.0000      -0.484999       -13.1975
  30   2.0000      -0.464425       -12.6376
  31   2.0000      -0.442575       -12.0431
  32   2.0000      -0.439715       -11.9652
  33   2.0000      -0.407282       -11.0827
  34   2.0000      -0.404338       -11.0026
  35   2.0000      -0.398058       -10.8317
  36   2.0000      -0.361005        -9.8235
  37   2.0000      -0.351331        -9.5602
  38   2.0000      -0.344514        -9.3747
  39   2.0000      -0.337570        -9.1858
  40   2.0000      -0.333830        -9.0840
  41   2.0000      -0.325221        -8.8497
  42   2.0000      -0.305128        -8.3030
  43   2.0000      -0.291490        -7.9319
  44   2.0000      -0.275531        -7.4976
  45   2.0000      -0.239591        -6.5196
  46   2.0000      -0.208064        -5.6617
  47   2.0000      -0.134611        -3.6630
  48   0.0000      -0.028977        -0.7885
  49   0.0000      -0.022129        -0.6022
  50   0.0000      -0.005737        -0.1561
  51   0.0000       0.003702         0.1007
  52   0.0000       0.018303         0.4981

MULLIKEN ATOMIC CHARGES
-----------------------
   0 C :   -0.564055
   1 N :   -0.104904
   2 C :   -0.254732
   3 C :   -0.398556
   4 H :    0.288181
   5 H :    0.207977
   6 S :    0.956466
   7 C :    0.894544
   8 N :   -0.274217
   9 C :   -1.596978
  10 H :    0.480105
  11 H :    0.196248
  12 H :    0.185461
  13 H :    0.118258
  14 H :    0.135401
  15 F :   -0.089606
  16 O :   -0.507261
  17 O :   -0.508460
  18 H :    0.148088
  19 H :    0.175571
  20 H :    0.387757
  21 H :    0.124713
Sum of atomic charges:    0.0000000

LOEWDIN ATOMIC CHARGES
----------------------
   0 C :   -0.176232
   1 N :    0.035859
   2 C :   -0.193795
   3 C :   -0.227137
   4 H :    0.104610
   5 H :    0.101794
   6 S :    0.576081
   7 C :   -0.568699
   8 N :    0.115757
   9 C :    0.020315
  10 H :   -0.057208
  11 H :    0.023848
  12 H :    0.135014
  13 H :    0.088126
  14 H :    0.100054
  15 F :   -0.022545
  16 O :   -0.235885
  17 O :   -0.287079
  18 H :    0.115790
  19 H :    0.118940
  20 H :    0.112867
  21 H :    0.119528

  Mayer bond orders larger than 0.100000
B(  0-C ,  1-N ) :   1.0011 B(  0-C ,  2-C ) :   0.9663 B(  0-C ,  9-C ) :   0.1067
B(  0-C , 20-H ) :   0.8119 B(  0-C , 21-H ) :   0.9790 B(  1-N ,  7-C ) :   1.0915
B(  1-N ,  8-N ) :   0.1001 B(  1-N , 12-H ) :   0.9482 B(  2-C ,  3-C ) :   1.2248
B(  2-C ,  6-S ) :   0.1822 B(  2-C , 18-H ) :   0.9382 B(  2-C , 19-H ) :   0.8830
B(  3-C ,  4-H ) :   0.8628 B(  3-C ,  5-H ) :   0.9124 B(  3-C ,  6-S ) :   0.7591
B(  6-S , 15-F ) :   1.0283 B(  6-S , 16-O ) :   1.7388 B(  6-S , 17-O ) :   1.7215
B(  7-C ,  8-N ) :   0.9391 B(  7-C ,  9-C ) :   0.8066 B(  7-C , 11-H ) :  -0.1801
B(  8-N ,  9-C ) :   0.1500 B(  8-N , 13-H ) :   1.0473 B(  8-N , 14-H ) :   1.0233
B(  9-C , 10-H ) :   1.0320 B(  9-C , 11-H ) :   1.1775 B(  9-C , 17-O ) :   0.1914
B( 10-H , 17-O ) :  -0.3325

Dispersion correction           -0.025293264
FINAL SINGLE POINT ENERGY      -954.510836052166

DIPOLE MOMENT
-------------
                                X             Y             Z
Electronic contribution:    -14.72386      -5.45627      -0.03619
Nuclear contribution   :     15.84345       5.19593       1.66752
                        -----------------------------------------
Total Dipole Moment    :      1.11960      -0.26033       1.63133
                        -----------------------------------------
Magnitude (a.u.)       :      1.99562
Magnitude (Debye)      :      5.07246

Rotational constants in cm-1:     0.059060     0.020573     0.017713
Rotational constants in MHz :  1770.576058   616.749938   531.036486

                             ****ORCA TERMINATED NORMALLY****
TOTAL RUN TIME: 0 days 0 hours 0 minutes 44 seconds 181 msec
