                         Program Version 5.0.0 -  RELEASE  -
|  1> !PBE D3BJ RIJCOSX def2-TZVPD def2/J TightSCF xyzfile
|  2>
|  3> *xyzfile 0 1 D4.xyz
|  4>
|  5> %MaxCore 64000
|  6>
|  7> %pal nprocs 4
|  8> end
|  9>
| 10> %scf
| 11>   MaxIter 150
| 12> end
| 13>
| 14>
| 15>                          ****END OF INPUT****

CARTESIAN COORDINATES (ANGSTROEM)
---------------------------------
  C      3.380928    2.083045   -3.350127
  C      4.535924    1.182447   -3.428518
  C      2.495557    1.816150   -2.136364
  C      1.872181    0.427903   -2.077497
  H      2.614270   -0.365825   -2.198894
  H      1.389953    0.273087   -1.112360
  S      0.579024    0.140472   -3.297943
  C      4.671956    0.122273   -4.220598
  N      5.866023   -0.507849   -4.224284
  N      3.698881   -0.312844   -4.986988
  H      2.731405   -0.050091   -4.849000
  H      3.890046   -1.055172   -5.643730
  H      5.251933    1.303459   -2.721014
  H      6.695165   -0.062322   -3.851596
  H      5.975383   -1.396884   -4.691414
  O      0.228860   -1.246868   -3.127871
  F     -0.439269    1.118966   -3.014550
  O      1.247881    0.403474   -4.595647
  H      1.697003    2.561969   -2.141109
  H      3.080787    1.987436   -1.225838
  H      2.806463    1.986511   -4.268484
  H      3.778714    3.098282   -3.307383

 Total Charge           Charge          ....    0
 Multiplicity           Mult            ....    1
 Number of Electrons    NEL             ....   96
 Basis Dimension        Dim             ....  524

ORBITAL ENERGIES
----------------

  NO   OCC          E(Eh)            E(eV)
   0   2.0000     -88.277977     -2402.1659
   1   2.0000     -24.381969      -663.4671
   2   2.0000     -18.771731      -510.8048
   3   2.0000     -18.766863      -510.6723
   4   2.0000     -13.979481      -380.4010
   5   2.0000     -13.963455      -379.9649
   6   2.0000      -9.929912      -270.2066
   7   2.0000      -9.916910      -269.8529
   8   2.0000      -9.892339      -269.1842
   9   2.0000      -9.860815      -268.3264
  10   2.0000      -9.806398      -266.8457
  11   2.0000      -7.874038      -214.2635
  12   2.0000      -5.898377      -160.5030
  13   2.0000      -5.892157      -160.3337
  14   2.0000      -5.891252      -160.3091
  15   2.0000      -1.285867       -34.9902
  16   2.0000      -1.028200       -27.9787
  17   2.0000      -0.938385       -25.5347
  18   2.0000      -0.870806       -23.6958
  19   2.0000      -0.784813       -21.3559
  20   2.0000      -0.752227       -20.4691
  21   2.0000      -0.692121       -18.8336
  22   2.0000      -0.658626       -17.9221
  23   2.0000      -0.618144       -16.8206
  24   2.0000      -0.565184       -15.3794
  25   2.0000      -0.539236       -14.6733
  26   2.0000      -0.529512       -14.4087
  27   2.0000      -0.521264       -14.1843
  28   2.0000      -0.494209       -13.4481
  29   2.0000      -0.481503       -13.1024
  30   2.0000      -0.462593       -12.5878
  31   2.0000      -0.438468       -11.9313
  32   2.0000      -0.430142       -11.7047
  33   2.0000      -0.423305       -11.5187
  34   2.0000      -0.404577       -11.0091
  35   2.0000      -0.391700       -10.6587
  36   2.0000      -0.365571        -9.9477
  37   2.0000      -0.355425        -9.6716
  38   2.0000      -0.351671        -9.5695
  39   2.0000      -0.333956        -9.0874
  40   2.0000      -0.315943        -8.5972
  41   2.0000      -0.305714        -8.3189
  42   2.0000      -0.296515        -8.0686
  43   2.0000      -0.293077        -7.9750
  44   2.0000      -0.281548        -7.6613
  45   2.0000      -0.266679        -7.2567
  46   2.0000      -0.213576        -5.8117
  47   2.0000      -0.130544        -3.5523
  48   0.0000      -0.036279        -0.9872
  49   0.0000      -0.009903        -0.2695
  50   0.0000      -0.005682        -0.1546
  51   0.0000       0.008883         0.2417
  52   0.0000       0.010944         0.2978

MULLIKEN ATOMIC CHARGES
-----------------------
   0 C :   -0.249245
   1 C :   -0.996963
   2 C :   -0.267203
   3 C :   -0.377103
   4 H :    0.260016
   5 H :    0.209551
   6 S :    0.965492
   7 C :    0.598042
   8 N :   -0.265605
   9 N :   -0.140754
  10 H :    0.119871
  11 H :    0.122268
  12 H :    0.263274
  13 H :    0.145491
  14 H :    0.118617
  15 O :   -0.504935
  16 F :   -0.075372
  17 O :   -0.630090
  18 H :    0.074103
  19 H :    0.216112
  20 H :    0.297483
  21 H :    0.116950
Sum of atomic charges:   -0.0000000

LOEWDIN ATOMIC CHARGES
----------------------
   0 C :   -0.228920
   1 C :   -0.131421
   2 C :   -0.222621
   3 C :   -0.223063
   4 H :    0.115178
   5 H :    0.102662
   6 S :    0.582744
   7 C :   -0.551724
   8 N :    0.118945
   9 N :    0.162332
  10 H :    0.016513
  11 H :    0.106595
  12 H :    0.067658
  13 H :    0.102021
  14 H :    0.088751
  15 O :   -0.232667
  16 F :   -0.018145
  17 O :   -0.285952
  18 H :    0.104507
  19 H :    0.120045
  20 H :    0.096685
  21 H :    0.109877

  Mayer bond orders larger than 0.100000
B(  0-C ,  1-C ) :   0.7936 B(  0-C ,  2-C ) :   0.8174 B(  0-C , 20-H ) :   0.8947
B(  0-C , 21-H ) :   1.0528 B(  1-C ,  2-C ) :   0.2008 B(  1-C ,  3-C ) :   0.1400
B(  1-C ,  7-C ) :   1.2512 B(  1-C ,  8-N ) :   0.2284 B(  1-C ,  9-N ) :   0.1315
B(  1-C , 12-H ) :   0.9814 B(  2-C ,  3-C ) :   1.1770 B(  2-C ,  6-S ) :   0.1407
B(  2-C , 18-H ) :   0.9303 B(  2-C , 19-H ) :   0.8968 B(  3-C ,  4-H ) :   0.8830
B(  3-C ,  5-H ) :   0.9206 B(  3-C ,  6-S ) :   0.7869 B(  3-C , 15-O ) :   0.1120
B(  6-S , 15-O ) :   1.7212 B(  6-S , 16-F ) :   1.0842 B(  6-S , 17-O ) :   1.6415
B(  7-C ,  8-N ) :   0.9101 B(  7-C ,  9-N ) :   0.9941 B(  7-C , 10-H ) :  -0.1049
B(  7-C , 12-H ) :  -0.1052 B(  8-N , 13-H ) :   1.0052 B(  8-N , 14-H ) :   1.0607
B(  9-N , 10-H ) :   0.8833 B(  9-N , 11-H ) :   1.0186 B( 10-H , 17-O ) :   0.1126
B( 15-O , 17-O ) :   0.1095

Dispersion correction           -0.025281079
FINAL SINGLE POINT ENERGY      -954.543054116634

DIPOLE MOMENT
-------------
                                X             Y             Z
Electronic contribution:    -16.39678      -2.69877      -1.04831
Nuclear contribution   :     16.65743       2.74852       1.69529
                        -----------------------------------------
Total Dipole Moment    :      0.26064       0.04974       0.64698
                        -----------------------------------------
Magnitude (a.u.)       :      0.69928
Magnitude (Debye)      :      1.77742

Rotational constants in cm-1:     0.059907     0.020458     0.017675
Rotational constants in MHz :  1795.978106   613.328205   529.885290

                             ****ORCA TERMINATED NORMALLY****
TOTAL RUN TIME: 0 days 0 hours 0 minutes 54 seconds 699 msec
