                         Program Version 5.0.0 -  RELEASE  -
|  1> !PBE D3BJ RIJCOSX def2-TZVPD def2/J TightSCF xyzfile
|  2>
|  3> *xyzfile 0 1 D5.xyz
|  4>
|  5> %MaxCore 64000
|  6>
|  7> %pal nprocs 4
|  8> end
|  9>
| 10> %scf
| 11>   MaxIter 150
| 12> end
| 13>
| 14>
| 15>                          ****END OF INPUT****

CARTESIAN COORDINATES (ANGSTROEM)
---------------------------------
  C      3.380928    2.083045   -3.350127
  N      4.535924    1.182447   -3.428518
  C      2.495557    1.816150   -2.136364
  C      1.872181    0.427903   -2.077497
  H      2.614270   -0.365825   -2.198894
  H      1.389953    0.273087   -1.112360
  S      0.579024    0.140472   -3.297943
  C      4.671956    0.122273   -4.220598
  C      5.866023   -0.507849   -4.224284
  N      3.698881   -0.312844   -4.986988
  H      2.731405   -0.050091   -4.849000
  H      3.890046   -1.055172   -5.643730
  H      5.251933    1.303459   -2.721014
  H      6.695165   -0.062322   -3.851596
  H      5.975383   -1.396884   -4.691414
  O      0.228860   -1.246868   -3.127871
  F     -0.439269    1.118966   -3.014550
  O      1.247881    0.403474   -4.595647
  H      1.697003    2.561969   -2.141109
  H      3.080787    1.987436   -1.225838
  H      2.806463    1.986511   -4.268484
  H      3.778714    3.098282   -3.307383

 Total Charge           Charge          ....    0
 Multiplicity           Mult            ....    1
 Number of Electrons    NEL             ....   96
 Basis Dimension        Dim             ....  524

ORBITAL ENERGIES
----------------

  NO   OCC          E(Eh)            E(eV)
   0   2.0000     -88.290745     -2402.5133
   1   2.0000     -24.394334      -663.8036
   2   2.0000     -18.783241      -511.1180
   3   2.0000     -18.779017      -511.0030
   4   2.0000     -13.989944      -380.6857
   5   2.0000     -13.959842      -379.8666
   6   2.0000      -9.948732      -270.7188
   7   2.0000      -9.925518      -270.0871
   8   2.0000      -9.919443      -269.9218
   9   2.0000      -9.914724      -269.7934
  10   2.0000      -9.785087      -266.2657
  11   2.0000      -7.886736      -214.6090
  12   2.0000      -5.911030      -160.8473
  13   2.0000      -5.904809      -160.6780
  14   2.0000      -5.904073      -160.6580
  15   2.0000      -1.298287       -35.3282
  16   2.0000      -1.039900       -28.2971
  17   2.0000      -0.950096       -25.8534
  18   2.0000      -0.880802       -23.9678
  19   2.0000      -0.804592       -21.8941
  20   2.0000      -0.763920       -20.7873
  21   2.0000      -0.699900       -19.0452
  22   2.0000      -0.661831       -18.0093
  23   2.0000      -0.622799       -16.9472
  24   2.0000      -0.574729       -15.6392
  25   2.0000      -0.546947       -14.8832
  26   2.0000      -0.545617       -14.8470
  27   2.0000      -0.539777       -14.6881
  28   2.0000      -0.515914       -14.0387
  29   2.0000      -0.486920       -13.2498
  30   2.0000      -0.457163       -12.4400
  31   2.0000      -0.445827       -12.1316
  32   2.0000      -0.438967       -11.9449
  33   2.0000      -0.431350       -11.7376
  34   2.0000      -0.411863       -11.2074
  35   2.0000      -0.404570       -11.0089
  36   2.0000      -0.373266       -10.1571
  37   2.0000      -0.367716       -10.0061
  38   2.0000      -0.360052        -9.7975
  39   2.0000      -0.346921        -9.4402
  40   2.0000      -0.336610        -9.1596
  41   2.0000      -0.322992        -8.7891
  42   2.0000      -0.309349        -8.4178
  43   2.0000      -0.299747        -8.1565
  44   2.0000      -0.296451        -8.0668
  45   2.0000      -0.287138        -7.8134
  46   2.0000      -0.208246        -5.6667
  47   2.0000      -0.122601        -3.3361
  48   0.0000      -0.047268        -1.2862
  49   0.0000      -0.022568        -0.6141
  50   0.0000      -0.004324        -0.1177
  51   0.0000      -0.002044        -0.0556
  52   0.0000      -0.001207        -0.0328

MULLIKEN ATOMIC CHARGES
-----------------------
   0 C :   -0.556323
   1 N :   -0.062275
   2 C :   -0.202754
   3 C :   -0.400718
   4 H :    0.259653
   5 H :    0.213960
   6 S :    0.975594
   7 C :    0.602852
   8 C :   -1.283070
   9 N :   -0.127651
  10 H :    0.146734
  11 H :    0.129641
  12 H :    0.189825
  13 H :    0.233299
  14 H :    0.230887
  15 O :   -0.497092
  16 F :   -0.075736
  17 O :   -0.628819
  18 H :    0.161376
  19 H :    0.161683
  20 H :    0.385537
  21 H :    0.143397
Sum of atomic charges:   -0.0000000

LOEWDIN ATOMIC CHARGES
----------------------
   0 C :   -0.188075
   1 N :    0.045429
   2 C :   -0.206190
   3 C :   -0.219398
   4 H :    0.118647
   5 H :    0.104926
   6 S :    0.582672
   7 C :   -0.583283
   8 C :   -0.004499
   9 N :    0.157522
  10 H :    0.010514
  11 H :    0.118464
  12 H :    0.144111
  13 H :   -0.002955
  14 H :   -0.003508
  15 O :   -0.224253
  16 F :   -0.016813
  17 O :   -0.285387
  18 H :    0.109859
  19 H :    0.119421
  20 H :    0.105015
  21 H :    0.117781

  Mayer bond orders larger than 0.100000
B(  0-C ,  1-N ) :   0.9616 B(  0-C ,  2-C ) :   0.9805 B(  0-C ,  7-C ) :  -0.1018
B(  0-C , 20-H ) :   0.8287 B(  0-C , 21-H ) :   0.9945 B(  1-N ,  3-C ) :   0.1018
B(  1-N ,  7-C ) :   1.1421 B(  1-N ,  8-C ) :   0.1698 B(  1-N , 12-H ) :   0.9318
B(  2-C ,  3-C ) :   1.1441 B(  2-C ,  6-S ) :   0.1401 B(  2-C , 18-H ) :   0.9511
B(  2-C , 19-H ) :   0.8969 B(  3-C ,  4-H ) :   0.8841 B(  3-C ,  5-H ) :   0.9378
B(  3-C ,  6-S ) :   0.7938 B(  3-C , 15-O ) :   0.1170 B(  6-S , 15-O ) :   1.7279
B(  6-S , 16-F ) :   1.0856 B(  6-S , 17-O ) :   1.6419 B(  7-C ,  8-C ) :   1.0865
B(  7-C ,  9-N ) :   1.1102 B(  8-C ,  9-N ) :   0.1192 B(  8-C , 13-H ) :   1.0164
B(  8-C , 14-H ) :   1.0803 B(  9-N , 10-H ) :   0.8427 B(  9-N , 11-H ) :   0.9982
B( 10-H , 17-O ) :   0.1271 B( 15-O , 17-O ) :   0.1096

Dispersion correction           -0.025071891
FINAL SINGLE POINT ENERGY      -954.525538466546

DIPOLE MOMENT
-------------
                                X             Y             Z
Electronic contribution:    -17.86190      -1.26400      -0.27307
Nuclear contribution   :     16.78714       2.58368       1.61768
                        -----------------------------------------
Total Dipole Moment    :     -1.07476       1.31968       1.34461
                        -----------------------------------------
Magnitude (a.u.)       :      2.16902
Magnitude (Debye)      :      5.51321

Rotational constants in cm-1:     0.059928     0.020911     0.017993
Rotational constants in MHz :  1796.610847   626.896941   539.414615

                             ****ORCA TERMINATED NORMALLY****
TOTAL RUN TIME: 0 days 0 hours 0 minutes 47 seconds 144 msec
