                         Program Version 5.0.0 -  RELEASE  -
|  1> !PBE D3BJ RIJCOSX def2-TZVPD def2/J TightSCF xyzfile
|  2>
|  3> *xyzfile 0 1 D6.xyz
|  4>
|  5> %MaxCore 64000
|  6>
|  7> %pal nprocs 4
|  8> end
|  9>
| 10> %scf
| 11>   MaxIter 150
| 12> end
| 13>
| 14>
| 15>                          ****END OF INPUT****

CARTESIAN COORDINATES (ANGSTROEM)
---------------------------------
  C      3.380928    2.083045   -3.350127
  N      4.535924    1.182447   -3.428518
  C      2.495557    1.816150   -2.136364
  C      1.872181    0.427903   -2.077497
  H      2.614270   -0.365825   -2.198894
  H      1.389953    0.273087   -1.112360
  S      0.579024    0.140472   -3.297943
  C      4.671956    0.122273   -4.220598
  N      5.866023   -0.507849   -4.224284
  C      3.698881   -0.312844   -4.986988
  H      2.731405   -0.050091   -4.849000
  H      3.890046   -1.055172   -5.643730
  H      5.251933    1.303459   -2.721014
  H      6.695165   -0.062322   -3.851596
  H      5.975383   -1.396884   -4.691414
  O      0.228860   -1.246868   -3.127871
  F     -0.439269    1.118966   -3.014550
  O      1.247881    0.403474   -4.595647
  H      1.697003    2.561969   -2.141109
  H      3.080787    1.987436   -1.225838
  H      2.806463    1.986511   -4.268484
  H      3.778714    3.098282   -3.307383

 Total Charge           Charge          ....    0
 Multiplicity           Mult            ....    1
 Number of Electrons    NEL             ....   96
 Basis Dimension        Dim             ....  524

ORBITAL ENERGIES
----------------

  NO   OCC          E(Eh)            E(eV)
   0   2.0000     -88.268114     -2401.8975
   1   2.0000     -24.374674      -663.2686
   2   2.0000     -18.763550      -510.5821
   3   2.0000     -18.752178      -510.2727
   4   2.0000     -13.990794      -380.7088
   5   2.0000     -13.977505      -380.3473
   6   2.0000      -9.934699      -270.3369
   7   2.0000      -9.919707      -269.9290
   8   2.0000      -9.912597      -269.7355
   9   2.0000      -9.911499      -269.7056
  10   2.0000      -9.774623      -265.9810
  11   2.0000      -7.864266      -213.9976
  12   2.0000      -5.888654      -160.2384
  13   2.0000      -5.882005      -160.0575
  14   2.0000      -5.881816      -160.0524
  15   2.0000      -1.278987       -34.8030
  16   2.0000      -1.017677       -27.6924
  17   2.0000      -0.925845       -25.1935
  18   2.0000      -0.880209       -23.9517
  19   2.0000      -0.803969       -21.8771
  20   2.0000      -0.751459       -20.4482
  21   2.0000      -0.681824       -18.5534
  22   2.0000      -0.650880       -17.7113
  23   2.0000      -0.629225       -17.1221
  24   2.0000      -0.582160       -15.8414
  25   2.0000      -0.534461       -14.5434
  26   2.0000      -0.524113       -14.2618
  27   2.0000      -0.511399       -13.9159
  28   2.0000      -0.499296       -13.5865
  29   2.0000      -0.480991       -13.0884
  30   2.0000      -0.463886       -12.6230
  31   2.0000      -0.443101       -12.0574
  32   2.0000      -0.435928       -11.8622
  33   2.0000      -0.414621       -11.2824
  34   2.0000      -0.401181       -10.9167
  35   2.0000      -0.397289       -10.8108
  36   2.0000      -0.368003       -10.0139
  37   2.0000      -0.352119        -9.5817
  38   2.0000      -0.348669        -9.4878
  39   2.0000      -0.340925        -9.2770
  40   2.0000      -0.331933        -9.0324
  41   2.0000      -0.321714        -8.7543
  42   2.0000      -0.305865        -8.3230
  43   2.0000      -0.281978        -7.6730
  44   2.0000      -0.265385        -7.2215
  45   2.0000      -0.254529        -6.9261
  46   2.0000      -0.207931        -5.6581
  47   2.0000      -0.133245        -3.6258
  48   0.0000      -0.033372        -0.9081
  49   0.0000      -0.018399        -0.5007
  50   0.0000      -0.006530        -0.1777
  51   0.0000       0.004621         0.1258
  52   0.0000       0.010162         0.2765

MULLIKEN ATOMIC CHARGES
-----------------------
   0 C :   -0.549188
   1 N :   -0.113730
   2 C :   -0.226973
   3 C :   -0.364306
   4 H :    0.252928
   5 H :    0.204958
   6 S :    0.950133
   7 C :    0.880394
   8 N :   -0.274452
   9 C :   -1.524822
  10 H :    0.405132
  11 H :    0.199218
  12 H :    0.186385
  13 H :    0.117267
  14 H :    0.135873
  15 O :   -0.517060
  16 F :   -0.082382
  17 O :   -0.502035
  18 H :    0.146127
  19 H :    0.166800
  20 H :    0.384259
  21 H :    0.125475
Sum of atomic charges:   -0.0000000

LOEWDIN ATOMIC CHARGES
----------------------
   0 C :   -0.181881
   1 N :    0.035798
   2 C :   -0.205276
   3 C :   -0.220270
   4 H :    0.115504
   5 H :    0.102272
   6 S :    0.571936
   7 C :   -0.566637
   8 N :    0.116351
   9 C :    0.027310
  10 H :   -0.050972
  11 H :    0.026760
  12 H :    0.134902
  13 H :    0.087989
  14 H :    0.100882
  15 O :   -0.232538
  16 F :   -0.025933
  17 O :   -0.290372
  18 H :    0.109974
  19 H :    0.116250
  20 H :    0.109646
  21 H :    0.118305

  Mayer bond orders larger than 0.100000
B(  0-C ,  1-N ) :   1.0084 B(  0-C ,  2-C ) :   0.9824 B(  0-C ,  9-C ) :   0.1044
B(  0-C , 20-H ) :   0.8111 B(  0-C , 21-H ) :   0.9833 B(  1-N ,  7-C ) :   1.0766
B(  1-N ,  8-N ) :   0.1013 B(  1-N , 12-H ) :   0.9507 B(  2-C ,  3-C ) :   1.1584
B(  2-C ,  6-S ) :   0.1598 B(  2-C , 18-H ) :   0.9324 B(  2-C , 19-H ) :   0.8981
B(  3-C ,  4-H ) :   0.8996 B(  3-C ,  5-H ) :   0.9423 B(  3-C ,  6-S ) :   0.7565
B(  3-C , 15-O ) :   0.1340 B(  6-S , 15-O ) :   1.6996 B(  6-S , 16-F ) :   1.0792
B(  6-S , 17-O ) :   1.6998 B(  7-C ,  8-N ) :   0.9340 B(  7-C ,  9-C ) :   0.8245
B(  7-C , 11-H ) :  -0.1734 B(  8-N ,  9-C ) :   0.1561 B(  8-N , 13-H ) :   1.0484
B(  8-N , 14-H ) :   1.0234 B(  9-C , 10-H ) :   1.0506 B(  9-C , 11-H ) :   1.1481
B(  9-C , 17-O ) :   0.1142 B( 10-H , 17-O ) :  -0.2159 B( 15-O , 17-O ) :   0.1145

Dispersion correction           -0.025268117
FINAL SINGLE POINT ENERGY      -954.510497117159

DIPOLE MOMENT
-------------
                                X             Y             Z
Electronic contribution:    -15.82983      -1.48755       0.14102
Nuclear contribution   :     16.57580       2.60270       1.54331
                        -----------------------------------------
Total Dipole Moment    :      0.74597       1.11515       1.68433
                        -----------------------------------------
Magnitude (a.u.)       :      2.15337
Magnitude (Debye)      :      5.47342

Rotational constants in cm-1:     0.060402     0.020377     0.017632
Rotational constants in MHz :  1810.792194   610.900365   528.582827

                             ****ORCA TERMINATED NORMALLY****
TOTAL RUN TIME: 0 days 0 hours 0 minutes 46 seconds 509 msec
