                         Program Version 5.0.0 -  RELEASE  -
|  1> !PBE D3BJ RIJCOSX def2-TZVPD def2/J TightSCF xyzfile
|  2>
|  3> *xyzfile 0 1 D7.xyz
|  4>
|  5> %MaxCore 64000
|  6>
|  7> %pal nprocs 4
|  8> end
|  9>
| 10> %scf
| 11>   MaxIter 150
| 12> end
| 13>
| 14>
| 15>                          ****END OF INPUT****

CARTESIAN COORDINATES (ANGSTROEM)
---------------------------------
  C      3.380928    2.083045   -3.350127
  C      4.535924    1.182447   -3.428518
  C      2.495557    1.816150   -2.136364
  C      1.872181    0.427903   -2.077497
  H      2.614270   -0.365825   -2.198894
  H      1.389953    0.273087   -1.112360
  S      0.579024    0.140472   -3.297943
  C      4.671956    0.122273   -4.220598
  N      5.866023   -0.507849   -4.224284
  N      3.698881   -0.312844   -4.986988
  H      2.731405   -0.050091   -4.849000
  H      3.890046   -1.055172   -5.643730
  H      5.251933    1.303459   -2.721014
  H      6.695165   -0.062322   -3.851596
  H      5.975383   -1.396884   -4.691414
  O      0.228860   -1.246868   -3.127871
  O     -0.439269    1.118966   -3.014550
  F      1.247881    0.403474   -4.595647
  H      1.697003    2.561969   -2.141109
  H      3.080787    1.987436   -1.225838
  H      2.806463    1.986511   -4.268484
  H      3.778714    3.098282   -3.307383

 Total Charge           Charge          ....    0
 Multiplicity           Mult            ....    1
 Number of Electrons    NEL             ....   96
 Basis Dimension        Dim             ....  524

ORBITAL ENERGIES
----------------

  NO   OCC          E(Eh)            E(eV)
   0   2.0000     -88.267489     -2401.8805
   1   2.0000     -24.370524      -663.1557
   2   2.0000     -18.766566      -510.6642
   3   2.0000     -18.766110      -510.6518
   4   2.0000     -13.991976      -380.7410
   5   2.0000     -13.991073      -380.7165
   6   2.0000      -9.931722      -270.2559
   7   2.0000      -9.926731      -270.1201
   8   2.0000      -9.891998      -269.1750
   9   2.0000      -9.874614      -268.7019
  10   2.0000      -9.819804      -267.2105
  11   2.0000      -7.864172      -213.9950
  12   2.0000      -5.889020      -160.2484
  13   2.0000      -5.881574      -160.0458
  14   2.0000      -5.881476      -160.0431
  15   2.0000      -1.265191       -34.4276
  16   2.0000      -1.029915       -28.0254
  17   2.0000      -0.942469       -25.6459
  18   2.0000      -0.889525       -24.2052
  19   2.0000      -0.803920       -21.8758
  20   2.0000      -0.753127       -20.4936
  21   2.0000      -0.695724       -18.9316
  22   2.0000      -0.663836       -18.0639
  23   2.0000      -0.622891       -16.9497
  24   2.0000      -0.582366       -15.8470
  25   2.0000      -0.537284       -14.6202
  26   2.0000      -0.526155       -14.3174
  27   2.0000      -0.512875       -13.9560
  28   2.0000      -0.500565       -13.6211
  29   2.0000      -0.491141       -13.3646
  30   2.0000      -0.463313       -12.6074
  31   2.0000      -0.441742       -12.0204
  32   2.0000      -0.428503       -11.6602
  33   2.0000      -0.422974       -11.5097
  34   2.0000      -0.409985       -11.1563
  35   2.0000      -0.403634       -10.9834
  36   2.0000      -0.368413       -10.0250
  37   2.0000      -0.361638        -9.8407
  38   2.0000      -0.359112        -9.7719
  39   2.0000      -0.340508        -9.2657
  40   2.0000      -0.322021        -8.7626
  41   2.0000      -0.308953        -8.4070
  42   2.0000      -0.299746        -8.1565
  43   2.0000      -0.295366        -8.0373
  44   2.0000      -0.285081        -7.7574
  45   2.0000      -0.277790        -7.5590
  46   2.0000      -0.231784        -6.3072
  47   2.0000      -0.144004        -3.9185
  48   0.0000      -0.032150        -0.8749
  49   0.0000      -0.017556        -0.4777
  50   0.0000      -0.003320        -0.0904
  51   0.0000       0.009253         0.2518
  52   0.0000       0.012557         0.3417

MULLIKEN ATOMIC CHARGES
-----------------------
   0 C :   -0.230283
   1 C :   -0.927261
   2 C :   -0.288034
   3 C :   -0.341246
   4 H :    0.250794
   5 H :    0.197077
   6 S :    0.936274
   7 C :    0.593951
   8 N :   -0.268994
   9 N :   -0.193124
  10 H :    0.199126
  11 H :    0.127991
  12 H :    0.262935
  13 H :    0.148302
  14 H :    0.119563
  15 O :   -0.509971
  16 O :   -0.500147
  17 F :   -0.229225
  18 H :    0.074782
  19 H :    0.230661
  20 H :    0.243518
  21 H :    0.103312
Sum of atomic charges:   -0.0000000

LOEWDIN ATOMIC CHARGES
----------------------
   0 C :   -0.225022
   1 C :   -0.128110
   2 C :   -0.221183
   3 C :   -0.224424
   4 H :    0.105899
   5 H :    0.113137
   6 S :    0.553409
   7 C :   -0.550857
   8 N :    0.122350
   9 N :    0.160886
  10 H :    0.042965
  11 H :    0.109326
  12 H :    0.071981
  13 H :    0.105020
  14 H :    0.090421
  15 O :   -0.238385
  16 O :   -0.229911
  17 F :   -0.098034
  18 H :    0.108837
  19 H :    0.121060
  20 H :    0.097690
  21 H :    0.112943

  Mayer bond orders larger than 0.100000
B(  0-C ,  1-C ) :   0.7982 B(  0-C ,  2-C ) :   0.7987 B(  0-C , 20-H ) :   0.8920
B(  0-C , 21-H ) :   1.0589 B(  1-C ,  2-C ) :   0.1547 B(  1-C ,  3-C ) :   0.1353
B(  1-C ,  7-C ) :   1.2732 B(  1-C ,  8-N ) :   0.2285 B(  1-C ,  9-N ) :   0.1259
B(  1-C , 12-H ) :   0.9720 B(  2-C ,  3-C ) :   1.2211 B(  2-C ,  6-S ) :   0.1623
B(  2-C , 18-H ) :   0.9852 B(  2-C , 19-H ) :   0.8735 B(  3-C ,  4-H ) :   0.9119
B(  3-C ,  5-H ) :   0.9047 B(  3-C ,  6-S ) :   0.7649 B(  3-C , 15-O ) :   0.1129
B(  6-S , 15-O ) :   1.7039 B(  6-S , 16-O ) :   1.7237 B(  6-S , 17-F ) :   1.0453
B(  7-C ,  8-N ) :   0.9052 B(  7-C ,  9-N ) :   0.9837 B(  8-N , 13-H ) :   1.0044
B(  8-N , 14-H ) :   1.0598 B(  9-N , 10-H ) :   0.8818 B(  9-N , 11-H ) :   1.0257
B( 15-O , 16-O ) :   0.1201

Dispersion correction           -0.025056433
FINAL SINGLE POINT ENERGY      -954.547697350731

DIPOLE MOMENT
-------------
                                X             Y             Z
Electronic contribution:    -13.27668      -3.85847      -3.66591
Nuclear contribution   :     14.80811       3.53278       3.42836
                        -----------------------------------------
Total Dipole Moment    :      1.53143      -0.32568      -0.23755
                        -----------------------------------------
Magnitude (a.u.)       :      1.58360
Magnitude (Debye)      :      4.02518

Rotational constants in cm-1:     0.059173     0.020923     0.018056
Rotational constants in MHz :  1773.956621   627.264018   541.303397

                             ****ORCA TERMINATED NORMALLY****
TOTAL RUN TIME: 0 days 0 hours 0 minutes 46 seconds 980 msec
