                         Program Version 5.0.0 -  RELEASE  -
|  1> !PBE D3BJ RIJCOSX def2-TZVPD def2/J TightSCF xyzfile
|  2>
|  3> *xyzfile 0 1 D8.xyz
|  4>
|  5> %MaxCore 64000
|  6>
|  7> %pal nprocs 4
|  8> end
|  9>
| 10> %scf
| 11>   MaxIter 150
| 12> end
| 13>
| 14>
| 15>                          ****END OF INPUT****

CARTESIAN COORDINATES (ANGSTROEM)
---------------------------------
  C      3.380928    2.083045   -3.350127
  N      4.535924    1.182447   -3.428518
  C      2.495557    1.816150   -2.136364
  C      1.872181    0.427903   -2.077497
  H      2.614270   -0.365825   -2.198894
  H      1.389953    0.273087   -1.112360
  S      0.579024    0.140472   -3.297943
  C      4.671956    0.122273   -4.220598
  C      5.866023   -0.507849   -4.224284
  N      3.698881   -0.312844   -4.986988
  H      2.731405   -0.050091   -4.849000
  H      3.890046   -1.055172   -5.643730
  H      5.251933    1.303459   -2.721014
  H      6.695165   -0.062322   -3.851596
  H      5.975383   -1.396884   -4.691414
  O      0.228860   -1.246868   -3.127871
  O     -0.439269    1.118966   -3.014550
  F      1.247881    0.403474   -4.595647
  H      1.697003    2.561969   -2.141109
  H      3.080787    1.987436   -1.225838
  H      2.806463    1.986511   -4.268484
  H      3.778714    3.098282   -3.307383

 Total Charge           Charge          ....    0
 Multiplicity           Mult            ....    1
 Number of Electrons    NEL             ....   96
 Basis Dimension        Dim             ....  524

ORBITAL ENERGIES
----------------

  NO   OCC          E(Eh)            E(eV)
   0   2.0000     -88.280308     -2402.2293
   1   2.0000     -24.381707      -663.4600
   2   2.0000     -18.778614      -510.9921
   3   2.0000     -18.777698      -510.9671
   4   2.0000     -14.001564      -381.0019
   5   2.0000     -13.988215      -380.6387
   6   2.0000      -9.944870      -270.6137
   7   2.0000      -9.938426      -270.4383
   8   2.0000      -9.930721      -270.2287
   9   2.0000      -9.918173      -269.8872
  10   2.0000      -9.799648      -266.6620
  11   2.0000      -7.876874      -214.3406
  12   2.0000      -5.901668      -160.5925
  13   2.0000      -5.894419      -160.3953
  14   2.0000      -5.894130      -160.3874
  15   2.0000      -1.276576       -34.7374
  16   2.0000      -1.041698       -28.3460
  17   2.0000      -0.954133       -25.9633
  18   2.0000      -0.897969       -24.4350
  19   2.0000      -0.823279       -22.4026
  20   2.0000      -0.764374       -20.7997
  21   2.0000      -0.703303       -19.1378
  22   2.0000      -0.660651       -17.9772
  23   2.0000      -0.636671       -17.3247
  24   2.0000      -0.581480       -15.8229
  25   2.0000      -0.558939       -15.2095
  26   2.0000      -0.547342       -14.8939
  27   2.0000      -0.529835       -14.4175
  28   2.0000      -0.506013       -13.7693
  29   2.0000      -0.484927       -13.1955
  30   2.0000      -0.464998       -12.6532
  31   2.0000      -0.448815       -12.2129
  32   2.0000      -0.442556       -12.0426
  33   2.0000      -0.434436       -11.8216
  34   2.0000      -0.420152       -11.4329
  35   2.0000      -0.410874       -11.1805
  36   2.0000      -0.381457       -10.3800
  37   2.0000      -0.364843        -9.9279
  38   2.0000      -0.360471        -9.8089
  39   2.0000      -0.350005        -9.5241
  40   2.0000      -0.343019        -9.3340
  41   2.0000      -0.336373        -9.1532
  42   2.0000      -0.318720        -8.6728
  43   2.0000      -0.309315        -8.4169
  44   2.0000      -0.300654        -8.1812
  45   2.0000      -0.290295        -7.8993
  46   2.0000      -0.225454        -6.1349
  47   2.0000      -0.137548        -3.7429
  48   0.0000      -0.040886        -1.1126
  49   0.0000      -0.020831        -0.5668
  50   0.0000      -0.007612        -0.2071
  51   0.0000      -0.002267        -0.0617
  52   0.0000       0.007299         0.1986

MULLIKEN ATOMIC CHARGES
-----------------------
   0 C :   -0.556580
   1 N :   -0.038482
   2 C :   -0.203037
   3 C :   -0.361991
   4 H :    0.249387
   5 H :    0.197325
   6 S :    0.944724
   7 C :    0.651550
   8 C :   -1.281261
   9 N :   -0.178243
  10 H :    0.222324
  11 H :    0.135675
  12 H :    0.189465
  13 H :    0.232182
  14 H :    0.228506
  15 O :   -0.501547
  16 O :   -0.497967
  17 F :   -0.234905
  18 H :    0.163780
  19 H :    0.172465
  20 H :    0.335776
  21 H :    0.130855
Sum of atomic charges:   -0.0000000

LOEWDIN ATOMIC CHARGES
----------------------
   0 C :   -0.185470
   1 N :    0.045749
   2 C :   -0.206263
   3 C :   -0.222076
   4 H :    0.108706
   5 H :    0.115133
   6 S :    0.554407
   7 C :   -0.580570
   8 C :    0.003858
   9 N :    0.156106
  10 H :    0.036430
  11 H :    0.121039
  12 H :    0.147103
  13 H :    0.002163
  14 H :   -0.000334
  15 O :   -0.230140
  16 O :   -0.227736
  17 F :   -0.098666
  18 H :    0.113531
  19 H :    0.120261
  20 H :    0.106589
  21 H :    0.120179

  Mayer bond orders larger than 0.100000
B(  0-C ,  1-N ) :   0.9704 B(  0-C ,  2-C ) :   0.9360 B(  0-C ,  7-C ) :  -0.1127
B(  0-C , 20-H ) :   0.8236 B(  0-C , 21-H ) :   1.0167 B(  1-N ,  3-C ) :   0.1018
B(  1-N ,  7-C ) :   1.1419 B(  1-N ,  8-C ) :   0.1717 B(  1-N , 12-H ) :   0.9268
B(  2-C ,  3-C ) :   1.1739 B(  2-C ,  6-S ) :   0.1563 B(  2-C , 18-H ) :   0.9910
B(  2-C , 19-H ) :   0.8796 B(  3-C ,  4-H ) :   0.9093 B(  3-C ,  5-H ) :   0.9226
B(  3-C ,  6-S ) :   0.7758 B(  3-C , 15-O ) :   0.1169 B(  6-S , 15-O ) :   1.7122
B(  6-S , 16-O ) :   1.7246 B(  6-S , 17-F ) :   1.0446 B(  7-C ,  8-C ) :   1.0503
B(  7-C ,  9-N ) :   1.0837 B(  8-C ,  9-N ) :   0.1192 B(  8-C , 13-H ) :   1.0124
B(  8-C , 14-H ) :   1.0835 B(  9-N , 10-H ) :   0.8423 B(  9-N , 11-H ) :   0.9992
B( 15-O , 16-O ) :   0.1217

Dispersion correction           -0.024851619
FINAL SINGLE POINT ENERGY      -954.531200509408

DIPOLE MOMENT
-------------
                                X             Y             Z
Electronic contribution:    -14.70586      -2.46020      -2.91644
Nuclear contribution   :     14.93782       3.36795       3.35075
                        -----------------------------------------
Total Dipole Moment    :      0.23196       0.90774       0.43431
                        -----------------------------------------
Magnitude (a.u.)       :      1.03268
Magnitude (Debye)      :      2.62487

Rotational constants in cm-1:     0.059219     0.021387     0.018380
Rotational constants in MHz :  1775.354399   641.172207   551.019443

                             ****ORCA TERMINATED NORMALLY****
TOTAL RUN TIME: 0 days 0 hours 0 minutes 48 seconds 320 msec
