                         Program Version 5.0.0 -  RELEASE  -
|  1> !PBE D3BJ RIJCOSX def2-TZVPD def2/J TightSCF xyzfile
|  2>
|  3> *xyzfile 0 1 D9.xyz
|  4>
|  5> %MaxCore 64000
|  6>
|  7> %pal nprocs 4
|  8> end
|  9>
| 10> %scf
| 11>   MaxIter 150
| 12> end
| 13>
| 14>
| 15>                          ****END OF INPUT****

CARTESIAN COORDINATES (ANGSTROEM)
---------------------------------
  C      3.380928    2.083045   -3.350127
  N      4.535924    1.182447   -3.428518
  C      2.495557    1.816150   -2.136364
  C      1.872181    0.427903   -2.077497
  H      2.614270   -0.365825   -2.198894
  H      1.389953    0.273087   -1.112360
  S      0.579024    0.140472   -3.297943
  C      4.671956    0.122273   -4.220598
  N      5.866023   -0.507849   -4.224284
  C      3.698881   -0.312844   -4.986988
  H      2.731405   -0.050091   -4.849000
  H      3.890046   -1.055172   -5.643730
  H      5.251933    1.303459   -2.721014
  H      6.695165   -0.062322   -3.851596
  H      5.975383   -1.396884   -4.691414
  O      0.228860   -1.246868   -3.127871
  O     -0.439269    1.118966   -3.014550
  F      1.247881    0.403474   -4.595647
  H      1.697003    2.561969   -2.141109
  H      3.080787    1.987436   -1.225838
  H      2.806463    1.986511   -4.268484
  H      3.778714    3.098282   -3.307383

 Total Charge           Charge          ....    0
 Multiplicity           Mult            ....    1
 Number of Electrons    NEL             ....   96
 Basis Dimension        Dim             ....  524

ORBITAL ENERGIES
----------------

  NO   OCC          E(Eh)            E(eV)
   0   2.0000     -88.262748     -2401.7515
   1   2.0000     -24.351846      -662.6474
   2   2.0000     -18.761771      -510.5337
   3   2.0000     -18.760254      -510.4925
   4   2.0000     -14.003692      -381.0598
   5   2.0000     -13.991768      -380.7354
   6   2.0000      -9.932486      -270.2767
   7   2.0000      -9.931624      -270.2532
   8   2.0000      -9.930951      -270.2349
   9   2.0000      -9.910870      -269.6885
  10   2.0000      -9.798289      -266.6250
  11   2.0000      -7.859023      -213.8549
  12   2.0000      -5.883530      -160.0990
  13   2.0000      -5.876848      -159.9172
  14   2.0000      -5.876427      -159.9057
  15   2.0000      -1.248155       -33.9640
  16   2.0000      -1.023899       -27.8617
  17   2.0000      -0.937274       -25.5045
  18   2.0000      -0.894564       -24.3423
  19   2.0000      -0.817125       -22.2351
  20   2.0000      -0.751559       -20.4510
  21   2.0000      -0.681570       -18.5465
  22   2.0000      -0.662734       -18.0339
  23   2.0000      -0.629704       -17.1351
  24   2.0000      -0.590288       -16.0626
  25   2.0000      -0.530515       -14.4360
  26   2.0000      -0.520953       -14.1759
  27   2.0000      -0.506055       -13.7705
  28   2.0000      -0.498965       -13.5775
  29   2.0000      -0.486375       -13.2349
  30   2.0000      -0.467464       -12.7203
  31   2.0000      -0.444546       -12.0967
  32   2.0000      -0.429595       -11.6899
  33   2.0000      -0.417110       -11.3502
  34   2.0000      -0.415675       -11.3111
  35   2.0000      -0.396421       -10.7872
  36   2.0000      -0.371156       -10.0997
  37   2.0000      -0.363916        -9.9027
  38   2.0000      -0.351289        -9.5590
  39   2.0000      -0.342637        -9.3236
  40   2.0000      -0.337174        -9.1750
  41   2.0000      -0.327767        -8.9190
  42   2.0000      -0.312357        -8.4997
  43   2.0000      -0.293233        -7.9793
  44   2.0000      -0.285363        -7.7651
  45   2.0000      -0.273387        -7.4392
  46   2.0000      -0.220465        -5.9992
  47   2.0000      -0.151583        -4.1248
  48   0.0000      -0.030745        -0.8366
  49   0.0000      -0.018235        -0.4962
  50   0.0000      -0.006876        -0.1871
  51   0.0000       0.002883         0.0785
  52   0.0000       0.018135         0.4935

MULLIKEN ATOMIC CHARGES
-----------------------
   0 C :   -0.559259
   1 N :   -0.089723
   2 C :   -0.238308
   3 C :   -0.329318
   4 H :    0.258323
   5 H :    0.192085
   6 S :    0.948905
   7 C :    0.901214
   8 N :   -0.272720
   9 C :   -1.632506
  10 H :    0.522978
  11 H :    0.191452
  12 H :    0.189266
  13 H :    0.121928
  14 H :    0.137859
  15 O :   -0.519672
  16 O :   -0.510859
  17 F :   -0.106110
  18 H :    0.154477
  19 H :    0.174601
  20 H :    0.351600
  21 H :    0.113785
Sum of atomic charges:    0.0000000

LOEWDIN ATOMIC CHARGES
----------------------
   0 C :   -0.179306
   1 N :    0.038709
   2 C :   -0.205020
   3 C :   -0.222416
   4 H :    0.106385
   5 H :    0.112586
   6 S :    0.550829
   7 C :   -0.563236
   8 N :    0.123746
   9 C :    0.023885
  10 H :   -0.031703
  11 H :    0.026827
  12 H :    0.138750
  13 H :    0.092673
  14 H :    0.103506
  15 O :   -0.235416
  16 O :   -0.236441
  17 F :   -0.106552
  18 H :    0.113534
  19 H :    0.117114
  20 H :    0.110861
  21 H :    0.120685

  Mayer bond orders larger than 0.100000
B(  0-C ,  1-N ) :   1.0140 B(  0-C ,  2-C ) :   0.9447 B(  0-C ,  9-C ) :   0.1034
B(  0-C , 20-H ) :   0.8020 B(  0-C , 21-H ) :   1.0066 B(  1-N ,  7-C ) :   1.0913
B(  1-N ,  8-N ) :   0.1044 B(  1-N , 12-H ) :   0.9448 B(  2-C ,  3-C ) :   1.1912
B(  2-C ,  6-S ) :   0.1674 B(  2-C , 18-H ) :   0.9715 B(  2-C , 19-H ) :   0.8823
B(  3-C ,  4-H ) :   0.9114 B(  3-C ,  5-H ) :   0.9270 B(  3-C ,  6-S ) :   0.7548
B(  3-C , 15-O ) :   0.1342 B(  6-S , 15-O ) :   1.6918 B(  6-S , 16-O ) :   1.7084
B(  6-S , 17-F ) :   1.0862 B(  7-C ,  8-N ) :   0.9385 B(  7-C ,  9-C ) :   0.8556
B(  7-C , 11-H ) :  -0.1557 B(  8-N ,  9-C ) :   0.1557 B(  8-N , 13-H ) :   1.0418
B(  8-N , 14-H ) :   1.0196 B(  9-C , 10-H ) :   0.8756 B(  9-C , 11-H ) :   1.1484
B(  9-C , 17-F ) :   0.1508 B( 10-H , 17-F ) :  -0.2560 B( 15-O , 16-O ) :   0.1102

Dispersion correction           -0.025040027
FINAL SINGLE POINT ENERGY      -954.528266695053

DIPOLE MOMENT
-------------
                                X             Y             Z
Electronic contribution:    -12.71407      -2.67383      -2.45641
Nuclear contribution   :     14.72648       3.38697       3.27638
                        -----------------------------------------
Total Dipole Moment    :      2.01241       0.71313       0.81997
                        -----------------------------------------
Magnitude (a.u.)       :      2.28708
Magnitude (Debye)      :      5.81328

Rotational constants in cm-1:     0.059651     0.020833     0.018010
Rotational constants in MHz :  1788.283887   624.555661   539.921162

                             ****ORCA TERMINATED NORMALLY****
TOTAL RUN TIME: 0 days 0 hours 0 minutes 46 seconds 376 msec
