                         Program Version 5.0.0 -  RELEASE  -
|  1> !wB97X-D3 RIJCOSX def2-SVPD def2/J TightSCF
|  2> *xyz -1 1
|  3> C          3.80351        1.37472       -3.26081
|  4> C          3.93993        0.32036       -4.36773
|  5> H          4.10504       -0.65508       -3.90773
|  6> H          3.02280        0.28052       -4.95712
|  7> C          5.10585        0.66802       -5.30546
|  8> O          4.80913        1.15019       -6.41436
|  9> O          6.26737        0.56500       -4.81948
| 10> H          3.64113        2.33595       -3.70189
| 11> H          4.69995        1.39701       -2.67703
| 12> H          2.97435        1.12625       -2.63180
| 13> *
| 14>
| 15> %MaxCore 64000
| 16>
| 17> %pal nprocs 18
| 18> end
| 19>
| 20> %scf
| 21>   MaxIter 150
| 22> end
| 23>
| 24>
| 25>                          ****END OF INPUT****

CARTESIAN COORDINATES (ANGSTROEM)
---------------------------------
  C      3.803510    1.374720   -3.260810
  C      3.939930    0.320360   -4.367730
  H      4.105040   -0.655080   -3.907730
  H      3.022800    0.280520   -4.957120
  C      5.105850    0.668020   -5.305460
  O      4.809130    1.150190   -6.414360
  O      6.267370    0.565000   -4.819480
  H      3.641130    2.335950   -3.701890
  H      4.699950    1.397010   -2.677030
  H      2.974350    1.126250   -2.631800

 Total Charge           Charge          ....   -1
 Multiplicity           Mult            ....    1
 Number of Electrons    NEL             ....   40
 Basis Dimension        Dim             ....  146

ORBITAL ENERGIES
----------------

  NO   OCC          E(Eh)            E(eV)
   0   2.0000     -18.984330      -516.5899
   1   2.0000     -18.980525      -516.4863
   2   2.0000     -10.176712      -276.9224
   3   2.0000     -10.128644      -275.6144
   4   2.0000     -10.114943      -275.2416
   5   2.0000      -0.929302       -25.2876
   6   2.0000      -0.833997       -22.6942
   7   2.0000      -0.715845       -19.4791
   8   2.0000      -0.578960       -15.7543
   9   2.0000      -0.423988       -11.5373
  10   2.0000      -0.393587       -10.7100
  11   2.0000      -0.360237        -9.8025
  12   2.0000      -0.331498        -9.0205
  13   2.0000      -0.312861        -8.5134
  14   2.0000      -0.308998        -8.4083
  15   2.0000      -0.275145        -7.4871
  16   2.0000      -0.263628        -7.1737
  17   2.0000      -0.144645        -3.9360
  18   2.0000      -0.135765        -3.6944
  19   2.0000      -0.126941        -3.4542
  20   0.0000       0.224389         6.1059
  21   0.0000       0.256312         6.9746
  22   0.0000       0.267226         7.2716
  23   0.0000       0.294084         8.0024
  24   0.0000       0.313606         8.5336

MULLIKEN ATOMIC CHARGES
-----------------------
   0 C :    0.461884
   1 C :   -0.296617
   2 H :   -0.013395
   3 H :   -0.021671
   4 C :    0.444592
   5 O :   -0.676805
   6 O :   -0.729848
   7 H :   -0.060853
   8 H :   -0.034470
   9 H :   -0.072818
Sum of atomic charges:   -1.0000000

LOEWDIN ATOMIC CHARGES
----------------------
   0 C :    0.100311
   1 C :   -0.043651
   2 H :    0.004429
   3 H :   -0.000109
   4 C :   -0.306526
   5 O :   -0.327825
   6 O :   -0.340536
   7 H :   -0.019933
   8 H :   -0.024551
   9 H :   -0.041609

  Mayer bond orders larger than 0.100000
B(  0-C ,  1-C ) :   1.2775 B(  0-C ,  7-H ) :   0.8710 B(  0-C ,  8-H ) :   0.8584
B(  0-C ,  9-H ) :   0.8660 B(  1-C ,  2-H ) :   0.9216 B(  1-C ,  3-H ) :   0.9567
B(  1-C ,  4-C ) :   1.0241 B(  1-C ,  7-H ) :   0.1619 B(  1-C ,  8-H ) :   0.1692
B(  1-C ,  9-H ) :   0.1347 B(  3-H ,  4-C ) :   0.1456 B(  4-C ,  5-O ) :   1.5315
B(  4-C ,  6-O ) :   1.5110

Dispersion correction           -0.001990616
FINAL SINGLE POINT ENERGY      -267.583606926995

DIPOLE MOMENT
-------------
                                X             Y             Z
Electronic contribution:      3.66954      -0.49999      -4.44867
Nuclear contribution   :     -5.15232       0.33441       5.87398
                        -----------------------------------------
Total Dipole Moment    :     -1.48278      -0.16559       1.42531
                        -----------------------------------------
Magnitude (a.u.)       :      2.06339
Magnitude (Debye)      :      5.24472

Rotational constants in cm-1:     0.295355     0.137164     0.110193
Rotational constants in MHz :  8854.523706  4112.077980  3303.490503

                             ****ORCA TERMINATED NORMALLY****
TOTAL RUN TIME: 0 days 0 hours 0 minutes 6 seconds 778 msec
