                         Program Version 5.0.0 -  RELEASE  -
|  1> !wB97X-D3 RIJCOSX def2-SVPD def2/J TightSCF
|  2> *xyz 1 1
|  3> C          3.90595        2.81985       -3.75292
|  4> N          5.29562        3.13151       -4.10533
|  5> C          3.80351        1.37472       -3.26081
|  6> C          5.70862        3.46889       -5.32419
|  7> N          6.90470        3.03895       -5.71708
|  8> N          4.98188        4.29357       -6.09746
|  9> H          5.00055        4.10131       -7.08776
| 10> H          4.08469        4.59690       -5.73965
| 11> H          5.96336        2.52611       -3.64239
| 12> H          7.04716        2.06686       -5.47360
| 13> H          7.19815        3.30799       -6.64523
| 14> H          3.28202        2.94919       -4.64026
| 15> H          3.56525        3.51457       -2.98252
| 16> H          4.14157        0.71142       -4.02935
| 17> H          2.78528        1.15146       -3.01944
| 18> H          4.41205        1.25066       -2.38949
| 19> *
| 20>
| 21> %MaxCore 64000
| 22>
| 23> %pal nprocs 18
| 24> end
| 25>
| 26> %scf
| 27>   MaxIter 150
| 28> end
| 29>
| 30>
| 31>                          ****END OF INPUT****

CARTESIAN COORDINATES (ANGSTROEM)
---------------------------------
  C      3.905950    2.819850   -3.752920
  N      5.295620    3.131510   -4.105330
  C      3.803510    1.374720   -3.260810
  C      5.708620    3.468890   -5.324190
  N      6.904700    3.038950   -5.717080
  N      4.981880    4.293570   -6.097460
  H      5.000550    4.101310   -7.087760
  H      4.084690    4.596900   -5.739650
  H      5.963360    2.526110   -3.642390
  H      7.047160    2.066860   -5.473600
  H      7.198150    3.307990   -6.645230
  H      3.282020    2.949190   -4.640260
  H      3.565250    3.514570   -2.982520
  H      4.141570    0.711420   -4.029350
  H      2.785280    1.151460   -3.019440
  H      4.412050    1.250660   -2.389490

 Total Charge           Charge          ....    1
 Multiplicity           Mult            ....    1
 Number of Electrons    NEL             ....   48
 Basis Dimension        Dim             ....  200

ORBITAL ENERGIES
----------------

  NO   OCC          E(Eh)            E(eV)
   0   2.0000     -14.666558      -399.0973
   1   2.0000     -14.665770      -399.0759
   2   2.0000     -14.665284      -399.0627
   3   2.0000     -10.632610      -289.3280
   4   2.0000     -10.501557      -285.7619
   5   2.0000     -10.434076      -283.9256
   6   2.0000      -1.334958       -36.3261
   7   2.0000      -1.219342       -33.1800
   8   2.0000      -1.210480       -32.9388
   9   2.0000      -1.045677       -28.4543
  10   2.0000      -0.941893       -25.6302
  11   2.0000      -0.916590       -24.9417
  12   2.0000      -0.884249       -24.0616
  13   2.0000      -0.851052       -23.1583
  14   2.0000      -0.806010       -21.9326
  15   2.0000      -0.790601       -21.5133
  16   2.0000      -0.754993       -20.5444
  17   2.0000      -0.729035       -19.8381
  18   2.0000      -0.698366       -19.0035
  19   2.0000      -0.659166       -17.9368
  20   2.0000      -0.633867       -17.2484
  21   2.0000      -0.618274       -16.8241
  22   2.0000      -0.587163       -15.9775
  23   2.0000      -0.554008       -15.0753
  24   0.0000      -0.113604        -3.0913
  25   0.0000      -0.078794        -2.1441
  26   0.0000      -0.043664        -1.1881
  27   0.0000      -0.031847        -0.8666
  28   0.0000      -0.013861        -0.3772

MULLIKEN ATOMIC CHARGES
-----------------------
   0 C :    0.289064
   1 N :   -0.433903
   2 C :    0.563693
   3 C :    0.929334
   4 N :   -0.052223
   5 N :   -0.050066
   6 H :    0.012330
   7 H :    0.032889
   8 H :   -0.068794
   9 H :    0.041732
  10 H :    0.041642
  11 H :   -0.072455
  12 H :   -0.192465
  13 H :   -0.038106
  14 H :   -0.010242
  15 H :    0.007567
Sum of atomic charges:    1.0000000

LOEWDIN ATOMIC CHARGES
----------------------
   0 C :    0.041156
   1 N :    0.046089
   2 C :    0.155628
   3 C :   -0.039457
   4 N :    0.263692
   5 N :    0.275848
   6 H :    0.040373
   7 H :    0.026599
   8 H :    0.047179
   9 H :    0.040325
  10 H :    0.039553
  11 H :    0.024216
  12 H :    0.038798
  13 H :   -0.005525
  14 H :    0.007004
  15 H :   -0.001477

  Mayer bond orders larger than 0.100000
B(  0-C ,  1-N ) :   0.8245 B(  0-C ,  2-C ) :   1.2904 B(  0-C , 11-H ) :   0.8424
B(  0-C , 12-H ) :   0.9501 B(  0-C , 13-H ) :   0.1964 B(  0-C , 14-H ) :   0.2070
B(  0-C , 15-H ) :   0.1269 B(  1-N ,  3-C ) :   1.1552 B(  1-N ,  4-N ) :   0.1854
B(  1-N ,  8-H ) :   1.1422 B(  1-N , 11-H ) :   0.1092 B(  1-N , 12-H ) :   0.1534
B(  2-C , 13-H ) :   0.8308 B(  2-C , 14-H ) :   0.8313 B(  2-C , 15-H ) :   0.8462
B(  3-C ,  4-N ) :   1.0108 B(  3-C ,  5-N ) :   0.9962 B(  3-C ,  8-H ) :  -0.1517
B(  4-N ,  5-N ) :   0.1046 B(  4-N ,  9-H ) :   1.0225 B(  4-N , 10-H ) :   0.9668
B(  5-N ,  6-H ) :   1.1223 B(  5-N ,  7-H ) :   0.9544 B(  6-H ,  7-H ) :  -0.1072

Dispersion correction           -0.003685608
FINAL SINGLE POINT ENERGY      -284.127085946235

DIPOLE MOMENT
-------------
                                X             Y             Z
Electronic contribution:      3.52109       3.40911      -2.66378
Nuclear contribution   :     -3.31456      -3.64300       1.57303
                        -----------------------------------------
Total Dipole Moment    :      0.20652      -0.23389      -1.09074
                        -----------------------------------------
Magnitude (a.u.)       :      1.13449
Magnitude (Debye)      :      2.88366

Rotational constants in cm-1:     0.229487     0.071000     0.059428
Rotational constants in MHz :  6879.840828  2128.520047  1781.605314

                             ****ORCA TERMINATED NORMALLY****
TOTAL RUN TIME: 0 days 0 hours 0 minutes 11 seconds 811 msec
