                         Program Version 5.0.0 -  RELEASE  -
|  1> !wB97X-D3 RIJCOSX def2-SVPD def2/J TightSCF
|  2> *xyz 0 1
|  3> C          3.80351        1.37472       -3.26081
|  4> C          3.93993        0.32036       -4.36773
|  5> H          4.10504       -0.65508       -3.90773
|  6> H          3.02280        0.28052       -4.95712
|  7> C          5.10585        0.66802       -5.30546
|  8> F          4.80913        1.15019       -6.41436
|  9> O          6.26737        0.56500       -4.81948
| 10> H          3.64113        2.33595       -3.70189
| 11> H          4.69995        1.39701       -2.67703
| 12> H          2.97435        1.12625       -2.63180
| 13> *
| 14>
| 15> %MaxCore 64000
| 16>
| 17> %pal nprocs 18
| 18> end
| 19>
| 20> %scf
| 21>   MaxIter 150
| 22> end
| 23>
| 24>
| 25>                          ****END OF INPUT****

CARTESIAN COORDINATES (ANGSTROEM)
---------------------------------
  C      3.803510    1.374720   -3.260810
  C      3.939930    0.320360   -4.367730
  H      4.105040   -0.655080   -3.907730
  H      3.022800    0.280520   -4.957120
  C      5.105850    0.668020   -5.305460
  F      4.809130    1.150190   -6.414360
  O      6.267370    0.565000   -4.819480
  H      3.641130    2.335950   -3.701890
  H      4.699950    1.397010   -2.677030
  H      2.974350    1.126250   -2.631800

 Total Charge           Charge          ....    0
 Multiplicity           Mult            ....    1
 Number of Electrons    NEL             ....   40
 Basis Dimension        Dim             ....  146

ORBITAL ENERGIES
----------------

  NO   OCC          E(Eh)            E(eV)
   0   2.0000     -24.880661      -677.0372
   1   2.0000     -19.255143      -523.9591
   2   2.0000     -10.477062      -285.0954
   3   2.0000     -10.323550      -280.9181
   4   2.0000     -10.298429      -280.2345
   5   2.0000      -1.434485       -39.0343
   6   2.0000      -1.138557       -30.9817
   7   2.0000      -0.913667       -24.8621
   8   2.0000      -0.799945       -21.7676
   9   2.0000      -0.752554       -20.4780
  10   2.0000      -0.665102       -18.0983
  11   2.0000      -0.649388       -17.6707
  12   2.0000      -0.612954       -16.6793
  13   2.0000      -0.568637       -15.4734
  14   2.0000      -0.538025       -14.6404
  15   2.0000      -0.500312       -13.6142
  16   2.0000      -0.478973       -13.0335
  17   2.0000      -0.471502       -12.8302
  18   2.0000      -0.445550       -12.1240
  19   2.0000      -0.391161       -10.6440
  20   0.0000       0.048865         1.3297
  21   0.0000       0.084090         2.2882
  22   0.0000       0.116281         3.1642
  23   0.0000       0.125949         3.4272
  24   0.0000       0.149824         4.0769

MULLIKEN ATOMIC CHARGES
-----------------------
   0 C :    0.454706
   1 C :   -0.379219
   2 H :    0.054743
   3 H :    0.033223
   4 C :    0.785005
   5 F :   -0.367275
   6 O :   -0.520392
   7 H :   -0.038009
   8 H :   -0.006312
   9 H :   -0.016470
Sum of atomic charges:    0.0000000

LOEWDIN ATOMIC CHARGES
----------------------
   0 C :    0.138322
   1 C :    0.003751
   2 H :    0.037381
   3 H :    0.022613
   4 C :   -0.000734
   5 F :   -0.029679
   6 O :   -0.147006
   7 H :   -0.007847
   8 H :   -0.006021
   9 H :   -0.010780

  Mayer bond orders larger than 0.100000
B(  0-C ,  1-C ) :   1.2913 B(  0-C ,  7-H ) :   0.8708 B(  0-C ,  8-H ) :   0.8639
B(  0-C ,  9-H ) :   0.8800 B(  1-C ,  2-H ) :   0.9243 B(  1-C ,  3-H ) :   0.9530
B(  1-C ,  4-C ) :   1.0785 B(  1-C ,  7-H ) :   0.1421 B(  1-C ,  8-H ) :   0.1482
B(  1-C ,  9-H ) :   0.1216 B(  4-C ,  5-F ) :   0.7575 B(  4-C ,  6-O ) :   1.8182

Dispersion correction           -0.001944521
FINAL SINGLE POINT ENERGY      -292.111761863243

DIPOLE MOMENT
-------------
                                X             Y             Z
Electronic contribution:      3.96339      -0.01463      -7.43496
Nuclear contribution   :     -5.17129      -0.01923       7.59895
                        -----------------------------------------
Total Dipole Moment    :     -1.20790      -0.03386       0.16398
                        -----------------------------------------
Magnitude (a.u.)       :      1.21945
Magnitude (Debye)      :      3.09960

Rotational constants in cm-1:     0.282073     0.131822     0.105134
Rotational constants in MHz :  8456.328792  3951.925810  3151.840112

                             ****ORCA TERMINATED NORMALLY****
TOTAL RUN TIME: 0 days 0 hours 0 minutes 7 seconds 893 msec
