                         Program Version 5.0.0 -  RELEASE  -
|  1> !wB97X-D3 RIJCOSX def2-SVPD def2/J TightSCF
|  2> *xyz 0 1
|  3> C          3.90595        2.81985       -3.75292
|  4> C          5.29562        3.13151       -4.10533
|  5> C          3.80351        1.37472       -3.26081
|  6> C          5.70862        3.46889       -5.32419
|  7> N          6.90470        3.03895       -5.71708
|  8> N          4.98188        4.29357       -6.09746
|  9> H          5.00055        4.10131       -7.08776
| 10> H          4.08469        4.59690       -5.73965
| 11> H          5.96336        2.52611       -3.64239
| 12> H          7.04716        2.06686       -5.47360
| 13> H          7.19815        3.30799       -6.64523
| 14> H          3.28202        2.94919       -4.64026
| 15> H          3.56525        3.51457       -2.98252
| 16> H          4.14157        0.71142       -4.02935
| 17> H          2.78528        1.15146       -3.01944
| 18> H          4.41205        1.25066       -2.38949
| 19> *
| 20>
| 21> %MaxCore 64000
| 22>
| 23> %pal nprocs 18
| 24> end
| 25>
| 26> %scf
| 27>   MaxIter 150
| 28> end
| 29>
| 30>
| 31>                          ****END OF INPUT****

CARTESIAN COORDINATES (ANGSTROEM)
---------------------------------
  C      3.905950    2.819850   -3.752920
  C      5.295620    3.131510   -4.105330
  C      3.803510    1.374720   -3.260810
  C      5.708620    3.468890   -5.324190
  N      6.904700    3.038950   -5.717080
  N      4.981880    4.293570   -6.097460
  H      5.000550    4.101310   -7.087760
  H      4.084690    4.596900   -5.739650
  H      5.963360    2.526110   -3.642390
  H      7.047160    2.066860   -5.473600
  H      7.198150    3.307990   -6.645230
  H      3.282020    2.949190   -4.640260
  H      3.565250    3.514570   -2.982520
  H      4.141570    0.711420   -4.029350
  H      2.785280    1.151460   -3.019440
  H      4.412050    1.250660   -2.389490

 Total Charge           Charge          ....    0
 Multiplicity           Mult            ....    1
 Number of Electrons    NEL             ....   48
 Basis Dimension        Dim             ....  200

ORBITAL ENERGIES
----------------

  NO   OCC          E(Eh)            E(eV)
   0   2.0000     -14.442608      -393.0033
   1   2.0000     -14.438894      -392.9023
   2   2.0000     -10.334757      -281.2230
   3   2.0000     -10.268541      -279.4212
   4   2.0000     -10.261211      -279.2217
   5   2.0000     -10.215161      -277.9687
   6   2.0000      -1.077122       -29.3100
   7   2.0000      -0.985376       -26.8134
   8   2.0000      -0.889000       -24.1909
   9   2.0000      -0.804767       -21.8988
  10   2.0000      -0.720037       -19.5932
  11   2.0000      -0.682602       -18.5745
  12   2.0000      -0.640004       -17.4154
  13   2.0000      -0.614071       -16.7097
  14   2.0000      -0.579529       -15.7698
  15   2.0000      -0.548992       -14.9388
  16   2.0000      -0.522527       -14.2187
  17   2.0000      -0.489540       -13.3211
  18   2.0000      -0.469159       -12.7665
  19   2.0000      -0.448324       -12.1995
  20   2.0000      -0.422351       -11.4927
  21   2.0000      -0.419085       -11.4039
  22   2.0000      -0.371548       -10.1103
  23   2.0000      -0.257830        -7.0159
  24   0.0000       0.085343         2.3223
  25   0.0000       0.113924         3.1000
  26   0.0000       0.115619         3.1461
  27   0.0000       0.127211         3.4616
  28   0.0000       0.144843         3.9414

MULLIKEN ATOMIC CHARGES
-----------------------
   0 C :   -0.095253
   1 C :   -0.031711
   2 C :    0.689141
   3 C :    0.263461
   4 N :    0.017938
   5 N :   -0.018203
   6 H :   -0.072510
   7 H :    0.013665
   8 H :   -0.253859
   9 H :    0.031063
  10 H :   -0.085441
  11 H :   -0.165184
  12 H :   -0.143101
  13 H :   -0.038064
  14 H :   -0.092792
  15 H :   -0.019149
Sum of atomic charges:    0.0000000

LOEWDIN ATOMIC CHARGES
----------------------
   0 C :   -0.105793
   1 C :   -0.025211
   2 C :    0.110212
   3 C :   -0.238298
   4 N :    0.180008
   5 N :    0.191763
   6 H :   -0.008463
   7 H :   -0.004901
   8 H :   -0.055122
   9 H :    0.005989
  10 H :   -0.008683
  11 H :    0.002426
  12 H :    0.009841
  13 H :   -0.015559
  14 H :   -0.022884
  15 H :   -0.015323

  Mayer bond orders larger than 0.100000
B(  0-C ,  1-C ) :   0.9750 B(  0-C ,  2-C ) :   1.2560 B(  0-C ,  8-H ) :   0.1920
B(  0-C , 11-H ) :   0.8828 B(  0-C , 12-H ) :   0.8619 B(  0-C , 13-H ) :   0.2139
B(  0-C , 14-H ) :   0.2461 B(  0-C , 15-H ) :   0.1706 B(  1-C ,  3-C ) :   1.9620
B(  1-C ,  4-N ) :   0.2892 B(  1-C ,  5-N ) :   0.1587 B(  1-C ,  8-H ) :   0.5975
B(  1-C , 12-H ) :   0.1600 B(  2-C , 13-H ) :   0.8067 B(  2-C , 14-H ) :   0.8076
B(  2-C , 15-H ) :   0.8255 B(  3-C ,  4-N ) :   0.9719 B(  3-C ,  5-N ) :   0.9773
B(  3-C ,  8-H ) :   0.3159 B(  4-N ,  9-H ) :   1.0132 B(  4-N , 10-H ) :   0.9310
B(  5-N ,  6-H ) :   1.0868 B(  5-N ,  7-H ) :   0.9582

Dispersion correction           -0.003676899
FINAL SINGLE POINT ENERGY      -267.660515054998

DIPOLE MOMENT
-------------
                                X             Y             Z
Electronic contribution:      3.15641       3.24365      -2.83502
Nuclear contribution   :     -3.27358      -3.61654       1.70633
                        -----------------------------------------
Total Dipole Moment    :     -0.11716      -0.37289      -1.12869
                        -----------------------------------------
Magnitude (a.u.)       :      1.19445
Magnitude (Debye)      :      3.03606

Rotational constants in cm-1:     0.231961     0.071249     0.059473
Rotational constants in MHz :  6954.024434  2135.976855  1782.962814

                             ****ORCA TERMINATED NORMALLY****
TOTAL RUN TIME: 0 days 0 hours 0 minutes 13 seconds 49 msec
