                         Program Version 5.0.0 -  RELEASE  -
|  1> !wB97X-D3 RIJCOSX def2-SVPD def2/J TightSCF
|  2> *xyz 0 1
|  3> C          3.80351        1.37472       -3.26081
|  4> C          3.93993        0.32036       -4.36773
|  5> H          4.10504       -0.65508       -3.90773
|  6> H          3.02280        0.28052       -4.95712
|  7> C          5.10585        0.66802       -5.30546
|  8> O          4.80913        1.15019       -6.41436
|  9> F          6.26737        0.56500       -4.81948
| 10> H          3.64113        2.33595       -3.70189
| 11> H          4.69995        1.39701       -2.67703
| 12> H          2.97435        1.12625       -2.63180
| 13> *
| 14>
| 15> %MaxCore 64000
| 16>
| 17> %pal nprocs 18
| 18> end
| 19>
| 20> %scf
| 21>   MaxIter 150
| 22> end
| 23>
| 24>
| 25>                          ****END OF INPUT****

CARTESIAN COORDINATES (ANGSTROEM)
---------------------------------
  C      3.803510    1.374720   -3.260810
  C      3.939930    0.320360   -4.367730
  H      4.105040   -0.655080   -3.907730
  H      3.022800    0.280520   -4.957120
  C      5.105850    0.668020   -5.305460
  O      4.809130    1.150190   -6.414360
  F      6.267370    0.565000   -4.819480
  H      3.641130    2.335950   -3.701890
  H      4.699950    1.397010   -2.677030
  H      2.974350    1.126250   -2.631800

 Total Charge           Charge          ....    0
 Multiplicity           Mult            ....    1
 Number of Electrons    NEL             ....   40
 Basis Dimension        Dim             ....  146

ORBITAL ENERGIES
----------------

  NO   OCC          E(Eh)            E(eV)
   0   2.0000     -24.873889      -676.8529
   1   2.0000     -19.257990      -524.0366
   2   2.0000     -10.475247      -285.0460
   3   2.0000     -10.323063      -280.9048
   4   2.0000     -10.301205      -280.3100
   5   2.0000      -1.420641       -38.6576
   6   2.0000      -1.149658       -31.2838
   7   2.0000      -0.915599       -24.9147
   8   2.0000      -0.794091       -21.6083
   9   2.0000      -0.750634       -20.4258
  10   2.0000      -0.659020       -17.9329
  11   2.0000      -0.645117       -17.5545
  12   2.0000      -0.609668       -16.5899
  13   2.0000      -0.568576       -15.4717
  14   2.0000      -0.539049       -14.6683
  15   2.0000      -0.504475       -13.7275
  16   2.0000      -0.484858       -13.1936
  17   2.0000      -0.471870       -12.8402
  18   2.0000      -0.454567       -12.3694
  19   2.0000      -0.391712       -10.6590
  20   0.0000       0.052942         1.4406
  21   0.0000       0.083580         2.2743
  22   0.0000       0.116435         3.1683
  23   0.0000       0.125714         3.4209
  24   0.0000       0.150367         4.0917

MULLIKEN ATOMIC CHARGES
-----------------------
   0 C :    0.437795
   1 C :   -0.364113
   2 H :    0.048737
   3 H :    0.026327
   4 C :    0.795759
   5 O :   -0.484007
   6 F :   -0.403238
   7 H :   -0.026833
   8 H :   -0.018343
   9 H :   -0.012084
Sum of atomic charges:    0.0000000

LOEWDIN ATOMIC CHARGES
----------------------
   0 C :    0.135353
   1 C :    0.006028
   2 H :    0.029760
   3 H :    0.033744
   4 C :   -0.001947
   5 O :   -0.135582
   6 F :   -0.041447
   7 H :   -0.004561
   8 H :   -0.011072
   9 H :   -0.010276

  Mayer bond orders larger than 0.100000
B(  0-C ,  1-C ) :   1.2760 B(  0-C ,  7-H ) :   0.8841 B(  0-C ,  8-H ) :   0.8554
B(  0-C ,  9-H ) :   0.8848 B(  1-C ,  2-H ) :   0.9191 B(  1-C ,  3-H ) :   0.9795
B(  1-C ,  4-C ) :   1.0511 B(  1-C ,  7-H ) :   0.1419 B(  1-C ,  8-H ) :   0.1417
B(  1-C ,  9-H ) :   0.1205 B(  3-H ,  4-C ) :   0.1046 B(  4-C ,  5-O ) :   1.8432
B(  4-C ,  6-F ) :   0.7187

Dispersion correction           -0.001942473
FINAL SINGLE POINT ENERGY      -292.117140214590

DIPOLE MOMENT
-------------
                                X             Y             Z
Electronic contribution:      6.40327      -1.00003      -4.74368
Nuclear contribution   :     -6.76123       0.61881       5.86003
                        -----------------------------------------
Total Dipole Moment    :     -0.35796      -0.38122       1.11635
                        -----------------------------------------
Magnitude (a.u.)       :      1.23276
Magnitude (Debye)      :      3.13343

Rotational constants in cm-1:     0.275298     0.134631     0.105723
Rotational constants in MHz :  8253.224169  4036.137572  3169.487264

                             ****ORCA TERMINATED NORMALLY****
TOTAL RUN TIME: 0 days 0 hours 0 minutes 7 seconds 548 msec
