                         Program Version 5.0.0 -  RELEASE  -
|  1> !wB97X-D3 RIJCOSX def2-SVPD def2/J TightSCF
|  2> *xyz 0 1
|  3> C          3.90595        2.81985       -3.75292
|  4> N          5.29562        3.13151       -4.10533
|  5> C          3.80351        1.37472       -3.26081
|  6> C          5.70862        3.46889       -5.32419
|  7> C          6.90470        3.03895       -5.71708
|  8> N          4.98188        4.29357       -6.09746
|  9> H          5.00055        4.10131       -7.08776
| 10> H          4.08469        4.59690       -5.73965
| 11> H          5.96336        2.52611       -3.64239
| 12> H          7.04716        2.06686       -5.47360
| 13> H          7.19815        3.30799       -6.64523
| 14> H          3.28202        2.94919       -4.64026
| 15> H          3.56525        3.51457       -2.98252
| 16> H          4.14157        0.71142       -4.02935
| 17> H          2.78528        1.15146       -3.01944
| 18> H          4.41205        1.25066       -2.38949
| 19> *
| 20>
| 21> %MaxCore 64000
| 22>
| 23> %pal nprocs 18
| 24> end
| 25>
| 26> %scf
| 27>   MaxIter 150
| 28> end
| 29>
| 30>
| 31>                          ****END OF INPUT****

CARTESIAN COORDINATES (ANGSTROEM)
---------------------------------
  C      3.905950    2.819850   -3.752920
  N      5.295620    3.131510   -4.105330
  C      3.803510    1.374720   -3.260810
  C      5.708620    3.468890   -5.324190
  C      6.904700    3.038950   -5.717080
  N      4.981880    4.293570   -6.097460
  H      5.000550    4.101310   -7.087760
  H      4.084690    4.596900   -5.739650
  H      5.963360    2.526110   -3.642390
  H      7.047160    2.066860   -5.473600
  H      7.198150    3.307990   -6.645230
  H      3.282020    2.949190   -4.640260
  H      3.565250    3.514570   -2.982520
  H      4.141570    0.711420   -4.029350
  H      2.785280    1.151460   -3.019440
  H      4.412050    1.250660   -2.389490

 Total Charge           Charge          ....    0
 Multiplicity           Mult            ....    1
 Number of Electrons    NEL             ....   48
 Basis Dimension        Dim             ....  200

ORBITAL ENERGIES
----------------

  NO   OCC          E(Eh)            E(eV)
   0   2.0000     -14.442122      -392.9901
   1   2.0000     -14.439609      -392.9217
   2   2.0000     -10.340083      -281.3680
   3   2.0000     -10.331732      -281.1407
   4   2.0000     -10.290152      -280.0093
   5   2.0000     -10.200540      -277.5708
   6   2.0000      -1.082239       -29.4492
   7   2.0000      -0.997646       -27.1473
   8   2.0000      -0.885375       -24.0923
   9   2.0000      -0.816260       -22.2116
  10   2.0000      -0.737612       -20.0714
  11   2.0000      -0.703243       -19.1362
  12   2.0000      -0.639217       -17.3940
  13   2.0000      -0.597916       -16.2701
  14   2.0000      -0.588640       -16.0177
  15   2.0000      -0.553697       -15.0669
  16   2.0000      -0.523235       -14.2380
  17   2.0000      -0.502098       -13.6628
  18   2.0000      -0.479136       -13.0380
  19   2.0000      -0.472069       -12.8457
  20   2.0000      -0.468631       -12.7521
  21   2.0000      -0.435636       -11.8543
  22   2.0000      -0.356514        -9.7012
  23   2.0000      -0.262471        -7.1422
  24   0.0000       0.083241         2.2651
  25   0.0000       0.105113         2.8603
  26   0.0000       0.119650         3.2558
  27   0.0000       0.123215         3.3529
  28   0.0000       0.144385         3.9289

MULLIKEN ATOMIC CHARGES
-----------------------
   0 C :    0.295928
   1 N :   -0.448604
   2 C :    0.592943
   3 C :    0.296725
   4 C :    0.467909
   5 N :   -0.000783
   6 H :   -0.012997
   7 H :   -0.076712
   8 H :   -0.049068
   9 H :   -0.248307
  10 H :   -0.326564
  11 H :   -0.092486
  12 H :   -0.258541
  13 H :   -0.054419
  14 H :   -0.072782
  15 H :   -0.012241
Sum of atomic charges:    0.0000000

LOEWDIN ATOMIC CHARGES
----------------------
   0 C :    0.009654
   1 N :   -0.016229
   2 C :    0.127673
   3 C :   -0.241526
   4 C :    0.135519
   5 N :    0.195804
   6 H :    0.006660
   7 H :   -0.017271
   8 H :    0.019863
   9 H :   -0.101195
  10 H :   -0.102569
  11 H :    0.010644
  12 H :    0.014108
  13 H :   -0.010666
  14 H :   -0.015692
  15 H :   -0.014777

  Mayer bond orders larger than 0.100000
B(  0-C ,  1-N ) :   0.8374 B(  0-C ,  2-C ) :   1.2720 B(  0-C , 11-H ) :   0.8313
B(  0-C , 12-H ) :   0.9294 B(  0-C , 13-H ) :   0.2155 B(  0-C , 14-H ) :   0.2160
B(  0-C , 15-H ) :   0.1368 B(  1-N ,  3-C ) :   1.1270 B(  1-N ,  4-C ) :   0.2154
B(  1-N ,  8-H ) :   1.0841 B(  1-N , 11-H ) :   0.1167 B(  1-N , 12-H ) :   0.1600
B(  2-C , 13-H ) :   0.8249 B(  2-C , 14-H ) :   0.8344 B(  2-C , 15-H ) :   0.8364
B(  3-C ,  4-C ) :   1.8434 B(  3-C ,  5-N ) :   0.9226 B(  3-C ,  8-H ) :  -0.1182
B(  3-C ,  9-H ) :   0.1965 B(  3-C , 10-H ) :   0.3261 B(  4-C ,  5-N ) :   0.2109
B(  4-C ,  9-H ) :   0.8770 B(  4-C , 10-H ) :   0.5840 B(  5-N ,  6-H ) :   1.0925
B(  5-N ,  7-H ) :   0.9345 B(  6-H ,  7-H ) :  -0.1038 B(  9-H , 10-H ) :   0.1574

Dispersion correction           -0.003710801
FINAL SINGLE POINT ENERGY      -267.648485897394

DIPOLE MOMENT
-------------
                                X             Y             Z
Electronic contribution:      1.50866       3.22737      -1.27161
Nuclear contribution   :     -2.93222      -3.63618       1.36440
                        -----------------------------------------
Total Dipole Moment    :     -1.42356      -0.40881       0.09279
                        -----------------------------------------
Magnitude (a.u.)       :      1.48400
Magnitude (Debye)      :      3.77203

Rotational constants in cm-1:     0.237993     0.072843     0.061284
Rotational constants in MHz :  7134.860770  2183.763760  1837.240960

                             ****ORCA TERMINATED NORMALLY****
TOTAL RUN TIME: 0 days 0 hours 0 minutes 13 seconds 158 msec
