                         Program Version 5.0.0 -  RELEASE  -
|  1> !wB97X-D3 RIJCOSX def2-SVPD def2/J TightSCF
|  2> *xyz 0 1
|  3> C          3.90595        2.81985       -3.75292
|  4> N          5.29562        3.13151       -4.10533
|  5> C          3.80351        1.37472       -3.26081
|  6> C          5.70862        3.46889       -5.32419
|  7> N          6.90470        3.03895       -5.71708
|  8> C          4.98188        4.29357       -6.09746
|  9> H          5.00055        4.10131       -7.08776
| 10> H          4.08469        4.59690       -5.73965
| 11> H          5.96336        2.52611       -3.64239
| 12> H          7.04716        2.06686       -5.47360
| 13> H          7.19815        3.30799       -6.64523
| 14> H          3.28202        2.94919       -4.64026
| 15> H          3.56525        3.51457       -2.98252
| 16> H          4.14157        0.71142       -4.02935
| 17> H          2.78528        1.15146       -3.01944
| 18> H          4.41205        1.25066       -2.38949
| 19> *
| 20>
| 21> %MaxCore 64000
| 22>
| 23> %pal nprocs 18
| 24> end
| 25>
| 26> %scf
| 27>   MaxIter 150
| 28> end
| 29>
| 30>
| 31>                          ****END OF INPUT****

CARTESIAN COORDINATES (ANGSTROEM)
---------------------------------
  C      3.905950    2.819850   -3.752920
  N      5.295620    3.131510   -4.105330
  C      3.803510    1.374720   -3.260810
  C      5.708620    3.468890   -5.324190
  N      6.904700    3.038950   -5.717080
  C      4.981880    4.293570   -6.097460
  H      5.000550    4.101310   -7.087760
  H      4.084690    4.596900   -5.739650
  H      5.963360    2.526110   -3.642390
  H      7.047160    2.066860   -5.473600
  H      7.198150    3.307990   -6.645230
  H      3.282020    2.949190   -4.640260
  H      3.565250    3.514570   -2.982520
  H      4.141570    0.711420   -4.029350
  H      2.785280    1.151460   -3.019440
  H      4.412050    1.250660   -2.389490

 Total Charge           Charge          ....    0
 Multiplicity           Mult            ....    1
 Number of Electrons    NEL             ....   48
 Basis Dimension        Dim             ....  200

ORBITAL ENERGIES
----------------

  NO   OCC          E(Eh)            E(eV)
   0   2.0000     -14.441943      -392.9853
   1   2.0000     -14.441074      -392.9616
   2   2.0000     -10.339107      -281.3414
   3   2.0000     -10.325619      -280.9744
   4   2.0000     -10.288007      -279.9509
   5   2.0000     -10.206269      -277.7267
   6   2.0000      -1.087242       -29.5853
   7   2.0000      -0.999767       -27.2050
   8   2.0000      -0.873794       -23.7772
   9   2.0000      -0.817888       -22.2559
  10   2.0000      -0.751901       -20.4603
  11   2.0000      -0.672353       -18.2957
  12   2.0000      -0.642220       -17.4757
  13   2.0000      -0.620803       -16.8929
  14   2.0000      -0.576273       -15.6812
  15   2.0000      -0.558711       -15.2033
  16   2.0000      -0.506384       -13.7794
  17   2.0000      -0.501161       -13.6373
  18   2.0000      -0.492083       -13.3903
  19   2.0000      -0.470794       -12.8109
  20   2.0000      -0.460615       -12.5340
  21   2.0000      -0.437119       -11.8946
  22   2.0000      -0.354160        -9.6372
  23   2.0000      -0.265532        -7.2255
  24   0.0000       0.083240         2.2651
  25   0.0000       0.110608         3.0098
  26   0.0000       0.118161         3.2153
  27   0.0000       0.126923         3.4538
  28   0.0000       0.140750         3.8300

MULLIKEN ATOMIC CHARGES
-----------------------
   0 C :    0.317663
   1 N :   -0.341027
   2 C :    0.622651
   3 C :    0.163882
   4 N :   -0.050379
   5 C :    0.440249
   6 H :   -0.406751
   7 H :   -0.096447
   8 H :   -0.183691
   9 H :   -0.016647
  10 H :    0.038654
  11 H :   -0.047319
  12 H :   -0.283118
  13 H :   -0.065790
  14 H :   -0.053597
  15 H :   -0.038334
Sum of atomic charges:    0.0000000

LOEWDIN ATOMIC CHARGES
----------------------
   0 C :    0.021134
   1 N :   -0.014992
   2 C :    0.124741
   3 C :   -0.252869
   4 N :    0.182620
   5 C :    0.154158
   6 H :   -0.102511
   7 H :   -0.108089
   8 H :    0.009895
   9 H :   -0.006291
  10 H :    0.005651
  11 H :    0.015673
  12 H :    0.018788
  13 H :   -0.014896
  14 H :   -0.014846
  15 H :   -0.018166

  Mayer bond orders larger than 0.100000
B(  0-C ,  1-N ) :   0.8740 B(  0-C ,  2-C ) :   1.2420 B(  0-C , 11-H ) :   0.8607
B(  0-C , 12-H ) :   0.9344 B(  0-C , 13-H ) :   0.1893 B(  0-C , 14-H ) :   0.2191
B(  0-C , 15-H ) :   0.1438 B(  1-N ,  3-C ) :   1.0958 B(  1-N ,  4-N ) :   0.1602
B(  1-N ,  5-C ) :   0.2021 B(  1-N ,  8-H ) :   1.0624 B(  1-N , 11-H ) :   0.1159
B(  1-N , 12-H ) :   0.1526 B(  2-C , 13-H ) :   0.8437 B(  2-C , 14-H ) :   0.8179
B(  2-C , 15-H ) :   0.8314 B(  3-C ,  4-N ) :   1.0169 B(  3-C ,  5-C ) :   1.9345
B(  3-C ,  6-H ) :   0.1945 B(  3-C ,  7-H ) :   0.2933 B(  4-N ,  5-C ) :   0.1354
B(  4-N ,  9-H ) :   0.9591 B(  4-N , 10-H ) :   0.9623 B(  5-C ,  6-H ) :   0.8567
B(  5-C ,  7-H ) :   0.5317 B(  6-H ,  7-H ) :   0.2647

Dispersion correction           -0.003688026
FINAL SINGLE POINT ENERGY      -267.652823061168

DIPOLE MOMENT
-------------
                                X             Y             Z
Electronic contribution:      3.37983       2.05151      -0.98086
Nuclear contribution   :     -3.34013      -3.37002       1.28371
                        -----------------------------------------
Total Dipole Moment    :      0.03970      -1.31851       0.30285
                        -----------------------------------------
Magnitude (a.u.)       :      1.35343
Magnitude (Debye)      :      3.44013

Rotational constants in cm-1:     0.239537     0.072280     0.060961
Rotational constants in MHz :  7181.153552  2166.902802  1827.551447

                             ****ORCA TERMINATED NORMALLY****
TOTAL RUN TIME: 0 days 0 hours 0 minutes 12 seconds 702 msec
