                         Program Version 5.0.0 -  RELEASE  -
|  1> !wB97X-D3 RIJCOSX def2-SVPD def2/J TightSCF xyzfile
|  2>
|  3> *xyzfile 0 1 D2.xyz
|  4>
|  5> %MaxCore 64000
|  6>
|  7> %pal nprocs 18
|  8> end
|  9>
| 10> %scf
| 11>   MaxIter 150
| 12> end
| 13>
| 14>
| 15>                          ****END OF INPUT****

CARTESIAN COORDINATES (ANGSTROEM)
---------------------------------
  C      3.905947    2.819855   -3.752920
  N      5.295615    3.131515   -4.105334
  C      3.803511    1.374716   -3.260807
  C      3.939934    0.320362   -4.367729
  H      4.105043   -0.655085   -3.907733
  H      3.022801    0.280517   -4.957117
  C      5.105846    0.668022   -5.305463
  C      5.708619    3.468885   -5.324190
  C      6.904696    3.038954   -5.717084
  N      4.981884    4.293570   -6.097457
  H      5.000546    4.101311   -7.087761
  H      4.084693    4.596899   -5.739652
  H      5.963358    2.526112   -3.642391
  H      7.047164    2.066861   -5.473604
  H      7.198145    3.307994   -6.645225
  H      3.282025    2.949187   -4.640259
  H      3.565254    3.514574   -2.982523
  H      4.574833    1.215157   -2.500443
  H      2.843514    1.260845   -2.751465
  F      4.809132    1.150187   -6.414361
  O      6.267366    0.564999   -4.819481

 Total Charge           Charge          ....    0
 Multiplicity           Mult            ....    1
 Number of Electrons    NEL             ....   78
 Basis Dimension        Dim             ....  294

ORBITAL ENERGIES
----------------

  NO   OCC          E(Eh)            E(eV)
   0   2.0000     -24.885233      -677.1616
   1   2.0000     -19.257805      -524.0315
   2   2.0000     -14.439431      -392.9169
   3   2.0000     -14.437930      -392.8760
   4   2.0000     -10.484829      -285.3067
   5   2.0000     -10.340147      -281.3697
   6   2.0000     -10.332114      -281.1511
   7   2.0000     -10.330427      -281.1052
   8   2.0000     -10.322741      -280.8961
   9   2.0000     -10.183816      -277.1157
  10   2.0000      -1.438977       -39.1566
  11   2.0000      -1.148838       -31.2615
  12   2.0000      -1.081449       -29.4277
  13   2.0000      -0.998726       -27.1767
  14   2.0000      -0.932784       -25.3823
  15   2.0000      -0.855431       -23.2775
  16   2.0000      -0.810442       -22.0532
  17   2.0000      -0.775225       -21.0950
  18   2.0000      -0.730423       -19.8758
  19   2.0000      -0.702157       -19.1067
  20   2.0000      -0.674151       -18.3446
  21   2.0000      -0.656584       -17.8666
  22   2.0000      -0.642319       -17.4784
  23   2.0000      -0.616061       -16.7639
  24   2.0000      -0.601214       -16.3599
  25   2.0000      -0.587618       -15.9899
  26   2.0000      -0.571355       -15.5474
  27   2.0000      -0.544481       -14.8161
  28   2.0000      -0.520053       -14.1514
  29   2.0000      -0.506941       -13.7946
  30   2.0000      -0.496819       -13.5191
  31   2.0000      -0.491706       -13.3800
  32   2.0000      -0.466853       -12.7037
  33   2.0000      -0.463909       -12.6236
  34   2.0000      -0.444018       -12.0823
  35   2.0000      -0.435197       -11.8423
  36   2.0000      -0.381928       -10.3928
  37   2.0000      -0.353825        -9.6281
  38   2.0000      -0.253987        -6.9114
  39   0.0000       0.038838         1.0568
  40   0.0000       0.076935         2.0935
  41   0.0000       0.098397         2.6775
  42   0.0000       0.103862         2.8262
  43   0.0000       0.115276         3.1368

MULLIKEN ATOMIC CHARGES
-----------------------
   0 C :    0.747110
   1 N :   -0.359287
   2 C :    0.052273
   3 C :    0.153998
   4 H :   -0.026265
   5 H :    0.032909
   6 C :    0.773167
   7 C :   -0.000205
   8 C :    0.807922
   9 N :    0.007713
  10 H :    0.005831
  11 H :   -0.010953
  12 H :   -0.070463
  13 H :   -0.476163
  14 H :   -0.240504
  15 H :   -0.031949
  16 H :   -0.308988
  17 H :    0.064841
  18 H :   -0.115771
  19 F :   -0.391971
  20 O :   -0.613246
Sum of atomic charges:    0.0000000

LOEWDIN ATOMIC CHARGES
----------------------
   0 C :    0.058568
   1 N :    0.004958
   2 C :   -0.006884
   3 C :    0.062626
   4 H :    0.040073
   5 H :    0.027734
   6 C :    0.018328
   7 C :   -0.256039
   8 C :    0.162150
   9 N :    0.200312
  10 H :    0.005433
  11 H :   -0.018370
  12 H :    0.014496
  13 H :   -0.152858
  14 H :   -0.088023
  15 H :    0.015644
  16 H :    0.017556
  17 H :    0.033722
  18 H :    0.026634
  19 F :   -0.015784
  20 O :   -0.150275

  Mayer bond orders larger than 0.100000
B(  0-C ,  1-N ) :   0.8095 B(  0-C ,  2-C ) :   1.1656 B(  0-C , 15-H ) :   0.7450
B(  0-C , 16-H ) :   0.9028 B(  0-C , 18-H ) :   0.1685 B(  1-N ,  2-C ) :   0.1253
B(  1-N ,  7-C ) :   1.1098 B(  1-N ,  8-C ) :   0.1736 B(  1-N , 12-H ) :   1.0475
B(  1-N , 15-H ) :   0.1348 B(  1-N , 16-H ) :   0.1000 B(  2-C ,  3-C ) :   1.2024
B(  2-C ,  4-H ) :   0.1697 B(  2-C ,  5-H ) :   0.1128 B(  2-C , 17-H ) :   0.8467
B(  2-C , 18-H ) :   0.9438 B(  3-C ,  4-H ) :   0.8297 B(  3-C ,  5-H ) :   0.8802
B(  3-C ,  6-C ) :   1.1173 B(  4-H ,  6-C ) :   0.1234 B(  5-H ,  6-C ) :   0.1165
B(  6-C , 19-F ) :   0.6693 B(  6-C , 20-O ) :   1.7117 B(  7-C ,  8-C ) :   1.9382
B(  7-C ,  9-N ) :   0.8959 B(  7-C , 11-H ) :   0.1653 B(  7-C , 12-H ) :  -0.1258
B(  7-C , 13-H ) :   0.1731 B(  7-C , 14-H ) :   0.4528 B(  8-C ,  9-N ) :   0.2600
B(  8-C , 13-H ) :   0.5558 B(  8-C , 14-H ) :   0.3525 B(  9-N , 10-H ) :   1.0388
B(  9-N , 11-H ) :   0.8495 B( 10-H , 11-H ) :  -0.1193 B( 13-H , 14-H ) :   0.1674
B( 13-H , 20-O ) :   0.2088 B( 15-H , 16-H ) :  -0.1082

Dispersion correction           -0.008917352
FINAL SINGLE POINT ENERGY      -519.272079893909

DIPOLE MOMENT
-------------
                                X             Y             Z
Electronic contribution:      2.03374      -3.79041      -5.17718
Nuclear contribution   :     -4.40347       3.21582       5.36161
                        -----------------------------------------
Total Dipole Moment    :     -2.36973      -0.57459       0.18444
                        -----------------------------------------
Magnitude (a.u.)       :      2.44536
Magnitude (Debye)      :      6.21562

Rotational constants in cm-1:     0.061226     0.043199     0.033926
Rotational constants in MHz :  1835.503528  1295.087558  1017.061512

                             ****ORCA TERMINATED NORMALLY****
TOTAL RUN TIME: 0 days 0 hours 0 minutes 39 seconds 348 msec
