                         Program Version 5.0.0 -  RELEASE  -
|  1> !wB97X-D3 RIJCOSX def2-SVPD def2/J TightSCF xyzfile
|  2>
|  3> *xyzfile 0 1 D4.xyz
|  4>
|  5> %MaxCore 64000
|  6>
|  7> %pal nprocs 18
|  8> end
|  9>
| 10> %scf
| 11>   MaxIter 150
| 12> end
| 13>
| 14>
| 15>                          ****END OF INPUT****

CARTESIAN COORDINATES (ANGSTROEM)
---------------------------------
  C      3.905947    2.819855   -3.752920
  C      5.295615    3.131515   -4.105334
  C      3.803511    1.374716   -3.260807
  C      3.939934    0.320362   -4.367729
  H      4.105043   -0.655085   -3.907733
  H      3.022801    0.280517   -4.957117
  C      5.105846    0.668022   -5.305463
  C      5.708619    3.468885   -5.324190
  N      6.904696    3.038954   -5.717084
  N      4.981884    4.293570   -6.097457
  H      5.000546    4.101311   -7.087761
  H      4.084693    4.596899   -5.739652
  H      5.963358    2.526112   -3.642391
  H      7.047164    2.066861   -5.473604
  H      7.198145    3.307994   -6.645225
  H      3.282025    2.949187   -4.640259
  H      3.565254    3.514574   -2.982523
  H      4.574833    1.215157   -2.500443
  H      2.843514    1.260845   -2.751465
  O      4.809132    1.150187   -6.414361
  F      6.267366    0.564999   -4.819481

 Total Charge           Charge          ....    0
 Multiplicity           Mult            ....    1
 Number of Electrons    NEL             ....   78
 Basis Dimension        Dim             ....  294

ORBITAL ENERGIES
----------------

  NO   OCC          E(Eh)            E(eV)
   0   2.0000     -24.883512      -677.1148
   1   2.0000     -19.256778      -524.0036
   2   2.0000     -14.439234      -392.9115
   3   2.0000     -14.428455      -392.6182
   4   2.0000     -10.478064      -285.1226
   5   2.0000     -10.336387      -281.2674
   6   2.0000     -10.317630      -280.7570
   7   2.0000     -10.299096      -280.2527
   8   2.0000     -10.277744      -279.6716
   9   2.0000     -10.215759      -277.9849
  10   2.0000      -1.432339       -38.9759
  11   2.0000      -1.152173       -31.3522
  12   2.0000      -1.072487       -29.1839
  13   2.0000      -0.980499       -26.6807
  14   2.0000      -0.931159       -25.3381
  15   2.0000      -0.862105       -23.4591
  16   2.0000      -0.804027       -21.8787
  17   2.0000      -0.769110       -20.9285
  18   2.0000      -0.716804       -19.5052
  19   2.0000      -0.697520       -18.9805
  20   2.0000      -0.666071       -18.1247
  21   2.0000      -0.651539       -17.7293
  22   2.0000      -0.632948       -17.2234
  23   2.0000      -0.613440       -16.6925
  24   2.0000      -0.605808       -16.4849
  25   2.0000      -0.570528       -15.5249
  26   2.0000      -0.568224       -15.4622
  27   2.0000      -0.544701       -14.8221
  28   2.0000      -0.531235       -14.4556
  29   2.0000      -0.500508       -13.6195
  30   2.0000      -0.485894       -13.2219
  31   2.0000      -0.471848       -12.8396
  32   2.0000      -0.461738       -12.5645
  33   2.0000      -0.442880       -12.0514
  34   2.0000      -0.434426       -11.8213
  35   2.0000      -0.422880       -11.5072
  36   2.0000      -0.390610       -10.6291
  37   2.0000      -0.361932        -9.8487
  38   2.0000      -0.260145        -7.0789
  39   0.0000       0.050414         1.3718
  40   0.0000       0.085901         2.3375
  41   0.0000       0.103504         2.8165
  42   0.0000       0.111841         3.0434
  43   0.0000       0.120313         3.2739

MULLIKEN ATOMIC CHARGES
-----------------------
   0 C :    0.363751
   1 C :   -0.015344
   2 C :    0.137565
   3 C :    0.228032
   4 H :   -0.034963
   5 H :    0.034465
   6 C :    0.710940
   7 C :    0.236085
   8 N :    0.168357
   9 N :   -0.052466
  10 H :   -0.034139
  11 H :    0.024375
  12 H :   -0.257547
  13 H :   -0.105811
  14 H :    0.008971
  15 H :   -0.142781
  16 H :   -0.208795
  17 H :    0.018653
  18 H :   -0.144181
  19 O :   -0.472893
  20 F :   -0.462274
Sum of atomic charges:    0.0000000

LOEWDIN ATOMIC CHARGES
----------------------
   0 C :   -0.046387
   1 C :   -0.026968
   2 C :   -0.020958
   3 C :    0.064016
   4 H :    0.030372
   5 H :    0.036889
   6 C :    0.000408
   7 C :   -0.242489
   8 N :    0.213780
   9 N :    0.212608
  10 H :   -0.001260
  11 H :   -0.001601
  12 H :   -0.058111
  13 H :   -0.049664
  14 H :    0.005580
  15 H :    0.012178
  16 H :    0.012502
  17 H :    0.028257
  18 H :    0.022484
  19 O :   -0.140812
  20 F :   -0.050825

  Mayer bond orders larger than 0.100000
B(  0-C ,  1-C ) :   1.0009 B(  0-C ,  2-C ) :   1.1859 B(  0-C , 12-H ) :   0.1885
B(  0-C , 15-H ) :   0.7976 B(  0-C , 16-H ) :   0.8420 B(  0-C , 18-H ) :   0.1901
B(  1-C ,  2-C ) :   0.1247 B(  1-C ,  7-C ) :   1.8196 B(  1-C ,  8-N ) :   0.3344
B(  1-C ,  9-N ) :   0.1443 B(  1-C , 12-H ) :   0.4600 B(  1-C , 15-H ) :   0.1050
B(  1-C , 16-H ) :   0.1606 B(  2-C ,  3-C ) :   1.1573 B(  2-C ,  4-H ) :   0.1749
B(  2-C ,  5-H ) :   0.1032 B(  2-C , 17-H ) :   0.8495 B(  2-C , 18-H ) :   0.9001
B(  3-C ,  4-H ) :   0.8321 B(  3-C ,  5-H ) :   0.8698 B(  3-C ,  6-C ) :   1.1111
B(  5-H ,  6-C ) :   0.1872 B(  6-C , 19-O ) :   1.7848 B(  6-C , 20-F ) :   0.5767
B(  7-C ,  8-N ) :   0.8784 B(  7-C ,  9-N ) :   0.9758 B(  7-C , 12-H ) :   0.2696
B(  7-C , 14-H ) :   0.1827 B(  8-N ,  9-N ) :   0.1162 B(  8-N , 13-H ) :   0.9150
B(  8-N , 14-H ) :   0.8212 B(  9-N , 10-H ) :   1.0564 B(  9-N , 11-H ) :   0.9569

Dispersion correction           -0.008974818
FINAL SINGLE POINT ENERGY      -519.303236223817

DIPOLE MOMENT
-------------
                                X             Y             Z
Electronic contribution:      5.80577      -4.55544      -3.90124
Nuclear contribution   :     -6.25608       3.89116       3.75052
                        -----------------------------------------
Total Dipole Moment    :     -0.45030      -0.66428      -0.15071
                        -----------------------------------------
Magnitude (a.u.)       :      0.81655
Magnitude (Debye)      :      2.07550

Rotational constants in cm-1:     0.061229     0.042568     0.033282
Rotational constants in MHz :  1835.590871  1276.154029   997.769927

                             ****ORCA TERMINATED NORMALLY****
TOTAL RUN TIME: 0 days 0 hours 0 minutes 38 seconds 647 msec
