                         Program Version 5.0.0 -  RELEASE  -
|  1> !wB97X-D3 RIJCOSX def2-TZVP def2/J TightSCF
|  2> *xyz -1 1
|  3> C         -0.96015       -0.52236       -0.48987
|  4> O          0.26170       -0.58031        0.13861
|  5> H         -0.85050       -0.82220       -1.51113
|  6> H         -1.33436        0.47929       -0.45044
|  7> H         -1.64624       -1.17908        0.00297
|  8> *
|  9>
| 10> %MaxCore 64000
| 11>
| 12> %pal nprocs 18
| 13> end
| 14>
| 15> %scf
| 16>   MaxIter 150
| 17> end
| 18>
| 19>
| 20>                          ****END OF INPUT****

CARTESIAN COORDINATES (ANGSTROEM)
---------------------------------
  C     -0.960150   -0.522360   -0.489870
  O      0.261700   -0.580310    0.138610
  H     -0.850500   -0.822200   -1.511130
  H     -1.334360    0.479290   -0.450440
  H     -1.646240   -1.179080    0.002970

 Total Charge           Charge          ....   -1
 Multiplicity           Mult            ....    1
 Number of Electrons    NEL             ....   18
 Basis Dimension        Dim             ....   80

ORBITAL ENERGIES
----------------

  NO   OCC          E(Eh)            E(eV)
   0   2.0000     -18.839493      -512.6487
   1   2.0000     -10.043604      -273.3004
   2   2.0000      -0.748141       -20.3579
   3   2.0000      -0.496001       -13.4969
   4   2.0000      -0.282403        -7.6846
   5   2.0000      -0.282359        -7.6834
   6   2.0000      -0.172935        -4.7058
   7   2.0000      -0.019261        -0.5241
   8   2.0000      -0.019256        -0.5240
   9   0.0000       0.330027         8.9805
  10   0.0000       0.402997        10.9661
  11   0.0000       0.403012        10.9665
  12   0.0000       0.408113        11.1053
  13   0.0000       0.514126        13.9901

MULLIKEN ATOMIC CHARGES
-----------------------
   0 C :   -0.012371
   1 O :   -0.874517
   2 H :   -0.037680
   3 H :   -0.037753
   4 H :   -0.037678
Sum of atomic charges:   -1.0000000

LOEWDIN ATOMIC CHARGES
----------------------
   0 C :   -0.563582
   1 O :   -0.534905
   2 H :    0.032839
   3 H :    0.032810
   4 H :    0.032837

  Mayer bond orders larger than 0.100000
B(  0-C ,  1-O ) :   1.4551 B(  0-C ,  2-H ) :   0.9556 B(  0-C ,  3-H ) :   0.9556
B(  0-C ,  4-H ) :   0.9556

Dispersion correction           -0.000091947
FINAL SINGLE POINT ENERGY      -115.095435899541

DIPOLE MOMENT
-------------
                                X             Y             Z
Electronic contribution:      1.75295      -0.08322       0.90176
Nuclear contribution   :     -2.56864       0.12183      -1.32123
                        -----------------------------------------
Total Dipole Moment    :     -0.81568       0.03861      -0.41947
                        -----------------------------------------
Magnitude (a.u.)       :      0.91803
Magnitude (Debye)      :      2.33346

Rotational constants in cm-1:     5.477744     0.932677     0.932677
Rotational constants in MHz : 164218.635293 27960.967920 27960.945417

                             ****ORCA TERMINATED NORMALLY****
TOTAL RUN TIME: 0 days 0 hours 0 minutes 4 seconds 387 msec
