                         Program Version 5.0.0 -  RELEASE  -
|  1> !wB97X-D3 RIJCOSX def2-TZVP def2/J TightSCF
|  2> *xyz 1 1
|  3> C          4.36645       -0.13321       -1.41606
|  4> C          3.05650       -0.32080       -0.70738
|  5> N          2.38983        0.71129       -0.24391
|  6> N          2.51600       -1.50772       -0.55023
|  7> H          2.96768       -2.32291       -0.95631
|  8> H          1.54987       -1.49063       -0.24988
|  9> H          2.74307        1.64947       -0.41280
| 10> H          1.44036        0.50278        0.03703
| 11> H          4.74975       -1.08632       -1.71533
| 12> H          5.06373        0.34075       -0.75722
| 13> H          4.21960        0.47966       -2.28077
| 14> *
| 15>
| 16> %MaxCore 64000
| 17>
| 18> %pal nprocs 18
| 19> end
| 20>
| 21> %scf
| 22>   MaxIter 150
| 23> end
| 24>
| 25>
| 26>                          ****END OF INPUT****

CARTESIAN COORDINATES (ANGSTROEM)
---------------------------------
  C      4.366450   -0.133210   -1.416060
  C      3.056500   -0.320800   -0.707380
  N      2.389830    0.711290   -0.243910
  N      2.516000   -1.507720   -0.550230
  H      2.967680   -2.322910   -0.956310
  H      1.549870   -1.490630   -0.249880
  H      2.743070    1.649470   -0.412800
  H      1.440360    0.502780    0.037030
  H      4.749750   -1.086320   -1.715330
  H      5.063730    0.340750   -0.757220
  H      4.219600    0.479660   -2.280770

 Total Charge           Charge          ....    1
 Multiplicity           Mult            ....    1
 Number of Electrons    NEL             ....   32
 Basis Dimension        Dim             ....  166

ORBITAL ENERGIES
----------------

  NO   OCC          E(Eh)            E(eV)
   0   2.0000     -14.674107      -399.3028
   1   2.0000     -14.671733      -399.2382
   2   2.0000     -10.609154      -288.6898
   3   2.0000     -10.475061      -285.0409
   4   2.0000      -1.337078       -36.3837
   5   2.0000      -1.228500       -33.4292
   6   2.0000      -1.073349       -29.2073
   7   2.0000      -0.947259       -25.7762
   8   2.0000      -0.888753       -24.1842
   9   2.0000      -0.873238       -23.7620
  10   2.0000      -0.807581       -21.9754
  11   2.0000      -0.767580       -20.8869
  12   2.0000      -0.718101       -19.5405
  13   2.0000      -0.702692       -19.1212
  14   2.0000      -0.677684       -18.4407
  15   2.0000      -0.592803       -16.1310
  16   0.0000      -0.132923        -3.6170
  17   0.0000      -0.083104        -2.2614
  18   0.0000      -0.036414        -0.9909
  19   0.0000      -0.025387        -0.6908
  20   0.0000      -0.004665        -0.1270

MULLIKEN ATOMIC CHARGES
-----------------------
   0 C :   -0.339371
   1 C :    0.316183
   2 N :   -0.362663
   3 N :   -0.364421
   4 H :    0.318954
   5 H :    0.283220
   6 H :    0.321951
   7 H :    0.282959
   8 H :    0.149652
   9 H :    0.197293
  10 H :    0.196243
Sum of atomic charges:    1.0000000

LOEWDIN ATOMIC CHARGES
----------------------
   0 C :   -0.198992
   1 C :   -0.306014
   2 N :    0.105196
   3 N :    0.108243
   4 H :    0.213772
   5 H :    0.202831
   6 H :    0.214946
   7 H :    0.202548
   8 H :    0.145172
   9 H :    0.156258
  10 H :    0.156040

  Mayer bond orders larger than 0.100000
B(  0-C ,  1-C ) :   0.9964 B(  0-C ,  8-H ) :   0.9636 B(  0-C ,  9-H ) :   0.9417
B(  0-C , 10-H ) :   0.9348 B(  1-C ,  2-N ) :   1.4438 B(  1-C ,  3-N ) :   1.4611
B(  2-N ,  6-H ) :   0.8792 B(  2-N ,  7-H ) :   0.8911 B(  3-N ,  4-H ) :   0.8756
B(  3-N ,  5-H ) :   0.8915

Dispersion correction           -0.001655572
FINAL SINGLE POINT ENERGY      -189.732070549400

DIPOLE MOMENT
-------------
                                X             Y             Z
Electronic contribution:     -1.73958      -0.26201       1.09227
Nuclear contribution   :      1.22976       0.25273      -1.15956
                        -----------------------------------------
Total Dipole Moment    :     -0.50982      -0.00927      -0.06729
                        -----------------------------------------
Magnitude (a.u.)       :      0.51433
Magnitude (Debye)      :      1.30732

Rotational constants in cm-1:     0.347067     0.291236     0.163306
Rotational constants in MHz : 10404.811357  8731.035118  4895.793931

                             ****ORCA TERMINATED NORMALLY****
TOTAL RUN TIME: 0 days 0 hours 0 minutes 10 seconds 689 msec
