                         Program Version 5.0.0 -  RELEASE  -
|  1> !wB97X-D3 RIJCOSX def2-TZVP def2/J TightSCF
|  2> *xyz 0 1
|  3> C         -0.96015       -0.52236       -0.48987
|  4> F          0.26170       -0.58031        0.13861
|  5> H         -0.85050       -0.82220       -1.51113
|  6> H         -1.33436        0.47929       -0.45044
|  7> H         -1.64624       -1.17908        0.00297
|  8> *
|  9>
| 10> %MaxCore 64000
| 11>
| 12> %pal nprocs 18
| 13> end
| 14>
| 15> %scf
| 16>   MaxIter 150
| 17> end
| 18>
| 19>
| 20>                          ****END OF INPUT****

CARTESIAN COORDINATES (ANGSTROEM)
---------------------------------
  C     -0.960150   -0.522360   -0.489870
  F      0.261700   -0.580310    0.138610
  H     -0.850500   -0.822200   -1.511130
  H     -1.334360    0.479290   -0.450440
  H     -1.646240   -1.179080    0.002970

 Total Charge           Charge          ....    0
 Multiplicity           Mult            ....    1
 Number of Electrons    NEL             ....   18
 Basis Dimension        Dim             ....   80

ORBITAL ENERGIES
----------------

  NO   OCC          E(Eh)            E(eV)
   0   2.0000     -24.762904      -673.8329
   1   2.0000     -10.338918      -281.3363
   2   2.0000      -1.306542       -35.5528
   3   2.0000      -0.820065       -22.3151
   4   2.0000      -0.591924       -16.1071
   5   2.0000      -0.589197       -16.0329
   6   2.0000      -0.589184       -16.0325
   7   2.0000      -0.446064       -12.1380
   8   2.0000      -0.446056       -12.1378
   9   0.0000       0.139116         3.7856
  10   0.0000       0.162761         4.4290
  11   0.0000       0.203834         5.5466
  12   0.0000       0.203841         5.5468
  13   0.0000       0.295074         8.0294

MULLIKEN ATOMIC CHARGES
-----------------------
   0 C :   -0.070196
   1 F :   -0.250614
   2 H :    0.106932
   3 H :    0.106908
   4 H :    0.106970
Sum of atomic charges:    0.0000000

LOEWDIN ATOMIC CHARGES
----------------------
   0 C :   -0.339672
   1 F :    0.055322
   2 H :    0.094786
   3 H :    0.094769
   4 H :    0.094796

  Mayer bond orders larger than 0.100000
B(  0-C ,  1-F ) :   0.9787 B(  0-C ,  2-H ) :   0.9786 B(  0-C ,  3-H ) :   0.9786
B(  0-C ,  4-H ) :   0.9787

Dispersion correction           -0.000132016
FINAL SINGLE POINT ENERGY      -139.764829065968

DIPOLE MOMENT
-------------
                                X             Y             Z
Electronic contribution:      2.61353      -0.12401       1.34438
Nuclear contribution   :     -3.25854       0.15455      -1.67609
                        -----------------------------------------
Total Dipole Moment    :     -0.64501       0.03053      -0.33171
                        -----------------------------------------
Magnitude (a.u.)       :      0.72595
Magnitude (Debye)      :      1.84522

Rotational constants in cm-1:     5.477744     0.868130     0.868129
Rotational constants in MHz : 164218.635293 26025.869915 26025.850419

                             ****ORCA TERMINATED NORMALLY****
TOTAL RUN TIME: 0 days 0 hours 0 minutes 4 seconds 51 msec
