                         Program Version 5.0.0 -  RELEASE  -
|  1> !wB97X-D3 RIJCOSX def2-TZVP def2/J TightSCF
|  2> *xyz 0 1
|  3> C          4.36645       -0.13321       -1.41606
|  4> C          3.05650       -0.32080       -0.70738
|  5> C          2.38983        0.71129       -0.24391
|  6> N          2.51600       -1.50772       -0.55023
|  7> H          2.96768       -2.32291       -0.95631
|  8> H          1.54987       -1.49063       -0.24988
|  9> H          2.74307        1.64947       -0.41280
| 10> H          1.44036        0.50278        0.03703
| 11> H          4.74975       -1.08632       -1.71533
| 12> H          5.06373        0.34075       -0.75722
| 13> H          4.21960        0.47966       -2.28077
| 14> *
| 15>
| 16> %MaxCore 64000
| 17>
| 18> %pal nprocs 18
| 19> end
| 20>
| 21> %scf
| 22>   MaxIter 150
| 23> end
| 24>
| 25>
| 26>                          ****END OF INPUT****

CARTESIAN COORDINATES (ANGSTROEM)
---------------------------------
  C      4.366450   -0.133210   -1.416060
  C      3.056500   -0.320800   -0.707380
  C      2.389830    0.711290   -0.243910
  N      2.516000   -1.507720   -0.550230
  H      2.967680   -2.322910   -0.956310
  H      1.549870   -1.490630   -0.249880
  H      2.743070    1.649470   -0.412800
  H      1.440360    0.502780    0.037030
  H      4.749750   -1.086320   -1.715330
  H      5.063730    0.340750   -0.757220
  H      4.219600    0.479660   -2.280770

 Total Charge           Charge          ....    0
 Multiplicity           Mult            ....    1
 Number of Electrons    NEL             ....   32
 Basis Dimension        Dim             ....  166

ORBITAL ENERGIES
----------------

  NO   OCC          E(Eh)            E(eV)
   0   2.0000     -14.419044      -392.3621
   1   2.0000     -10.294580      -280.1298
   2   2.0000     -10.265771      -279.3458
   3   2.0000     -10.197466      -277.4871
   4   2.0000      -1.049603       -28.5612
   5   2.0000      -0.871126       -23.7045
   6   2.0000      -0.805518       -21.9193
   7   2.0000      -0.669296       -18.2125
   8   2.0000      -0.634579       -17.2678
   9   2.0000      -0.569202       -15.4888
  10   2.0000      -0.532856       -14.4998
  11   2.0000      -0.497407       -13.5351
  12   2.0000      -0.486081       -13.2269
  13   2.0000      -0.452669       -12.3178
  14   2.0000      -0.432838       -11.7781
  15   2.0000      -0.273513        -7.4427
  16   0.0000       0.109567         2.9815
  17   0.0000       0.127041         3.4570
  18   0.0000       0.154170         4.1952
  19   0.0000       0.159909         4.3513
  20   0.0000       0.199244         5.4217

MULLIKEN ATOMIC CHARGES
-----------------------
   0 C :   -0.320317
   1 C :    0.200209
   2 C :   -0.417471
   3 N :   -0.477880
   4 H :    0.237314
   5 H :    0.237461
   6 H :    0.104584
   7 H :    0.070825
   8 H :    0.090221
   9 H :    0.138587
  10 H :    0.136466
Sum of atomic charges:    0.0000000

LOEWDIN ATOMIC CHARGES
----------------------
   0 C :   -0.241791
   1 C :   -0.389941
   2 C :   -0.291127
   3 N :   -0.009960
   4 H :    0.170196
   5 H :    0.179598
   6 H :    0.104942
   7 H :    0.099007
   8 H :    0.116053
   9 H :    0.132080
  10 H :    0.130942

  Mayer bond orders larger than 0.100000
B(  0-C ,  1-C ) :   0.9268 B(  0-C ,  8-H ) :   0.9839 B(  0-C ,  9-H ) :   0.9811
B(  0-C , 10-H ) :   0.9732 B(  1-C ,  2-C ) :   1.7610 B(  1-C ,  3-N ) :   1.1682
B(  2-C ,  6-H ) :   1.0054 B(  2-C ,  7-H ) :   0.9936 B(  3-N ,  4-H ) :   0.9206
B(  3-N ,  5-H ) :   0.9173

Dispersion correction           -0.001655156
FINAL SINGLE POINT ENERGY      -173.259195748617

DIPOLE MOMENT
-------------
                                X             Y             Z
Electronic contribution:     -0.98777      -1.19064       0.64278
Nuclear contribution   :      1.07959       0.48266      -1.05101
                        -----------------------------------------
Total Dipole Moment    :      0.09182      -0.70798      -0.40823
                        -----------------------------------------
Magnitude (a.u.)       :      0.82238
Magnitude (Debye)      :      2.09033

Rotational constants in cm-1:     0.369235     0.294626     0.169175
Rotational constants in MHz : 11069.394850  8832.653024  5071.734673

                             ****ORCA TERMINATED NORMALLY****
TOTAL RUN TIME: 0 days 0 hours 0 minutes 9 seconds 641 msec
