                         Program Version 5.0.0 -  RELEASE  -
|  1> !wB97X-D3 RIJCOSX def2-TZVP def2/J TightSCF
|  2> *xyz 0 1
|  3> C          4.36645       -0.13321       -1.41606
|  4> C          3.05650       -0.32080       -0.70738
|  5> N          2.38983        0.71129       -0.24391
|  6> C          2.51600       -1.50772       -0.55023
|  7> H          2.96768       -2.32291       -0.95631
|  8> H          1.54987       -1.49063       -0.24988
|  9> H          2.74307        1.64947       -0.41280
| 10> H          1.44036        0.50278        0.03703
| 11> H          4.74975       -1.08632       -1.71533
| 12> H          5.06373        0.34075       -0.75722
| 13> H          4.21960        0.47966       -2.28077
| 14> *
| 15>
| 16> %MaxCore 64000
| 17>
| 18> %pal nprocs 18
| 19> end
| 20>
| 21> %scf
| 22>   MaxIter 150
| 23> end
| 24>
| 25>
| 26>                          ****END OF INPUT****

CARTESIAN COORDINATES (ANGSTROEM)
---------------------------------
  C      4.366450   -0.133210   -1.416060
  C      3.056500   -0.320800   -0.707380
  N      2.389830    0.711290   -0.243910
  C      2.516000   -1.507720   -0.550230
  H      2.967680   -2.322910   -0.956310
  H      1.549870   -1.490630   -0.249880
  H      2.743070    1.649470   -0.412800
  H      1.440360    0.502780    0.037030
  H      4.749750   -1.086320   -1.715330
  H      5.063730    0.340750   -0.757220
  H      4.219600    0.479660   -2.280770

 Total Charge           Charge          ....    0
 Multiplicity           Mult            ....    1
 Number of Electrons    NEL             ....   32
 Basis Dimension        Dim             ....  166

ORBITAL ENERGIES
----------------

  NO   OCC          E(Eh)            E(eV)
   0   2.0000     -14.417831      -392.3291
   1   2.0000     -10.295276      -280.1487
   2   2.0000     -10.265504      -279.3386
   3   2.0000     -10.201672      -277.6016
   4   2.0000      -1.049798       -28.5664
   5   2.0000      -0.870247       -23.6806
   6   2.0000      -0.807077       -21.9617
   7   2.0000      -0.669573       -18.2200
   8   2.0000      -0.634828       -17.2745
   9   2.0000      -0.569445       -15.4954
  10   2.0000      -0.534646       -14.5485
  11   2.0000      -0.495311       -13.4781
  12   2.0000      -0.488580       -13.2949
  13   2.0000      -0.452777       -12.3207
  14   2.0000      -0.431487       -11.7414
  15   2.0000      -0.276955        -7.5363
  16   0.0000       0.109608         2.9826
  17   0.0000       0.131511         3.5786
  18   0.0000       0.154810         4.2126
  19   0.0000       0.165643         4.5074
  20   0.0000       0.184602         5.0233

MULLIKEN ATOMIC CHARGES
-----------------------
   0 C :   -0.334062
   1 C :    0.218059
   2 N :   -0.482960
   3 C :   -0.415442
   4 H :    0.099894
   5 H :    0.071624
   6 H :    0.241832
   7 H :    0.237434
   8 H :    0.120616
   9 H :    0.121345
  10 H :    0.121660
Sum of atomic charges:    0.0000000

LOEWDIN ATOMIC CHARGES
----------------------
   0 C :   -0.243092
   1 C :   -0.390583
   2 N :   -0.011815
   3 C :   -0.285379
   4 H :    0.104025
   5 H :    0.099310
   6 H :    0.172273
   7 H :    0.179404
   8 H :    0.130738
   9 H :    0.122402
  10 H :    0.122716

  Mayer bond orders larger than 0.100000
B(  0-C ,  1-C ) :   0.9448 B(  0-C ,  8-H ) :   0.9883 B(  0-C ,  9-H ) :   0.9741
B(  0-C , 10-H ) :   0.9670 B(  1-C ,  2-N ) :   1.1614 B(  1-C ,  3-C ) :   1.7585
B(  2-N ,  6-H ) :   0.9231 B(  2-N ,  7-H ) :   0.9186 B(  3-C ,  4-H ) :   0.9992
B(  3-C ,  5-H ) :   0.9981

Dispersion correction           -0.001666998
FINAL SINGLE POINT ENERGY      -173.262278711252

DIPOLE MOMENT
-------------
                                X             Y             Z
Electronic contribution:     -1.13112       0.80851       0.93755
Nuclear contribution   :      1.10788      -0.01499      -1.11971
                        -----------------------------------------
Total Dipole Moment    :     -0.02324       0.79352      -0.18216
                        -----------------------------------------
Magnitude (a.u.)       :      0.81449
Magnitude (Debye)      :      2.07027

Rotational constants in cm-1:     0.367851     0.295709     0.169239
Rotational constants in MHz : 11027.892768  8865.123922  5073.656136

                             ****ORCA TERMINATED NORMALLY****
TOTAL RUN TIME: 0 days 0 hours 0 minutes 12 seconds 273 msec
