                         Program Version 5.0.0 -  RELEASE  -
|  1> !wB97X-D3 RIJCOSX def2-SVP def2/J TightSCF
|  2> *xyz -1 1
|  3> C         -0.81136       -2.90878       -4.60763
|  4> C         -1.91658       -2.48508       -3.64367
|  5> H         -2.55452       -1.71243       -4.09199
|  6> C         -1.36353       -1.98134       -2.29361
|  7> H         -2.55345       -3.35567       -3.45881
|  8> O         -0.35039       -2.74969       -1.79601
|  9> H         -2.22622       -1.90839       -1.60204
| 10> H         -1.05135       -0.91567       -2.44333
| 11> H         -1.24783       -3.24801       -5.52377
| 12> H         -0.24047       -3.70079       -4.16978
| 13> H         -0.17107       -2.07453       -4.80501
| 14> *
| 15>
| 16> %MaxCore 64000
| 17> %pal nprocs 18
| 18> end
| 19>
| 20> %scf
| 21>   MaxIter 150
| 22> end
| 23>
| 24>
| 25>                          ****END OF INPUT****

CARTESIAN COORDINATES (ANGSTROEM)
---------------------------------
  C     -0.811360   -2.908780   -4.607630
  C     -1.916580   -2.485080   -3.643670
  H     -2.554520   -1.712430   -4.091990
  C     -1.363530   -1.981340   -2.293610
  H     -2.553450   -3.355670   -3.458810
  O     -0.350390   -2.749690   -1.796010
  H     -2.226220   -1.908390   -1.602040
  H     -1.051350   -0.915670   -2.443330
  H     -1.247830   -3.248010   -5.523770
  H     -0.240470   -3.700790   -4.169780
  H     -0.171070   -2.074530   -4.805010

 Total Charge           Charge          ....   -1
 Multiplicity           Mult            ....    1
 Number of Electrons    NEL             ....   34
 Basis Dimension        Dim             ....   91

ORBITAL ENERGIES
----------------

  NO   OCC          E(Eh)            E(eV)
   0   2.0000     -18.859203      -513.1850
   1   2.0000     -10.094644      -274.6892
   2   2.0000     -10.083364      -274.3823
   3   2.0000     -10.083295      -274.3804
   4   2.0000      -0.755115       -20.5477
   5   2.0000      -0.674564       -18.3558
   6   2.0000      -0.558751       -15.2044
   7   2.0000      -0.447325       -12.1723
   8   2.0000      -0.364525        -9.9192
   9   2.0000      -0.352417        -9.5898
  10   2.0000      -0.296285        -8.0623
  11   2.0000      -0.271567        -7.3897
  12   2.0000      -0.239098        -6.5062
  13   2.0000      -0.227385        -6.1875
  14   2.0000      -0.171698        -4.6721
  15   2.0000      -0.025586        -0.6962
  16   2.0000      -0.021011        -0.5717
  17   0.0000       0.314624         8.5613
  18   0.0000       0.352505         9.5921
  19   0.0000       0.362466         9.8632
  20   0.0000       0.383893        10.4463
  21   0.0000       0.395680        10.7670

MULLIKEN ATOMIC CHARGES
-----------------------
   0 C :    0.018361
   1 C :   -0.054523
   2 H :   -0.083330
   3 C :    0.274593
   4 H :   -0.048874
   5 O :   -0.707456
   6 H :   -0.154029
   7 H :   -0.166672
   8 H :   -0.055684
   9 H :    0.000778
  10 H :   -0.023164
Sum of atomic charges:   -1.0000000

LOEWDIN ATOMIC CHARGES
----------------------
   0 C :   -0.068851
   1 C :   -0.089171
   2 H :   -0.024638
   3 C :    0.010926
   4 H :   -0.009740
   5 O :   -0.662211
   6 H :   -0.074670
   7 H :   -0.082766
   8 H :   -0.014708
   9 H :    0.010850
  10 H :    0.004980

  Mayer bond orders larger than 0.100000
B(  0-C ,  1-C ) :   1.0770 B(  0-C ,  8-H ) :   0.9660 B(  0-C ,  9-H ) :   0.9543
B(  0-C , 10-H ) :   0.9695 B(  1-C ,  2-H ) :   0.9288 B(  1-C ,  3-C ) :   0.9740
B(  1-C ,  4-H ) :   0.9452 B(  3-C ,  5-O ) :   1.4983 B(  3-C ,  6-H ) :   0.8888
B(  3-C ,  7-H ) :   0.8688

Dispersion correction           -0.001934106
FINAL SINGLE POINT ENERGY      -193.514655291158

DIPOLE MOMENT
-------------
                                X             Y             Z
Electronic contribution:      1.44156      -0.70549       2.69181
Nuclear contribution   :     -2.20255       0.75707      -4.26861
                        -----------------------------------------
Total Dipole Moment    :     -0.76100       0.05157      -1.57680
                        -----------------------------------------
Magnitude (a.u.)       :      1.75159
Magnitude (Debye)      :      4.45220

Rotational constants in cm-1:     0.480704     0.187939     0.150770
Rotational constants in MHz : 14411.155440  5634.276828  4519.982802

                             ****ORCA TERMINATED NORMALLY****
TOTAL RUN TIME: 0 days 0 hours 0 minutes 5 seconds 173 msec
