                         Program Version 5.0.0 -  RELEASE  -
|  1> !wB97X-D3 RIJCOSX def2-SVP def2/J TightSCF
|  2> *xyz 1 1
|  3> C          1.64703       -2.34528       -5.02041
|  4> C          0.21763       -1.81402       -4.92439
|  5> C          2.20996       -2.81239       -3.66571
|  6> H          2.30838       -1.58870       -5.45713
|  7> H          1.67429       -3.20348       -5.69739
|  8> C          2.48901       -1.66851       -2.73754
|  9> N          3.59631       -0.94761       -2.95225
| 10> N          1.66394       -1.41369       -1.77781
| 11> H          0.81164       -1.96318       -1.70275
| 12> H          1.84550       -0.63508       -1.15875
| 13> H          4.20535       -1.17600       -3.73383
| 14> H          3.81723       -0.12585       -2.40604
| 15> H          3.14311       -3.36280       -3.81152
| 16> H          1.48768       -3.45893       -3.16521
| 17> H         -0.11459       -1.50684       -5.89401
| 18> H          0.19193       -0.97796       -4.25713
| 19> H         -0.42543       -2.58523       -4.55479
| 20> *
| 21>
| 22> %MaxCore 64000
| 23> %pal nprocs 18
| 24> end
| 25>
| 26> %scf
| 27>   MaxIter 150
| 28> end
| 29>
| 30>
| 31>                          ****END OF INPUT****

CARTESIAN COORDINATES (ANGSTROEM)
---------------------------------
  C      1.647030   -2.345280   -5.020410
  C      0.217630   -1.814020   -4.924390
  C      2.209960   -2.812390   -3.665710
  H      2.308380   -1.588700   -5.457130
  H      1.674290   -3.203480   -5.697390
  C      2.489010   -1.668510   -2.737540
  N      3.596310   -0.947610   -2.952250
  N      1.663940   -1.413690   -1.777810
  H      0.811640   -1.963180   -1.702750
  H      1.845500   -0.635080   -1.158750
  H      4.205350   -1.176000   -3.733830
  H      3.817230   -0.125850   -2.406040
  H      3.143110   -3.362800   -3.811520
  H      1.487680   -3.458930   -3.165210
  H     -0.114590   -1.506840   -5.894010
  H      0.191930   -0.977960   -4.257130
  H     -0.425430   -2.585230   -4.554790

 Total Charge           Charge          ....    1
 Multiplicity           Mult            ....    1
 Number of Electrons    NEL             ....   48
 Basis Dimension        Dim             ....  139

ORBITAL ENERGIES
----------------

  NO   OCC          E(Eh)            E(eV)
   0   2.0000     -14.686360      -399.6362
   1   2.0000     -14.676532      -399.3687
   2   2.0000     -10.611088      -288.7424
   3   2.0000     -10.482386      -285.2402
   4   2.0000     -10.450090      -284.3614
   5   2.0000     -10.415646      -283.4241
   6   2.0000      -1.314093       -35.7583
   7   2.0000      -1.214431       -33.0463
   8   2.0000      -1.084320       -29.5058
   9   2.0000      -0.995112       -27.0784
  10   2.0000      -0.937807       -25.5190
  11   2.0000      -0.891156       -24.2496
  12   2.0000      -0.871652       -23.7188
  13   2.0000      -0.837833       -22.7986
  14   2.0000      -0.802291       -21.8315
  15   2.0000      -0.755631       -20.5618
  16   2.0000      -0.725038       -19.7293
  17   2.0000      -0.698183       -18.9985
  18   2.0000      -0.669167       -18.2090
  19   2.0000      -0.657834       -17.9006
  20   2.0000      -0.599071       -16.3016
  21   2.0000      -0.594439       -16.1755
  22   2.0000      -0.589612       -16.0441
  23   2.0000      -0.578675       -15.7465
  24   0.0000      -0.117117        -3.1869
  25   0.0000      -0.054489        -1.4827
  26   0.0000      -0.010022        -0.2727
  27   0.0000      -0.006611        -0.1799
  28   0.0000       0.018921         0.5149

MULLIKEN ATOMIC CHARGES
-----------------------
   0 C :   -0.110194
   1 C :   -0.032610
   2 C :   -0.011209
   3 H :    0.051707
   4 H :    0.090257
   5 C :   -0.055910
   6 N :   -0.045690
   7 N :    0.024336
   8 H :    0.200956
   9 H :    0.185710
  10 H :    0.195341
  11 H :    0.182229
  12 H :    0.101058
  13 H :    0.067670
  14 H :    0.082269
  15 H :    0.023638
  16 H :    0.050443
Sum of atomic charges:    1.0000000

LOEWDIN ATOMIC CHARGES
----------------------
   0 C :   -0.026038
   1 C :   -0.050319
   2 C :   -0.032814
   3 H :    0.030298
   4 H :    0.050722
   5 C :    0.158227
   6 N :    0.072226
   7 N :    0.111045
   8 H :    0.127090
   9 H :    0.116428
  10 H :    0.122422
  11 H :    0.111036
  12 H :    0.063293
  13 H :    0.049602
  14 H :    0.048199
  15 H :    0.016696
  16 H :    0.031885

  Mayer bond orders larger than 0.100000
B(  0-C ,  1-C ) :   1.0675 B(  0-C ,  2-C ) :   1.0430 B(  0-C ,  3-H ) :   0.9560
B(  0-C ,  4-H ) :   0.9493 B(  1-C , 14-H ) :   0.9671 B(  1-C , 15-H ) :   0.9728
B(  1-C , 16-H ) :   0.9758 B(  2-C ,  5-C ) :   1.0086 B(  2-C , 12-H ) :   0.9264
B(  2-C , 13-H ) :   0.9317 B(  5-C ,  6-N ) :   1.4833 B(  5-C ,  7-N ) :   1.5431
B(  6-N , 10-H ) :   0.9191 B(  6-N , 11-H ) :   0.9320 B(  7-N ,  8-H ) :   0.9106
B(  7-N ,  9-H ) :   0.9246

Dispersion correction           -0.004634589
FINAL SINGLE POINT ENERGY      -268.085185664047

DIPOLE MOMENT
-------------
                                X             Y             Z
Electronic contribution:      3.29027       1.30809       4.41860
Nuclear contribution   :     -2.54148      -0.64126      -3.14660
                        -----------------------------------------
Total Dipole Moment    :      0.74879       0.66683       1.27200
                        -----------------------------------------
Magnitude (a.u.)       :      1.61967
Magnitude (Debye)      :      4.11688

Rotational constants in cm-1:     0.179759     0.078784     0.067518
Rotational constants in MHz :  5389.046501  2361.884510  2024.132984

                             ****ORCA TERMINATED NORMALLY****
TOTAL RUN TIME: 0 days 0 hours 0 minutes 8 seconds 905 msec
