                         Program Version 5.0.0 -  RELEASE  -
|  1> !wB97X-D3 RIJCOSX def2-SVP def2/J TightSCF
|  2> *xyz 0 1
|  3> C         -0.81136       -2.90878       -4.60763
|  4> C         -1.91658       -2.48508       -3.64367
|  5> H         -2.55452       -1.71243       -4.09199
|  6> C         -1.36353       -1.98134       -2.29361
|  7> H         -2.55345       -3.35567       -3.45881
|  8> F         -0.35039       -2.74969       -1.79601
|  9> H         -2.22622       -1.90839       -1.60204
| 10> H         -1.05135       -0.91567       -2.44333
| 11> H         -1.24783       -3.24801       -5.52377
| 12> H         -0.24047       -3.70079       -4.16978
| 13> H         -0.17107       -2.07453       -4.80501
| 14> *
| 15>
| 16> %MaxCore 64000
| 17> %pal nprocs 18
| 18> end
| 19>
| 20> %scf
| 21>   MaxIter 150
| 22> end
| 23>
| 24>
| 25>                          ****END OF INPUT****

CARTESIAN COORDINATES (ANGSTROEM)
---------------------------------
  C     -0.811360   -2.908780   -4.607630
  C     -1.916580   -2.485080   -3.643670
  H     -2.554520   -1.712430   -4.091990
  C     -1.363530   -1.981340   -2.293610
  H     -2.553450   -3.355670   -3.458810
  F     -0.350390   -2.749690   -1.796010
  H     -2.226220   -1.908390   -1.602040
  H     -1.051350   -0.915670   -2.443330
  H     -1.247830   -3.248010   -5.523770
  H     -0.240470   -3.700790   -4.169780
  H     -0.171070   -2.074530   -4.805010

 Total Charge           Charge          ....    0
 Multiplicity           Mult            ....    1
 Number of Electrons    NEL             ....   34
 Basis Dimension        Dim             ....   91

ORBITAL ENERGIES
----------------

  NO   OCC          E(Eh)            E(eV)
   0   2.0000     -24.772641      -674.0978
   1   2.0000     -10.362687      -281.9830
   2   2.0000     -10.291836      -280.0551
   3   2.0000     -10.273411      -279.5537
   4   2.0000      -1.289988       -35.1024
   5   2.0000      -0.895896       -24.3786
   6   2.0000      -0.794003       -21.6059
   7   2.0000      -0.695961       -18.9381
   8   2.0000      -0.605191       -16.4681
   9   2.0000      -0.592654       -16.1269
  10   2.0000      -0.569916       -15.5082
  11   2.0000      -0.532441       -14.4884
  12   2.0000      -0.491457       -13.3732
  13   2.0000      -0.466279       -12.6881
  14   2.0000      -0.449148       -12.2219
  15   2.0000      -0.416244       -11.3266
  16   2.0000      -0.411359       -11.1936
  17   0.0000       0.144588         3.9344
  18   0.0000       0.183781         5.0009
  19   0.0000       0.188044         5.1169
  20   0.0000       0.213287         5.8038
  21   0.0000       0.223181         6.0731

MULLIKEN ATOMIC CHARGES
-----------------------
   0 C :   -0.029591
   1 C :   -0.164229
   2 H :    0.036020
   3 C :    0.243944
   4 H :    0.036739
   5 F :   -0.264771
   6 H :    0.025043
   7 H :    0.020605
   8 H :    0.030424
   9 H :    0.041624
  10 H :    0.024192
Sum of atomic charges:    0.0000000

LOEWDIN ATOMIC CHARGES
----------------------
   0 C :   -0.056735
   1 C :   -0.070070
   2 H :    0.030311
   3 C :    0.108628
   4 H :    0.023687
   5 F :   -0.131062
   6 H :    0.012529
   7 H :    0.011047
   8 H :    0.024129
   9 H :    0.026004
  10 H :    0.021534

  Mayer bond orders larger than 0.100000
B(  0-C ,  1-C ) :   1.0755 B(  0-C ,  8-H ) :   0.9754 B(  0-C ,  9-H ) :   0.9745
B(  0-C , 10-H ) :   0.9780 B(  1-C ,  2-H ) :   0.9504 B(  1-C ,  3-C ) :   1.0561
B(  1-C ,  4-H ) :   0.9580 B(  3-C ,  5-F ) :   0.9937 B(  3-C ,  6-H ) :   0.9634
B(  3-C ,  7-H ) :   0.9579

Dispersion correction           -0.001926563
FINAL SINGLE POINT ENERGY      -218.149243907800

DIPOLE MOMENT
-------------
                                X             Y             Z
Electronic contribution:      2.61978      -0.71082       5.52169
Nuclear contribution   :     -3.10989       1.02097      -5.82098
                        -----------------------------------------
Total Dipole Moment    :     -0.49011       0.31015      -0.29928
                        -----------------------------------------
Magnitude (a.u.)       :      0.65266
Magnitude (Debye)      :      1.65894

Rotational constants in cm-1:     0.466172     0.177379     0.142652
Rotational constants in MHz : 13975.492374  5317.681709  4276.599690

                             ****ORCA TERMINATED NORMALLY****
TOTAL RUN TIME: 0 days 0 hours 0 minutes 5 seconds 672 msec
