                         Program Version 5.0.0 -  RELEASE  -
|  1> !wB97X-D3 RIJCOSX def2-SVP def2/J TightSCF
|  2> *xyz 0 1
|  3> C          1.64703       -2.34528       -5.02041
|  4> C          0.21763       -1.81402       -4.92439
|  5> C          2.20996       -2.81239       -3.66571
|  6> H          2.30838       -1.58870       -5.45713
|  7> H          1.67429       -3.20348       -5.69739
|  8> C          2.48901       -1.66851       -2.73754
|  9> C          3.59631       -0.94761       -2.95225
| 10> N          1.66394       -1.41369       -1.77781
| 11> H          0.81164       -1.96318       -1.70275
| 12> H          1.84550       -0.63508       -1.15875
| 13> H          4.20535       -1.17600       -3.73383
| 14> H          3.81723       -0.12585       -2.40604
| 15> H          3.14311       -3.36280       -3.81152
| 16> H          1.48768       -3.45893       -3.16521
| 17> H         -0.11459       -1.50684       -5.89401
| 18> H          0.19193       -0.97796       -4.25713
| 19> H         -0.42543       -2.58523       -4.55479
| 20> *
| 21>
| 22> %MaxCore 64000
| 23> %pal nprocs 18
| 24> end
| 25>
| 26> %scf
| 27>   MaxIter 150
| 28> end
| 29>
| 30>
| 31>                          ****END OF INPUT****

CARTESIAN COORDINATES (ANGSTROEM)
---------------------------------
  C      1.647030   -2.345280   -5.020410
  C      0.217630   -1.814020   -4.924390
  C      2.209960   -2.812390   -3.665710
  H      2.308380   -1.588700   -5.457130
  H      1.674290   -3.203480   -5.697390
  C      2.489010   -1.668510   -2.737540
  C      3.596310   -0.947610   -2.952250
  N      1.663940   -1.413690   -1.777810
  H      0.811640   -1.963180   -1.702750
  H      1.845500   -0.635080   -1.158750
  H      4.205350   -1.176000   -3.733830
  H      3.817230   -0.125850   -2.406040
  H      3.143110   -3.362800   -3.811520
  H      1.487680   -3.458930   -3.165210
  H     -0.114590   -1.506840   -5.894010
  H      0.191930   -0.977960   -4.257130
  H     -0.425430   -2.585230   -4.554790

 Total Charge           Charge          ....    0
 Multiplicity           Mult            ....    1
 Number of Electrons    NEL             ....   48
 Basis Dimension        Dim             ....  139

ORBITAL ENERGIES
----------------

  NO   OCC          E(Eh)            E(eV)
   0   2.0000     -14.435986      -392.8231
   1   2.0000     -10.304722      -280.4057
   2   2.0000     -10.284533      -279.8564
   3   2.0000     -10.282410      -279.7986
   4   2.0000     -10.270960      -279.4870
   5   2.0000     -10.212859      -277.9060
   6   2.0000      -1.042981       -28.3810
   7   2.0000      -0.901818       -24.5397
   8   2.0000      -0.834723       -22.7140
   9   2.0000      -0.782544       -21.2941
  10   2.0000      -0.710283       -19.3278
  11   2.0000      -0.661587       -18.0027
  12   2.0000      -0.627560       -17.0768
  13   2.0000      -0.583150       -15.8683
  14   2.0000      -0.552230       -15.0269
  15   2.0000      -0.527259       -14.3474
  16   2.0000      -0.500249       -13.6125
  17   2.0000      -0.482674       -13.1342
  18   2.0000      -0.466591       -12.6966
  19   2.0000      -0.450943       -12.2708
  20   2.0000      -0.430848       -11.7240
  21   2.0000      -0.418467       -11.3871
  22   2.0000      -0.414821       -11.2878
  23   2.0000      -0.264693        -7.2027
  24   0.0000       0.128967         3.5094
  25   0.0000       0.146962         3.9991
  26   0.0000       0.173733         4.7275
  27   0.0000       0.178482         4.8567
  28   0.0000       0.196165         5.3379

MULLIKEN ATOMIC CHARGES
-----------------------
   0 C :   -0.064898
   1 C :   -0.026705
   2 C :    0.037920
   3 H :    0.032495
   4 H :    0.023412
   5 C :   -0.162022
   6 C :   -0.081029
   7 N :   -0.065514
   8 H :    0.123767
   9 H :    0.128876
  10 H :   -0.022830
  11 H :   -0.038291
  12 H :    0.044128
  13 H :   -0.003835
  14 H :    0.031178
  15 H :    0.029137
  16 H :    0.014211
Sum of atomic charges:   -0.0000000

LOEWDIN ATOMIC CHARGES
----------------------
   0 C :   -0.032612
   1 C :   -0.058516
   2 C :   -0.029054
   3 H :    0.025647
   4 H :    0.019924
   5 C :    0.001499
   6 C :   -0.196597
   7 N :    0.005417
   8 H :    0.074823
   9 H :    0.082395
  10 H :   -0.001132
  11 H :   -0.009107
  12 H :    0.039477
  13 H :    0.014760
  14 H :    0.025038
  15 H :    0.020715
  16 H :    0.017324

  Mayer bond orders larger than 0.100000
B(  0-C ,  1-C ) :   1.0772 B(  0-C ,  2-C ) :   1.0742 B(  0-C ,  3-H ) :   0.9551
B(  0-C ,  4-H ) :   0.9562 B(  1-C , 14-H ) :   0.9720 B(  1-C , 15-H ) :   0.9741
B(  1-C , 16-H ) :   0.9750 B(  2-C ,  5-C ) :   0.9948 B(  2-C , 12-H ) :   0.9393
B(  2-C , 13-H ) :   0.9421 B(  5-C ,  6-C ) :   1.8465 B(  5-C ,  7-N ) :   1.2802
B(  6-C , 10-H ) :   0.9513 B(  6-C , 11-H ) :   0.9634 B(  7-N ,  8-H ) :   0.9458
B(  7-N ,  9-H ) :   0.9453

Dispersion correction           -0.004626231
FINAL SINGLE POINT ENERGY      -251.622691789728

DIPOLE MOMENT
-------------
                                X             Y             Z
Electronic contribution:      1.38716       0.27599       3.34303
Nuclear contribution   :     -2.15663      -0.43764      -3.01766
                        -----------------------------------------
Total Dipole Moment    :     -0.76947      -0.16165       0.32537
                        -----------------------------------------
Magnitude (a.u.)       :      0.85093
Magnitude (Debye)      :      2.16289

Rotational constants in cm-1:     0.184410     0.080989     0.069427
Rotational constants in MHz :  5528.462717  2427.993314  2081.376031

                             ****ORCA TERMINATED NORMALLY****
TOTAL RUN TIME: 0 days 0 hours 0 minutes 10 seconds 144 msec
