                         Program Version 5.0.0 -  RELEASE  -
|  1> !wB97X-D3 RIJCOSX def2-SVP def2/J TightSCF
|  2> *xyz 0 1
|  3> C          1.64703       -2.34528       -5.02041
|  4> C          0.21763       -1.81402       -4.92439
|  5> C          2.20996       -2.81239       -3.66571
|  6> H          2.30838       -1.58870       -5.45713
|  7> H          1.67429       -3.20348       -5.69739
|  8> C          2.48901       -1.66851       -2.73754
|  9> N          3.59631       -0.94761       -2.95225
| 10> C          1.66394       -1.41369       -1.77781
| 11> H          0.81164       -1.96318       -1.70275
| 12> H          1.84550       -0.63508       -1.15875
| 13> H          4.20535       -1.17600       -3.73383
| 14> H          3.81723       -0.12585       -2.40604
| 15> H          3.14311       -3.36280       -3.81152
| 16> H          1.48768       -3.45893       -3.16521
| 17> H         -0.11459       -1.50684       -5.89401
| 18> H          0.19193       -0.97796       -4.25713
| 19> H         -0.42543       -2.58523       -4.55479
| 20> *
| 21>
| 22> %MaxCore 64000
| 23> %pal nprocs 18
| 24> end
| 25>
| 26> %scf
| 27>   MaxIter 150
| 28> end
| 29>
| 30>
| 31>                          ****END OF INPUT****

CARTESIAN COORDINATES (ANGSTROEM)
---------------------------------
  C      1.647030   -2.345280   -5.020410
  C      0.217630   -1.814020   -4.924390
  C      2.209960   -2.812390   -3.665710
  H      2.308380   -1.588700   -5.457130
  H      1.674290   -3.203480   -5.697390
  C      2.489010   -1.668510   -2.737540
  N      3.596310   -0.947610   -2.952250
  C      1.663940   -1.413690   -1.777810
  H      0.811640   -1.963180   -1.702750
  H      1.845500   -0.635080   -1.158750
  H      4.205350   -1.176000   -3.733830
  H      3.817230   -0.125850   -2.406040
  H      3.143110   -3.362800   -3.811520
  H      1.487680   -3.458930   -3.165210
  H     -0.114590   -1.506840   -5.894010
  H      0.191930   -0.977960   -4.257130
  H     -0.425430   -2.585230   -4.554790

 Total Charge           Charge          ....    0
 Multiplicity           Mult            ....    1
 Number of Electrons    NEL             ....   48
 Basis Dimension        Dim             ....  139

ORBITAL ENERGIES
----------------

  NO   OCC          E(Eh)            E(eV)
   0   2.0000     -14.428513      -392.6198
   1   2.0000     -10.301802      -280.3263
   2   2.0000     -10.283991      -279.8416
   3   2.0000     -10.282987      -279.8143
   4   2.0000     -10.265110      -279.3278
   5   2.0000     -10.217320      -278.0274
   6   2.0000      -1.024014       -27.8648
   7   2.0000      -0.900622       -24.5072
   8   2.0000      -0.841417       -22.8961
   9   2.0000      -0.788239       -21.4491
  10   2.0000      -0.698950       -19.0194
  11   2.0000      -0.662881       -18.0379
  12   2.0000      -0.618183       -16.8216
  13   2.0000      -0.574430       -15.6310
  14   2.0000      -0.545901       -14.8547
  15   2.0000      -0.540425       -14.7057
  16   2.0000      -0.491429       -13.3725
  17   2.0000      -0.485872       -13.2213
  18   2.0000      -0.466064       -12.6823
  19   2.0000      -0.456305       -12.4167
  20   2.0000      -0.428432       -11.6582
  21   2.0000      -0.412476       -11.2240
  22   2.0000      -0.409131       -11.1330
  23   2.0000      -0.277318        -7.5462
  24   0.0000       0.133177         3.6239
  25   0.0000       0.149068         4.0564
  26   0.0000       0.174682         4.7533
  27   0.0000       0.182157         4.9567
  28   0.0000       0.198665         5.4059

MULLIKEN ATOMIC CHARGES
-----------------------
   0 C :   -0.079596
   1 C :   -0.010870
   2 C :    0.043287
   3 H :    0.013542
   4 H :    0.025752
   5 C :   -0.112898
   6 N :   -0.129918
   7 C :   -0.053221
   8 H :   -0.021891
   9 H :   -0.036179
  10 H :    0.119515
  11 H :    0.124366
  12 H :    0.019067
  13 H :    0.021575
  14 H :    0.024547
  15 H :    0.034138
  16 H :    0.018785
Sum of atomic charges:   -0.0000000

LOEWDIN ATOMIC CHARGES
----------------------
   0 C :   -0.038592
   1 C :   -0.055250
   2 C :   -0.029341
   3 H :    0.016287
   4 H :    0.020971
   5 C :    0.011170
   6 N :   -0.028574
   7 C :   -0.166422
   8 H :    0.003391
   9 H :   -0.004029
  10 H :    0.071202
  11 H :    0.075975
  12 H :    0.023397
  13 H :    0.032842
  14 H :    0.022137
  15 H :    0.024148
  16 H :    0.020685

  Mayer bond orders larger than 0.100000
B(  0-C ,  1-C ) :   1.0811 B(  0-C ,  2-C ) :   1.0620 B(  0-C ,  3-H ) :   0.9542
B(  0-C ,  4-H ) :   0.9571 B(  1-C , 14-H ) :   0.9713 B(  1-C , 15-H ) :   0.9724
B(  1-C , 16-H ) :   0.9747 B(  2-C ,  5-C ) :   1.0096 B(  2-C , 12-H ) :   0.9378
B(  2-C , 13-H ) :   0.9411 B(  5-C ,  6-N ) :   1.2313 B(  5-C ,  7-C ) :   1.8879
B(  6-N , 10-H ) :   0.9522 B(  6-N , 11-H ) :   0.9536 B(  7-C ,  8-H ) :   0.9408
B(  7-C ,  9-H ) :   0.9566

Dispersion correction           -0.004618596
FINAL SINGLE POINT ENERGY      -251.626561476710

DIPOLE MOMENT
-------------
                                X             Y             Z
Electronic contribution:      3.17956       0.72575       2.28278
Nuclear contribution   :     -2.61370      -0.54788      -2.73987
                        -----------------------------------------
Total Dipole Moment    :      0.56586       0.17787      -0.45709
                        -----------------------------------------
Magnitude (a.u.)       :      0.74885
Magnitude (Debye)      :      1.90342

Rotational constants in cm-1:     0.186678     0.079942     0.069329
Rotational constants in MHz :  5596.476267  2396.611465  2078.426257

                             ****ORCA TERMINATED NORMALLY****
TOTAL RUN TIME: 0 days 0 hours 0 minutes 10 seconds 102 msec
