                         Program Version 5.0.0 -  RELEASE  -
|  1> !wB97X-D3 RIJCOSX def2-TZVP def2/J TightSCF
|  2> *xyz -1 1
|  3> C         -0.15102        0.25496       -4.09426
|  4> C         -0.72184       -0.99951       -3.43931
|  5> H         -1.08340       -1.69755       -4.20566
|  6> H         -1.58106       -0.72385       -2.82049
|  7> C          0.28725       -1.71177       -2.52740
|  8> H          1.13178       -2.06738       -3.15940
|  9> H         -0.20414       -2.63733       -2.17048
| 10> O          0.71050       -0.92751       -1.48177
| 11> H         -0.89787        0.70479       -4.71455
| 12> H          0.69695       -0.00870       -4.69119
| 13> H          0.14812        0.94842       -3.33628
| 14> *
| 15> %MaxCore 64000
| 16>
| 17> %pal nprocs 18
| 18> end
| 19>
| 20> %scf
| 21>   MaxIter 150
| 22> end
| 23>
| 24>
| 25>                          ****END OF INPUT****

CARTESIAN COORDINATES (ANGSTROEM)
---------------------------------
  C     -0.151020    0.254960   -4.094260
  C     -0.721840   -0.999510   -3.439310
  H     -1.083400   -1.697550   -4.205660
  H     -1.581060   -0.723850   -2.820490
  C      0.287250   -1.711770   -2.527400
  H      1.131780   -2.067380   -3.159400
  H     -0.204140   -2.637330   -2.170480
  O      0.710500   -0.927510   -1.481770
  H     -0.897870    0.704790   -4.714550
  H      0.696950   -0.008700   -4.691190
  H      0.148120    0.948420   -3.336280

 Total Charge           Charge          ....   -1
 Multiplicity           Mult            ....    1
 Number of Electrons    NEL             ....   34
 Basis Dimension        Dim             ....  166

ORBITAL ENERGIES
----------------

  NO   OCC          E(Eh)            E(eV)
   0   2.0000     -18.876435      -513.6539
   1   2.0000     -10.086173      -274.4587
   2   2.0000     -10.080860      -274.3142
   3   2.0000     -10.077082      -274.2113
   4   2.0000      -0.784663       -21.3518
   5   2.0000      -0.694523       -18.8989
   6   2.0000      -0.575100       -15.6493
   7   2.0000      -0.467727       -12.7275
   8   2.0000      -0.371600       -10.1117
   9   2.0000      -0.362243        -9.8571
  10   2.0000      -0.311312        -8.4712
  11   2.0000      -0.278508        -7.5786
  12   2.0000      -0.248599        -6.7647
  13   2.0000      -0.240255        -6.5377
  14   2.0000      -0.194434        -5.2908
  15   2.0000      -0.051422        -1.3993
  16   2.0000      -0.048211        -1.3119
  17   0.0000       0.274832         7.4786
  18   0.0000       0.308567         8.3965
  19   0.0000       0.321896         8.7592
  20   0.0000       0.343672         9.3518
  21   0.0000       0.349438         9.5087

MULLIKEN ATOMIC CHARGES
-----------------------
   0 C :   -0.280490
   1 C :   -0.039648
   2 H :   -0.025606
   3 H :    0.014569
   4 C :    0.083952
   5 H :   -0.080988
   6 H :   -0.066365
   7 O :   -0.796856
   8 H :    0.042756
   9 H :    0.052791
  10 H :    0.095885
Sum of atomic charges:   -1.0000000

LOEWDIN ATOMIC CHARGES
----------------------
   0 C :   -0.334712
   1 C :   -0.331106
   2 H :    0.095995
   3 H :    0.110386
   4 C :   -0.521270
   5 H :    0.057775
   6 H :    0.060470
   7 O :   -0.438217
   8 H :    0.089295
   9 H :    0.099858
  10 H :    0.111526

  Mayer bond orders larger than 0.100000
B(  0-C ,  1-C ) :   0.9761 B(  0-C ,  8-H ) :   0.9791 B(  0-C ,  9-H ) :   0.9781
B(  0-C , 10-H ) :   0.9707 B(  1-C ,  2-H ) :   0.9421 B(  1-C ,  3-H ) :   0.9675
B(  1-C ,  4-C ) :   0.9322 B(  1-C ,  7-O ) :  -0.1321 B(  4-C ,  5-H ) :   0.9154
B(  4-C ,  6-H ) :   0.9331 B(  4-C ,  7-O ) :   1.5603

Dispersion correction           -0.001939192
FINAL SINGLE POINT ENERGY      -193.752568220446

DIPOLE MOMENT
-------------
                                X             Y             Z
Electronic contribution:      1.07248      -0.14667       2.89790
Nuclear contribution   :     -1.95025       0.39850      -4.64834
                        -----------------------------------------
Total Dipole Moment    :     -0.87777       0.25183      -1.75043
                        -----------------------------------------
Magnitude (a.u.)       :      1.97432
Magnitude (Debye)      :      5.01831

Rotational constants in cm-1:     0.507767     0.175836     0.148827
Rotational constants in MHz : 15222.471408  5271.439482  4461.706759

                             ****ORCA TERMINATED NORMALLY****
TOTAL RUN TIME: 0 days 0 hours 0 minutes 9 seconds 777 msec
