                         Program Version 5.0.0 -  RELEASE  -
|  1> !wB97X-D3 RIJCOSX def2-TZVP def2/J TightSCF
|  2> *xyz 1 1
|  3> C          3.48828        1.60092       -1.52204
|  4> C          4.34297        1.31342       -2.75683
|  5> N          2.81029        0.42878       -1.01420
|  6> H          5.13203        0.60499       -2.48447
|  7> C          3.53590        0.74925       -3.92460
|  8> H          4.84125        2.24214       -3.05408
|  9> H          2.71455        2.33145       -1.76030
| 10> H          4.09099        2.06315       -0.73338
| 11> C          3.29098       -0.41802       -0.12908
| 12> N          2.51754       -1.43202        0.23936
| 13> N          4.53549       -0.28441        0.39580
| 14> H          5.04363        0.57189        0.22290
| 15> H          4.72335       -0.73327        1.28180
| 16> H          1.93479        0.10230       -1.40379
| 17> H          1.67464       -1.50562       -0.31610
| 18> H          2.92850       -2.21850        0.72549
| 19> H          4.18704        0.56990       -4.75451
| 20> H          2.78096        1.45217       -4.20898
| 21> H          3.07436       -0.16949       -3.62832
| 22> *
| 23> %MaxCore 64000
| 24>
| 25> %pal nprocs 18
| 26> end
| 27>
| 28> %scf
| 29>   MaxIter 150
| 30> end
| 31>
| 32>
| 33>                          ****END OF INPUT****

CARTESIAN COORDINATES (ANGSTROEM)
---------------------------------
  C      3.488280    1.600920   -1.522040
  C      4.342970    1.313420   -2.756830
  N      2.810290    0.428780   -1.014200
  H      5.132030    0.604990   -2.484470
  C      3.535900    0.749250   -3.924600
  H      4.841250    2.242140   -3.054080
  H      2.714550    2.331450   -1.760300
  H      4.090990    2.063150   -0.733380
  C      3.290980   -0.418020   -0.129080
  N      2.517540   -1.432020    0.239360
  N      4.535490   -0.284410    0.395800
  H      5.043630    0.571890    0.222900
  H      4.723350   -0.733270    1.281800
  H      1.934790    0.102300   -1.403790
  H      1.674640   -1.505620   -0.316100
  H      2.928500   -2.218500    0.725490
  H      4.187040    0.569900   -4.754510
  H      2.780960    1.452170   -4.208980
  H      3.074360   -0.169490   -3.628320

 Total Charge           Charge          ....    1
 Multiplicity           Mult            ....    1
 Number of Electrons    NEL             ....   56
 Basis Dimension        Dim             ....  289

ORBITAL ENERGIES
----------------

  NO   OCC          E(Eh)            E(eV)
   0   2.0000     -14.648196      -398.5977
   1   2.0000     -14.643314      -398.4648
   2   2.0000     -14.640731      -398.3946
   3   2.0000     -10.610291      -288.7207
   4   2.0000     -10.480058      -285.1769
   5   2.0000     -10.416825      -283.4562
   6   2.0000     -10.386964      -282.6437
   7   2.0000      -1.336872       -36.3781
   8   2.0000      -1.222109       -33.2553
   9   2.0000      -1.208066       -32.8731
  10   2.0000      -1.058181       -28.7946
  11   2.0000      -0.975998       -26.5583
  12   2.0000      -0.932722       -25.3807
  13   2.0000      -0.885217       -24.0880
  14   2.0000      -0.872843       -23.7513
  15   2.0000      -0.836419       -22.7601
  16   2.0000      -0.789371       -21.4799
  17   2.0000      -0.780045       -21.2261
  18   2.0000      -0.753695       -20.5091
  19   2.0000      -0.739133       -20.1128
  20   2.0000      -0.697902       -18.9909
  21   2.0000      -0.680698       -18.5227
  22   2.0000      -0.648745       -17.6533
  23   2.0000      -0.599375       -16.3098
  24   2.0000      -0.584010       -15.8917
  25   2.0000      -0.578007       -15.7284
  26   2.0000      -0.568848       -15.4791
  27   2.0000      -0.538030       -14.6405
  28   0.0000      -0.083944        -2.2842
  29   0.0000      -0.069676        -1.8960
  30   0.0000      -0.039957        -1.0873
  31   0.0000      -0.020260        -0.5513
  32   0.0000       0.004212         0.1146

MULLIKEN ATOMIC CHARGES
-----------------------
   0 C :   -0.228620
   1 C :   -0.151216
   2 N :   -0.273476
   3 H :    0.116273
   4 C :   -0.369894
   5 H :    0.150286
   6 H :    0.184574
   7 H :    0.154029
   8 C :    0.464843
   9 N :   -0.425026
  10 N :   -0.444892
  11 H :    0.290501
  12 H :    0.294387
  13 H :    0.262150
  14 H :    0.277955
  15 H :    0.305813
  16 H :    0.161508
  17 H :    0.137919
  18 H :    0.092886
Sum of atomic charges:    1.0000000

LOEWDIN ATOMIC CHARGES
----------------------
   0 C :   -0.265824
   1 C :   -0.286339
   2 N :    0.179532
   3 H :    0.138244
   4 C :   -0.291218
   5 H :    0.151889
   6 H :    0.154033
   7 H :    0.141691
   8 C :   -0.394261
   9 N :    0.060219
  10 N :    0.044690
  11 H :    0.192049
  12 H :    0.197283
  13 H :    0.210785
  14 H :    0.199455
  15 H :    0.202384
  16 H :    0.131670
  17 H :    0.124018
  18 H :    0.109701

  Mayer bond orders larger than 0.100000
B(  0-C ,  1-C ) :   0.9537 B(  0-C ,  2-N ) :   0.8472 B(  0-C ,  6-H ) :   0.9639
B(  0-C ,  7-H ) :   0.9771 B(  1-C ,  3-H ) :   0.9589 B(  1-C ,  4-C ) :   0.9625
B(  1-C ,  5-H ) :   0.9665 B(  2-N ,  8-C ) :   1.4082 B(  2-N , 13-H ) :   0.8991
B(  4-C , 16-H ) :   0.9737 B(  4-C , 17-H ) :   0.9723 B(  4-C , 18-H ) :   0.9791
B(  8-C ,  9-N ) :   1.3340 B(  8-C , 10-N ) :   1.3116 B(  9-N , 14-H ) :   0.8972
B(  9-N , 15-H ) :   0.8863 B( 10-N , 11-H ) :   0.8894 B( 10-N , 12-H ) :   0.8925

Dispersion correction           -0.005309187
FINAL SINGLE POINT ENERGY      -323.745478637861

DIPOLE MOMENT
-------------
                                X             Y             Z
Electronic contribution:     -1.35275      -2.90079       6.39074
Nuclear contribution   :      1.03951       2.07316      -5.00363
                        -----------------------------------------
Total Dipole Moment    :     -0.31324      -0.82763       1.38712
                        -----------------------------------------
Magnitude (a.u.)       :      1.64535
Magnitude (Debye)      :      4.18215

Rotational constants in cm-1:     0.160664     0.048801     0.043832
Rotational constants in MHz :  4816.589604  1463.007061  1314.037102

                             ****ORCA TERMINATED NORMALLY****
TOTAL RUN TIME: 0 days 0 hours 0 minutes 22 seconds 686 msec
