                         Program Version 5.0.0 -  RELEASE  -
|  1> !wB97X-D3 RIJCOSX def2-TZVP def2/J TightSCF
|  2> *xyz 0 1
|  3> C         -0.15102        0.25496       -4.09426
|  4> C         -0.72184       -0.99951       -3.43931
|  5> H         -1.08340       -1.69755       -4.20566
|  6> H         -1.58106       -0.72385       -2.82049
|  7> C          0.28725       -1.71177       -2.52740
|  8> H          1.13178       -2.06738       -3.15940
|  9> H         -0.20414       -2.63733       -2.17048
| 10> F          0.71050       -0.92751       -1.48177
| 11> H         -0.89787        0.70479       -4.71455
| 12> H          0.69695       -0.00870       -4.69119
| 13> H          0.14812        0.94842       -3.33628
| 14> *
| 15> %MaxCore 64000
| 16>
| 17> %pal nprocs 18
| 18> end
| 19>
| 20> %scf
| 21>   MaxIter 150
| 22> end
| 23>
| 24>
| 25>                          ****END OF INPUT****

CARTESIAN COORDINATES (ANGSTROEM)
---------------------------------
  C     -0.151020    0.254960   -4.094260
  C     -0.721840   -0.999510   -3.439310
  H     -1.083400   -1.697550   -4.205660
  H     -1.581060   -0.723850   -2.820490
  C      0.287250   -1.711770   -2.527400
  H      1.131780   -2.067380   -3.159400
  H     -0.204140   -2.637330   -2.170480
  F      0.710500   -0.927510   -1.481770
  H     -0.897870    0.704790   -4.714550
  H      0.696950   -0.008700   -4.691190
  H      0.148120    0.948420   -3.336280

 Total Charge           Charge          ....    0
 Multiplicity           Mult            ....    1
 Number of Electrons    NEL             ....   34
 Basis Dimension        Dim             ....  166

ORBITAL ENERGIES
----------------

  NO   OCC          E(Eh)            E(eV)
   0   2.0000     -24.768804      -673.9934
   1   2.0000     -10.350492      -281.6512
   2   2.0000     -10.279701      -279.7249
   3   2.0000     -10.258273      -279.1418
   4   2.0000      -1.310953       -35.6729
   5   2.0000      -0.906617       -24.6703
   6   2.0000      -0.803481       -21.8638
   7   2.0000      -0.706369       -19.2213
   8   2.0000      -0.610186       -16.6040
   9   2.0000      -0.594090       -16.1660
  10   2.0000      -0.568936       -15.4815
  11   2.0000      -0.535502       -14.5717
  12   2.0000      -0.498763       -13.5720
  13   2.0000      -0.471951       -12.8424
  14   2.0000      -0.447673       -12.1818
  15   2.0000      -0.419901       -11.4261
  16   2.0000      -0.418260       -11.3814
  17   0.0000       0.119371         3.2483
  18   0.0000       0.154640         4.2080
  19   0.0000       0.163138         4.4392
  20   0.0000       0.175798         4.7837
  21   0.0000       0.184055         5.0084

MULLIKEN ATOMIC CHARGES
-----------------------
   0 C :   -0.332300
   1 C :   -0.193342
   2 H :    0.099394
   3 H :    0.100878
   4 C :    0.042251
   5 H :    0.084559
   6 H :    0.095639
   7 F :   -0.239639
   8 H :    0.115333
   9 H :    0.100610
  10 H :    0.126616
Sum of atomic charges:    0.0000000

LOEWDIN ATOMIC CHARGES
----------------------
   0 C :   -0.305479
   1 C :   -0.303776
   2 H :    0.138032
   3 H :    0.135385
   4 C :   -0.342826
   5 H :    0.118797
   6 H :    0.118943
   7 F :    0.091134
   8 H :    0.115700
   9 H :    0.114463
  10 H :    0.119627

  Mayer bond orders larger than 0.100000
B(  0-C ,  1-C ) :   0.9812 B(  0-C ,  8-H ) :   0.9795 B(  0-C ,  9-H ) :   0.9758
B(  0-C , 10-H ) :   0.9768 B(  1-C ,  2-H ) :   0.9590 B(  1-C ,  3-H ) :   0.9708
B(  1-C ,  4-C ) :   0.9945 B(  4-C ,  5-H ) :   0.9692 B(  4-C ,  6-H ) :   0.9748
B(  4-C ,  7-F ) :   0.9862

Dispersion correction           -0.001918117
FINAL SINGLE POINT ENERGY      -218.403542942779

DIPOLE MOMENT
-------------
                                X             Y             Z
Electronic contribution:      2.47958      -0.81490       5.78067
Nuclear contribution   :     -2.76068       0.49992      -6.33880
                        -----------------------------------------
Total Dipole Moment    :     -0.28111      -0.31498      -0.55814
                        -----------------------------------------
Magnitude (a.u.)       :      0.69982
Magnitude (Debye)      :      1.77881

Rotational constants in cm-1:     0.493380     0.165620     0.140427
Rotational constants in MHz : 14791.174622  4965.163858  4209.902284

                             ****ORCA TERMINATED NORMALLY****
TOTAL RUN TIME: 0 days 0 hours 0 minutes 7 seconds 391 msec
