                         Program Version 5.0.0 -  RELEASE  -
|  1> !wB97X-D3 RIJCOSX def2-TZVP def2/J TightSCF
|  2> *xyz 0 1
|  3> C          3.48828        1.60092       -1.52204
|  4> C          4.34297        1.31342       -2.75683
|  5> C          2.81029        0.42878       -1.01420
|  6> H          5.13203        0.60499       -2.48447
|  7> C          3.53590        0.74925       -3.92460
|  8> H          4.84125        2.24214       -3.05408
|  9> H          2.71455        2.33145       -1.76030
| 10> H          4.09099        2.06315       -0.73338
| 11> C          3.29098       -0.41802       -0.12908
| 12> N          2.51754       -1.43202        0.23936
| 13> N          4.53549       -0.28441        0.39580
| 14> H          5.04363        0.57189        0.22290
| 15> H          4.72335       -0.73327        1.28180
| 16> H          1.93479        0.10230       -1.40379
| 17> H          1.67464       -1.50562       -0.31610
| 18> H          2.92850       -2.21850        0.72549
| 19> H          4.18704        0.56990       -4.75451
| 20> H          2.78096        1.45217       -4.20898
| 21> H          3.07436       -0.16949       -3.62832
| 22> *
| 23> %MaxCore 64000
| 24>
| 25> %pal nprocs 18
| 26> end
| 27>
| 28> %scf
| 29>   MaxIter 150
| 30> end
| 31>
| 32>
| 33>                          ****END OF INPUT****

CARTESIAN COORDINATES (ANGSTROEM)
---------------------------------
  C      3.488280    1.600920   -1.522040
  C      4.342970    1.313420   -2.756830
  C      2.810290    0.428780   -1.014200
  H      5.132030    0.604990   -2.484470
  C      3.535900    0.749250   -3.924600
  H      4.841250    2.242140   -3.054080
  H      2.714550    2.331450   -1.760300
  H      4.090990    2.063150   -0.733380
  C      3.290980   -0.418020   -0.129080
  N      2.517540   -1.432020    0.239360
  N      4.535490   -0.284410    0.395800
  H      5.043630    0.571890    0.222900
  H      4.723350   -0.733270    1.281800
  H      1.934790    0.102300   -1.403790
  H      1.674640   -1.505620   -0.316100
  H      2.928500   -2.218500    0.725490
  H      4.187040    0.569900   -4.754510
  H      2.780960    1.452170   -4.208980
  H      3.074360   -0.169490   -3.628320

 Total Charge           Charge          ....    0
 Multiplicity           Mult            ....    1
 Number of Electrons    NEL             ....   56
 Basis Dimension        Dim             ....  289

ORBITAL ENERGIES
----------------

  NO   OCC          E(Eh)            E(eV)
   0   2.0000     -14.419927      -392.3862
   1   2.0000     -14.415318      -392.2607
   2   2.0000     -10.315317      -280.6941
   3   2.0000     -10.250361      -278.9265
   4   2.0000     -10.248608      -278.8788
   5   2.0000     -10.238752      -278.6106
   6   2.0000     -10.194015      -277.3933
   7   2.0000      -1.076005       -29.2796
   8   2.0000      -0.985309       -26.8116
   9   2.0000      -0.903495       -24.5854
  10   2.0000      -0.836003       -22.7488
  11   2.0000      -0.770130       -20.9563
  12   2.0000      -0.700428       -19.0596
  13   2.0000      -0.676696       -18.4138
  14   2.0000      -0.639204       -17.3936
  15   2.0000      -0.609160       -16.5761
  16   2.0000      -0.562930       -15.3181
  17   2.0000      -0.541683       -14.7399
  18   2.0000      -0.538933       -14.6651
  19   2.0000      -0.503878       -13.7112
  20   2.0000      -0.491559       -13.3760
  21   2.0000      -0.469520       -12.7763
  22   2.0000      -0.454764       -12.3748
  23   2.0000      -0.422181       -11.4881
  24   2.0000      -0.406523       -11.0621
  25   2.0000      -0.404751       -11.0138
  26   2.0000      -0.359755        -9.7894
  27   2.0000      -0.247937        -6.7467
  28   0.0000       0.103159         2.8071
  29   0.0000       0.131648         3.5823
  30   0.0000       0.133563         3.6344
  31   0.0000       0.156946         4.2707
  32   0.0000       0.165514         4.5039

MULLIKEN ATOMIC CHARGES
-----------------------
   0 C :   -0.234873
   1 C :   -0.112448
   2 C :   -0.329231
   3 H :    0.084654
   4 C :   -0.352065
   5 H :    0.082406
   6 H :    0.099774
   7 H :    0.078842
   8 C :    0.340484
   9 N :   -0.498385
  10 N :   -0.519012
  11 H :    0.244407
  12 H :    0.227247
  13 H :    0.084891
  14 H :    0.244043
  15 H :    0.232571
  16 H :    0.109986
  17 H :    0.101169
  18 H :    0.115540
Sum of atomic charges:    0.0000000

LOEWDIN ATOMIC CHARGES
----------------------
   0 C :   -0.286691
   1 C :   -0.289224
   2 C :   -0.277655
   3 H :    0.130070
   4 C :   -0.304172
   5 H :    0.125066
   6 H :    0.141399
   7 H :    0.129626
   8 C :   -0.450226
   9 N :   -0.023324
  10 N :   -0.033349
  11 H :    0.170815
  12 H :    0.161183
  13 H :    0.119858
  14 H :    0.182711
  15 H :    0.164044
  16 H :    0.112161
  17 H :    0.112980
  18 H :    0.114728

  Mayer bond orders larger than 0.100000
B(  0-C ,  1-C ) :   0.9627 B(  0-C ,  2-C ) :   0.9761 B(  0-C ,  6-H ) :   0.9900
B(  0-C ,  7-H ) :   0.9959 B(  1-C ,  3-H ) :   0.9698 B(  1-C ,  4-C ) :   0.9774
B(  1-C ,  5-H ) :   0.9802 B(  2-C ,  8-C ) :   1.6700 B(  2-C , 13-H ) :   1.0001
B(  4-C , 16-H ) :   0.9833 B(  4-C , 17-H ) :   0.9804 B(  4-C , 18-H ) :   0.9790
B(  8-C ,  9-N ) :   1.1695 B(  8-C , 10-N ) :   1.1476 B(  9-N , 14-H ) :   0.9177
B(  9-N , 15-H ) :   0.9210 B( 10-N , 11-H ) :   0.9193 B( 10-N , 12-H ) :   0.9236

Dispersion correction           -0.005285915
FINAL SINGLE POINT ENERGY      -307.262017744229

DIPOLE MOMENT
-------------
                                X             Y             Z
Electronic contribution:     -0.66923      -2.70621       5.60949
Nuclear contribution   :      0.88816       2.11069      -4.95634
                        -----------------------------------------
Total Dipole Moment    :      0.21893      -0.59552       0.65315
                        -----------------------------------------
Magnitude (a.u.)       :      0.91060
Magnitude (Debye)      :      2.31455

Rotational constants in cm-1:     0.162296     0.048922     0.043870
Rotational constants in MHz :  4865.524396  1466.649652  1315.198467

                             ****ORCA TERMINATED NORMALLY****
TOTAL RUN TIME: 0 days 0 hours 0 minutes 28 seconds 741 msec
