                         Program Version 5.0.0 -  RELEASE  -
|  1> !wB97X-D3 RIJCOSX def2-TZVP def2/J TightSCF
|  2> *xyz 0 1
|  3> C          3.48828        1.60092       -1.52204
|  4> C          4.34297        1.31342       -2.75683
|  5> N          2.81029        0.42878       -1.01420
|  6> H          5.13203        0.60499       -2.48447
|  7> C          3.53590        0.74925       -3.92460
|  8> H          4.84125        2.24214       -3.05408
|  9> H          2.71455        2.33145       -1.76030
| 10> H          4.09099        2.06315       -0.73338
| 11> C          3.29098       -0.41802       -0.12908
| 12> C          2.51754       -1.43202        0.23936
| 13> N          4.53549       -0.28441        0.39580
| 14> H          5.04363        0.57189        0.22290
| 15> H          4.72335       -0.73327        1.28180
| 16> H          1.93479        0.10230       -1.40379
| 17> H          1.67464       -1.50562       -0.31610
| 18> H          2.92850       -2.21850        0.72549
| 19> H          4.18704        0.56990       -4.75451
| 20> H          2.78096        1.45217       -4.20898
| 21> H          3.07436       -0.16949       -3.62832
| 22> *
| 23> %MaxCore 64000
| 24>
| 25> %pal nprocs 18
| 26> end
| 27>
| 28> %scf
| 29>   MaxIter 150
| 30> end
| 31>
| 32>
| 33>                          ****END OF INPUT****

CARTESIAN COORDINATES (ANGSTROEM)
---------------------------------
  C      3.488280    1.600920   -1.522040
  C      4.342970    1.313420   -2.756830
  N      2.810290    0.428780   -1.014200
  H      5.132030    0.604990   -2.484470
  C      3.535900    0.749250   -3.924600
  H      4.841250    2.242140   -3.054080
  H      2.714550    2.331450   -1.760300
  H      4.090990    2.063150   -0.733380
  C      3.290980   -0.418020   -0.129080
  C      2.517540   -1.432020    0.239360
  N      4.535490   -0.284410    0.395800
  H      5.043630    0.571890    0.222900
  H      4.723350   -0.733270    1.281800
  H      1.934790    0.102300   -1.403790
  H      1.674640   -1.505620   -0.316100
  H      2.928500   -2.218500    0.725490
  H      4.187040    0.569900   -4.754510
  H      2.780960    1.452170   -4.208980
  H      3.074360   -0.169490   -3.628320

 Total Charge           Charge          ....    0
 Multiplicity           Mult            ....    1
 Number of Electrons    NEL             ....   56
 Basis Dimension        Dim             ....  289

ORBITAL ENERGIES
----------------

  NO   OCC          E(Eh)            E(eV)
   0   2.0000     -14.421953      -392.4413
   1   2.0000     -14.419856      -392.3842
   2   2.0000     -10.320083      -280.8237
   3   2.0000     -10.315776      -280.7065
   4   2.0000     -10.275773      -279.6180
   5   2.0000     -10.260660      -279.2068
   6   2.0000     -10.179385      -276.9951
   7   2.0000      -1.087675       -29.5971
   8   2.0000      -0.999718       -27.2037
   9   2.0000      -0.909167       -24.7397
  10   2.0000      -0.842219       -22.9179
  11   2.0000      -0.783409       -21.3177
  12   2.0000      -0.716663       -19.5014
  13   2.0000      -0.696782       -18.9604
  14   2.0000      -0.636243       -17.3131
  15   2.0000      -0.604485       -16.4489
  16   2.0000      -0.578694       -15.7471
  17   2.0000      -0.556697       -15.1485
  18   2.0000      -0.542973       -14.7750
  19   2.0000      -0.510846       -13.9008
  20   2.0000      -0.487721       -13.2716
  21   2.0000      -0.480835       -13.0842
  22   2.0000      -0.473488       -12.8843
  23   2.0000      -0.445116       -12.1122
  24   2.0000      -0.444342       -12.0911
  25   2.0000      -0.435394       -11.8477
  26   2.0000      -0.350834        -9.5467
  27   2.0000      -0.248131        -6.7520
  28   0.0000       0.102856         2.7989
  29   0.0000       0.121202         3.2981
  30   0.0000       0.134711         3.6657
  31   0.0000       0.152673         4.1544
  32   0.0000       0.160355         4.3635

MULLIKEN ATOMIC CHARGES
-----------------------
   0 C :   -0.192047
   1 C :   -0.104795
   2 N :   -0.334844
   3 H :    0.100492
   4 C :   -0.373530
   5 H :    0.092899
   6 H :    0.127844
   7 H :    0.115175
   8 C :    0.389546
   9 C :   -0.526699
  10 N :   -0.513407
  11 H :    0.225445
  12 H :    0.256345
  13 H :    0.233355
  14 H :    0.053640
  15 H :    0.100893
  16 H :    0.121594
  17 H :    0.107181
  18 H :    0.120913
Sum of atomic charges:    0.0000000

LOEWDIN ATOMIC CHARGES
----------------------
   0 C :   -0.294703
   1 C :   -0.297012
   2 N :    0.127344
   3 H :    0.134340
   4 C :   -0.304816
   5 H :    0.132185
   6 H :    0.134184
   7 H :    0.129045
   8 C :   -0.453555
   9 C :   -0.351430
  10 N :   -0.028833
  11 H :    0.157758
  12 H :    0.177428
  13 H :    0.198078
  14 H :    0.096357
  15 H :    0.096355
  16 H :    0.117347
  17 H :    0.114215
  18 H :    0.115713

  Mayer bond orders larger than 0.100000
B(  0-C ,  1-C ) :   0.9493 B(  0-C ,  2-N ) :   0.9145 B(  0-C ,  6-H ) :   0.9825
B(  0-C ,  7-H ) :   0.9867 B(  1-C ,  3-H ) :   0.9640 B(  1-C ,  4-C ) :   0.9625
B(  1-C ,  5-H ) :   0.9720 B(  2-N ,  8-C ) :   1.1979 B(  2-N , 13-H ) :   0.9205
B(  4-C , 16-H ) :   0.9805 B(  4-C , 17-H ) :   0.9784 B(  4-C , 18-H ) :   0.9805
B(  8-C ,  9-C ) :   1.6275 B(  8-C , 10-N ) :   1.1223 B(  9-C , 14-H ) :   1.0133
B(  9-C , 15-H ) :   1.0102 B( 10-N , 11-H ) :   0.9225 B( 10-N , 12-H ) :   0.9197

Dispersion correction           -0.005352652
FINAL SINGLE POINT ENERGY      -307.250378816220

DIPOLE MOMENT
-------------
                                X             Y             Z
Electronic contribution:     -0.25466      -0.76490       4.27627
Nuclear contribution   :      0.82404       1.70307      -4.68174
                        -----------------------------------------
Total Dipole Moment    :      0.56938       0.93817      -0.40547
                        -----------------------------------------
Magnitude (a.u.)       :      1.16994
Magnitude (Debye)      :      2.97376

Rotational constants in cm-1:     0.164049     0.050262     0.045260
Rotational constants in MHz :  4918.051182  1506.829450  1356.872102

                             ****ORCA TERMINATED NORMALLY****
TOTAL RUN TIME: 0 days 0 hours 0 minutes 22 seconds 128 msec
