                         Program Version 5.0.0 -  RELEASE  -
|  1> !wB97X-D3 RIJCOSX def2-TZVP def2/J TightSCF
|  2> *xyz 0 1
|  3> C          3.48828        1.60092       -1.52204
|  4> C          4.34297        1.31342       -2.75683
|  5> N          2.81029        0.42878       -1.01420
|  6> H          5.13203        0.60499       -2.48447
|  7> C          3.53590        0.74925       -3.92460
|  8> H          4.84125        2.24214       -3.05408
|  9> H          2.71455        2.33145       -1.76030
| 10> H          4.09099        2.06315       -0.73338
| 11> C          3.29098       -0.41802       -0.12908
| 12> N          2.51754       -1.43202        0.23936
| 13> C          4.53549       -0.28441        0.39580
| 14> H          5.04363        0.57189        0.22290
| 15> H          4.72335       -0.73327        1.28180
| 16> H          1.93479        0.10230       -1.40379
| 17> H          1.67464       -1.50562       -0.31610
| 18> H          2.92850       -2.21850        0.72549
| 19> H          4.18704        0.56990       -4.75451
| 20> H          2.78096        1.45217       -4.20898
| 21> H          3.07436       -0.16949       -3.62832
| 22> *
| 23> %MaxCore 64000
| 24>
| 25> %pal nprocs 18
| 26> end
| 27>
| 28> %scf
| 29>   MaxIter 150
| 30> end
| 31>
| 32>
| 33>                          ****END OF INPUT****

CARTESIAN COORDINATES (ANGSTROEM)
---------------------------------
  C      3.488280    1.600920   -1.522040
  C      4.342970    1.313420   -2.756830
  N      2.810290    0.428780   -1.014200
  H      5.132030    0.604990   -2.484470
  C      3.535900    0.749250   -3.924600
  H      4.841250    2.242140   -3.054080
  H      2.714550    2.331450   -1.760300
  H      4.090990    2.063150   -0.733380
  C      3.290980   -0.418020   -0.129080
  N      2.517540   -1.432020    0.239360
  C      4.535490   -0.284410    0.395800
  H      5.043630    0.571890    0.222900
  H      4.723350   -0.733270    1.281800
  H      1.934790    0.102300   -1.403790
  H      1.674640   -1.505620   -0.316100
  H      2.928500   -2.218500    0.725490
  H      4.187040    0.569900   -4.754510
  H      2.780960    1.452170   -4.208980
  H      3.074360   -0.169490   -3.628320

 Total Charge           Charge          ....    0
 Multiplicity           Mult            ....    1
 Number of Electrons    NEL             ....   56
 Basis Dimension        Dim             ....  289

ORBITAL ENERGIES
----------------

  NO   OCC          E(Eh)            E(eV)
   0   2.0000     -14.428071      -392.6078
   1   2.0000     -14.422351      -392.4521
   2   2.0000     -10.323028      -280.9039
   3   2.0000     -10.308166      -280.4995
   4   2.0000     -10.268051      -279.4079
   5   2.0000     -10.257275      -279.1146
   6   2.0000     -10.180282      -277.0196
   7   2.0000      -1.096994       -29.8507
   8   2.0000      -1.005733       -27.3674
   9   2.0000      -0.896713       -24.4008
  10   2.0000      -0.822240       -22.3743
  11   2.0000      -0.807251       -21.9664
  12   2.0000      -0.718301       -19.5460
  13   2.0000      -0.662114       -18.0170
  14   2.0000      -0.646160       -17.5829
  15   2.0000      -0.631997       -17.1975
  16   2.0000      -0.574102       -15.6221
  17   2.0000      -0.552397       -15.0315
  18   2.0000      -0.538435       -14.6516
  19   2.0000      -0.500838       -13.6285
  20   2.0000      -0.499999       -13.6057
  21   2.0000      -0.475842       -12.9483
  22   2.0000      -0.464305       -12.6344
  23   2.0000      -0.443215       -12.0605
  24   2.0000      -0.437112       -11.8944
  25   2.0000      -0.428493       -11.6599
  26   2.0000      -0.344757        -9.3813
  27   2.0000      -0.250929        -6.8281
  28   0.0000       0.094588         2.5739
  29   0.0000       0.127956         3.4819
  30   0.0000       0.139936         3.8078
  31   0.0000       0.154894         4.2149
  32   0.0000       0.163709         4.4547

MULLIKEN ATOMIC CHARGES
-----------------------
   0 C :   -0.148094
   1 C :   -0.126117
   2 N :   -0.347233
   3 H :    0.125503
   4 C :   -0.371449
   5 H :    0.094597
   6 H :    0.121504
   7 H :    0.135098
   8 C :    0.374664
   9 N :   -0.492493
  10 C :   -0.544547
  11 H :    0.078672
  12 H :    0.094318
  13 H :    0.197799
  14 H :    0.211405
  15 H :    0.266768
  16 H :    0.121492
  17 H :    0.104220
  18 H :    0.103893
Sum of atomic charges:    0.0000000

LOEWDIN ATOMIC CHARGES
----------------------
   0 C :   -0.277336
   1 C :   -0.292228
   2 N :    0.125510
   3 H :    0.141159
   4 C :   -0.308116
   5 H :    0.133318
   6 H :    0.131661
   7 H :    0.140513
   8 C :   -0.464099
   9 N :   -0.013976
  10 C :   -0.368974
  11 H :    0.092592
  12 H :    0.094068
  13 H :    0.178908
  14 H :    0.164000
  15 H :    0.182608
  16 H :    0.116963
  17 H :    0.112784
  18 H :    0.110645

  Mayer bond orders larger than 0.100000
B(  0-C ,  1-C ) :   0.9620 B(  0-C ,  2-N ) :   0.9023 B(  0-C ,  6-H ) :   0.9835
B(  0-C ,  7-H ) :   0.9733 B(  1-C ,  3-H ) :   0.9656 B(  1-C ,  4-C ) :   0.9589
B(  1-C ,  5-H ) :   0.9749 B(  2-N ,  8-C ) :   1.1900 B(  2-N , 13-H ) :   0.9279
B(  4-C , 16-H ) :   0.9817 B(  4-C , 17-H ) :   0.9792 B(  4-C , 18-H ) :   0.9823
B(  8-C ,  9-N ) :   1.1454 B(  8-C , 10-C ) :   1.6168 B(  9-N , 14-H ) :   0.9277
B(  9-N , 15-H ) :   0.9135 B( 10-C , 11-H ) :   1.0150 B( 10-C , 12-H ) :   1.0010

Dispersion correction           -0.005315348
FINAL SINGLE POINT ENERGY      -307.249957136108

DIPOLE MOMENT
-------------
                                X             Y             Z
Electronic contribution:     -2.28609      -2.04805       4.04586
Nuclear contribution   :      1.26608       1.95446      -4.64747
                        -----------------------------------------
Total Dipole Moment    :     -1.02001      -0.09359      -0.60161
                        -----------------------------------------
Magnitude (a.u.)       :      1.18791
Magnitude (Debye)      :      3.01942

Rotational constants in cm-1:     0.166109     0.049557     0.044716
Rotational constants in MHz :  4979.835529  1485.675017  1340.540851

                             ****ORCA TERMINATED NORMALLY****
TOTAL RUN TIME: 0 days 0 hours 0 minutes 25 seconds 682 msec
