                         Program Version 5.0.0 -  RELEASE  -
|  1> !wB97X-D3 RIJCOSX def2-TZVP def2/J TightSCF xyzfile
|  2>
|  3> *xyzfile 0 1 D1.xyz
|  4>
|  5> %MaxCore 64000
|  6>
|  7> %pal nprocs 18
|  8> end
|  9>
| 10> %scf
| 11>   MaxIter 150
| 12> end
| 13>
| 14>
| 15>                          ****END OF INPUT****

CARTESIAN COORDINATES (ANGSTROEM)
---------------------------------
  C      3.488276    1.600919   -1.522040
  C      4.342970    1.313419   -2.756826
  C      2.810285    0.428783   -1.014196
  H      5.132033    0.604994   -2.484466
  C      3.535896    0.749253   -3.924604
  H      4.841247    2.242136   -3.054083
  H      2.991617   -0.132199   -3.574137
  H      4.225505    0.392784   -4.695962
  C      2.564776    1.750890   -4.544523
  H      1.918749    2.171679   -3.769419
  C      1.686235    1.161657   -5.650111
  H      3.132494    2.594775   -4.951604
  C      0.839616   -0.037582   -5.220473
  H      2.323886    0.866395   -6.490796
  H      1.029518    1.951850   -6.029329
  C     -0.151019    0.254955   -4.094256
  H      1.499442   -0.857141   -4.922958
  H      0.290097   -0.410143   -6.091131
  H      0.328265    0.833022   -3.299125
  C     -0.721843   -0.999513   -3.439309
  H     -0.957367    0.884951   -4.485450
  H     -1.083403   -1.697555   -4.205656
  H     -1.581056   -0.723848   -2.820490
  C      0.287250   -1.711771   -2.527405
  H      1.131780   -2.067380   -3.159396
  H     -0.204137   -2.637326   -2.170480
  F      0.710505   -0.927506   -1.481767
  H      2.714548    2.331455   -1.760302
  H      4.090991    2.063151   -0.733382
  C      3.290978   -0.418021   -0.129083
  N      2.517536   -1.432017    0.239360
  N      4.535490   -0.284410    0.395800
  H      5.043627    0.571888    0.222899
  H      4.723346   -0.733273    1.281800
  H      1.934787    0.102305   -1.403788
  H      1.674638   -1.505616   -0.316095
  H      2.928503   -2.218502    0.725494

 Total Charge           Charge          ....    0
 Multiplicity           Mult            ....    1
 Number of Electrons    NEL             ....  112
 Basis Dimension        Dim             ....  572

ORBITAL ENERGIES
----------------

  NO   OCC          E(Eh)            E(eV)
   0   2.0000     -24.800353      -674.8519
   1   2.0000     -14.404870      -391.9764
   2   2.0000     -14.388143      -391.5213
   3   2.0000     -10.365072      -282.0480
   4   2.0000     -10.296674      -280.1868
   5   2.0000     -10.286322      -279.9051
   6   2.0000     -10.271040      -279.4892
   7   2.0000     -10.267053      -279.3807
   8   2.0000     -10.262482      -279.2563
   9   2.0000     -10.254548      -279.0404
  10   2.0000     -10.248787      -278.8837
  11   2.0000     -10.243486      -278.7394
  12   2.0000     -10.236534      -278.5503
  13   2.0000     -10.166273      -276.6383
  14   2.0000      -1.351284       -36.7703
  15   2.0000      -1.057312       -28.7709
  16   2.0000      -0.967761       -26.3341
  17   2.0000      -0.936962       -25.4960
  18   2.0000      -0.911471       -24.8024
  19   2.0000      -0.881340       -23.9825
  20   2.0000      -0.846042       -23.0220
  21   2.0000      -0.806441       -21.9444
  22   2.0000      -0.779459       -21.2102
  23   2.0000      -0.744667       -20.2634
  24   2.0000      -0.712885       -19.3986
  25   2.0000      -0.696393       -18.9498
  26   2.0000      -0.671893       -18.2831
  27   2.0000      -0.654936       -17.8217
  28   2.0000      -0.638446       -17.3730
  29   2.0000      -0.624345       -16.9893
  30   2.0000      -0.614092       -16.7103
  31   2.0000      -0.598364       -16.2823
  32   2.0000      -0.588625       -16.0173
  33   2.0000      -0.565662       -15.3924
  34   2.0000      -0.556486       -15.1427
  35   2.0000      -0.542310       -14.7570
  36   2.0000      -0.535609       -14.5747
  37   2.0000      -0.522321       -14.2131
  38   2.0000      -0.512030       -13.9331
  39   2.0000      -0.500389       -13.6163
  40   2.0000      -0.492139       -13.3918
  41   2.0000      -0.475290       -12.9333
  42   2.0000      -0.467679       -12.7262
  43   2.0000      -0.461119       -12.5477
  44   2.0000      -0.455734       -12.4012
  45   2.0000      -0.452796       -12.3212
  46   2.0000      -0.431082       -11.7303
  47   2.0000      -0.423230       -11.5167
  48   2.0000      -0.413049       -11.2396
  49   2.0000      -0.410363       -11.1665
  50   2.0000      -0.406308       -11.0562
  51   2.0000      -0.391267       -10.6469
  52   2.0000      -0.384848       -10.4722
  53   2.0000      -0.379011       -10.3134
  54   2.0000      -0.341942        -9.3047
  55   2.0000      -0.229582        -6.2473
  56   0.0000       0.109186         2.9711
  57   0.0000       0.118813         3.2331
  58   0.0000       0.125043         3.4026
  59   0.0000       0.132148         3.5959
  60   0.0000       0.143570         3.9067

MULLIKEN ATOMIC CHARGES
-----------------------
   0 C :   -0.295184
   1 C :   -0.087301
   2 C :   -0.362846
   3 H :    0.094685
   4 C :   -0.198153
   5 H :    0.077296
   6 H :    0.092608
   7 H :    0.095067
   8 C :   -0.261628
   9 H :    0.109254
  10 C :   -0.133220
  11 H :    0.100571
  12 C :   -0.260587
  13 H :    0.100746
  14 H :    0.098356
  15 C :   -0.214026
  16 H :    0.104492
  17 H :    0.107328
  18 H :    0.125025
  19 C :   -0.164472
  20 H :    0.109320
  21 H :    0.110551
  22 H :    0.115781
  23 C :   -0.038902
  24 H :    0.116040
  25 H :    0.121989
  26 F :   -0.233694
  27 H :    0.107984
  28 H :    0.084735
  29 C :    0.302177
  30 N :   -0.514391
  31 N :   -0.520385
  32 H :    0.239853
  33 H :    0.222144
  34 H :    0.175241
  35 H :    0.254839
  36 H :    0.218706
Sum of atomic charges:   -0.0000000

LOEWDIN ATOMIC CHARGES
----------------------
   0 C :   -0.287170
   1 C :   -0.262484
   2 C :   -0.286334
   3 H :    0.133433
   4 C :   -0.265498
   5 H :    0.127621
   6 H :    0.133194
   7 H :    0.132468
   8 C :   -0.268240
   9 H :    0.131678
  10 C :   -0.267799
  11 H :    0.135349
  12 C :   -0.270473
  13 H :    0.135563
  14 H :    0.134931
  15 C :   -0.266765
  16 H :    0.130590
  17 H :    0.134311
  18 H :    0.141872
  19 C :   -0.272129
  20 H :    0.137165
  21 H :    0.144264
  22 H :    0.139898
  23 C :   -0.339086
  24 H :    0.125723
  25 H :    0.125694
  26 F :    0.143591
  27 H :    0.137149
  28 H :    0.127790
  29 C :   -0.453119
  30 N :   -0.032144
  31 N :   -0.039596
  32 H :    0.168342
  33 H :    0.158177
  34 H :    0.115159
  35 H :    0.159783
  36 H :    0.157091

  Mayer bond orders larger than 0.100000
B(  0-C ,  1-C ) :   0.9345 B(  0-C ,  2-C ) :   0.9248 B(  0-C , 27-H ) :   1.0194
B(  0-C , 28-H ) :   1.0048 B(  1-C ,  3-H ) :   0.9690 B(  1-C ,  4-C ) :   0.9916
B(  1-C ,  5-H ) :   0.9835 B(  2-C , 29-C ) :   1.6859 B(  2-C , 34-H ) :   0.9688
B(  4-C ,  6-H ) :   0.9758 B(  4-C ,  7-H ) :   0.9747 B(  4-C ,  8-C ) :   0.9488
B(  8-C ,  9-H ) :   0.9958 B(  8-C , 10-C ) :   0.9738 B(  8-C , 11-H ) :   0.9719
B( 10-C , 12-C ) :   0.9730 B( 10-C , 13-H ) :   0.9776 B( 10-C , 14-H ) :   0.9817
B( 12-C , 15-C ) :   0.9423 B( 12-C , 16-H ) :   0.9936 B( 12-C , 17-H ) :   0.9694
B( 15-C , 18-H ) :   0.9871 B( 15-C , 19-C ) :   0.9651 B( 15-C , 20-H ) :   0.9670
B( 19-C , 21-H ) :   0.9640 B( 19-C , 22-H ) :   0.9710 B( 19-C , 23-C ) :   1.0040
B( 23-C , 24-H ) :   0.9765 B( 23-C , 25-H ) :   0.9655 B( 23-C , 26-F ) :   0.9017
B( 29-C , 30-N ) :   1.2059 B( 29-C , 31-N ) :   1.1428 B( 30-N , 35-H ) :   0.8867
B( 30-N , 36-H ) :   0.9264 B( 31-N , 32-H ) :   0.9201 B( 31-N , 33-H ) :   0.9249

Dispersion correction           -0.017675501
FINAL SINGLE POINT ENERGY      -642.395651447483

DIPOLE MOMENT
-------------
                                X             Y             Z
Electronic contribution:     -1.56617      -4.90300      10.75608
Nuclear contribution   :      1.15699       3.94991     -10.89335
                        -----------------------------------------
Total Dipole Moment    :     -0.40918      -0.95309      -0.13727
                        -----------------------------------------
Magnitude (a.u.)       :      1.04625
Magnitude (Debye)      :      2.65937

Rotational constants in cm-1:     0.026548     0.016177     0.010851
Rotational constants in MHz :   795.884848   484.988695   325.313537

                             ****ORCA TERMINATED NORMALLY****
TOTAL RUN TIME: 0 days 0 hours 1 minutes 36 seconds 226 msec
