                         Program Version 5.0.0 -  RELEASE  -
|  1> !wB97X-D3 RIJCOSX def2-TZVP def2/J TightSCF xyzfile
|  2>
|  3> *xyzfile 0 1 D2.xyz
|  4>
|  5> %MaxCore 64000
|  6>
|  7> %pal nprocs 18
|  8> end
|  9>
| 10> %scf
| 11>   MaxIter 150
| 12> end
| 13>
| 14>
| 15>                          ****END OF INPUT****

CARTESIAN COORDINATES (ANGSTROEM)
---------------------------------
  C      3.488276    1.600919   -1.522040
  C      4.342970    1.313419   -2.756826
  N      2.810285    0.428783   -1.014196
  H      5.132033    0.604994   -2.484466
  C      3.535896    0.749253   -3.924604
  H      4.841247    2.242136   -3.054083
  H      2.991617   -0.132199   -3.574137
  H      4.225505    0.392784   -4.695962
  C      2.564776    1.750890   -4.544523
  H      1.918749    2.171679   -3.769419
  C      1.686235    1.161657   -5.650111
  H      3.132494    2.594775   -4.951604
  C      0.839616   -0.037582   -5.220473
  H      2.323886    0.866395   -6.490796
  H      1.029518    1.951850   -6.029329
  C     -0.151019    0.254955   -4.094256
  H      1.499442   -0.857141   -4.922958
  H      0.290097   -0.410143   -6.091131
  H      0.328265    0.833022   -3.299125
  C     -0.721843   -0.999513   -3.439309
  H     -0.957367    0.884951   -4.485450
  H     -1.083403   -1.697555   -4.205656
  H     -1.581056   -0.723848   -2.820490
  C      0.287250   -1.711771   -2.527405
  H      1.131780   -2.067380   -3.159396
  H     -0.204137   -2.637326   -2.170480
  F      0.710505   -0.927506   -1.481767
  H      2.714548    2.331455   -1.760302
  H      4.090991    2.063151   -0.733382
  C      3.290978   -0.418021   -0.129083
  C      2.517536   -1.432017    0.239360
  N      4.535490   -0.284410    0.395800
  H      5.043627    0.571888    0.222899
  H      4.723346   -0.733273    1.281800
  H      1.934787    0.102305   -1.403788
  H      1.674638   -1.505616   -0.316095
  H      2.928503   -2.218502    0.725494

 Total Charge           Charge          ....    0
 Multiplicity           Mult            ....    1
 Number of Electrons    NEL             ....  112
 Basis Dimension        Dim             ....  572

ORBITAL ENERGIES
----------------

  NO   OCC          E(Eh)            E(eV)
   0   2.0000     -24.798454      -674.8002
   1   2.0000     -14.403847      -391.9486
   2   2.0000     -14.394849      -391.7037
   3   2.0000     -10.364092      -282.0213
   4   2.0000     -10.302043      -280.3328
   5   2.0000     -10.300294      -280.2853
   6   2.0000     -10.288448      -279.9629
   7   2.0000     -10.278459      -279.6911
   8   2.0000     -10.274938      -279.5953
   9   2.0000     -10.272946      -279.5411
  10   2.0000     -10.269790      -279.4552
  11   2.0000     -10.267603      -279.3957
  12   2.0000     -10.266787      -279.3735
  13   2.0000     -10.151241      -276.2293
  14   2.0000      -1.349360       -36.7180
  15   2.0000      -1.068496       -29.0752
  16   2.0000      -0.983183       -26.7538
  17   2.0000      -0.945177       -25.7196
  18   2.0000      -0.917107       -24.9557
  19   2.0000      -0.889310       -24.1994
  20   2.0000      -0.842722       -22.9316
  21   2.0000      -0.818236       -22.2653
  22   2.0000      -0.782896       -21.3037
  23   2.0000      -0.755733       -20.5645
  24   2.0000      -0.721506       -19.6332
  25   2.0000      -0.705140       -19.1878
  26   2.0000      -0.684230       -18.6189
  27   2.0000      -0.667190       -18.1552
  28   2.0000      -0.640019       -17.4158
  29   2.0000      -0.625779       -17.0283
  30   2.0000      -0.613070       -16.6825
  31   2.0000      -0.598813       -16.2945
  32   2.0000      -0.586738       -15.9659
  33   2.0000      -0.575337       -15.6557
  34   2.0000      -0.568401       -15.4670
  35   2.0000      -0.553497       -15.0614
  36   2.0000      -0.537710       -14.6318
  37   2.0000      -0.530536       -14.4366
  38   2.0000      -0.526937       -14.3387
  39   2.0000      -0.511899       -13.9295
  40   2.0000      -0.493546       -13.4301
  41   2.0000      -0.478688       -13.0258
  42   2.0000      -0.470267       -12.7966
  43   2.0000      -0.467017       -12.7082
  44   2.0000      -0.462015       -12.5721
  45   2.0000      -0.454935       -12.3794
  46   2.0000      -0.440471       -11.9858
  47   2.0000      -0.436343       -11.8735
  48   2.0000      -0.431090       -11.7306
  49   2.0000      -0.421165       -11.4605
  50   2.0000      -0.413189       -11.2434
  51   2.0000      -0.408404       -11.1132
  52   2.0000      -0.405309       -11.0290
  53   2.0000      -0.401640       -10.9292
  54   2.0000      -0.333357        -9.0711
  55   2.0000      -0.228192        -6.2094
  56   0.0000       0.106709         2.9037
  57   0.0000       0.113485         3.0881
  58   0.0000       0.120786         3.2867
  59   0.0000       0.126751         3.4491
  60   0.0000       0.135885         3.6976

MULLIKEN ATOMIC CHARGES
-----------------------
   0 C :   -0.264571
   1 C :   -0.068026
   2 N :   -0.314771
   3 H :    0.110883
   4 C :   -0.254120
   5 H :    0.088856
   6 H :    0.103530
   7 H :    0.107862
   8 C :   -0.248854
   9 H :    0.103096
  10 C :   -0.137864
  11 H :    0.105889
  12 C :   -0.265513
  13 H :    0.105610
  14 H :    0.102985
  15 C :   -0.216868
  16 H :    0.108675
  17 H :    0.112779
  18 H :    0.108337
  19 C :   -0.163609
  20 H :    0.113251
  21 H :    0.111462
  22 H :    0.118929
  23 C :   -0.025698
  24 H :    0.113584
  25 H :    0.129069
  26 F :   -0.234362
  27 H :    0.138325
  28 H :    0.118306
  29 C :    0.382669
  30 C :   -0.587095
  31 N :   -0.520989
  32 H :    0.220540
  33 H :    0.251969
  34 H :    0.243516
  35 H :    0.109709
  36 H :    0.092507
Sum of atomic charges:   -0.0000000

LOEWDIN ATOMIC CHARGES
----------------------
   0 C :   -0.296477
   1 C :   -0.270647
   2 N :    0.122079
   3 H :    0.137084
   4 C :   -0.267846
   5 H :    0.134283
   6 H :    0.133487
   7 H :    0.137056
   8 C :   -0.269954
   9 H :    0.129783
  10 C :   -0.266586
  11 H :    0.136649
  12 C :   -0.270050
  13 H :    0.136944
  14 H :    0.136405
  15 C :   -0.268408
  16 H :    0.131194
  17 H :    0.136214
  18 H :    0.136213
  19 C :   -0.272767
  20 H :    0.138028
  21 H :    0.144614
  22 H :    0.140611
  23 C :   -0.333422
  24 H :    0.125317
  25 H :    0.130178
  26 F :    0.143481
  27 H :    0.130628
  28 H :    0.127432
  29 C :   -0.455800
  30 C :   -0.365886
  31 N :   -0.035630
  32 H :    0.154837
  33 H :    0.174695
  34 H :    0.173615
  35 H :    0.091470
  36 H :    0.091177

  Mayer bond orders larger than 0.100000
B(  0-C ,  1-C ) :   0.9145 B(  0-C ,  2-N ) :   0.9191 B(  0-C , 27-H ) :   0.9980
B(  0-C , 28-H ) :   0.9926 B(  1-C ,  3-H ) :   0.9649 B(  1-C ,  4-C ) :   0.9695
B(  1-C ,  5-H ) :   0.9771 B(  2-N , 29-C ) :   1.2139 B(  2-N , 34-H ) :   0.8863
B(  4-C ,  6-H ) :   0.9841 B(  4-C ,  7-H ) :   0.9721 B(  4-C ,  8-C ) :   0.9449
B(  8-C ,  9-H ) :   0.9936 B(  8-C , 10-C ) :   0.9774 B(  8-C , 11-H ) :   0.9710
B( 10-C , 12-C ) :   0.9675 B( 10-C , 13-H ) :   0.9781 B( 10-C , 14-H ) :   0.9817
B( 12-C , 15-C ) :   0.9386 B( 12-C , 16-H ) :   0.9960 B( 12-C , 17-H ) :   0.9691
B( 15-C , 18-H ) :   0.9939 B( 15-C , 19-C ) :   0.9617 B( 15-C , 20-H ) :   0.9662
B( 19-C , 21-H ) :   0.9638 B( 19-C , 22-H ) :   0.9720 B( 19-C , 23-C ) :   0.9990
B( 23-C , 24-H ) :   0.9751 B( 23-C , 25-H ) :   0.9701 B( 23-C , 26-F ) :   0.8901
B( 29-C , 30-C ) :   1.6287 B( 29-C , 31-N ) :   1.1077 B( 30-C , 35-H ) :   1.0211
B( 30-C , 36-H ) :   1.0049 B( 31-N , 32-H ) :   0.9238 B( 31-N , 33-H ) :   0.9214

Dispersion correction           -0.017724603
FINAL SINGLE POINT ENERGY      -642.383874734730

DIPOLE MOMENT
-------------
                                X             Y             Z
Electronic contribution:     -1.25028      -3.11886       9.43871
Nuclear contribution   :      1.09892       3.58083     -10.64472
                        -----------------------------------------
Total Dipole Moment    :     -0.15136       0.46198      -1.20600
                        -----------------------------------------
Magnitude (a.u.)       :      1.30030
Magnitude (Debye)      :      3.30510

Rotational constants in cm-1:     0.026768     0.016312     0.010954
Rotational constants in MHz :   802.489946   489.033275   328.388904

                             ****ORCA TERMINATED NORMALLY****
TOTAL RUN TIME: 0 days 0 hours 1 minutes 48 seconds 711 msec
