                         Program Version 5.0.0 -  RELEASE  -
|  1> !M062X D3Zero RIJCOSX def2-TZVP def2/J TightSCF
|  2> *xyz -1 1
|  3> C         -0.10608        1.76991       -4.08984
|  4> C         -0.25875        1.00432       -5.40983
|  5> C          0.39596       -0.37070       -5.33994
|  6> H          0.23915        1.56939       -6.20125
|  7> H         -1.30936        0.88869       -5.68245
|  8> O         -0.32633       -1.39040       -5.49128
|  9> O          1.61941       -0.40073       -5.03683
| 10> H         -0.57627        2.72718       -4.17630
| 11> H          0.93321        1.90140       -3.87192
| 12> H         -0.56868        1.21534       -3.30031
| 13> *
| 14> %MaxCore 64000
| 15>
| 16> %pal nprocs 4
| 17> end
| 18>
| 19> %scf
| 20>   MaxIter 150
| 21> end
| 22>
| 23>
| 24>                          ****END OF INPUT****

CARTESIAN COORDINATES (ANGSTROEM)
---------------------------------
  C     -0.106080    1.769910   -4.089840
  C     -0.258750    1.004320   -5.409830
  C      0.395960   -0.370700   -5.339940
  H      0.239150    1.569390   -6.201250
  H     -1.309360    0.888690   -5.682450
  O     -0.326330   -1.390400   -5.491280
  O      1.619410   -0.400730   -5.036830
  H     -0.576270    2.727180   -4.176300
  H      0.933210    1.901400   -3.871920
  H     -0.568680    1.215340   -3.300310

 Total Charge           Charge          ....   -1
 Multiplicity           Mult            ....    1
 Number of Electrons    NEL             ....   40
 Basis Dimension        Dim             ....  185

ORBITAL ENERGIES
----------------

  NO   OCC          E(Eh)            E(eV)
   0   2.0000     -19.350459      -526.5528
   1   2.0000     -19.348898      -526.5103
   2   2.0000     -10.414192      -283.3846
   3   2.0000     -10.368135      -282.1313
   4   2.0000     -10.356665      -281.8192
   5   2.0000      -0.933152       -25.3923
   6   2.0000      -0.833753       -22.6876
   7   2.0000      -0.699900       -19.0452
   8   2.0000      -0.559851       -15.2343
   9   2.0000      -0.395478       -10.7615
  10   2.0000      -0.360044        -9.7973
  11   2.0000      -0.332695        -9.0531
  12   2.0000      -0.295792        -8.0489
  13   2.0000      -0.280135        -7.6229
  14   2.0000      -0.274831        -7.4785
  15   2.0000      -0.240243        -6.5373
  16   2.0000      -0.224437        -6.1072
  17   2.0000      -0.105334        -2.8663
  18   2.0000      -0.104483        -2.8431
  19   2.0000      -0.096454        -2.6246
  20   0.0000       0.217135         5.9086
  21   0.0000       0.257685         7.0120
  22   0.0000       0.278980         7.5914
  23   0.0000       0.281155         7.6506
  24   0.0000       0.297711         8.1011

MULLIKEN ATOMIC CHARGES
-----------------------
   0 C :   -0.401762
   1 C :   -0.229494
   2 C :    0.279063
   3 H :    0.076349
   4 H :    0.079547
   5 O :   -0.559969
   6 O :   -0.570170
   7 H :    0.082350
   8 H :    0.127198
   9 H :    0.116888
Sum of atomic charges:   -1.0000000

LOEWDIN ATOMIC CHARGES
----------------------
   0 C :   -0.324803
   1 C :   -0.291083
   2 C :   -0.687719
   3 H :    0.124048
   4 H :    0.119870
   5 O :   -0.127421
   6 O :   -0.131809
   7 H :    0.094401
   8 H :    0.114017
   9 H :    0.110497

  Mayer bond orders larger than 0.100000
B(  0-C ,  1-C ) :   0.9327 B(  0-C ,  7-H ) :   0.9766 B(  0-C ,  8-H ) :   0.9708
B(  0-C ,  9-H ) :   0.9812 B(  1-C ,  2-C ) :   0.9379 B(  1-C ,  3-H ) :   0.9680
B(  1-C ,  4-H ) :   0.9672 B(  2-C ,  5-O ) :   1.8488 B(  2-C ,  6-O ) :   1.8000

Dispersion correction           -0.000085539
FINAL SINGLE POINT ENERGY      -267.826247636733

DIPOLE MOMENT
-------------
                                X             Y             Z
Electronic contribution:      1.73698      -5.32561      -1.70895
Nuclear contribution   :     -2.46071       7.20791       1.95694
                        -----------------------------------------
Total Dipole Moment    :     -0.72374       1.88230       0.24799
                        -----------------------------------------
Magnitude (a.u.)       :      2.03184
Magnitude (Debye)      :      5.16452

Rotational constants in cm-1:     0.309435     0.135317     0.107436
Rotational constants in MHz :  9276.637721  4056.700783  3220.846587

                             ****ORCA TERMINATED NORMALLY****
TOTAL RUN TIME: 0 days 0 hours 0 minutes 21 seconds 692 msec
