                         Program Version 5.0.0 -  RELEASE  -
|  1> !M062X D3Zero RIJCOSX def2-TZVP def2/J TightSCF
|  2> *xyz 1 1
|  3> C          0.81607       -2.10149       -2.18655
|  4> H          1.69623       -2.36869       -1.60046
|  5> N          1.10055       -2.46749       -3.59927
|  6> C          0.51624       -0.61363       -2.03937
|  7> H         -0.02007       -2.71285       -1.84084
|  8> H          1.70061       -1.75723       -4.07838
|  9> H          0.29386       -2.35977       -4.25632
| 10> H          1.50132       -3.42848       -3.69491
| 11> H         -0.34841       -0.36504       -2.61858
| 12> H          1.35358       -0.04503       -2.38643
| 13> H          0.33317       -0.38682       -1.00984
| 14> *
| 15> %MaxCore 64000
| 16>
| 17> %pal nprocs 4
| 18> end
| 19>
| 20> %scf
| 21>   MaxIter 150
| 22> end
| 23>
| 24>
| 25>                          ****END OF INPUT****

CARTESIAN COORDINATES (ANGSTROEM)
---------------------------------
  C      0.816070   -2.101490   -2.186550
  H      1.696230   -2.368690   -1.600460
  N      1.100550   -2.467490   -3.599270
  C      0.516240   -0.613630   -2.039370
  H     -0.020070   -2.712850   -1.840840
  H      1.700610   -1.757230   -4.078380
  H      0.293860   -2.359770   -4.256320
  H      1.501320   -3.428480   -3.694910
  H     -0.348410   -0.365040   -2.618580
  H      1.353580   -0.045030   -2.386430
  H      0.333170   -0.386820   -1.009840

 Total Charge           Charge          ....    1
 Multiplicity           Mult            ....    1
 Number of Electrons    NEL             ....   26
 Basis Dimension        Dim             ....  141

ORBITAL ENERGIES
----------------

  NO   OCC          E(Eh)            E(eV)
   0   2.0000     -15.084490      -410.4698
   1   2.0000     -10.790989      -293.6377
   2   2.0000     -10.709829      -291.4293
   3   2.0000      -1.318628       -35.8817
   4   2.0000      -1.062072       -28.9004
   5   2.0000      -0.936139       -25.4736
   6   2.0000      -0.864379       -23.5209
   7   2.0000      -0.846482       -23.0340
   8   2.0000      -0.771815       -21.0022
   9   2.0000      -0.706510       -19.2251
  10   2.0000      -0.647230       -17.6120
  11   2.0000      -0.631746       -17.1907
  12   2.0000      -0.614477       -16.7208
  13   0.0000      -0.166064        -4.5188
  14   0.0000      -0.104580        -2.8458
  15   0.0000      -0.101871        -2.7720
  16   0.0000      -0.082015        -2.2318
  17   0.0000      -0.038287        -1.0418

MULLIKEN ATOMIC CHARGES
-----------------------
   0 C :   -0.203245
   1 H :    0.205221
   2 N :   -0.363404
   3 C :   -0.416356
   4 H :    0.208825
   5 H :    0.337517
   6 H :    0.343168
   7 H :    0.357054
   8 H :    0.168289
   9 H :    0.168232
  10 H :    0.194698
Sum of atomic charges:    1.0000000

LOEWDIN ATOMIC CHARGES
----------------------
   0 C :   -0.278932
   1 H :    0.154594
   2 N :    0.143441
   3 C :   -0.276916
   4 H :    0.154414
   5 H :    0.230605
   6 H :    0.230227
   7 H :    0.233868
   8 H :    0.130651
   9 H :    0.130096
  10 H :    0.147952

  Mayer bond orders larger than 0.100000
B(  0-C ,  1-H ) :   0.9529 B(  0-C ,  2-N ) :   0.8239 B(  0-C ,  3-C ) :   0.9681
B(  0-C ,  4-H ) :   0.9540 B(  2-N ,  5-H ) :   0.8689 B(  2-N ,  6-H ) :   0.8673
B(  2-N ,  7-H ) :   0.8604 B(  3-C ,  8-H ) :   0.9581 B(  3-C ,  9-H ) :   0.9562
B(  3-C , 10-H ) :   0.9569

Dispersion correction           -0.000054527
FINAL SINGLE POINT ENERGY      -135.503931142542

DIPOLE MOMENT
-------------
                                X             Y             Z
Electronic contribution:      0.41949      -1.43488      -1.07255
Nuclear contribution   :     -0.07506       0.54337      -0.16191
                        -----------------------------------------
Total Dipole Moment    :      0.34443      -0.89152      -1.23446
                        -----------------------------------------
Magnitude (a.u.)       :      1.56119
Magnitude (Debye)      :      3.96824

Rotational constants in cm-1:     0.999557     0.280801     0.246932
Rotational constants in MHz : 29965.963633  8418.199581  7402.841054

                             ****ORCA TERMINATED NORMALLY****
TOTAL RUN TIME: 0 days 0 hours 0 minutes 14 seconds 994 msec
