                         Program Version 5.0.0 -  RELEASE  -
|  1> !M062X D3Zero RIJCOSX def2-TZVP def2/J TightSCF
|  2> *xyz 0 1
|  3> C         -0.10608        1.76991       -4.08984
|  4> C         -0.25875        1.00432       -5.40983
|  5> C          0.39596       -0.37070       -5.33994
|  6> H          0.23915        1.56939       -6.20125
|  7> H         -1.30936        0.88869       -5.68245
|  8> F         -0.32633       -1.39040       -5.49128
|  9> O          1.61941       -0.40073       -5.03683
| 10> H         -0.57627        2.72718       -4.17630
| 11> H          0.93321        1.90140       -3.87192
| 12> H         -0.56868        1.21534       -3.30031
| 13> *
| 14> %MaxCore 64000
| 15>
| 16> %pal nprocs 4
| 17> end
| 18>
| 19> %scf
| 20>   MaxIter 150
| 21> end
| 22>
| 23>
| 24>                          ****END OF INPUT****

CARTESIAN COORDINATES (ANGSTROEM)
---------------------------------
  C     -0.106080    1.769910   -4.089840
  C     -0.258750    1.004320   -5.409830
  C      0.395960   -0.370700   -5.339940
  H      0.239150    1.569390   -6.201250
  H     -1.309360    0.888690   -5.682450
  F     -0.326330   -1.390400   -5.491280
  O      1.619410   -0.400730   -5.036830
  H     -0.576270    2.727180   -4.176300
  H      0.933210    1.901400   -3.871920
  H     -0.568680    1.215340   -3.300310

 Total Charge           Charge          ....    0
 Multiplicity           Mult            ....    1
 Number of Electrons    NEL             ....   40
 Basis Dimension        Dim             ....  185

ORBITAL ENERGIES
----------------

  NO   OCC          E(Eh)            E(eV)
   0   2.0000     -25.314150      -688.8330
   1   2.0000     -19.632426      -534.2255
   2   2.0000     -10.720107      -291.7089
   3   2.0000     -10.568851      -287.5931
   4   2.0000     -10.540270      -286.8153
   5   2.0000      -1.462173       -39.7878
   6   2.0000      -1.152571       -31.3631
   7   2.0000      -0.901305       -24.5258
   8   2.0000      -0.787131       -21.4189
   9   2.0000      -0.731214       -19.8973
  10   2.0000      -0.642432       -17.4815
  11   2.0000      -0.630192       -17.1484
  12   2.0000      -0.594006       -16.1637
  13   2.0000      -0.538647       -14.6573
  14   2.0000      -0.510158       -13.8821
  15   2.0000      -0.467297       -12.7158
  16   2.0000      -0.447904       -12.1881
  17   2.0000      -0.440502       -11.9867
  18   2.0000      -0.411927       -11.2091
  19   2.0000      -0.370489       -10.0815
  20   0.0000       0.013296         0.3618
  21   0.0000       0.065341         1.7780
  22   0.0000       0.104830         2.8526
  23   0.0000       0.118844         3.2339
  24   0.0000       0.130880         3.5614

MULLIKEN ATOMIC CHARGES
-----------------------
   0 C :   -0.408491
   1 C :   -0.278463
   2 C :    0.416884
   3 H :    0.156988
   4 H :    0.139605
   5 F :   -0.115270
   6 O :   -0.356749
   7 H :    0.141349
   8 H :    0.162819
   9 H :    0.141329
Sum of atomic charges:    0.0000000

LOEWDIN ATOMIC CHARGES
----------------------
   0 C :   -0.285413
   1 C :   -0.260078
   2 C :   -0.481430
   3 H :    0.156805
   4 H :    0.140155
   5 F :    0.310918
   6 O :    0.051052
   7 H :    0.119984
   8 H :    0.126958
   9 H :    0.121049

  Mayer bond orders larger than 0.100000
B(  0-C ,  1-C ) :   0.9418 B(  0-C ,  7-H ) :   0.9724 B(  0-C ,  8-H ) :   0.9654
B(  0-C ,  9-H ) :   0.9719 B(  1-C ,  2-C ) :   0.9820 B(  1-C ,  3-H ) :   0.9497
B(  1-C ,  4-H ) :   0.9647 B(  2-C ,  5-F ) :   1.1408 B(  2-C ,  6-O ) :   2.0277

Dispersion correction           -0.000088786
FINAL SINGLE POINT ENERGY      -292.392156562285

DIPOLE MOMENT
-------------
                                X             Y             Z
Electronic contribution:      0.83717      -8.16027      -2.57005
Nuclear contribution   :     -1.80992       8.85192       2.42184
                        -----------------------------------------
Total Dipole Moment    :     -0.97275       0.69165      -0.14820
                        -----------------------------------------
Magnitude (a.u.)       :      1.20274
Magnitude (Debye)      :      3.05713

Rotational constants in cm-1:     0.298360     0.128849     0.102271
Rotational constants in MHz :  8944.606599  3862.796179  3066.020510

                             ****ORCA TERMINATED NORMALLY****
TOTAL RUN TIME: 0 days 0 hours 0 minutes 23 seconds 292 msec
