                         Program Version 5.0.0 -  RELEASE  -
|  1> !M062X D3Zero RIJCOSX def2-TZVP def2/J TightSCF
|  2> *xyz 0 1
|  3> C          0.81607       -2.10149       -2.18655
|  4> H          1.69623       -2.36869       -1.60046
|  5> C          1.10055       -2.46749       -3.59927
|  6> C          0.51624       -0.61363       -2.03937
|  7> H         -0.02007       -2.71285       -1.84084
|  8> H          1.70061       -1.75723       -4.07838
|  9> H          0.29386       -2.35977       -4.25632
| 10> H          1.50132       -3.42848       -3.69491
| 11> H         -0.34841       -0.36504       -2.61858
| 12> H          1.35358       -0.04503       -2.38643
| 13> H          0.33317       -0.38682       -1.00984
| 14> *
| 15> %MaxCore 64000
| 16>
| 17> %pal nprocs 4
| 18> end
| 19>
| 20> %scf
| 21>   MaxIter 150
| 22> end
| 23>
| 24>
| 25>                          ****END OF INPUT****

CARTESIAN COORDINATES (ANGSTROEM)
---------------------------------
  C      0.816070   -2.101490   -2.186550
  H      1.696230   -2.368690   -1.600460
  C      1.100550   -2.467490   -3.599270
  C      0.516240   -0.613630   -2.039370
  H     -0.020070   -2.712850   -1.840840
  H      1.700610   -1.757230   -4.078380
  H      0.293860   -2.359770   -4.256320
  H      1.501320   -3.428480   -3.694910
  H     -0.348410   -0.365040   -2.618580
  H      1.353580   -0.045030   -2.386430
  H      0.333170   -0.386820   -1.009840

 Total Charge           Charge          ....    0
 Multiplicity           Mult            ....    1
 Number of Electrons    NEL             ....   26
 Basis Dimension        Dim             ....  141

ORBITAL ENERGIES
----------------

  NO   OCC          E(Eh)            E(eV)
   0   2.0000     -10.521747      -286.3113
   1   2.0000     -10.511598      -286.0351
   2   2.0000     -10.498586      -285.6810
   3   2.0000      -0.888878       -24.1876
   4   2.0000      -0.780457       -21.2373
   5   2.0000      -0.673227       -18.3194
   6   2.0000      -0.530644       -14.4396
   7   2.0000      -0.514802       -14.0085
   8   2.0000      -0.477998       -13.0070
   9   2.0000      -0.440589       -11.9890
  10   2.0000      -0.401752       -10.9322
  11   2.0000      -0.395691       -10.7673
  12   2.0000      -0.381153       -10.3717
  13   0.0000       0.072703         1.9783
  14   0.0000       0.116853         3.1797
  15   0.0000       0.118286         3.2187
  16   0.0000       0.129777         3.5314
  17   0.0000       0.146792         3.9944

MULLIKEN ATOMIC CHARGES
-----------------------
   0 C :   -0.199323
   1 H :    0.116900
   2 C :   -0.426366
   3 C :   -0.406130
   4 H :    0.117280
   5 H :    0.132702
   6 H :    0.142699
   7 H :    0.130615
   8 H :    0.129029
   9 H :    0.130498
  10 H :    0.132095
Sum of atomic charges:    0.0000000

LOEWDIN ATOMIC CHARGES
----------------------
   0 C :   -0.325113
   1 H :    0.133834
   2 C :   -0.320603
   3 C :   -0.307101
   4 H :    0.132861
   5 H :    0.114453
   6 H :    0.112879
   7 H :    0.111635
   8 H :    0.116195
   9 H :    0.115862
  10 H :    0.115098

  Mayer bond orders larger than 0.100000
B(  0-C ,  1-H ) :   0.9779 B(  0-C ,  2-C ) :   0.9434 B(  0-C ,  3-C ) :   0.9518
B(  0-C ,  4-H ) :   0.9758 B(  2-C ,  5-H ) :   0.9773 B(  2-C ,  6-H ) :   0.9780
B(  2-C ,  7-H ) :   0.9797 B(  3-C ,  8-H ) :   0.9747 B(  3-C ,  9-H ) :   0.9755
B(  3-C , 10-H ) :   0.9814

Dispersion correction           -0.000053119
FINAL SINGLE POINT ENERGY      -119.100418707370

DIPOLE MOMENT
-------------
                                X             Y             Z
Electronic contribution:     -0.01865      -0.30948       0.46804
Nuclear contribution   :      0.01737       0.30387      -0.47422
                        -----------------------------------------
Total Dipole Moment    :     -0.00128      -0.00560      -0.00618
                        -----------------------------------------
Magnitude (a.u.)       :      0.00844
Magnitude (Debye)      :      0.02145

Rotational constants in cm-1:     1.006891     0.295208     0.258491
Rotational constants in MHz : 30185.831813  8850.104914  7749.351732

                             ****ORCA TERMINATED NORMALLY****
TOTAL RUN TIME: 0 days 0 hours 0 minutes 13 seconds 140 msec
