                         Program Version 5.0.0 -  RELEASE  -
|  1> !M062X D3Zero RIJCOSX def2-TZVP def2/J TightSCF
|  2> *xyz 0 1
|  3> C         -0.10608        1.76991       -4.08984
|  4> C         -0.25875        1.00432       -5.40983
|  5> C          0.39596       -0.37070       -5.33994
|  6> H          0.23915        1.56939       -6.20125
|  7> H         -1.30936        0.88869       -5.68245
|  8> O         -0.32633       -1.39040       -5.49128
|  9> F          1.61941       -0.40073       -5.03683
| 10> H         -0.57627        2.72718       -4.17630
| 11> H          0.93321        1.90140       -3.87192
| 12> H         -0.56868        1.21534       -3.30031
| 13> *
| 14> %MaxCore 64000
| 15>
| 16> %pal nprocs 4
| 17> end
| 18>
| 19> %scf
| 20>   MaxIter 150
| 21> end
| 22>
| 23>
| 24>                          ****END OF INPUT****

CARTESIAN COORDINATES (ANGSTROEM)
---------------------------------
  C     -0.106080    1.769910   -4.089840
  C     -0.258750    1.004320   -5.409830
  C      0.395960   -0.370700   -5.339940
  H      0.239150    1.569390   -6.201250
  H     -1.309360    0.888690   -5.682450
  O     -0.326330   -1.390400   -5.491280
  F      1.619410   -0.400730   -5.036830
  H     -0.576270    2.727180   -4.176300
  H      0.933210    1.901400   -3.871920
  H     -0.568680    1.215340   -3.300310

 Total Charge           Charge          ....    0
 Multiplicity           Mult            ....    1
 Number of Electrons    NEL             ....   40
 Basis Dimension        Dim             ....  185

ORBITAL ENERGIES
----------------

  NO   OCC          E(Eh)            E(eV)
   0   2.0000     -25.312842      -688.7975
   1   2.0000     -19.633263      -534.2482
   2   2.0000     -10.719096      -291.6814
   3   2.0000     -10.568701      -287.5890
   4   2.0000     -10.545245      -286.9507
   5   2.0000      -1.460737       -39.7487
   6   2.0000      -1.152733       -31.3675
   7   2.0000      -0.905984       -24.6531
   8   2.0000      -0.783876       -21.3303
   9   2.0000      -0.735052       -20.0018
  10   2.0000      -0.643439       -17.5089
  11   2.0000      -0.634049       -17.2533
  12   2.0000      -0.586215       -15.9517
  13   2.0000      -0.539726       -14.6867
  14   2.0000      -0.510846       -13.9008
  15   2.0000      -0.471632       -12.8338
  16   2.0000      -0.454720       -12.3736
  17   2.0000      -0.443670       -12.0729
  18   2.0000      -0.417181       -11.3521
  19   2.0000      -0.366745        -9.9796
  20   0.0000       0.018155         0.4940
  21   0.0000       0.061336         1.6690
  22   0.0000       0.103306         2.8111
  23   0.0000       0.120160         3.2697
  24   0.0000       0.134974         3.6728

MULLIKEN ATOMIC CHARGES
-----------------------
   0 C :   -0.411014
   1 C :   -0.277812
   2 C :    0.407867
   3 H :    0.147205
   4 H :    0.159377
   5 O :   -0.348188
   6 F :   -0.120344
   7 H :    0.145843
   8 H :    0.146631
   9 H :    0.150434
Sum of atomic charges:   -0.0000000

LOEWDIN ATOMIC CHARGES
----------------------
   0 C :   -0.291717
   1 C :   -0.254996
   2 C :   -0.484985
   3 H :    0.149573
   4 H :    0.152584
   5 O :    0.053209
   6 F :    0.309644
   7 H :    0.122065
   8 H :    0.121271
   9 H :    0.123351

  Mayer bond orders larger than 0.100000
B(  0-C ,  1-C ) :   0.9320 B(  0-C ,  7-H ) :   0.9722 B(  0-C ,  8-H ) :   0.9674
B(  0-C ,  9-H ) :   0.9690 B(  1-C ,  2-C ) :   1.0000 B(  1-C ,  3-H ) :   0.9481
B(  1-C ,  4-H ) :   0.9684 B(  2-C ,  5-O ) :   2.0526 B(  2-C ,  6-F ) :   1.1281

Dispersion correction           -0.000091821
FINAL SINGLE POINT ENERGY      -292.393567575849

DIPOLE MOMENT
-------------
                                X             Y             Z
Electronic contribution:      4.06044      -6.48986      -1.81099
Nuclear contribution   :     -3.93139       7.77287       1.92635
                        -----------------------------------------
Total Dipole Moment    :      0.12906       1.28301       0.11536
                        -----------------------------------------
Magnitude (a.u.)       :      1.29464
Magnitude (Debye)      :      3.29071

Rotational constants in cm-1:     0.286068     0.133630     0.103472
Rotational constants in MHz :  8576.109806  4006.118234  3102.010802

                             ****ORCA TERMINATED NORMALLY****
TOTAL RUN TIME: 0 days 0 hours 0 minutes 22 seconds 239 msec
