                         Program Version 5.0.0 -  RELEASE  -
|  1> !M062X D3Zero RIJCOSX def2-TZVP def2/J TightSCF xyzfile
|  2>
|  3> *xyzfile 0 1 D2.xyz
|  4>
|  5> %MaxCore 64000
|  6>
|  7> %pal nprocs 18
|  8> end
|  9>
| 10> %scf
| 11>   MaxIter 150
| 12> end
| 13>
| 14>
| 15>                          ****END OF INPUT****

CARTESIAN COORDINATES (ANGSTROEM)
---------------------------------
  C      0.816067   -2.101491   -2.186546
  H      1.696232   -2.368691   -1.600457
  C      1.100552   -2.467492   -3.599269
  C      0.516243   -0.613634   -2.039373
  H     -0.020066   -2.712849   -1.840844
  C     -0.868621   -0.193925   -2.546303
  C     -0.984801    1.284739   -2.928686
  H     -0.764939    1.904116   -2.051568
  H     -2.032613    1.478953   -3.178952
  C     -0.106085    1.769914   -4.089836
  H     -0.347744    2.822196   -4.262942
  H      0.949683    1.745875   -3.808781
  C     -0.258747    1.004323   -5.409829
  C      0.395958   -0.370696   -5.339939
  H      0.239150    1.569393   -6.201253
  H     -1.309360    0.888694   -5.682455
  H      1.700606   -1.757225   -4.078378
  H      0.293855   -2.359766   -4.256324
  H      1.501324   -3.428479   -3.694915
  O     -0.326329   -1.390398   -5.491279
  F      1.619412   -0.400726   -5.036827
  H     -1.607271   -0.412651   -1.768955
  H     -1.157234   -0.796164   -3.409254
  H      1.299044   -0.056805   -2.558982
  H      0.612393   -0.365579   -0.979171

 Total Charge           Charge          ....    0
 Multiplicity           Mult            ....    1
 Number of Electrons    NEL             ....   80
 Basis Dimension        Dim             ....  400

ORBITAL ENERGIES
----------------

  NO   OCC          E(Eh)            E(eV)
   0   2.0000     -25.322704      -689.0658
   1   2.0000     -19.639431      -534.4161
   2   2.0000     -10.728180      -291.9286
   3   2.0000     -10.570285      -287.6321
   4   2.0000     -10.553763      -287.1825
   5   2.0000     -10.537935      -286.7518
   6   2.0000     -10.525095      -286.4024
   7   2.0000     -10.520405      -286.2748
   8   2.0000     -10.507769      -285.9309
   9   2.0000     -10.458564      -284.5920
  10   2.0000      -1.476286       -40.1718
  11   2.0000      -1.168328       -31.7918
  12   2.0000      -0.929580       -25.2952
  13   2.0000      -0.895232       -24.3605
  14   2.0000      -0.843233       -22.9455
  15   2.0000      -0.802356       -21.8332
  16   2.0000      -0.761763       -20.7286
  17   2.0000      -0.727380       -19.7930
  18   2.0000      -0.689639       -18.7660
  19   2.0000      -0.656628       -17.8678
  20   2.0000      -0.649420       -17.6716
  21   2.0000      -0.632475       -17.2105
  22   2.0000      -0.596179       -16.2229
  23   2.0000      -0.552519       -15.0348
  24   2.0000      -0.531505       -14.4630
  25   2.0000      -0.513942       -13.9851
  26   2.0000      -0.510348       -13.8873
  27   2.0000      -0.498616       -13.5680
  28   2.0000      -0.488368       -13.2892
  29   2.0000      -0.460970       -12.5436
  30   2.0000      -0.450742       -12.2653
  31   2.0000      -0.443948       -12.0804
  32   2.0000      -0.432114       -11.7584
  33   2.0000      -0.412106       -11.2140
  34   2.0000      -0.395391       -10.7591
  35   2.0000      -0.391674       -10.6580
  36   2.0000      -0.377056       -10.2602
  37   2.0000      -0.363959        -9.9038
  38   2.0000      -0.360849        -9.8192
  39   2.0000      -0.331458        -9.0194
  40   0.0000       0.003005         0.0818
  41   0.0000       0.057460         1.5636
  42   0.0000       0.085568         2.3284
  43   0.0000       0.088118         2.3978
  44   0.0000       0.095057         2.5866

MULLIKEN ATOMIC CHARGES
-----------------------
   0 C :   -0.193306
   1 H :    0.119488
   2 C :   -0.536411
   3 C :   -0.321658
   4 H :    0.126816
   5 C :   -0.330169
   6 C :   -0.281416
   7 H :    0.148883
   8 H :    0.151265
   9 C :   -0.324312
  10 H :    0.155313
  11 H :    0.176341
  12 C :   -0.287608
  13 C :    0.393344
  14 H :    0.169262
  15 H :    0.176897
  16 H :    0.140361
  17 H :    0.216360
  18 H :    0.128128
  19 O :   -0.342072
  20 F :   -0.116739
  21 H :    0.145400
  22 H :    0.191174
  23 H :    0.156203
  24 H :    0.138456
Sum of atomic charges:    0.0000000

LOEWDIN ATOMIC CHARGES
----------------------
   0 C :   -0.305293
   1 H :    0.133827
   2 C :   -0.335725
   3 C :   -0.272838
   4 H :    0.135722
   5 C :   -0.271102
   6 C :   -0.271437
   7 H :    0.141401
   8 H :    0.140248
   9 C :   -0.268131
  10 H :    0.143975
  11 H :    0.140227
  12 C :   -0.224556
  13 C :   -0.482701
  14 H :    0.155120
  15 H :    0.157438
  16 H :    0.110233
  17 H :    0.116042
  18 H :    0.106960
  19 O :    0.070569
  20 F :    0.324530
  21 H :    0.139903
  22 H :    0.146499
  23 H :    0.133119
  24 H :    0.135970

  Mayer bond orders larger than 0.100000
B(  0-C ,  1-H ) :   0.9845 B(  0-C ,  2-C ) :   0.8916 B(  0-C ,  3-C ) :   0.9280
B(  0-C ,  4-H ) :   0.9860 B(  2-C , 16-H ) :   0.9761 B(  2-C , 17-H ) :   0.9554
B(  2-C , 18-H ) :   0.9830 B(  3-C ,  5-C ) :   0.8523 B(  3-C , 23-H ) :   1.0038
B(  3-C , 24-H ) :   0.9743 B(  5-C ,  6-C ) :   0.9189 B(  5-C , 21-H ) :   0.9737
B(  5-C , 22-H ) :   0.9859 B(  6-C ,  7-H ) :   0.9807 B(  6-C ,  8-H ) :   0.9862
B(  6-C ,  9-C ) :   0.9170 B(  9-C , 10-H ) :   0.9808 B(  9-C , 11-H ) :   0.9818
B(  9-C , 12-C ) :   0.8677 B( 12-C , 13-C ) :   0.9844 B( 12-C , 14-H ) :   0.9588
B( 12-C , 15-H ) :   0.9745 B( 13-C , 19-O ) :   1.9777 B( 13-C , 20-F ) :   1.1005

Dispersion correction           -0.001010224
FINAL SINGLE POINT ENERGY      -488.875047768539

DIPOLE MOMENT
-------------
                                X             Y             Z
Electronic contribution:      3.58249      -0.30556      -9.79382
Nuclear contribution   :     -3.57245       1.60200       9.69133
                        -----------------------------------------
Total Dipole Moment    :      0.01004       1.29644      -0.10248
                        -----------------------------------------
Magnitude (a.u.)       :      1.30052
Magnitude (Debye)      :      3.30567

Rotational constants in cm-1:     0.051520     0.042563     0.028962
Rotational constants in MHz :  1544.537298  1275.996546   868.258224

                             ****ORCA TERMINATED NORMALLY****
TOTAL RUN TIME: 0 days 0 hours 0 minutes 31 seconds 10 msec
