                         Program Version 5.0.0 -  RELEASE  -
|  1> !LC-PBE RIJCOSX def2-SVP def2/J TightSCF
|  2> *xyz -1 1
|  3> C          4.90646       -3.10282       -5.95484
|  4> C          3.51177       -2.80621       -6.49228
|  5> H          2.73604       -3.37345       -5.97374
|  6> H          3.44490       -3.04083       -7.55528
|  7> S          3.00462       -1.09621       -6.38926
|  8> O          4.12886       -0.32965       -6.95372
|  9> O          1.78128       -1.00078       -7.13640
| 10> O          2.85155       -0.78368       -4.95679
| 11> H          5.62703       -2.52424       -6.49422
| 12> H          5.12164       -4.14387       -6.07654
| 13> H          4.95004       -2.84862       -4.91639
| 14> *
| 15>
| 16> %MaxCore 64000
| 17>
| 18> %pal nprocs 4
| 19> end
| 20>
| 21> %scf
| 22>   MaxIter 150
| 23> end
| 24>
| 25>
| 26>                          ****END OF INPUT****

CARTESIAN COORDINATES (ANGSTROEM)
---------------------------------
  C      4.906460   -3.102820   -5.954840
  C      3.511770   -2.806210   -6.492280
  H      2.736040   -3.373450   -5.973740
  H      3.444900   -3.040830   -7.555280
  S      3.004620   -1.096210   -6.389260
  O      4.128860   -0.329650   -6.953720
  O      1.781280   -1.000780   -7.136400
  O      2.851550   -0.783680   -4.956790
  H      5.627030   -2.524240   -6.494220
  H      5.121640   -4.143870   -6.076540
  H      4.950040   -2.848620   -4.916390

 Total Charge           Charge          ....   -1
 Multiplicity           Mult            ....    1
 Number of Electrons    NEL             ....   58
 Basis Dimension        Dim             ....  113

ORBITAL ENERGIES
----------------

  NO   OCC          E(Eh)            E(eV)
   0   2.0000     -88.274243     -2402.0643
   1   2.0000     -18.741572      -509.9841
   2   2.0000     -18.728031      -509.6156
   3   2.0000     -18.726706      -509.5796
   4   2.0000      -9.979680      -271.5609
   5   2.0000      -9.979332      -271.5514
   6   2.0000      -7.904135      -215.0825
   7   2.0000      -5.925943      -161.2531
   8   2.0000      -5.925789      -161.2489
   9   2.0000      -5.925689      -161.2462
  10   2.0000      -1.080336       -29.3974
  11   2.0000      -0.921995       -25.0887
  12   2.0000      -0.899636       -24.4803
  13   2.0000      -0.801431       -21.8081
  14   2.0000      -0.664580       -18.0842
  15   2.0000      -0.516782       -14.0623
  16   2.0000      -0.460629       -12.5344
  17   2.0000      -0.446730       -12.1561
  18   2.0000      -0.409285       -11.1372
  19   2.0000      -0.388262       -10.5652
  20   2.0000      -0.380784       -10.3616
  21   2.0000      -0.357234        -9.7208
  22   2.0000      -0.337496        -9.1837
  23   2.0000      -0.263483        -7.1697
  24   2.0000      -0.261131        -7.1057
  25   2.0000      -0.223131        -6.0717
  26   2.0000      -0.211699        -5.7606
  27   2.0000      -0.208736        -5.6800
  28   2.0000      -0.167106        -4.5472
  29   0.0000       0.292742         7.9659
  30   0.0000       0.345770         9.4089
  31   0.0000       0.350920         9.5490
  32   0.0000       0.359096         9.7715
  33   0.0000       0.388402        10.5689

MULLIKEN ATOMIC CHARGES
-----------------------
   0 C :   -0.105065
   1 C :   -0.217238
   2 H :    0.056692
   3 H :    0.056844
   4 S :    0.816024
   5 O :   -0.595223
   6 O :   -0.552166
   7 O :   -0.596431
   8 H :    0.061506
   9 H :    0.017674
  10 H :    0.057383
Sum of atomic charges:   -1.0000000

LOEWDIN ATOMIC CHARGES
----------------------
   0 C :   -0.106302
   1 C :   -0.213536
   2 H :    0.023186
   3 H :    0.023267
   4 S :    1.088059
   5 O :   -0.643801
   6 O :   -0.603215
   7 O :   -0.647427
   8 H :    0.032453
   9 H :    0.015615
  10 H :    0.031700

  Mayer bond orders larger than 0.100000
B(  0-C ,  1-C ) :   1.0347 B(  0-C ,  8-H ) :   0.9685 B(  0-C ,  9-H ) :   0.9737
B(  0-C , 10-H ) :   0.9711 B(  1-C ,  2-H ) :   0.9500 B(  1-C ,  3-H ) :   0.9499
B(  1-C ,  4-S ) :   0.9093 B(  4-S ,  5-O ) :   1.6136 B(  4-S ,  6-O ) :   1.6675
B(  4-S ,  7-O ) :   1.6200

FINAL SINGLE POINT ENERGY      -701.519539936190

DIPOLE MOMENT
-------------
                                X             Y             Z
Electronic contribution:     -4.38536       6.38895      -0.67484
Nuclear contribution   :      5.05690      -8.21735       0.57889
                        -----------------------------------------
Total Dipole Moment    :      0.67155      -1.82840      -0.09594
                        -----------------------------------------
Magnitude (a.u.)       :      1.95019
Magnitude (Debye)      :      4.95698

Rotational constants in cm-1:     0.162547     0.083494     0.081672
Rotational constants in MHz :  4873.033504  2503.090885  2448.458543

                             ****ORCA TERMINATED NORMALLY****
TOTAL RUN TIME: 0 days 0 hours 0 minutes 9 seconds 163 msec
