                         Program Version 5.0.0 -  RELEASE  -
|  1> !LC-PBE RIJCOSX def2-SVP def2/J TightSCF
|  2> *xyz 1 1
|  3> C          4.49059        1.15590       -2.46929
|  4> N          4.30539        1.22276       -3.90832
|  5> C          4.63192        2.24637       -4.67096
|  6> N          4.54169        2.14399       -5.98714
|  7> N          5.08409        3.39358       -4.11855
|  8> H          4.92067        3.57050       -3.13587
|  9> H          5.25465        4.19739       -4.70696
| 10> H          3.82453        0.44911       -4.35093
| 11> H          4.34337        1.24932       -6.41665
| 12> H          4.67671        2.95662       -6.57411
| 13> C          5.94213        0.93950       -2.03689
| 14> H          3.86431        0.32853       -2.13661
| 15> H          4.07623        2.04999       -1.98901
| 16> H          6.32982        0.06401       -2.51451
| 17> H          5.98308        0.81426       -0.97504
| 18> H          6.52865        1.78889       -2.31873
| 19> *
| 20>
| 21> %MaxCore 64000
| 22>
| 23> %pal nprocs 4
| 24> end
| 25>
| 26> %scf
| 27>   MaxIter 150
| 28> end
| 29>
| 30>
| 31>                          ****END OF INPUT****

CARTESIAN COORDINATES (ANGSTROEM)
---------------------------------
  C      4.490590    1.155900   -2.469290
  N      4.305390    1.222760   -3.908320
  C      4.631920    2.246370   -4.670960
  N      4.541690    2.143990   -5.987140
  N      5.084090    3.393580   -4.118550
  H      4.920670    3.570500   -3.135870
  H      5.254650    4.197390   -4.706960
  H      3.824530    0.449110   -4.350930
  H      4.343370    1.249320   -6.416650
  H      4.676710    2.956620   -6.574110
  C      5.942130    0.939500   -2.036890
  H      3.864310    0.328530   -2.136610
  H      4.076230    2.049990   -1.989010
  H      6.329820    0.064010   -2.514510
  H      5.983080    0.814260   -0.975040
  H      6.528650    1.788890   -2.318730

 Total Charge           Charge          ....    1
 Multiplicity           Mult            ....    1
 Number of Electrons    NEL             ....   48
 Basis Dimension        Dim             ....  134

ORBITAL ENERGIES
----------------

  NO   OCC          E(Eh)            E(eV)
   0   2.0000     -14.453620      -393.3030
   1   2.0000     -14.452547      -393.2738
   2   2.0000     -14.449014      -393.1777
   3   2.0000     -10.470451      -284.9155
   4   2.0000     -10.332637      -281.1654
   5   2.0000     -10.257862      -279.1306
   6   2.0000      -1.389315       -37.8052
   7   2.0000      -1.270463       -34.5710
   8   2.0000      -1.251314       -34.0500
   9   2.0000      -1.097014       -29.8513
  10   2.0000      -0.999954       -27.2101
  11   2.0000      -0.955623       -26.0038
  12   2.0000      -0.939119       -25.5547
  13   2.0000      -0.890692       -24.2370
  14   2.0000      -0.836335       -22.7578
  15   2.0000      -0.830284       -22.5932
  16   2.0000      -0.807265       -21.9668
  17   2.0000      -0.772575       -21.0228
  18   2.0000      -0.744596       -20.2615
  19   2.0000      -0.695824       -18.9343
  20   2.0000      -0.662234       -18.0203
  21   2.0000      -0.639348       -17.3975
  22   2.0000      -0.608053       -16.5460
  23   2.0000      -0.576986       -15.7006
  24   0.0000      -0.062282        -1.6948
  25   0.0000      -0.040525        -1.1027
  26   0.0000      -0.006737        -0.1833
  27   0.0000       0.000379         0.0103
  28   0.0000       0.022362         0.6085

MULLIKEN ATOMIC CHARGES
-----------------------
   0 C :   -0.114838
   1 N :   -0.166624
   2 C :    0.110204
   3 N :   -0.099787
   4 N :   -0.130512
   5 H :    0.201857
   6 H :    0.198036
   7 H :    0.201054
   8 H :    0.203856
   9 H :    0.204119
  10 C :   -0.116320
  11 H :    0.119613
  12 H :    0.107525
  13 H :    0.094616
  14 H :    0.114656
  15 H :    0.072545
Sum of atomic charges:    1.0000000

LOEWDIN ATOMIC CHARGES
----------------------
   0 C :    0.007220
   1 N :    0.021295
   2 C :    0.159098
   3 N :    0.031981
   4 N :    0.017787
   5 H :    0.114802
   6 H :    0.117415
   7 H :    0.118558
   8 H :    0.121074
   9 H :    0.120765
  10 C :   -0.082988
  11 H :    0.062737
  12 H :    0.043770
  13 H :    0.048932
  14 H :    0.060468
  15 H :    0.037085

  Mayer bond orders larger than 0.100000
B(  0-C ,  1-N ) :   0.9210 B(  0-C , 10-C ) :   1.0616 B(  0-C , 11-H ) :   0.9517
B(  0-C , 12-H ) :   0.9616 B(  1-N ,  2-C ) :   1.3887 B(  1-N ,  7-H ) :   0.9102
B(  2-C ,  3-N ) :   1.4055 B(  2-C ,  4-N ) :   1.3739 B(  3-N ,  8-H ) :   0.9206
B(  3-N ,  9-H ) :   0.9215 B(  4-N ,  5-H ) :   0.9173 B(  4-N ,  6-H ) :   0.9241
B( 10-C , 13-H ) :   0.9679 B( 10-C , 14-H ) :   0.9663 B( 10-C , 15-H ) :   0.9707

FINAL SINGLE POINT ENERGY      -283.297280203928

DIPOLE MOMENT
-------------
                                X             Y             Z
Electronic contribution:     -1.85988       1.62739      -4.55280
Nuclear contribution   :      1.34333      -1.11039       3.43667
                        -----------------------------------------
Total Dipole Moment    :     -0.51655       0.51700      -1.11613
                        -----------------------------------------
Magnitude (a.u.)       :      1.33411
Magnitude (Debye)      :      3.39105

Rotational constants in cm-1:     0.227161     0.075356     0.065003
Rotational constants in MHz :  6810.114531  2259.122204  1948.738523

                             ****ORCA TERMINATED NORMALLY****
TOTAL RUN TIME: 0 days 0 hours 0 minutes 13 seconds 621 msec
