                         Program Version 5.0.0 -  RELEASE  -
|  1> !LC-PBE RIJCOSX def2-SVP def2/J TightSCF
|  2> *xyz 0 1
|  3> C          4.90646       -3.10282       -5.95484
|  4> C          3.51177       -2.80621       -6.49228
|  5> H          2.73604       -3.37345       -5.97374
|  6> H          3.44490       -3.04083       -7.55528
|  7> S          3.00462       -1.09621       -6.38926
|  8> F          4.12886       -0.32965       -6.95372
|  9> O          1.78128       -1.00078       -7.13640
| 10> O          2.85155       -0.78368       -4.95679
| 11> H          5.62703       -2.52424       -6.49422
| 12> H          5.12164       -4.14387       -6.07654
| 13> H          4.95004       -2.84862       -4.91639
| 14> *
| 15>
| 16> %MaxCore 64000
| 17>
| 18> %pal nprocs 4
| 19> end
| 20>
| 21> %scf
| 22>   MaxIter 150
| 23> end
| 24>
| 25>
| 26>                          ****END OF INPUT****

CARTESIAN COORDINATES (ANGSTROEM)
---------------------------------
  C      4.906460   -3.102820   -5.954840
  C      3.511770   -2.806210   -6.492280
  H      2.736040   -3.373450   -5.973740
  H      3.444900   -3.040830   -7.555280
  S      3.004620   -1.096210   -6.389260
  F      4.128860   -0.329650   -6.953720
  O      1.781280   -1.000780   -7.136400
  O      2.851550   -0.783680   -4.956790
  H      5.627030   -2.524240   -6.494220
  H      5.121640   -4.143870   -6.076540
  H      4.950040   -2.848620   -4.916390

 Total Charge           Charge          ....    0
 Multiplicity           Mult            ....    1
 Number of Electrons    NEL             ....   58
 Basis Dimension        Dim             ....  113

ORBITAL ENERGIES
----------------

  NO   OCC          E(Eh)            E(eV)
   0   2.0000     -88.548720     -2409.5332
   1   2.0000     -24.600465      -669.4127
   2   2.0000     -18.993468      -516.8385
   3   2.0000     -18.979636      -516.4622
   4   2.0000     -10.191128      -277.3147
   5   2.0000     -10.152589      -276.2660
   6   2.0000      -8.180877      -222.6130
   7   2.0000      -6.207351      -168.9106
   8   2.0000      -6.200062      -168.7123
   9   2.0000      -6.198991      -168.6831
  10   2.0000      -1.508490       -41.0481
  11   2.0000      -1.275930       -34.7198
  12   2.0000      -1.164017       -31.6745
  13   2.0000      -1.005620       -27.3643
  14   2.0000      -0.883534       -24.0422
  15   2.0000      -0.835248       -22.7283
  16   2.0000      -0.740848       -20.1595
  17   2.0000      -0.719403       -19.5759
  18   2.0000      -0.688708       -18.7407
  19   2.0000      -0.643922       -17.5220
  20   2.0000      -0.620451       -16.8833
  21   2.0000      -0.595372       -16.2009
  22   2.0000      -0.572444       -15.5770
  23   2.0000      -0.549436       -14.9509
  24   2.0000      -0.534836       -14.5536
  25   2.0000      -0.515130       -14.0174
  26   2.0000      -0.464422       -12.6376
  27   2.0000      -0.451110       -12.2753
  28   2.0000      -0.436659       -11.8821
  29   0.0000       0.122390         3.3304
  30   0.0000       0.155451         4.2300
  31   0.0000       0.184069         5.0088
  32   0.0000       0.186161         5.0657
  33   0.0000       0.192589         5.2406

MULLIKEN ATOMIC CHARGES
-----------------------
   0 C :   -0.134498
   1 C :   -0.253651
   2 H :    0.148995
   3 H :    0.122209
   4 S :    0.907284
   5 F :   -0.183956
   6 O :   -0.415737
   7 O :   -0.461445
   8 H :    0.079470
   9 H :    0.091914
  10 H :    0.099416
Sum of atomic charges:   -0.0000000

LOEWDIN ATOMIC CHARGES
----------------------
   0 C :   -0.095646
   1 C :   -0.176100
   2 H :    0.067932
   3 H :    0.050284
   4 S :    1.152315
   5 F :   -0.137730
   6 O :   -0.477047
   7 O :   -0.521636
   8 H :    0.039505
   9 H :    0.050428
  10 H :    0.047695

  Mayer bond orders larger than 0.100000
B(  0-C ,  1-C ) :   1.0231 B(  0-C ,  8-H ) :   0.9744 B(  0-C ,  9-H ) :   0.9668
B(  0-C , 10-H ) :   0.9693 B(  1-C ,  2-H ) :   0.9324 B(  1-C ,  3-H ) :   0.9348
B(  1-C ,  4-S ) :   0.9347 B(  4-S ,  5-F ) :   1.0140 B(  4-S ,  6-O ) :   1.8169
B(  4-S ,  7-O ) :   1.7720

FINAL SINGLE POINT ENERGY      -726.003042520467

DIPOLE MOMENT
-------------
                                X             Y             Z
Electronic contribution:     -2.95979       8.17390      -1.78316
Nuclear contribution   :      4.18919      -9.36357       1.23251
                        -----------------------------------------
Total Dipole Moment    :      1.22940      -1.18967      -0.55065
                        -----------------------------------------
Magnitude (a.u.)       :      1.79721
Magnitude (Debye)      :      4.56814

Rotational constants in cm-1:     0.153152     0.082513     0.079874
Rotational constants in MHz :  4591.373714  2473.673397  2394.575279

                             ****ORCA TERMINATED NORMALLY****
TOTAL RUN TIME: 0 days 0 hours 0 minutes 9 seconds 44 msec
