                         Program Version 5.0.0 -  RELEASE  -
|  1> !LC-PBE RIJCOSX def2-SVP def2/J TightSCF
|  2> *xyz 0 1
|  3> C          4.49059        1.15590       -2.46929
|  4> C          4.30539        1.22276       -3.90832
|  5> C          4.63192        2.24637       -4.67096
|  6> N          4.54169        2.14399       -5.98714
|  7> N          5.08409        3.39358       -4.11855
|  8> H          4.92067        3.57050       -3.13587
|  9> H          5.25465        4.19739       -4.70696
| 10> H          3.82453        0.44911       -4.35093
| 11> H          4.34337        1.24932       -6.41665
| 12> H          4.67671        2.95662       -6.57411
| 13> C          5.94213        0.93950       -2.03689
| 14> H          3.86431        0.32853       -2.13661
| 15> H          4.07623        2.04999       -1.98901
| 16> H          6.32982        0.06401       -2.51451
| 17> H          5.98308        0.81426       -0.97504
| 18> H          6.52865        1.78889       -2.31873
| 19> *
| 20>
| 21> %MaxCore 64000
| 22>
| 23> %pal nprocs 4
| 24> end
| 25>
| 26> %scf
| 27>   MaxIter 150
| 28> end
| 29>
| 30>
| 31>                          ****END OF INPUT****

CARTESIAN COORDINATES (ANGSTROEM)
---------------------------------
  C      4.490590    1.155900   -2.469290
  C      4.305390    1.222760   -3.908320
  C      4.631920    2.246370   -4.670960
  N      4.541690    2.143990   -5.987140
  N      5.084090    3.393580   -4.118550
  H      4.920670    3.570500   -3.135870
  H      5.254650    4.197390   -4.706960
  H      3.824530    0.449110   -4.350930
  H      4.343370    1.249320   -6.416650
  H      4.676710    2.956620   -6.574110
  C      5.942130    0.939500   -2.036890
  H      3.864310    0.328530   -2.136610
  H      4.076230    2.049990   -1.989010
  H      6.329820    0.064010   -2.514510
  H      5.983080    0.814260   -0.975040
  H      6.528650    1.788890   -2.318730

 Total Charge           Charge          ....    0
 Multiplicity           Mult            ....    1
 Number of Electrons    NEL             ....   48
 Basis Dimension        Dim             ....  134

ORBITAL ENERGIES
----------------

  NO   OCC          E(Eh)            E(eV)
   0   2.0000     -14.220975      -386.9724
   1   2.0000     -14.218718      -386.9110
   2   2.0000     -10.166860      -276.6543
   3   2.0000     -10.094428      -274.6834
   4   2.0000     -10.083868      -274.3960
   5   2.0000     -10.036878      -273.1173
   6   2.0000      -1.121481       -30.5171
   7   2.0000      -1.021789       -27.8043
   8   2.0000      -0.936873       -25.4936
   9   2.0000      -0.849936       -23.1279
  10   2.0000      -0.767033       -20.8720
  11   2.0000      -0.722653       -19.6644
  12   2.0000      -0.683994       -18.6124
  13   2.0000      -0.647562       -17.6210
  14   2.0000      -0.607870       -16.5410
  15   2.0000      -0.572903       -15.5895
  16   2.0000      -0.560527       -15.2527
  17   2.0000      -0.524277       -14.2663
  18   2.0000      -0.519639       -14.1401
  19   2.0000      -0.479406       -13.0453
  20   2.0000      -0.451890       -12.2966
  21   2.0000      -0.437404       -11.9024
  22   2.0000      -0.391573       -10.6552
  23   2.0000      -0.267108        -7.2684
  24   0.0000       0.141199         3.8422
  25   0.0000       0.168914         4.5964
  26   0.0000       0.185352         5.0437
  27   0.0000       0.196608         5.3500
  28   0.0000       0.206463         5.6181

MULLIKEN ATOMIC CHARGES
-----------------------
   0 C :   -0.103073
   1 C :   -0.264051
   2 C :    0.031225
   3 N :   -0.143967
   4 N :   -0.170877
   5 H :    0.152256
   6 H :    0.131170
   7 H :   -0.039919
   8 H :    0.152557
   9 H :    0.130594
  10 C :   -0.080816
  11 H :    0.042936
  12 H :    0.030044
  13 H :    0.048303
  14 H :    0.042397
  15 H :    0.041222
Sum of atomic charges:   -0.0000000

LOEWDIN ATOMIC CHARGES
----------------------
   0 C :   -0.069707
   1 C :   -0.245340
   2 C :    0.033829
   3 N :   -0.039779
   4 N :   -0.049504
   5 H :    0.085794
   6 H :    0.073201
   7 H :    0.001081
   8 H :    0.092142
   9 H :    0.073446
  10 C :   -0.089250
  11 H :    0.037257
  12 H :    0.017228
  13 H :    0.031260
  14 H :    0.023993
  15 H :    0.024350

  Mayer bond orders larger than 0.100000
B(  0-C ,  1-C ) :   1.0422 B(  0-C , 10-C ) :   1.0636 B(  0-C , 11-H ) :   0.9451
B(  0-C , 12-H ) :   0.9591 B(  1-C ,  2-C ) :   1.7203 B(  1-C ,  7-H ) :   0.9682
B(  2-C ,  3-N ) :   1.2341 B(  2-C ,  4-N ) :   1.2256 B(  3-N ,  8-H ) :   0.9420
B(  3-N ,  9-H ) :   0.9515 B(  4-N ,  5-H ) :   0.9365 B(  4-N ,  6-H ) :   0.9527
B( 10-C , 13-H ) :   0.9729 B( 10-C , 14-H ) :   0.9763 B( 10-C , 15-H ) :   0.9756

FINAL SINGLE POINT ENERGY      -266.842439116882

DIPOLE MOMENT
-------------
                                X             Y             Z
Electronic contribution:     -1.24491       2.11094      -4.22838
Nuclear contribution   :      1.23062      -1.24683       3.43056
                        -----------------------------------------
Total Dipole Moment    :     -0.01429       0.86411      -0.79782
                        -----------------------------------------
Magnitude (a.u.)       :      1.17618
Magnitude (Debye)      :      2.98962

Rotational constants in cm-1:     0.231477     0.075416     0.065327
Rotational constants in MHz :  6939.497385  2260.912204  1958.442932

                             ****ORCA TERMINATED NORMALLY****
TOTAL RUN TIME: 0 days 0 hours 0 minutes 13 seconds 822 msec
