                         Program Version 5.0.0 -  RELEASE  -
|  1> !LC-PBE RIJCOSX def2-SVP def2/J TightSCF
|  2> *xyz 0 1
|  3> C          4.90646       -3.10282       -5.95484
|  4> C          3.51177       -2.80621       -6.49228
|  5> H          2.73604       -3.37345       -5.97374
|  6> H          3.44490       -3.04083       -7.55528
|  7> S          3.00462       -1.09621       -6.38926
|  8> O          4.12886       -0.32965       -6.95372
|  9> F          1.78128       -1.00078       -7.13640
| 10> O          2.85155       -0.78368       -4.95679
| 11> H          5.62703       -2.52424       -6.49422
| 12> H          5.12164       -4.14387       -6.07654
| 13> H          4.95004       -2.84862       -4.91639
| 14> *
| 15>
| 16> %MaxCore 64000
| 17>
| 18> %pal nprocs 4
| 19> end
| 20>
| 21> %scf
| 22>   MaxIter 150
| 23> end
| 24>
| 25>
| 26>                          ****END OF INPUT****

CARTESIAN COORDINATES (ANGSTROEM)
---------------------------------
  C      4.906460   -3.102820   -5.954840
  C      3.511770   -2.806210   -6.492280
  H      2.736040   -3.373450   -5.973740
  H      3.444900   -3.040830   -7.555280
  S      3.004620   -1.096210   -6.389260
  O      4.128860   -0.329650   -6.953720
  F      1.781280   -1.000780   -7.136400
  O      2.851550   -0.783680   -4.956790
  H      5.627030   -2.524240   -6.494220
  H      5.121640   -4.143870   -6.076540
  H      4.950040   -2.848620   -4.916390

 Total Charge           Charge          ....    0
 Multiplicity           Mult            ....    1
 Number of Electrons    NEL             ....   58
 Basis Dimension        Dim             ....  113

ORBITAL ENERGIES
----------------

  NO   OCC          E(Eh)            E(eV)
   0   2.0000     -88.550119     -2409.5712
   1   2.0000     -24.620126      -669.9477
   2   2.0000     -18.979743      -516.4651
   3   2.0000     -18.979247      -516.4516
   4   2.0000     -10.192075      -277.3405
   5   2.0000     -10.146855      -276.1099
   6   2.0000      -8.182452      -222.6558
   7   2.0000      -6.208988      -168.9552
   8   2.0000      -6.201421      -168.7493
   9   2.0000      -6.200439      -168.7225
  10   2.0000      -1.540430       -41.9172
  11   2.0000      -1.262863       -34.3643
  12   2.0000      -1.149247       -31.2726
  13   2.0000      -1.001665       -27.2567
  14   2.0000      -0.897959       -24.4347
  15   2.0000      -0.837574       -22.7915
  16   2.0000      -0.743632       -20.2352
  17   2.0000      -0.743409       -20.2292
  18   2.0000      -0.700812       -19.0701
  19   2.0000      -0.645818       -17.5736
  20   2.0000      -0.621592       -16.9144
  21   2.0000      -0.573365       -15.6021
  22   2.0000      -0.568408       -15.4672
  23   2.0000      -0.547135       -14.8883
  24   2.0000      -0.521810       -14.1992
  25   2.0000      -0.513361       -13.9693
  26   2.0000      -0.451886       -12.2964
  27   2.0000      -0.448066       -12.1925
  28   2.0000      -0.424193       -11.5429
  29   0.0000       0.136695         3.7197
  30   0.0000       0.141077         3.8389
  31   0.0000       0.176071         4.7911
  32   0.0000       0.185156         5.0383
  33   0.0000       0.191839         5.2202

MULLIKEN ATOMIC CHARGES
-----------------------
   0 C :   -0.117238
   1 C :   -0.246290
   2 H :    0.120940
   3 H :    0.114667
   4 S :    0.900326
   5 O :   -0.458444
   6 F :   -0.143840
   7 O :   -0.457974
   8 H :    0.100974
   9 H :    0.087911
  10 H :    0.098969
Sum of atomic charges:    0.0000000

LOEWDIN ATOMIC CHARGES
----------------------
   0 C :   -0.080452
   1 C :   -0.178096
   2 H :    0.050014
   3 H :    0.047042
   4 S :    1.147143
   5 O :   -0.516413
   6 F :   -0.099266
   7 O :   -0.518620
   8 H :    0.049669
   9 H :    0.049189
  10 H :    0.049791

  Mayer bond orders larger than 0.100000
B(  0-C ,  1-C ) :   1.0445 B(  0-C ,  8-H ) :   0.9675 B(  0-C ,  9-H ) :   0.9680
B(  0-C , 10-H ) :   0.9703 B(  1-C ,  2-H ) :   0.9317 B(  1-C ,  3-H ) :   0.9313
B(  1-C ,  4-S ) :   0.9316 B(  4-S ,  5-O ) :   1.7630 B(  4-S ,  6-F ) :   1.0628
B(  4-S ,  7-O ) :   1.7691

FINAL SINGLE POINT ENERGY      -725.985832180542

DIPOLE MOMENT
-------------
                                X             Y             Z
Electronic contribution:     -7.02270       7.03145      -2.10244
Nuclear contribution   :      6.63544      -8.66423       1.42287
                        -----------------------------------------
Total Dipole Moment    :     -0.38726      -1.63278      -0.67957
                        -----------------------------------------
Magnitude (a.u.)       :      1.81046
Magnitude (Debye)      :      4.60183

Rotational constants in cm-1:     0.158118     0.080978     0.078216
Rotational constants in MHz :  4740.271775  2427.649826  2344.849020

                             ****ORCA TERMINATED NORMALLY****
TOTAL RUN TIME: 0 days 0 hours 0 minutes 9 seconds 659 msec
