                         Program Version 5.0.0 -  RELEASE  -
|  1> !LC-PBE RIJCOSX def2-SVP def2/J TightSCF
|  2> *xyz 0 1
|  3> C          4.49059        1.15590       -2.46929
|  4> N          4.30539        1.22276       -3.90832
|  5> C          4.63192        2.24637       -4.67096
|  6> C          4.54169        2.14399       -5.98714
|  7> N          5.08409        3.39358       -4.11855
|  8> H          4.92067        3.57050       -3.13587
|  9> H          5.25465        4.19739       -4.70696
| 10> H          3.82453        0.44911       -4.35093
| 11> H          4.34337        1.24932       -6.41665
| 12> H          4.67671        2.95662       -6.57411
| 13> C          5.94213        0.93950       -2.03689
| 14> H          3.86431        0.32853       -2.13661
| 15> H          4.07623        2.04999       -1.98901
| 16> H          6.32982        0.06401       -2.51451
| 17> H          5.98308        0.81426       -0.97504
| 18> H          6.52865        1.78889       -2.31873
| 19> *
| 20>
| 21> %MaxCore 64000
| 22>
| 23> %pal nprocs 4
| 24> end
| 25>
| 26> %scf
| 27>   MaxIter 150
| 28> end
| 29>
| 30>
| 31>                          ****END OF INPUT****

CARTESIAN COORDINATES (ANGSTROEM)
---------------------------------
  C      4.490590    1.155900   -2.469290
  N      4.305390    1.222760   -3.908320
  C      4.631920    2.246370   -4.670960
  C      4.541690    2.143990   -5.987140
  N      5.084090    3.393580   -4.118550
  H      4.920670    3.570500   -3.135870
  H      5.254650    4.197390   -4.706960
  H      3.824530    0.449110   -4.350930
  H      4.343370    1.249320   -6.416650
  H      4.676710    2.956620   -6.574110
  C      5.942130    0.939500   -2.036890
  H      3.864310    0.328530   -2.136610
  H      4.076230    2.049990   -1.989010
  H      6.329820    0.064010   -2.514510
  H      5.983080    0.814260   -0.975040
  H      6.528650    1.788890   -2.318730

 Total Charge           Charge          ....    0
 Multiplicity           Mult            ....    1
 Number of Electrons    NEL             ....   48
 Basis Dimension        Dim             ....  134

ORBITAL ENERGIES
----------------

  NO   OCC          E(Eh)            E(eV)
   0   2.0000     -14.222830      -387.0229
   1   2.0000     -14.219958      -386.9447
   2   2.0000     -10.170361      -276.7496
   3   2.0000     -10.165397      -276.6145
   4   2.0000     -10.112175      -275.1663
   5   2.0000     -10.029687      -272.9217
   6   2.0000      -1.133086       -30.8328
   7   2.0000      -1.037657       -28.2361
   8   2.0000      -0.936506       -25.4836
   9   2.0000      -0.859461       -23.3871
  10   2.0000      -0.784328       -21.3427
  11   2.0000      -0.744399       -20.2561
  12   2.0000      -0.679143       -18.4804
  13   2.0000      -0.641148       -17.4465
  14   2.0000      -0.615983       -16.7617
  15   2.0000      -0.589116       -16.0307
  16   2.0000      -0.562780       -15.3140
  17   2.0000      -0.537853       -14.6357
  18   2.0000      -0.513069       -13.9613
  19   2.0000      -0.504903       -13.7391
  20   2.0000      -0.489956       -13.3324
  21   2.0000      -0.481494       -13.1021
  22   2.0000      -0.379745       -10.3334
  23   2.0000      -0.273222        -7.4347
  24   0.0000       0.137440         3.7399
  25   0.0000       0.163813         4.4576
  26   0.0000       0.180094         4.9006
  27   0.0000       0.196647         5.3510
  28   0.0000       0.206894         5.6299

MULLIKEN ATOMIC CHARGES
-----------------------
   0 C :   -0.072815
   1 N :   -0.192848
   2 C :    0.027320
   3 C :   -0.203597
   4 N :   -0.176886
   5 H :    0.134753
   6 H :    0.151968
   7 H :    0.156697
   8 H :   -0.014026
   9 H :   -0.014919
  10 C :   -0.099968
  11 H :    0.063135
  12 H :    0.058294
  13 H :    0.065301
  14 H :    0.057929
  15 H :    0.059662
Sum of atomic charges:   -0.0000000

LOEWDIN ATOMIC CHARGES
----------------------
   0 C :   -0.000717
   1 N :   -0.037762
   2 C :    0.044171
   3 C :   -0.283147
   4 N :   -0.048307
   5 H :    0.070997
   6 H :    0.090805
   7 H :    0.094541
   8 H :    0.001164
   9 H :    0.000890
  10 C :   -0.098062
  11 H :    0.038093
  12 H :    0.022878
  13 H :    0.037217
  14 H :    0.034512
  15 H :    0.032728

  Mayer bond orders larger than 0.100000
B(  0-C ,  1-N ) :   1.0109 B(  0-C , 10-C ) :   1.0555 B(  0-C , 11-H ) :   0.9646
B(  0-C , 12-H ) :   0.9648 B(  1-N ,  2-C ) :   1.1931 B(  1-N ,  7-H ) :   0.9328
B(  2-C ,  3-C ) :   1.7727 B(  2-C ,  4-N ) :   1.2003 B(  3-C ,  8-H ) :   0.9525
B(  3-C ,  9-H ) :   0.9525 B(  4-N ,  5-H ) :   0.9488 B(  4-N ,  6-H ) :   0.9452
B( 10-C , 13-H ) :   0.9700 B( 10-C , 14-H ) :   0.9712 B( 10-C , 15-H ) :   0.9689

FINAL SINGLE POINT ENERGY      -266.834479738924

DIPOLE MOMENT
-------------
                                X             Y             Z
Electronic contribution:     -1.44469       1.12901      -1.89289
Nuclear contribution   :      1.28075      -1.05140       2.98955
                        -----------------------------------------
Total Dipole Moment    :     -0.16394       0.07761       1.09667
                        -----------------------------------------
Magnitude (a.u.)       :      1.11157
Magnitude (Debye)      :      2.82538

Rotational constants in cm-1:     0.229858     0.078444     0.067377
Rotational constants in MHz :  6890.979812  2351.691803  2019.910665

                             ****ORCA TERMINATED NORMALLY****
TOTAL RUN TIME: 0 days 0 hours 0 minutes 14 seconds 853 msec
