                         Program Version 5.0.0 -  RELEASE  -
|  1> !LC-PBE RIJCOSX def2-SVP def2/J TightSCF
|  2> *xyz 0 1
|  3> C          4.90646       -3.10282       -5.95484
|  4> C          3.51177       -2.80621       -6.49228
|  5> H          2.73604       -3.37345       -5.97374
|  6> H          3.44490       -3.04083       -7.55528
|  7> S          3.00462       -1.09621       -6.38926
|  8> O          4.12886       -0.32965       -6.95372
|  9> O          1.78128       -1.00078       -7.13640
| 10> F          2.85155       -0.78368       -4.95679
| 11> H          5.62703       -2.52424       -6.49422
| 12> H          5.12164       -4.14387       -6.07654
| 13> H          4.95004       -2.84862       -4.91639
| 14> *
| 15>
| 16> %MaxCore 64000
| 17>
| 18> %pal nprocs 4
| 19> end
| 20>
| 21> %scf
| 22>   MaxIter 150
| 23> end
| 24>
| 25>
| 26>                          ****END OF INPUT****

CARTESIAN COORDINATES (ANGSTROEM)
---------------------------------
  C      4.906460   -3.102820   -5.954840
  C      3.511770   -2.806210   -6.492280
  H      2.736040   -3.373450   -5.973740
  H      3.444900   -3.040830   -7.555280
  S      3.004620   -1.096210   -6.389260
  O      4.128860   -0.329650   -6.953720
  O      1.781280   -1.000780   -7.136400
  F      2.851550   -0.783680   -4.956790
  H      5.627030   -2.524240   -6.494220
  H      5.121640   -4.143870   -6.076540
  H      4.950040   -2.848620   -4.916390

 Total Charge           Charge          ....    0
 Multiplicity           Mult            ....    1
 Number of Electrons    NEL             ....   58
 Basis Dimension        Dim             ....  113

ORBITAL ENERGIES
----------------

  NO   OCC          E(Eh)            E(eV)
   0   2.0000     -88.549068     -2409.5426
   1   2.0000     -24.599784      -669.3942
   2   2.0000     -18.993836      -516.8486
   3   2.0000     -18.980805      -516.4940
   4   2.0000     -10.191021      -277.3118
   5   2.0000     -10.149208      -276.1740
   6   2.0000      -8.181197      -222.6217
   7   2.0000      -6.207614      -168.9178
   8   2.0000      -6.200382      -168.7210
   9   2.0000      -6.199379      -168.6937
  10   2.0000      -1.507419       -41.0190
  11   2.0000      -1.276298       -34.7298
  12   2.0000      -1.166190       -31.7336
  13   2.0000      -1.002996       -27.2929
  14   2.0000      -0.882824       -24.0229
  15   2.0000      -0.833937       -22.6926
  16   2.0000      -0.737683       -20.0734
  17   2.0000      -0.718122       -19.5411
  18   2.0000      -0.691193       -18.8083
  19   2.0000      -0.642089       -17.4721
  20   2.0000      -0.623359       -16.9625
  21   2.0000      -0.595232       -16.1971
  22   2.0000      -0.569349       -15.4928
  23   2.0000      -0.545236       -14.8366
  24   2.0000      -0.535575       -14.5737
  25   2.0000      -0.512153       -13.9364
  26   2.0000      -0.465186       -12.6584
  27   2.0000      -0.451907       -12.2970
  28   2.0000      -0.438629       -11.9357
  29   0.0000       0.124145         3.3782
  30   0.0000       0.150873         4.1055
  31   0.0000       0.182646         4.9701
  32   0.0000       0.186152         5.0654
  33   0.0000       0.192168         5.2292

MULLIKEN ATOMIC CHARGES
-----------------------
   0 C :   -0.129681
   1 C :   -0.255197
   2 H :    0.119511
   3 H :    0.147983
   4 S :    0.909001
   5 O :   -0.461776
   6 O :   -0.416976
   7 F :   -0.183921
   8 H :    0.104073
   9 H :    0.088465
  10 H :    0.078516
Sum of atomic charges:   -0.0000000

LOEWDIN ATOMIC CHARGES
----------------------
   0 C :   -0.093944
   1 C :   -0.176722
   2 H :    0.048827
   3 H :    0.067419
   4 S :    1.152229
   5 O :   -0.518725
   6 O :   -0.477723
   7 F :   -0.139713
   8 H :    0.049073
   9 H :    0.048982
  10 H :    0.040297

  Mayer bond orders larger than 0.100000
B(  0-C ,  1-C ) :   1.0246 B(  0-C ,  8-H ) :   0.9669 B(  0-C ,  9-H ) :   0.9665
B(  0-C , 10-H ) :   0.9752 B(  1-C ,  2-H ) :   0.9351 B(  1-C ,  3-H ) :   0.9322
B(  1-C ,  4-S ) :   0.9318 B(  4-S ,  5-O ) :   1.7678 B(  4-S ,  6-O ) :   1.8183
B(  4-S ,  7-F ) :   1.0167

FINAL SINGLE POINT ENERGY      -726.003700495613

DIPOLE MOMENT
-------------
                                X             Y             Z
Electronic contribution:     -5.17952       7.40185       1.67543
Nuclear contribution   :      5.52019      -8.89046      -0.84835
                        -----------------------------------------
Total Dipole Moment    :      0.34067      -1.48861       0.82708
                        -----------------------------------------
Magnitude (a.u.)       :      1.73668
Magnitude (Debye)      :      4.41429

Rotational constants in cm-1:     0.153332     0.082132     0.079755
Rotational constants in MHz :  4596.775407  2462.251277  2391.008596

                             ****ORCA TERMINATED NORMALLY****
TOTAL RUN TIME: 0 days 0 hours 0 minutes 9 seconds 65 msec
