                         Program Version 5.0.0 -  RELEASE  -
|  1> !LC-PBE RIJCOSX def2-SVP def2/J TightSCF
|  2> *xyz 0 1
|  3> C          4.49059        1.15590       -2.46929
|  4> N          4.30539        1.22276       -3.90832
|  5> C          4.63192        2.24637       -4.67096
|  6> N          4.54169        2.14399       -5.98714
|  7> C          5.08409        3.39358       -4.11855
|  8> H          4.92067        3.57050       -3.13587
|  9> H          5.25465        4.19739       -4.70696
| 10> H          3.82453        0.44911       -4.35093
| 11> H          4.34337        1.24932       -6.41665
| 12> H          4.67671        2.95662       -6.57411
| 13> C          5.94213        0.93950       -2.03689
| 14> H          3.86431        0.32853       -2.13661
| 15> H          4.07623        2.04999       -1.98901
| 16> H          6.32982        0.06401       -2.51451
| 17> H          5.98308        0.81426       -0.97504
| 18> H          6.52865        1.78889       -2.31873
| 19> *
| 20>
| 21> %MaxCore 64000
| 22>
| 23> %pal nprocs 4
| 24> end
| 25>
| 26> %scf
| 27>   MaxIter 150
| 28> end
| 29>
| 30>
| 31>                          ****END OF INPUT****

CARTESIAN COORDINATES (ANGSTROEM)
---------------------------------
  C      4.490590    1.155900   -2.469290
  N      4.305390    1.222760   -3.908320
  C      4.631920    2.246370   -4.670960
  N      4.541690    2.143990   -5.987140
  C      5.084090    3.393580   -4.118550
  H      4.920670    3.570500   -3.135870
  H      5.254650    4.197390   -4.706960
  H      3.824530    0.449110   -4.350930
  H      4.343370    1.249320   -6.416650
  H      4.676710    2.956620   -6.574110
  C      5.942130    0.939500   -2.036890
  H      3.864310    0.328530   -2.136610
  H      4.076230    2.049990   -1.989010
  H      6.329820    0.064010   -2.514510
  H      5.983080    0.814260   -0.975040
  H      6.528650    1.788890   -2.318730

 Total Charge           Charge          ....    0
 Multiplicity           Mult            ....    1
 Number of Electrons    NEL             ....   48
 Basis Dimension        Dim             ....  134

ORBITAL ENERGIES
----------------

  NO   OCC          E(Eh)            E(eV)
   0   2.0000     -14.226838      -387.1319
   1   2.0000     -14.222687      -387.0190
   2   2.0000     -10.173743      -276.8416
   3   2.0000     -10.155624      -276.3486
   4   2.0000     -10.100573      -274.8506
   5   2.0000     -10.028312      -272.8842
   6   2.0000      -1.136323       -30.9209
   7   2.0000      -1.045760       -28.4566
   8   2.0000      -0.914685       -24.8899
   9   2.0000      -0.863673       -23.5017
  10   2.0000      -0.794177       -21.6107
  11   2.0000      -0.705654       -19.2018
  12   2.0000      -0.697866       -18.9899
  13   2.0000      -0.661459       -17.9992
  14   2.0000      -0.611804       -16.6480
  15   2.0000      -0.577472       -15.7138
  16   2.0000      -0.552906       -15.0453
  17   2.0000      -0.529645       -14.4124
  18   2.0000      -0.509364       -13.8605
  19   2.0000      -0.494945       -13.4681
  20   2.0000      -0.490412       -13.3448
  21   2.0000      -0.470423       -12.8009
  22   2.0000      -0.374880       -10.2010
  23   2.0000      -0.272293        -7.4095
  24   0.0000       0.140328         3.8185
  25   0.0000       0.168083         4.5738
  26   0.0000       0.179209         4.8765
  27   0.0000       0.194646         5.2966
  28   0.0000       0.213388         5.8066

MULLIKEN ATOMIC CHARGES
-----------------------
   0 C :   -0.045951
   1 N :   -0.207606
   2 C :    0.023231
   3 N :   -0.157707
   4 C :   -0.222453
   5 H :   -0.003267
   6 H :   -0.022018
   7 H :    0.133820
   8 H :    0.132069
   9 H :    0.157879
  10 C :   -0.101328
  11 H :    0.053674
  12 H :    0.075806
  13 H :    0.050723
  14 H :    0.055494
  15 H :    0.077634
Sum of atomic charges:    0.0000000

LOEWDIN ATOMIC CHARGES
----------------------
   0 C :    0.012695
   1 N :   -0.037144
   2 C :    0.043631
   3 N :   -0.035790
   4 C :   -0.303775
   5 H :    0.000253
   6 H :   -0.002140
   7 H :    0.076267
   8 H :    0.074050
   9 H :    0.093613
  10 C :   -0.094402
  11 H :    0.032769
  12 H :    0.033717
  13 H :    0.031082
  14 H :    0.034113
  15 H :    0.041060

  Mayer bond orders larger than 0.100000
B(  0-C ,  1-N ) :   0.9968 B(  0-C , 10-C ) :   1.0696 B(  0-C , 11-H ) :   0.9672
B(  0-C , 12-H ) :   0.9571 B(  1-N ,  2-C ) :   1.1848 B(  1-N ,  7-H ) :   0.9414
B(  2-C ,  3-N ) :   1.2311 B(  2-C ,  4-C ) :   1.7335 B(  3-N ,  8-H ) :   0.9535
B(  3-N ,  9-H ) :   0.9429 B(  4-C ,  5-H ) :   0.9472 B(  4-C ,  6-H ) :   0.9568
B( 10-C , 13-H ) :   0.9707 B( 10-C , 14-H ) :   0.9728 B( 10-C , 15-H ) :   0.9664

FINAL SINGLE POINT ENERGY      -266.832770001096

DIPOLE MOMENT
-------------
                                X             Y             Z
Electronic contribution:     -1.96013      -0.21383      -3.93869
Nuclear contribution   :      1.39581      -0.78630       3.38596
                        -----------------------------------------
Total Dipole Moment    :     -0.56432      -1.00013      -0.55272
                        -----------------------------------------
Magnitude (a.u.)       :      1.27445
Magnitude (Debye)      :      3.23939

Rotational constants in cm-1:     0.239249     0.075811     0.066261
Rotational constants in MHz :  7172.504830  2272.756282  1986.457543

                             ****ORCA TERMINATED NORMALLY****
TOTAL RUN TIME: 0 days 0 hours 0 minutes 14 seconds 483 msec
