                         Program Version 5.0.0 -  RELEASE  -
|  1> !LC-PBE RIJCOSX def2-TZVP def2/J TightSCF xyzfile
|  2>
|  3> *xyzfile 0 1 D1.xyz
|  4>
|  5> %MaxCore 64000
|  6>
|  7> %pal nprocs 18
|  8> end
|  9>
| 10> %scf
| 11>   MaxIter 150
| 12> end
| 13>
| 14>
| 15>                          ****END OF INPUT****

CARTESIAN COORDINATES (ANGSTROEM)
---------------------------------
  C      4.490588    1.155899   -2.469290
  C      4.305394    1.222762   -3.908317
  C      4.906458   -3.102816   -5.954844
  C      3.511771   -2.806215   -6.492283
  H      2.736044   -3.373445   -5.973736
  H      3.444904   -3.040831   -7.555281
  S      3.004618   -1.096206   -6.389259
  C      4.631918    2.246365   -4.670958
  N      4.541686    2.143990   -5.987139
  N      5.084086    3.393584   -4.118545
  H      4.920675    3.570501   -3.135870
  H      5.254652    4.197390   -4.706956
  H      3.824530    0.449113   -4.350926
  H      4.343373    1.249318   -6.416646
  H      4.676712    2.956624   -6.574113
  F      4.128856   -0.329647   -6.953717
  O      1.781285   -1.000779   -7.136399
  C      5.942129    0.939500   -2.036893
  H      3.864305    0.328532   -2.136611
  H      4.076233    2.049994   -1.989010
  C      6.462677   -3.117775   -3.944671
  C      5.024977   -3.025679   -4.437625
  H      4.423321   -3.818693   -3.977648
  H      4.579350   -2.087131   -4.108727
  H      5.201533   -4.100207   -6.296905
  H      5.605922   -2.397822   -6.413368
  C      6.559957   -0.356290   -2.559086
  H      5.967976    0.952567   -0.942444
  H      6.547184    1.788331   -2.368849
  C      6.006283   -1.615917   -1.899301
  H      7.642360   -0.318000   -2.402059
  H      6.414855   -0.403433   -3.642587
  C      6.608718   -2.917014   -2.435655
  H      6.190324   -1.561115   -0.820948
  H      4.919250   -1.651245   -2.016586
  H      7.066975   -2.374258   -4.475514
  H      6.887808   -4.089747   -4.215332
  H      6.135197   -3.755573   -1.915159
  H      7.671142   -2.955503   -2.172291
  O      2.851546   -0.783683   -4.956789

 Total Charge           Charge          ....    0
 Multiplicity           Mult            ....    1
 Number of Electrons    NEL             ....  144
 Basis Dimension        Dim             ....  671

ORBITAL ENERGIES
----------------

  NO   OCC          E(Eh)            E(eV)
   0   2.0000     -88.541718     -2409.3426
   1   2.0000     -24.620544      -669.9591
   2   2.0000     -19.002768      -517.0916
   3   2.0000     -18.989300      -516.7251
   4   2.0000     -14.199459      -386.3869
   5   2.0000     -14.195371      -386.2757
   6   2.0000     -10.184307      -277.1291
   7   2.0000     -10.146312      -276.0952
   8   2.0000     -10.144498      -276.0458
   9   2.0000     -10.114219      -275.2219
  10   2.0000     -10.109667      -275.0980
  11   2.0000     -10.103127      -274.9201
  12   2.0000     -10.093487      -274.6577
  13   2.0000     -10.086294      -274.4620
  14   2.0000     -10.081340      -274.3272
  15   2.0000     -10.073801      -274.1220
  16   2.0000     -10.004736      -272.2427
  17   2.0000      -8.153285      -221.8622
  18   2.0000      -6.174057      -168.0046
  19   2.0000      -6.166297      -167.7935
  20   2.0000      -6.166019      -167.7859
  21   2.0000      -1.544178       -42.0192
  22   2.0000      -1.291983       -35.1566
  23   2.0000      -1.187859       -32.3233
  24   2.0000      -1.123328       -30.5673
  25   2.0000      -1.029058       -28.0021
  26   2.0000      -1.024562       -27.8797
  27   2.0000      -0.988310       -26.8933
  28   2.0000      -0.956363       -26.0240
  29   2.0000      -0.925881       -25.1945
  30   2.0000      -0.894324       -24.3358
  31   2.0000      -0.870620       -23.6908
  32   2.0000      -0.838465       -22.8158
  33   2.0000      -0.804898       -21.9024
  34   2.0000      -0.779635       -21.2150
  35   2.0000      -0.768548       -20.9133
  36   2.0000      -0.751492       -20.4491
  37   2.0000      -0.741563       -20.1789
  38   2.0000      -0.715822       -19.4785
  39   2.0000      -0.713503       -19.4154
  40   2.0000      -0.696763       -18.9599
  41   2.0000      -0.674709       -18.3598
  42   2.0000      -0.649885       -17.6843
  43   2.0000      -0.639767       -17.4090
  44   2.0000      -0.632907       -17.2223
  45   2.0000      -0.620951       -16.8969
  46   2.0000      -0.607886       -16.5414
  47   2.0000      -0.596107       -16.2209
  48   2.0000      -0.593685       -16.1550
  49   2.0000      -0.590070       -16.0566
  50   2.0000      -0.567881       -15.4528
  51   2.0000      -0.560490       -15.2517
  52   2.0000      -0.559245       -15.2178
  53   2.0000      -0.547845       -14.9076
  54   2.0000      -0.530847       -14.4451
  55   2.0000      -0.522974       -14.2308
  56   2.0000      -0.518247       -14.1022
  57   2.0000      -0.504541       -13.7293
  58   2.0000      -0.503230       -13.6936
  59   2.0000      -0.486704       -13.2439
  60   2.0000      -0.484789       -13.1918
  61   2.0000      -0.474702       -12.9173
  62   2.0000      -0.468016       -12.7354
  63   2.0000      -0.450815       -12.2673
  64   2.0000      -0.449606       -12.2344
  65   2.0000      -0.444595       -12.0980
  66   2.0000      -0.433506       -11.7963
  67   2.0000      -0.423353       -11.5200
  68   2.0000      -0.416335       -11.3290
  69   2.0000      -0.401073       -10.9138
  70   2.0000      -0.385788       -10.4978
  71   2.0000      -0.259421        -7.0592
  72   0.0000       0.091640         2.4936
  73   0.0000       0.116068         3.1584
  74   0.0000       0.122875         3.3436
  75   0.0000       0.129306         3.5186
  76   0.0000       0.130270         3.5448

MULLIKEN ATOMIC CHARGES
-----------------------
   0 C :   -0.467101
   1 C :   -0.425273
   2 C :   -0.337785
   3 C :   -0.315111
   4 H :    0.213318
   5 H :    0.210074
   6 S :    0.771474
   7 C :    0.392741
   8 N :   -0.498529
   9 N :   -0.520760
  10 H :    0.266295
  11 H :    0.230974
  12 H :    0.131390
  13 H :    0.245336
  14 H :    0.233967
  15 F :   -0.114431
  16 O :   -0.368011
  17 C :   -0.220408
  18 H :    0.162178
  19 H :    0.146830
  20 C :   -0.353393
  21 C :   -0.325484
  22 H :    0.151734
  23 H :    0.195753
  24 H :    0.170221
  25 H :    0.180578
  26 C :   -0.268674
  27 H :    0.128257
  28 H :    0.145682
  29 C :   -0.378926
  30 H :    0.144425
  31 H :    0.163929
  32 C :   -0.239785
  33 H :    0.150849
  34 H :    0.174031
  35 H :    0.171291
  36 H :    0.150685
  37 H :    0.147990
  38 H :    0.149822
  39 O :   -0.396155
Sum of atomic charges:   -0.0000000

LOEWDIN ATOMIC CHARGES
----------------------
   0 C :   -0.302374
   1 C :   -0.298833
   2 C :   -0.304250
   3 C :   -0.373655
   4 H :    0.164935
   5 H :    0.153384
   6 S :    0.535173
   7 C :   -0.468531
   8 N :   -0.031511
   9 N :   -0.034161
  10 H :    0.177640
  11 H :    0.162505
  12 H :    0.111809
  13 H :    0.151034
  14 H :    0.164751
  15 F :    0.087632
  16 O :   -0.245504
  17 C :   -0.282290
  18 H :    0.150972
  19 H :    0.135503
  20 C :   -0.289759
  21 C :   -0.288895
  22 H :    0.147383
  23 H :    0.152538
  24 H :    0.154598
  25 H :    0.149806
  26 C :   -0.284495
  27 H :    0.137729
  28 H :    0.141767
  29 C :   -0.288247
  30 H :    0.141685
  31 H :    0.145865
  32 C :   -0.285988
  33 H :    0.144396
  34 H :    0.143461
  35 H :    0.145281
  36 H :    0.142729
  37 H :    0.143696
  38 H :    0.144765
  39 O :   -0.252545

  Mayer bond orders larger than 0.100000
B(  0-C ,  1-C ) :   0.9324 B(  0-C , 17-C ) :   0.9003 B(  0-C , 18-H ) :   1.0202
B(  0-C , 19-H ) :   1.0068 B(  1-C ,  7-C ) :   1.6102 B(  1-C , 12-H ) :   0.9845
B(  2-C ,  3-C ) :   0.9367 B(  2-C , 21-C ) :   0.9035 B(  2-C , 24-H ) :   0.9628
B(  2-C , 25-H ) :   0.9825 B(  3-C ,  4-H ) :   0.9347 B(  3-C ,  5-H ) :   0.9543
B(  3-C ,  6-S ) :   0.9309 B(  6-S , 15-F ) :   1.0807 B(  6-S , 16-O ) :   2.0199
B(  6-S , 39-O ) :   1.8472 B(  7-C ,  8-N ) :   1.1471 B(  7-C ,  9-N ) :   1.1304
B(  8-N , 13-H ) :   0.9103 B(  8-N , 14-H ) :   0.9274 B(  9-N , 10-H ) :   0.9112
B(  9-N , 11-H ) :   0.9327 B( 17-C , 26-C ) :   0.9646 B( 17-C , 27-H ) :   0.9921
B( 17-C , 28-H ) :   0.9788 B( 20-C , 21-C ) :   0.9168 B( 20-C , 32-C ) :   0.9467
B( 20-C , 35-H ) :   0.9867 B( 20-C , 36-H ) :   0.9788 B( 21-C , 22-H ) :   0.9653
B( 21-C , 23-H ) :   0.9669 B( 26-C , 29-C ) :   0.8971 B( 26-C , 30-H ) :   0.9810
B( 26-C , 31-H ) :   0.9648 B( 29-C , 32-C ) :   0.9345 B( 29-C , 33-H ) :   0.9764
B( 29-C , 34-H ) :   0.9887 B( 32-C , 37-H ) :   0.9929 B( 32-C , 38-H ) :   0.9884

FINAL SINGLE POINT ENERGY     -1188.462089497447

DIPOLE MOMENT
-------------
                                X             Y             Z
Electronic contribution:    -16.27951       4.87483     -21.47753
Nuclear contribution   :     17.24138      -5.45913      20.34076
                        -----------------------------------------
Total Dipole Moment    :      0.96187      -0.58430      -1.13677
                        -----------------------------------------
Magnitude (a.u.)       :      1.59964
Magnitude (Debye)      :      4.06597

Rotational constants in cm-1:     0.014201     0.012275     0.007453
Rotational constants in MHz :   425.728191   368.008875   223.435232

                             ****ORCA TERMINATED NORMALLY****
TOTAL RUN TIME: 0 days 0 hours 1 minutes 39 seconds 473 msec
