                         Program Version 5.0.0 -  RELEASE  -
|  1> !LC-PBE RIJCOSX def2-TZVP def2/J TightSCF xyzfile
|  2>
|  3> *xyzfile 0 1 D2.xyz
|  4>
|  5> %MaxCore 64000
|  6>
|  7> %pal nprocs 18
|  8> end
|  9>
| 10> %scf
| 11>   MaxIter 150
| 12> end
| 13>
| 14>
| 15>                          ****END OF INPUT****

CARTESIAN COORDINATES (ANGSTROEM)
---------------------------------
  C      4.490588    1.155899   -2.469290
  N      4.305394    1.222762   -3.908317
  C      4.906458   -3.102816   -5.954844
  C      3.511771   -2.806215   -6.492283
  H      2.736044   -3.373445   -5.973736
  H      3.444904   -3.040831   -7.555281
  S      3.004618   -1.096206   -6.389259
  C      4.631918    2.246365   -4.670958
  C      4.541686    2.143990   -5.987139
  N      5.084086    3.393584   -4.118545
  H      4.920675    3.570501   -3.135870
  H      5.254652    4.197390   -4.706956
  H      3.824530    0.449113   -4.350926
  H      4.343373    1.249318   -6.416646
  H      4.676712    2.956624   -6.574113
  F      4.128856   -0.329647   -6.953717
  O      1.781285   -1.000779   -7.136399
  C      5.942129    0.939500   -2.036893
  H      3.864305    0.328532   -2.136611
  H      4.076233    2.049994   -1.989010
  C      6.462677   -3.117775   -3.944671
  C      5.024977   -3.025679   -4.437625
  H      4.423321   -3.818693   -3.977648
  H      4.579350   -2.087131   -4.108727
  H      5.201533   -4.100207   -6.296905
  H      5.605922   -2.397822   -6.413368
  C      6.559957   -0.356290   -2.559086
  H      5.967976    0.952567   -0.942444
  H      6.547184    1.788331   -2.368849
  C      6.006283   -1.615917   -1.899301
  H      7.642360   -0.318000   -2.402059
  H      6.414855   -0.403433   -3.642587
  C      6.608718   -2.917014   -2.435655
  H      6.190324   -1.561115   -0.820948
  H      4.919250   -1.651245   -2.016586
  H      7.066975   -2.374258   -4.475514
  H      6.887808   -4.089747   -4.215332
  H      6.135197   -3.755573   -1.915159
  H      7.671142   -2.955503   -2.172291
  O      2.851546   -0.783683   -4.956789

 Total Charge           Charge          ....    0
 Multiplicity           Mult            ....    1
 Number of Electrons    NEL             ....  144
 Basis Dimension        Dim             ....  671

ORBITAL ENERGIES
----------------

  NO   OCC          E(Eh)            E(eV)
   0   2.0000     -88.544992     -2409.4317
   1   2.0000     -24.606444      -669.5754
   2   2.0000     -19.002948      -517.0965
   3   2.0000     -19.000868      -517.0399
   4   2.0000     -14.198825      -386.3697
   5   2.0000     -14.185355      -386.0031
   6   2.0000     -10.186201      -277.1806
   7   2.0000     -10.150405      -276.2066
   8   2.0000     -10.149650      -276.1860
   9   2.0000     -10.138485      -275.8822
  10   2.0000     -10.121742      -275.4266
  11   2.0000     -10.117147      -275.3016
  12   2.0000     -10.112929      -275.1868
  13   2.0000     -10.107663      -275.0435
  14   2.0000     -10.103761      -274.9373
  15   2.0000     -10.103466      -274.9293
  16   2.0000     -10.004246      -272.2294
  17   2.0000      -8.156171      -221.9407
  18   2.0000      -6.176664      -168.0756
  19   2.0000      -6.169563      -167.8823
  20   2.0000      -6.169012      -167.8674
  21   2.0000      -1.532107       -41.6908
  22   2.0000      -1.294505       -35.2253
  23   2.0000      -1.194597       -32.5066
  24   2.0000      -1.128759       -30.7151
  25   2.0000      -1.037348       -28.2277
  26   2.0000      -1.031386       -28.0654
  27   2.0000      -0.995666       -27.0934
  28   2.0000      -0.962531       -26.1918
  29   2.0000      -0.923123       -25.1194
  30   2.0000      -0.897092       -24.4111
  31   2.0000      -0.867026       -23.5930
  32   2.0000      -0.846610       -23.0374
  33   2.0000      -0.812873       -22.1194
  34   2.0000      -0.788557       -21.4577
  35   2.0000      -0.761427       -20.7195
  36   2.0000      -0.751654       -20.4536
  37   2.0000      -0.741104       -20.1665
  38   2.0000      -0.737128       -20.0583
  39   2.0000      -0.713238       -19.4082
  40   2.0000      -0.706202       -19.2167
  41   2.0000      -0.666741       -18.1429
  42   2.0000      -0.651668       -17.7328
  43   2.0000      -0.639936       -17.4135
  44   2.0000      -0.631656       -17.1882
  45   2.0000      -0.627509       -17.0754
  46   2.0000      -0.613976       -16.7071
  47   2.0000      -0.608068       -16.5464
  48   2.0000      -0.604227       -16.4418
  49   2.0000      -0.583513       -15.8782
  50   2.0000      -0.579665       -15.7735
  51   2.0000      -0.573809       -15.6141
  52   2.0000      -0.563715       -15.3395
  53   2.0000      -0.542015       -14.7490
  54   2.0000      -0.533441       -14.5157
  55   2.0000      -0.531335       -14.4584
  56   2.0000      -0.517383       -14.0787
  57   2.0000      -0.511513       -13.9190
  58   2.0000      -0.503350       -13.6969
  59   2.0000      -0.496286       -13.5046
  60   2.0000      -0.492202       -13.3935
  61   2.0000      -0.484880       -13.1943
  62   2.0000      -0.473734       -12.8909
  63   2.0000      -0.472792       -12.8653
  64   2.0000      -0.463730       -12.6187
  65   2.0000      -0.460056       -12.5188
  66   2.0000      -0.452737       -12.3196
  67   2.0000      -0.440120       -11.9763
  68   2.0000      -0.437153       -11.8955
  69   2.0000      -0.432828       -11.7778
  70   2.0000      -0.367934       -10.0120
  71   2.0000      -0.266242        -7.2448
  72   0.0000       0.093603         2.5471
  73   0.0000       0.117720         3.2033
  74   0.0000       0.120090         3.2678
  75   0.0000       0.125186         3.4065
  76   0.0000       0.129059         3.5119

MULLIKEN ATOMIC CHARGES
-----------------------
   0 C :   -0.405630
   1 N :   -0.279287
   2 C :   -0.341367
   3 C :   -0.317603
   4 H :    0.211909
   5 H :    0.213990
   6 S :    0.798798
   7 C :    0.439307
   8 C :   -0.683390
   9 N :   -0.530568
  10 H :    0.249413
  11 H :    0.255735
  12 H :    0.232651
  13 H :    0.098395
  14 H :    0.126952
  15 F :   -0.078748
  16 O :   -0.365112
  17 C :   -0.207229
  18 H :    0.190248
  19 H :    0.167477
  20 C :   -0.357203
  21 C :   -0.312591
  22 H :    0.154434
  23 H :    0.169207
  24 H :    0.171062
  25 H :    0.188772
  26 C :   -0.306768
  27 H :    0.139326
  28 H :    0.162317
  29 C :   -0.372964
  30 H :    0.152785
  31 H :    0.170563
  32 C :   -0.244295
  33 H :    0.154556
  34 H :    0.168551
  35 H :    0.176435
  36 H :    0.154556
  37 H :    0.151665
  38 H :    0.153847
  39 O :   -0.450197
Sum of atomic charges:   -0.0000000

LOEWDIN ATOMIC CHARGES
----------------------
   0 C :   -0.314865
   1 N :    0.118772
   2 C :   -0.303389
   3 C :   -0.373324
   4 H :    0.163854
   5 H :    0.155294
   6 S :    0.548102
   7 C :   -0.466403
   8 C :   -0.380043
   9 N :   -0.028615
  10 H :    0.165162
  11 H :    0.177786
  12 H :    0.165428
  13 H :    0.083731
  14 H :    0.099522
  15 F :    0.103394
  16 O :   -0.240464
  17 C :   -0.289707
  18 H :    0.144392
  19 H :    0.132247
  20 C :   -0.288997
  21 C :   -0.289878
  22 H :    0.147879
  23 H :    0.147382
  24 H :    0.155174
  25 H :    0.152134
  26 C :   -0.285226
  27 H :    0.144138
  28 H :    0.145811
  29 C :   -0.289655
  30 H :    0.145797
  31 H :    0.147801
  32 C :   -0.284732
  33 H :    0.145334
  34 H :    0.141850
  35 H :    0.146312
  36 H :    0.144383
  37 H :    0.144971
  38 H :    0.146056
  39 O :   -0.277410

  Mayer bond orders larger than 0.100000
B(  0-C ,  1-N ) :   0.9321 B(  0-C , 17-C ) :   0.8821 B(  0-C , 18-H ) :   0.9909
B(  0-C , 19-H ) :   1.0045 B(  1-N ,  7-C ) :   1.1889 B(  1-N , 12-H ) :   0.8844
B(  2-C ,  3-C ) :   0.9367 B(  2-C , 21-C ) :   0.9077 B(  2-C , 24-H ) :   0.9621
B(  2-C , 25-H ) :   0.9789 B(  3-C ,  4-H ) :   0.9353 B(  3-C ,  5-H ) :   0.9533
B(  3-C ,  6-S ) :   0.9337 B(  6-S , 15-F ) :   1.1361 B(  6-S , 16-O ) :   2.0228
B(  6-S , 39-O ) :   1.7641 B(  7-C ,  8-C ) :   1.5364 B(  7-C ,  9-N ) :   1.1090
B(  8-C , 13-H ) :   1.0496 B(  8-C , 14-H ) :   1.0020 B(  9-N , 10-H ) :   0.9191
B(  9-N , 11-H ) :   0.9255 B( 12-H , 39-O ) :   0.1050 B( 17-C , 26-C ) :   0.9533
B( 17-C , 27-H ) :   0.9816 B( 17-C , 28-H ) :   0.9749 B( 20-C , 21-C ) :   0.9150
B( 20-C , 32-C ) :   0.9424 B( 20-C , 35-H ) :   0.9870 B( 20-C , 36-H ) :   0.9779
B( 21-C , 22-H ) :   0.9645 B( 21-C , 23-H ) :   0.9715 B( 26-C , 29-C ) :   0.8985
B( 26-C , 30-H ) :   0.9765 B( 26-C , 31-H ) :   0.9655 B( 29-C , 32-C ) :   0.9389
B( 29-C , 33-H ) :   0.9750 B( 29-C , 34-H ) :   0.9879 B( 32-C , 37-H ) :   0.9920
B( 32-C , 38-H ) :   0.9880

FINAL SINGLE POINT ENERGY     -1188.466279483464

DIPOLE MOMENT
-------------
                                X             Y             Z
Electronic contribution:    -16.33751       3.93791     -19.59768
Nuclear contribution   :     17.27667      -5.32157      20.03034
                        -----------------------------------------
Total Dipole Moment    :      0.93916      -1.38365       0.43266
                        -----------------------------------------
Magnitude (a.u.)       :      1.72734
Magnitude (Debye)      :      4.39056

Rotational constants in cm-1:     0.014355     0.012269     0.007481
Rotational constants in MHz :   430.360270   367.823451   224.273399

                             ****ORCA TERMINATED NORMALLY****
TOTAL RUN TIME: 0 days 0 hours 1 minutes 47 seconds 168 msec
