                         Program Version 5.0.0 -  RELEASE  -
|  1> !LC-PBE RIJCOSX def2-TZVP def2/J TightSCF xyzfile
|  2>
|  3> *xyzfile 0 1 D3.xyz
|  4>
|  5> %MaxCore 64000
|  6>
|  7> %pal nprocs 18
|  8> end
|  9>
| 10> %scf
| 11>   MaxIter 150
| 12> end
| 13>
| 14>
| 15>                          ****END OF INPUT****

CARTESIAN COORDINATES (ANGSTROEM)
---------------------------------
  C      4.490588    1.155899   -2.469290
  N      4.305394    1.222762   -3.908317
  C      4.906458   -3.102816   -5.954844
  C      3.511771   -2.806215   -6.492283
  H      2.736044   -3.373445   -5.973736
  H      3.444904   -3.040831   -7.555281
  S      3.004618   -1.096206   -6.389259
  C      4.631918    2.246365   -4.670958
  N      4.541686    2.143990   -5.987139
  C      5.084086    3.393584   -4.118545
  H      4.920675    3.570501   -3.135870
  H      5.254652    4.197390   -4.706956
  H      3.824530    0.449113   -4.350926
  H      4.343373    1.249318   -6.416646
  H      4.676712    2.956624   -6.574113
  F      4.128856   -0.329647   -6.953717
  O      1.781285   -1.000779   -7.136399
  C      5.942129    0.939500   -2.036893
  H      3.864305    0.328532   -2.136611
  H      4.076233    2.049994   -1.989010
  C      6.462677   -3.117775   -3.944671
  C      5.024977   -3.025679   -4.437625
  H      4.423321   -3.818693   -3.977648
  H      4.579350   -2.087131   -4.108727
  H      5.201533   -4.100207   -6.296905
  H      5.605922   -2.397822   -6.413368
  C      6.559957   -0.356290   -2.559086
  H      5.967976    0.952567   -0.942444
  H      6.547184    1.788331   -2.368849
  C      6.006283   -1.615917   -1.899301
  H      7.642360   -0.318000   -2.402059
  H      6.414855   -0.403433   -3.642587
  C      6.608718   -2.917014   -2.435655
  H      6.190324   -1.561115   -0.820948
  H      4.919250   -1.651245   -2.016586
  H      7.066975   -2.374258   -4.475514
  H      6.887808   -4.089747   -4.215332
  H      6.135197   -3.755573   -1.915159
  H      7.671142   -2.955503   -2.172291
  O      2.851546   -0.783683   -4.956789

 Total Charge           Charge          ....    0
 Multiplicity           Mult            ....    1
 Number of Electrons    NEL             ....  144
 Basis Dimension        Dim             ....  671

ORBITAL ENERGIES
----------------

  NO   OCC          E(Eh)            E(eV)
   0   2.0000     -88.561700     -2409.8864
   1   2.0000     -24.636707      -670.3989
   2   2.0000     -19.020011      -517.5608
   3   2.0000     -19.016480      -517.4647
   4   2.0000     -14.197820      -386.3423
   5   2.0000     -14.187363      -386.0578
   6   2.0000     -10.198865      -277.5252
   7   2.0000     -10.158769      -276.4342
   8   2.0000     -10.150638      -276.2129
   9   2.0000     -10.129571      -275.6397
  10   2.0000     -10.127489      -275.5830
  11   2.0000     -10.120366      -275.3892
  12   2.0000     -10.113334      -275.1978
  13   2.0000     -10.105552      -274.9860
  14   2.0000     -10.099205      -274.8133
  15   2.0000     -10.093343      -274.6538
  16   2.0000     -10.005615      -272.2666
  17   2.0000      -8.173271      -222.4060
  18   2.0000      -6.194053      -168.5488
  19   2.0000      -6.186399      -168.3405
  20   2.0000      -6.185905      -168.3270
  21   2.0000      -1.560794       -42.4714
  22   2.0000      -1.312021       -35.7019
  23   2.0000      -1.210700       -32.9448
  24   2.0000      -1.131585       -30.7920
  25   2.0000      -1.045021       -28.4365
  26   2.0000      -1.040905       -28.3245
  27   2.0000      -0.998375       -27.1672
  28   2.0000      -0.959611       -26.1123
  29   2.0000      -0.928174       -25.2569
  30   2.0000      -0.896655       -24.3992
  31   2.0000      -0.869185       -23.6517
  32   2.0000      -0.857296       -23.3282
  33   2.0000      -0.824159       -22.4265
  34   2.0000      -0.795922       -21.6582
  35   2.0000      -0.778557       -21.1856
  36   2.0000      -0.768115       -20.9015
  37   2.0000      -0.754728       -20.5372
  38   2.0000      -0.736039       -20.0286
  39   2.0000      -0.718342       -19.5471
  40   2.0000      -0.692927       -18.8555
  41   2.0000      -0.676604       -18.4113
  42   2.0000      -0.669232       -18.2107
  43   2.0000      -0.651172       -17.7193
  44   2.0000      -0.645212       -17.5571
  45   2.0000      -0.630637       -17.1605
  46   2.0000      -0.622786       -16.9469
  47   2.0000      -0.613866       -16.7042
  48   2.0000      -0.600567       -16.3423
  49   2.0000      -0.590058       -16.0563
  50   2.0000      -0.579917       -15.7804
  51   2.0000      -0.575686       -15.6652
  52   2.0000      -0.564433       -15.3590
  53   2.0000      -0.549496       -14.9526
  54   2.0000      -0.534763       -14.5516
  55   2.0000      -0.526429       -14.3248
  56   2.0000      -0.524818       -14.2810
  57   2.0000      -0.516352       -14.0507
  58   2.0000      -0.504875       -13.7383
  59   2.0000      -0.503533       -13.7018
  60   2.0000      -0.494560       -13.4577
  61   2.0000      -0.485967       -13.2238
  62   2.0000      -0.482566       -13.1313
  63   2.0000      -0.474349       -12.9077
  64   2.0000      -0.467617       -12.7245
  65   2.0000      -0.464121       -12.6294
  66   2.0000      -0.456450       -12.4206
  67   2.0000      -0.439074       -11.9478
  68   2.0000      -0.436214       -11.8700
  69   2.0000      -0.427530       -11.6337
  70   2.0000      -0.361627        -9.8404
  71   2.0000      -0.264535        -7.1984
  72   0.0000       0.079227         2.1559
  73   0.0000       0.109822         2.9884
  74   0.0000       0.119020         3.2387
  75   0.0000       0.119212         3.2439
  76   0.0000       0.126808         3.4506

MULLIKEN ATOMIC CHARGES
-----------------------
   0 C :   -0.355145
   1 N :   -0.287877
   2 C :   -0.346164
   3 C :   -0.312725
   4 H :    0.217877
   5 H :    0.216790
   6 S :    0.783239
   7 C :    0.388433
   8 N :   -0.508051
   9 C :   -0.679544
  10 H :    0.145529
  11 H :    0.106947
  12 H :    0.204357
  13 H :    0.224756
  14 H :    0.264445
  15 F :   -0.107506
  16 O :   -0.355820
  17 C :   -0.222257
  18 H :    0.183272
  19 H :    0.177749
  20 C :   -0.355515
  21 C :   -0.315601
  22 H :    0.157020
  23 H :    0.171411
  24 H :    0.175376
  25 H :    0.185854
  26 C :   -0.301911
  27 H :    0.139442
  28 H :    0.190197
  29 C :   -0.374315
  30 H :    0.152907
  31 H :    0.151938
  32 C :   -0.244787
  33 H :    0.155944
  34 H :    0.167321
  35 H :    0.175241
  36 H :    0.155324
  37 H :    0.151447
  38 H :    0.154804
  39 O :   -0.430403
Sum of atomic charges:   -0.0000000

LOEWDIN ATOMIC CHARGES
----------------------
   0 C :   -0.298206
   1 N :    0.114326
   2 C :   -0.303397
   3 C :   -0.371121
   4 H :    0.166311
   5 H :    0.156132
   6 S :    0.540261
   7 C :   -0.475202
   8 N :   -0.025079
   9 C :   -0.380926
  10 H :    0.102031
  11 H :    0.095456
  12 H :    0.155220
  13 H :    0.139328
  14 H :    0.181814
  15 F :    0.090273
  16 O :   -0.234936
  17 C :   -0.284029
  18 H :    0.140711
  19 H :    0.141455
  20 C :   -0.289001
  21 C :   -0.289970
  22 H :    0.148699
  23 H :    0.147666
  24 H :    0.156716
  25 H :    0.150765
  26 C :   -0.286707
  27 H :    0.144419
  28 H :    0.153862
  29 C :   -0.289933
  30 H :    0.145555
  31 H :    0.142813
  32 C :   -0.284836
  33 H :    0.145970
  34 H :    0.141092
  35 H :    0.145985
  36 H :    0.144400
  37 H :    0.144717
  38 H :    0.146494
  39 O :   -0.269125

  Mayer bond orders larger than 0.100000
B(  0-C ,  1-N ) :   0.9272 B(  0-C , 17-C ) :   0.9047 B(  0-C , 18-H ) :   0.9915
B(  0-C , 19-H ) :   0.9913 B(  1-N ,  7-C ) :   1.1798 B(  1-N , 12-H ) :   0.8929
B(  2-C ,  3-C ) :   0.9350 B(  2-C , 21-C ) :   0.9016 B(  2-C , 24-H ) :   0.9608
B(  2-C , 25-H ) :   0.9820 B(  3-C ,  4-H ) :   0.9320 B(  3-C ,  5-H ) :   0.9517
B(  3-C ,  6-S ) :   0.9312 B(  6-S , 15-F ) :   1.0953 B(  6-S , 16-O ) :   2.0290
B(  6-S , 39-O ) :   1.7866 B(  7-C ,  8-N ) :   1.1329 B(  7-C ,  9-C ) :   1.5884
B(  8-N , 13-H ) :   0.9176 B(  8-N , 14-H ) :   0.9195 B(  9-C , 10-H ) :   1.0018
B(  9-C , 11-H ) :   1.0099 B( 17-C , 26-C ) :   0.9578 B( 17-C , 27-H ) :   0.9864
B( 17-C , 28-H ) :   0.9678 B( 20-C , 21-C ) :   0.9160 B( 20-C , 32-C ) :   0.9437
B( 20-C , 35-H ) :   0.9866 B( 20-C , 36-H ) :   0.9779 B( 21-C , 22-H ) :   0.9638
B( 21-C , 23-H ) :   0.9727 B( 26-C , 29-C ) :   0.8964 B( 26-C , 30-H ) :   0.9773
B( 26-C , 31-H ) :   0.9671 B( 29-C , 32-C ) :   0.9363 B( 29-C , 33-H ) :   0.9754
B( 29-C , 34-H ) :   0.9890 B( 32-C , 37-H ) :   0.9922 B( 32-C , 38-H ) :   0.9875

FINAL SINGLE POINT ENERGY     -1188.467642786243

DIPOLE MOMENT
-------------
                                X             Y             Z
Electronic contribution:    -16.86006       2.61486     -21.37512
Nuclear contribution   :     17.35766      -5.13497      20.30937
                        -----------------------------------------
Total Dipole Moment    :      0.49760      -2.52011      -1.06575
                        -----------------------------------------
Magnitude (a.u.)       :      2.78108
Magnitude (Debye)      :      7.06894

Rotational constants in cm-1:     0.014431     0.012329     0.007535
Rotational constants in MHz :   432.628327   369.619539   225.898827

                             ****ORCA TERMINATED NORMALLY****
TOTAL RUN TIME: 0 days 0 hours 2 minutes 17 seconds 104 msec
