                         Program Version 5.0.0 -  RELEASE  -
|  1> !LC-PBE RIJCOSX def2-TZVP def2/J TightSCF xyzfile
|  2>
|  3> *xyzfile 0 1 D4.xyz
|  4>
|  5> %MaxCore 64000
|  6>
|  7> %pal nprocs 18
|  8> end
|  9>
| 10> %scf
| 11>   MaxIter 150
| 12> end
| 13>
| 14>
| 15>                          ****END OF INPUT****

CARTESIAN COORDINATES (ANGSTROEM)
---------------------------------
  C      4.490588    1.155899   -2.469290
  C      4.305394    1.222762   -3.908317
  C      4.906458   -3.102816   -5.954844
  C      3.511771   -2.806215   -6.492283
  H      2.736044   -3.373445   -5.973736
  H      3.444904   -3.040831   -7.555281
  S      3.004618   -1.096206   -6.389259
  C      4.631918    2.246365   -4.670958
  N      4.541686    2.143990   -5.987139
  N      5.084086    3.393584   -4.118545
  H      4.920675    3.570501   -3.135870
  H      5.254652    4.197390   -4.706956
  H      3.824530    0.449113   -4.350926
  H      4.343373    1.249318   -6.416646
  H      4.676712    2.956624   -6.574113
  O      4.128856   -0.329647   -6.953717
  F      1.781285   -1.000779   -7.136399
  C      5.942129    0.939500   -2.036893
  H      3.864305    0.328532   -2.136611
  H      4.076233    2.049994   -1.989010
  C      6.462677   -3.117775   -3.944671
  C      5.024977   -3.025679   -4.437625
  H      4.423321   -3.818693   -3.977648
  H      4.579350   -2.087131   -4.108727
  H      5.201533   -4.100207   -6.296905
  H      5.605922   -2.397822   -6.413368
  C      6.559957   -0.356290   -2.559086
  H      5.967976    0.952567   -0.942444
  H      6.547184    1.788331   -2.368849
  C      6.006283   -1.615917   -1.899301
  H      7.642360   -0.318000   -2.402059
  H      6.414855   -0.403433   -3.642587
  C      6.608718   -2.917014   -2.435655
  H      6.190324   -1.561115   -0.820948
  H      4.919250   -1.651245   -2.016586
  H      7.066975   -2.374258   -4.475514
  H      6.887808   -4.089747   -4.215332
  H      6.135197   -3.755573   -1.915159
  H      7.671142   -2.955503   -2.172291
  O      2.851546   -0.783683   -4.956789

 Total Charge           Charge          ....    0
 Multiplicity           Mult            ....    1
 Number of Electrons    NEL             ....  144
 Basis Dimension        Dim             ....  671

ORBITAL ENERGIES
----------------

  NO   OCC          E(Eh)            E(eV)
   0   2.0000     -88.550481     -2409.5811
   1   2.0000     -24.631842      -670.2665
   2   2.0000     -19.004018      -517.1256
   3   2.0000     -18.994230      -516.8593
   4   2.0000     -14.186940      -386.0463
   5   2.0000     -14.166430      -385.4882
   6   2.0000     -10.188444      -277.2417
   7   2.0000     -10.143506      -276.0188
   8   2.0000     -10.129220      -275.6301
   9   2.0000     -10.110334      -275.1162
  10   2.0000     -10.104732      -274.9637
  11   2.0000     -10.098417      -274.7919
  12   2.0000     -10.087877      -274.5051
  13   2.0000     -10.078377      -274.2466
  14   2.0000     -10.073040      -274.1014
  15   2.0000     -10.064773      -273.8764
  16   2.0000      -9.990724      -271.8614
  17   2.0000      -8.161817      -222.0943
  18   2.0000      -6.182098      -168.2234
  19   2.0000      -6.175122      -168.0336
  20   2.0000      -6.174767      -168.0240
  21   2.0000      -1.564892       -42.5829
  22   2.0000      -1.289467       -35.0882
  23   2.0000      -1.184108       -32.2212
  24   2.0000      -1.104851       -30.0645
  25   2.0000      -1.025664       -27.9097
  26   2.0000      -1.005926       -27.3726
  27   2.0000      -0.984364       -26.7859
  28   2.0000      -0.951306       -25.8864
  29   2.0000      -0.926170       -25.2024
  30   2.0000      -0.892070       -24.2745
  31   2.0000      -0.866540       -23.5798
  32   2.0000      -0.830366       -22.5954
  33   2.0000      -0.799709       -21.7612
  34   2.0000      -0.776136       -21.1197
  35   2.0000      -0.763879       -20.7862
  36   2.0000      -0.748111       -20.3571
  37   2.0000      -0.740710       -20.1557
  38   2.0000      -0.726318       -19.7641
  39   2.0000      -0.703199       -19.1350
  40   2.0000      -0.687997       -18.7214
  41   2.0000      -0.666675       -18.1412
  42   2.0000      -0.652476       -17.7548
  43   2.0000      -0.643103       -17.4997
  44   2.0000      -0.624115       -16.9830
  45   2.0000      -0.615244       -16.7416
  46   2.0000      -0.609150       -16.5758
  47   2.0000      -0.596380       -16.2283
  48   2.0000      -0.589454       -16.0399
  49   2.0000      -0.570410       -15.5216
  50   2.0000      -0.562664       -15.3109
  51   2.0000      -0.552982       -15.0474
  52   2.0000      -0.550959       -14.9924
  53   2.0000      -0.546776       -14.8785
  54   2.0000      -0.518679       -14.1140
  55   2.0000      -0.515772       -14.0349
  56   2.0000      -0.510617       -13.8946
  57   2.0000      -0.499290       -13.5864
  58   2.0000      -0.492535       -13.4025
  59   2.0000      -0.483894       -13.1674
  60   2.0000      -0.474769       -12.9191
  61   2.0000      -0.465669       -12.6715
  62   2.0000      -0.461034       -12.5454
  63   2.0000      -0.450244       -12.2517
  64   2.0000      -0.445339       -12.1183
  65   2.0000      -0.441532       -12.0147
  66   2.0000      -0.427228       -11.6255
  67   2.0000      -0.417189       -11.3523
  68   2.0000      -0.408426       -11.1138
  69   2.0000      -0.393361       -10.7039
  70   2.0000      -0.367525       -10.0009
  71   2.0000      -0.244200        -6.6450
  72   0.0000       0.104250         2.8368
  73   0.0000       0.111095         3.0230
  74   0.0000       0.127343         3.4652
  75   0.0000       0.131325         3.5735
  76   0.0000       0.135830         3.6961

MULLIKEN ATOMIC CHARGES
-----------------------
   0 C :   -0.451989
   1 C :   -0.428457
   2 C :   -0.324812
   3 C :   -0.310200
   4 H :    0.198755
   5 H :    0.201124
   6 S :    0.808648
   7 C :    0.361820
   8 N :   -0.498949
   9 N :   -0.522975
  10 H :    0.261622
  11 H :    0.228738
  12 H :    0.155851
  13 H :    0.271615
  14 H :    0.219895
  15 O :   -0.450062
  16 F :   -0.059161
  17 C :   -0.215950
  18 H :    0.154533
  19 H :    0.140774
  20 C :   -0.359552
  21 C :   -0.322847
  22 H :    0.146127
  23 H :    0.194928
  24 H :    0.168999
  25 H :    0.201498
  26 C :   -0.277040
  27 H :    0.122966
  28 H :    0.144977
  29 C :   -0.377756
  30 H :    0.141366
  31 H :    0.178839
  32 C :   -0.237286
  33 H :    0.148756
  34 H :    0.170697
  35 H :    0.177341
  36 H :    0.147631
  37 H :    0.145061
  38 H :    0.148748
  39 O :   -0.404275
Sum of atomic charges:    0.0000000

LOEWDIN ATOMIC CHARGES
----------------------
   0 C :   -0.306271
   1 C :   -0.302658
   2 C :   -0.291943
   3 C :   -0.379795
   4 H :    0.154017
   5 H :    0.150774
   6 S :    0.542805
   7 C :   -0.468240
   8 N :   -0.029153
   9 N :   -0.037461
  10 H :    0.175173
  11 H :    0.161286
  12 H :    0.114102
  13 H :    0.148543
  14 H :    0.159074
  15 O :   -0.273917
  16 F :    0.126956
  17 C :   -0.283096
  18 H :    0.148533
  19 H :    0.133475
  20 C :   -0.288727
  21 C :   -0.286644
  22 H :    0.145322
  23 H :    0.154032
  24 H :    0.155344
  25 H :    0.160058
  26 C :   -0.284437
  27 H :    0.136020
  28 H :    0.141826
  29 C :   -0.288805
  30 H :    0.140966
  31 H :    0.149137
  32 C :   -0.286505
  33 H :    0.143619
  34 H :    0.142602
  35 H :    0.147491
  36 H :    0.141933
  37 H :    0.142637
  38 H :    0.144556
  39 O :   -0.252628

  Mayer bond orders larger than 0.100000
B(  0-C ,  1-C ) :   0.9240 B(  0-C , 17-C ) :   0.9023 B(  0-C , 18-H ) :   1.0230
B(  0-C , 19-H ) :   1.0055 B(  1-C ,  7-C ) :   1.6202 B(  1-C , 12-H ) :   0.9905
B(  2-C ,  3-C ) :   0.9502 B(  2-C , 21-C ) :   0.9356 B(  2-C , 24-H ) :   0.9604
B(  2-C , 25-H ) :   0.9640 B(  3-C ,  4-H ) :   0.9346 B(  3-C ,  5-H ) :   0.9441
B(  3-C ,  6-S ) :   0.9414 B(  6-S , 15-O ) :   1.7888 B(  6-S , 16-F ) :   1.2045
B(  6-S , 39-O ) :   1.8647 B(  7-C ,  8-N ) :   1.1810 B(  7-C ,  9-N ) :   1.1229
B(  8-N , 13-H ) :   0.8670 B(  8-N , 14-H ) :   0.9338 B(  9-N , 10-H ) :   0.9133
B(  9-N , 11-H ) :   0.9334 B( 17-C , 26-C ) :   0.9650 B( 17-C , 27-H ) :   0.9919
B( 17-C , 28-H ) :   0.9782 B( 20-C , 21-C ) :   0.9253 B( 20-C , 32-C ) :   0.9465
B( 20-C , 35-H ) :   0.9854 B( 20-C , 36-H ) :   0.9787 B( 21-C , 22-H ) :   0.9671
B( 21-C , 23-H ) :   0.9605 B( 26-C , 29-C ) :   0.8972 B( 26-C , 30-H ) :   0.9809
B( 26-C , 31-H ) :   0.9627 B( 29-C , 32-C ) :   0.9348 B( 29-C , 33-H ) :   0.9771
B( 29-C , 34-H ) :   0.9894 B( 32-C , 37-H ) :   0.9935 B( 32-C , 38-H ) :   0.9882

FINAL SINGLE POINT ENERGY     -1188.457645707400

DIPOLE MOMENT
-------------
                                X             Y             Z
Electronic contribution:    -20.61728       3.52513     -22.05240
Nuclear contribution   :     19.99734      -4.67125      20.55522
                        -----------------------------------------
Total Dipole Moment    :     -0.61994      -1.14612      -1.49718
                        -----------------------------------------
Magnitude (a.u.)       :      1.98480
Magnitude (Debye)      :      5.04497

Rotational constants in cm-1:     0.014213     0.012058     0.007367
Rotational constants in MHz :   426.102180   361.491761   220.844824

                             ****ORCA TERMINATED NORMALLY****
TOTAL RUN TIME: 0 days 0 hours 2 minutes 6 seconds 519 msec
