                         Program Version 5.0.0 -  RELEASE  -
|  1> !LC-PBE RIJCOSX def2-TZVP def2/J TightSCF xyzfile
|  2>
|  3> *xyzfile 0 1 D5.xyz
|  4>
|  5> %MaxCore 64000
|  6>
|  7> %pal nprocs 18
|  8> end
|  9>
| 10> %scf
| 11>   MaxIter 150
| 12> end
| 13>
| 14>
| 15>                          ****END OF INPUT****

CARTESIAN COORDINATES (ANGSTROEM)
---------------------------------
  C      4.490588    1.155899   -2.469290
  N      4.305394    1.222762   -3.908317
  C      4.906458   -3.102816   -5.954844
  C      3.511771   -2.806215   -6.492283
  H      2.736044   -3.373445   -5.973736
  H      3.444904   -3.040831   -7.555281
  S      3.004618   -1.096206   -6.389259
  C      4.631918    2.246365   -4.670958
  C      4.541686    2.143990   -5.987139
  N      5.084086    3.393584   -4.118545
  H      4.920675    3.570501   -3.135870
  H      5.254652    4.197390   -4.706956
  H      3.824530    0.449113   -4.350926
  H      4.343373    1.249318   -6.416646
  H      4.676712    2.956624   -6.574113
  O      4.128856   -0.329647   -6.953717
  F      1.781285   -1.000779   -7.136399
  C      5.942129    0.939500   -2.036893
  H      3.864305    0.328532   -2.136611
  H      4.076233    2.049994   -1.989010
  C      6.462677   -3.117775   -3.944671
  C      5.024977   -3.025679   -4.437625
  H      4.423321   -3.818693   -3.977648
  H      4.579350   -2.087131   -4.108727
  H      5.201533   -4.100207   -6.296905
  H      5.605922   -2.397822   -6.413368
  C      6.559957   -0.356290   -2.559086
  H      5.967976    0.952567   -0.942444
  H      6.547184    1.788331   -2.368849
  C      6.006283   -1.615917   -1.899301
  H      7.642360   -0.318000   -2.402059
  H      6.414855   -0.403433   -3.642587
  C      6.608718   -2.917014   -2.435655
  H      6.190324   -1.561115   -0.820948
  H      4.919250   -1.651245   -2.016586
  H      7.066975   -2.374258   -4.475514
  H      6.887808   -4.089747   -4.215332
  H      6.135197   -3.755573   -1.915159
  H      7.671142   -2.955503   -2.172291
  O      2.851546   -0.783683   -4.956789

 Total Charge           Charge          ....    0
 Multiplicity           Mult            ....    1
 Number of Electrons    NEL             ....  144
 Basis Dimension        Dim             ....  671

ORBITAL ENERGIES
----------------

  NO   OCC          E(Eh)            E(eV)
   0   2.0000     -88.550258     -2409.5750
   1   2.0000     -24.630880      -670.2403
   2   2.0000     -19.003396      -517.1087
   3   2.0000     -18.992652      -516.8163
   4   2.0000     -14.184448      -385.9785
   5   2.0000     -14.172112      -385.6428
   6   2.0000     -10.189211      -277.2625
   7   2.0000     -10.146295      -276.0947
   8   2.0000     -10.131236      -275.6849
   9   2.0000     -10.129626      -275.6411
  10   2.0000     -10.117457      -275.3100
  11   2.0000     -10.112013      -275.1619
  12   2.0000     -10.108112      -275.0557
  13   2.0000     -10.102021      -274.8900
  14   2.0000     -10.095691      -274.7177
  15   2.0000     -10.095477      -274.7119
  16   2.0000      -9.978977      -271.5418
  17   2.0000      -8.161524      -222.0863
  18   2.0000      -6.181802      -168.2154
  19   2.0000      -6.174786      -168.0245
  20   2.0000      -6.174532      -168.0176
  21   2.0000      -1.563715       -42.5508
  22   2.0000      -1.288830       -35.0708
  23   2.0000      -1.183317       -32.1997
  24   2.0000      -1.114410       -30.3246
  25   2.0000      -1.028180       -27.9782
  26   2.0000      -1.024323       -27.8732
  27   2.0000      -0.990996       -26.9664
  28   2.0000      -0.958203       -26.0740
  29   2.0000      -0.923314       -25.1247
  30   2.0000      -0.895371       -24.3643
  31   2.0000      -0.867435       -23.6041
  32   2.0000      -0.836334       -22.7578
  33   2.0000      -0.807730       -21.9795
  34   2.0000      -0.784837       -21.3565
  35   2.0000      -0.763246       -20.7690
  36   2.0000      -0.750301       -20.4167
  37   2.0000      -0.748146       -20.3581
  38   2.0000      -0.733662       -19.9640
  39   2.0000      -0.713391       -19.4124
  40   2.0000      -0.702155       -19.1066
  41   2.0000      -0.663652       -18.0589
  42   2.0000      -0.654932       -17.8216
  43   2.0000      -0.637808       -17.3556
  44   2.0000      -0.626883       -17.0584
  45   2.0000      -0.621348       -16.9077
  46   2.0000      -0.608377       -16.5548
  47   2.0000      -0.604194       -16.4409
  48   2.0000      -0.591998       -16.1091
  49   2.0000      -0.582346       -15.8464
  50   2.0000      -0.573559       -15.6073
  51   2.0000      -0.564171       -15.3519
  52   2.0000      -0.557755       -15.1773
  53   2.0000      -0.536079       -14.5875
  54   2.0000      -0.526213       -14.3190
  55   2.0000      -0.523750       -14.2520
  56   2.0000      -0.511420       -13.9165
  57   2.0000      -0.506369       -13.7790
  58   2.0000      -0.493845       -13.4382
  59   2.0000      -0.490146       -13.3376
  60   2.0000      -0.485033       -13.1984
  61   2.0000      -0.479976       -13.0608
  62   2.0000      -0.467162       -12.7121
  63   2.0000      -0.461651       -12.5622
  64   2.0000      -0.455883       -12.4052
  65   2.0000      -0.447498       -12.1770
  66   2.0000      -0.434942       -11.8354
  67   2.0000      -0.432204       -11.7609
  68   2.0000      -0.426358       -11.6018
  69   2.0000      -0.418945       -11.4001
  70   2.0000      -0.355026        -9.6607
  71   2.0000      -0.246939        -6.7196
  72   0.0000       0.103265         2.8100
  73   0.0000       0.109869         2.9897
  74   0.0000       0.122748         3.3401
  75   0.0000       0.130525         3.5518
  76   0.0000       0.131753         3.5852

MULLIKEN ATOMIC CHARGES
-----------------------
   0 C :   -0.402537
   1 N :   -0.281254
   2 C :   -0.327992
   3 C :   -0.312173
   4 H :    0.195613
   5 H :    0.204840
   6 S :    0.816296
   7 C :    0.418181
   8 C :   -0.701232
   9 N :   -0.535208
  10 H :    0.243415
  11 H :    0.252777
  12 H :    0.249406
  13 H :    0.157109
  14 H :    0.115603
  15 O :   -0.399591
  16 F :   -0.057032
  17 C :   -0.202646
  18 H :    0.182975
  19 H :    0.162292
  20 C :   -0.362991
  21 C :   -0.310095
  22 H :    0.148736
  23 H :    0.169901
  24 H :    0.169763
  25 H :    0.207550
  26 C :   -0.313086
  27 H :    0.134299
  28 H :    0.161587
  29 C :   -0.372334
  30 H :    0.149787
  31 H :    0.184545
  32 C :   -0.241830
  33 H :    0.152468
  34 H :    0.165369
  35 H :    0.182039
  36 H :    0.151474
  37 H :    0.148757
  38 H :    0.152688
  39 O :   -0.457469
Sum of atomic charges:   -0.0000000

LOEWDIN ATOMIC CHARGES
----------------------
   0 C :   -0.318343
   1 N :    0.117205
   2 C :   -0.291247
   3 C :   -0.380711
   4 H :    0.152187
   5 H :    0.152433
   6 S :    0.546158
   7 C :   -0.473485
   8 C :   -0.369712
   9 N :   -0.035973
  10 H :    0.161884
  11 H :    0.175979
  12 H :    0.168977
  13 H :    0.087953
  14 H :    0.095684
  15 O :   -0.248387
  16 F :    0.129701
  17 C :   -0.290147
  18 H :    0.142033
  19 H :    0.130679
  20 C :   -0.288033
  21 C :   -0.287608
  22 H :    0.145824
  23 H :    0.148974
  24 H :    0.155806
  25 H :    0.161757
  26 C :   -0.285130
  27 H :    0.142523
  28 H :    0.145982
  29 C :   -0.290223
  30 H :    0.145095
  31 H :    0.150912
  32 C :   -0.285265
  33 H :    0.144543
  34 H :    0.140996
  35 H :    0.148384
  36 H :    0.143570
  37 H :    0.143926
  38 H :    0.145811
  39 O :   -0.280712

  Mayer bond orders larger than 0.100000
B(  0-C ,  1-N ) :   0.9408 B(  0-C , 17-C ) :   0.8833 B(  0-C , 18-H ) :   0.9934
B(  0-C , 19-H ) :   1.0044 B(  1-N ,  7-C ) :   1.1800 B(  1-N , 12-H ) :   0.8876
B(  2-C ,  3-C ) :   0.9507 B(  2-C , 21-C ) :   0.9397 B(  2-C , 24-H ) :   0.9599
B(  2-C , 25-H ) :   0.9607 B(  3-C ,  4-H ) :   0.9345 B(  3-C ,  5-H ) :   0.9437
B(  3-C ,  6-S ) :   0.9438 B(  6-S , 15-O ) :   1.8609 B(  6-S , 16-F ) :   1.2092
B(  6-S , 39-O ) :   1.7786 B(  7-C ,  8-C ) :   1.5555 B(  7-C ,  9-N ) :   1.0936
B(  8-C , 13-H ) :   1.0279 B(  8-C , 14-H ) :   1.0073 B(  9-N , 10-H ) :   0.9220
B(  9-N , 11-H ) :   0.9269 B( 17-C , 26-C ) :   0.9538 B( 17-C , 27-H ) :   0.9815
B( 17-C , 28-H ) :   0.9740 B( 20-C , 21-C ) :   0.9232 B( 20-C , 32-C ) :   0.9423
B( 20-C , 35-H ) :   0.9857 B( 20-C , 36-H ) :   0.9779 B( 21-C , 22-H ) :   0.9664
B( 21-C , 23-H ) :   0.9652 B( 26-C , 29-C ) :   0.8988 B( 26-C , 30-H ) :   0.9767
B( 26-C , 31-H ) :   0.9620 B( 29-C , 32-C ) :   0.9392 B( 29-C , 33-H ) :   0.9759
B( 29-C , 34-H ) :   0.9886 B( 32-C , 37-H ) :   0.9926 B( 32-C , 38-H ) :   0.9878

FINAL SINGLE POINT ENERGY     -1188.447873041843

DIPOLE MOMENT
-------------
                                X             Y             Z
Electronic contribution:    -20.65621       2.61034     -20.19775
Nuclear contribution   :     20.03262      -4.53368      20.24480
                        -----------------------------------------
Total Dipole Moment    :     -0.62359      -1.92334       0.04705
                        -----------------------------------------
Magnitude (a.u.)       :      2.02245
Magnitude (Debye)      :      5.14067

Rotational constants in cm-1:     0.014367     0.012055     0.007393
Rotational constants in MHz :   430.711297   361.391195   221.649333

                             ****ORCA TERMINATED NORMALLY****
TOTAL RUN TIME: 0 days 0 hours 2 minutes 20 seconds 287 msec
