                         Program Version 5.0.0 -  RELEASE  -
|  1> !LC-PBE RIJCOSX def2-TZVP def2/J TightSCF xyzfile
|  2>
|  3> *xyzfile 0 1 D6.xyz
|  4>
|  5> %MaxCore 64000
|  6>
|  7> %pal nprocs 18
|  8> end
|  9>
| 10> %scf
| 11>   MaxIter 150
| 12> end
| 13>
| 14>
| 15>                          ****END OF INPUT****

CARTESIAN COORDINATES (ANGSTROEM)
---------------------------------
  C      4.490588    1.155899   -2.469290
  N      4.305394    1.222762   -3.908317
  C      4.906458   -3.102816   -5.954844
  C      3.511771   -2.806215   -6.492283
  H      2.736044   -3.373445   -5.973736
  H      3.444904   -3.040831   -7.555281
  S      3.004618   -1.096206   -6.389259
  C      4.631918    2.246365   -4.670958
  N      4.541686    2.143990   -5.987139
  C      5.084086    3.393584   -4.118545
  H      4.920675    3.570501   -3.135870
  H      5.254652    4.197390   -4.706956
  H      3.824530    0.449113   -4.350926
  H      4.343373    1.249318   -6.416646
  H      4.676712    2.956624   -6.574113
  O      4.128856   -0.329647   -6.953717
  F      1.781285   -1.000779   -7.136399
  C      5.942129    0.939500   -2.036893
  H      3.864305    0.328532   -2.136611
  H      4.076233    2.049994   -1.989010
  C      6.462677   -3.117775   -3.944671
  C      5.024977   -3.025679   -4.437625
  H      4.423321   -3.818693   -3.977648
  H      4.579350   -2.087131   -4.108727
  H      5.201533   -4.100207   -6.296905
  H      5.605922   -2.397822   -6.413368
  C      6.559957   -0.356290   -2.559086
  H      5.967976    0.952567   -0.942444
  H      6.547184    1.788331   -2.368849
  C      6.006283   -1.615917   -1.899301
  H      7.642360   -0.318000   -2.402059
  H      6.414855   -0.403433   -3.642587
  C      6.608718   -2.917014   -2.435655
  H      6.190324   -1.561115   -0.820948
  H      4.919250   -1.651245   -2.016586
  H      7.066975   -2.374258   -4.475514
  H      6.887808   -4.089747   -4.215332
  H      6.135197   -3.755573   -1.915159
  H      7.671142   -2.955503   -2.172291
  O      2.851546   -0.783683   -4.956789

 Total Charge           Charge          ....    0
 Multiplicity           Mult            ....    1
 Number of Electrons    NEL             ....  144
 Basis Dimension        Dim             ....  671

ORBITAL ENERGIES
----------------

  NO   OCC          E(Eh)            E(eV)
   0   2.0000     -88.570738     -2410.1323
   1   2.0000     -24.648733      -670.7261
   2   2.0000     -19.020949      -517.5863
   3   2.0000     -19.020392      -517.5712
   4   2.0000     -14.175524      -385.7356
   5   2.0000     -14.168313      -385.5394
   6   2.0000     -10.203497      -277.6513
   7   2.0000     -10.156402      -276.3697
   8   2.0000     -10.134806      -275.7821
   9   2.0000     -10.123956      -275.4868
  10   2.0000     -10.121299      -275.4145
  11   2.0000     -10.115739      -275.2633
  12   2.0000     -10.108930      -275.0780
  13   2.0000     -10.100311      -274.8434
  14   2.0000     -10.091700      -274.6091
  15   2.0000     -10.085550      -274.4418
  16   2.0000      -9.990953      -271.8676
  17   2.0000      -8.182084      -222.6458
  18   2.0000      -6.202280      -168.7726
  19   2.0000      -6.195532      -168.5890
  20   2.0000      -6.194990      -168.5743
  21   2.0000      -1.581723       -43.0409
  22   2.0000      -1.310490       -35.6603
  23   2.0000      -1.205772       -32.8107
  24   2.0000      -1.114145       -30.3174
  25   2.0000      -1.040096       -28.3024
  26   2.0000      -1.025423       -27.9032
  27   2.0000      -0.995028       -27.0761
  28   2.0000      -0.958268       -26.0758
  29   2.0000      -0.927295       -25.2330
  30   2.0000      -0.896825       -24.4039
  31   2.0000      -0.859731       -23.3945
  32   2.0000      -0.845734       -23.0136
  33   2.0000      -0.821114       -22.3436
  34   2.0000      -0.793394       -21.5893
  35   2.0000      -0.781274       -21.2595
  36   2.0000      -0.763141       -20.7661
  37   2.0000      -0.748207       -20.3598
  38   2.0000      -0.745212       -20.2782
  39   2.0000      -0.711809       -19.3693
  40   2.0000      -0.687752       -18.7147
  41   2.0000      -0.674085       -18.3428
  42   2.0000      -0.668146       -18.1812
  43   2.0000      -0.650538       -17.7020
  44   2.0000      -0.643571       -17.5125
  45   2.0000      -0.625070       -17.0090
  46   2.0000      -0.621045       -16.8995
  47   2.0000      -0.604932       -16.4610
  48   2.0000      -0.594342       -16.1729
  49   2.0000      -0.580778       -15.8038
  50   2.0000      -0.571905       -15.5623
  51   2.0000      -0.570873       -15.5343
  52   2.0000      -0.561441       -15.2776
  53   2.0000      -0.543047       -14.7771
  54   2.0000      -0.528355       -14.3773
  55   2.0000      -0.521791       -14.1987
  56   2.0000      -0.517961       -14.0944
  57   2.0000      -0.509106       -13.8535
  58   2.0000      -0.498121       -13.5546
  59   2.0000      -0.494768       -13.4633
  60   2.0000      -0.487018       -13.2524
  61   2.0000      -0.479610       -13.0508
  62   2.0000      -0.471987       -12.8434
  63   2.0000      -0.467712       -12.7271
  64   2.0000      -0.461795       -12.5661
  65   2.0000      -0.458897       -12.4872
  66   2.0000      -0.448911       -12.2155
  67   2.0000      -0.433060       -11.7842
  68   2.0000      -0.429640       -11.6911
  69   2.0000      -0.420786       -11.4502
  70   2.0000      -0.343773        -9.3545
  71   2.0000      -0.249823        -6.7980
  72   0.0000       0.091697         2.4952
  73   0.0000       0.095532         2.5996
  74   0.0000       0.119665         3.2563
  75   0.0000       0.124263         3.3814
  76   0.0000       0.128448         3.4952

MULLIKEN ATOMIC CHARGES
-----------------------
   0 C :   -0.351886
   1 N :   -0.287421
   2 C :   -0.331923
   3 C :   -0.307965
   4 H :    0.203715
   5 H :    0.208191
   6 S :    0.822929
   7 C :    0.379186
   8 N :   -0.513091
   9 C :   -0.691947
  10 H :    0.139298
  11 H :    0.102563
  12 H :    0.223442
  13 H :    0.256097
  14 H :    0.251206
  15 O :   -0.440520
  16 F :   -0.052064
  17 C :   -0.219938
  18 H :    0.175988
  19 H :    0.173342
  20 C :   -0.361684
  21 C :   -0.314913
  22 H :    0.151532
  23 H :    0.172231
  24 H :    0.174504
  25 H :    0.206409
  26 C :   -0.309129
  27 H :    0.134890
  28 H :    0.190461
  29 C :   -0.373711
  30 H :    0.150160
  31 H :    0.167665
  32 C :   -0.242465
  33 H :    0.154063
  34 H :    0.163957
  35 H :    0.181263
  36 H :    0.152414
  37 H :    0.148650
  38 H :    0.153896
  39 O :   -0.439393
Sum of atomic charges:   -0.0000000

LOEWDIN ATOMIC CHARGES
----------------------
   0 C :   -0.301006
   1 N :    0.115697
   2 C :   -0.290826
   3 C :   -0.377017
   4 H :    0.155447
   5 H :    0.153659
   6 S :    0.549139
   7 C :   -0.474225
   8 N :   -0.023238
   9 C :   -0.393992
  10 H :    0.099378
  11 H :    0.093979
  12 H :    0.159066
  13 H :    0.138343
  14 H :    0.176238
  15 O :   -0.268870
  16 F :    0.133522
  17 C :   -0.284434
  18 H :    0.138306
  19 H :    0.140140
  20 C :   -0.287963
  21 C :   -0.287647
  22 H :    0.146689
  23 H :    0.149229
  24 H :    0.157608
  25 H :    0.161006
  26 C :   -0.286537
  27 H :    0.142934
  28 H :    0.154209
  29 C :   -0.290533
  30 H :    0.144962
  31 H :    0.146257
  32 C :   -0.285316
  33 H :    0.145239
  34 H :    0.140167
  35 H :    0.148200
  36 H :    0.143646
  37 H :    0.143695
  38 H :    0.146335
  39 O :   -0.271486

  Mayer bond orders larger than 0.100000
B(  0-C ,  1-N ) :   0.9333 B(  0-C , 17-C ) :   0.9062 B(  0-C , 18-H ) :   0.9939
B(  0-C , 19-H ) :   0.9909 B(  1-N ,  7-C ) :   1.1809 B(  1-N , 12-H ) :   0.8945
B(  2-C ,  3-C ) :   0.9479 B(  2-C , 21-C ) :   0.9340 B(  2-C , 24-H ) :   0.9583
B(  2-C , 25-H ) :   0.9634 B(  3-C ,  4-H ) :   0.9320 B(  3-C ,  5-H ) :   0.9421
B(  3-C ,  6-S ) :   0.9416 B(  6-S , 15-O ) :   1.8038 B(  6-S , 16-F ) :   1.2177
B(  6-S , 39-O ) :   1.7994 B(  7-C ,  8-N ) :   1.1589 B(  7-C ,  9-C ) :   1.5700
B(  8-N , 13-H ) :   0.8777 B(  8-N , 14-H ) :   0.9269 B(  9-C , 10-H ) :   1.0024
B(  9-C , 11-H ) :   1.0114 B( 17-C , 26-C ) :   0.9582 B( 17-C , 27-H ) :   0.9867
B( 17-C , 28-H ) :   0.9668 B( 20-C , 21-C ) :   0.9243 B( 20-C , 32-C ) :   0.9434
B( 20-C , 35-H ) :   0.9852 B( 20-C , 36-H ) :   0.9778 B( 21-C , 22-H ) :   0.9657
B( 21-C , 23-H ) :   0.9662 B( 26-C , 29-C ) :   0.8962 B( 26-C , 30-H ) :   0.9774
B( 26-C , 31-H ) :   0.9642 B( 29-C , 32-C ) :   0.9366 B( 29-C , 33-H ) :   0.9762
B( 29-C , 34-H ) :   0.9897 B( 32-C , 37-H ) :   0.9929 B( 32-C , 38-H ) :   0.9872

FINAL SINGLE POINT ENERGY     -1188.462620363179

DIPOLE MOMENT
-------------
                                X             Y             Z
Electronic contribution:    -21.19994       1.21767     -21.94263
Nuclear contribution   :     20.11362      -4.34709      20.52383
                        -----------------------------------------
Total Dipole Moment    :     -1.08632      -3.12942      -1.41880
                        -----------------------------------------
Magnitude (a.u.)       :      3.60366
Magnitude (Debye)      :      9.15977

Rotational constants in cm-1:     0.014449     0.012108     0.007447
Rotational constants in MHz :   433.168496   362.988632   223.260798

                             ****ORCA TERMINATED NORMALLY****
TOTAL RUN TIME: 0 days 0 hours 1 minutes 57 seconds 860 msec
