                         Program Version 5.0.0 -  RELEASE  -
|  1> !LC-PBE RIJCOSX def2-TZVP def2/J TightSCF xyzfile
|  2>
|  3> *xyzfile 0 1 D7.xyz
|  4>
|  5> %MaxCore 64000
|  6>
|  7> %pal nprocs 18
|  8> end
|  9>
| 10> %scf
| 11>   MaxIter 150
| 12> end
| 13>
| 14>
| 15>                          ****END OF INPUT****

CARTESIAN COORDINATES (ANGSTROEM)
---------------------------------
  C      4.490588    1.155899   -2.469290
  C      4.305394    1.222762   -3.908317
  C      4.906458   -3.102816   -5.954844
  C      3.511771   -2.806215   -6.492283
  H      2.736044   -3.373445   -5.973736
  H      3.444904   -3.040831   -7.555281
  S      3.004618   -1.096206   -6.389259
  C      4.631918    2.246365   -4.670958
  N      4.541686    2.143990   -5.987139
  N      5.084086    3.393584   -4.118545
  H      4.920675    3.570501   -3.135870
  H      5.254652    4.197390   -4.706956
  H      3.824530    0.449113   -4.350926
  H      4.343373    1.249318   -6.416646
  H      4.676712    2.956624   -6.574113
  O      4.128856   -0.329647   -6.953717
  O      1.781285   -1.000779   -7.136399
  C      5.942129    0.939500   -2.036893
  H      3.864305    0.328532   -2.136611
  H      4.076233    2.049994   -1.989010
  C      6.462677   -3.117775   -3.944671
  C      5.024977   -3.025679   -4.437625
  H      4.423321   -3.818693   -3.977648
  H      4.579350   -2.087131   -4.108727
  H      5.201533   -4.100207   -6.296905
  H      5.605922   -2.397822   -6.413368
  C      6.559957   -0.356290   -2.559086
  H      5.967976    0.952567   -0.942444
  H      6.547184    1.788331   -2.368849
  C      6.006283   -1.615917   -1.899301
  H      7.642360   -0.318000   -2.402059
  H      6.414855   -0.403433   -3.642587
  C      6.608718   -2.917014   -2.435655
  H      6.190324   -1.561115   -0.820948
  H      4.919250   -1.651245   -2.016586
  H      7.066975   -2.374258   -4.475514
  H      6.887808   -4.089747   -4.215332
  H      6.135197   -3.755573   -1.915159
  H      7.671142   -2.955503   -2.172291
  F      2.851546   -0.783683   -4.956789

 Total Charge           Charge          ....    0
 Multiplicity           Mult            ....    1
 Number of Electrons    NEL             ....  144
 Basis Dimension        Dim             ....  671

ORBITAL ENERGIES
----------------

  NO   OCC          E(Eh)            E(eV)
   0   2.0000     -88.544360     -2409.4145
   1   2.0000     -24.605657      -669.5540
   2   2.0000     -19.003829      -517.1205
   3   2.0000     -19.000241      -517.0229
   4   2.0000     -14.201010      -386.4291
   5   2.0000     -14.177816      -385.7980
   6   2.0000     -10.184664      -277.1388
   7   2.0000     -10.147955      -276.1399
   8   2.0000     -10.142898      -276.0023
   9   2.0000     -10.123493      -275.4743
  10   2.0000     -10.113498      -275.2023
  11   2.0000     -10.107228      -275.0317
  12   2.0000     -10.098912      -274.8054
  13   2.0000     -10.089610      -274.5522
  14   2.0000     -10.085264      -274.4340
  15   2.0000     -10.081292      -274.3259
  16   2.0000     -10.014975      -272.5213
  17   2.0000      -8.155638      -221.9262
  18   2.0000      -6.176114      -168.0606
  19   2.0000      -6.169059      -167.8686
  20   2.0000      -6.168422      -167.8513
  21   2.0000      -1.531188       -41.6657
  22   2.0000      -1.294693       -35.2304
  23   2.0000      -1.195025       -32.5183
  24   2.0000      -1.119016       -30.4500
  25   2.0000      -1.028442       -27.9853
  26   2.0000      -1.018473       -27.7141
  27   2.0000      -0.991774       -26.9875
  28   2.0000      -0.960337       -26.1321
  29   2.0000      -0.929764       -25.3002
  30   2.0000      -0.888739       -24.1838
  31   2.0000      -0.874343       -23.7921
  32   2.0000      -0.836349       -22.7582
  33   2.0000      -0.808033       -21.9877
  34   2.0000      -0.786422       -21.3996
  35   2.0000      -0.752090       -20.4654
  36   2.0000      -0.745874       -20.2963
  37   2.0000      -0.737182       -20.0597
  38   2.0000      -0.729966       -19.8634
  39   2.0000      -0.705591       -19.2001
  40   2.0000      -0.699415       -19.0320
  41   2.0000      -0.672583       -18.3019
  42   2.0000      -0.650069       -17.6893
  43   2.0000      -0.635109       -17.2822
  44   2.0000      -0.631371       -17.1805
  45   2.0000      -0.625213       -17.0129
  46   2.0000      -0.621099       -16.9010
  47   2.0000      -0.603784       -16.4298
  48   2.0000      -0.592307       -16.1175
  49   2.0000      -0.582838       -15.8598
  50   2.0000      -0.570207       -15.5161
  51   2.0000      -0.565295       -15.3825
  52   2.0000      -0.563208       -15.3257
  53   2.0000      -0.546984       -14.8842
  54   2.0000      -0.533496       -14.5172
  55   2.0000      -0.523843       -14.2545
  56   2.0000      -0.512779       -13.9534
  57   2.0000      -0.506226       -13.7751
  58   2.0000      -0.502863       -13.6836
  59   2.0000      -0.487629       -13.2691
  60   2.0000      -0.482073       -13.1179
  61   2.0000      -0.472727       -12.8636
  62   2.0000      -0.469714       -12.7816
  63   2.0000      -0.465574       -12.6689
  64   2.0000      -0.455486       -12.3944
  65   2.0000      -0.454850       -12.3771
  66   2.0000      -0.446562       -12.1516
  67   2.0000      -0.429009       -11.6739
  68   2.0000      -0.422438       -11.4951
  69   2.0000      -0.416845       -11.3429
  70   2.0000      -0.379479       -10.3261
  71   2.0000      -0.262523        -7.1436
  72   0.0000       0.099238         2.7004
  73   0.0000       0.117354         3.1934
  74   0.0000       0.119194         3.2434
  75   0.0000       0.129053         3.5117
  76   0.0000       0.130815         3.5597

MULLIKEN ATOMIC CHARGES
-----------------------
   0 C :   -0.442942
   1 C :   -0.445127
   2 C :   -0.311966
   3 C :   -0.329176
   4 H :    0.201326
   5 H :    0.222190
   6 S :    0.793476
   7 C :    0.381535
   8 N :   -0.490740
   9 N :   -0.518716
  10 H :    0.263843
  11 H :    0.235173
  12 H :    0.102361
  13 H :    0.277866
  14 H :    0.225758
  15 O :   -0.456045
  16 O :   -0.372596
  17 C :   -0.215947
  18 H :    0.147405
  19 H :    0.149886
  20 C :   -0.362808
  21 C :   -0.315394
  22 H :    0.156737
  23 H :    0.147113
  24 H :    0.166614
  25 H :    0.204051
  26 C :   -0.285763
  27 H :    0.128868
  28 H :    0.149336
  29 C :   -0.372953
  30 H :    0.146938
  31 H :    0.183050
  32 C :   -0.241044
  33 H :    0.153188
  34 H :    0.162158
  35 H :    0.180770
  36 H :    0.154234
  37 H :    0.148481
  38 H :    0.152391
  39 F :   -0.073529
Sum of atomic charges:   -0.0000000

LOEWDIN ATOMIC CHARGES
----------------------
   0 C :   -0.307316
   1 C :   -0.319061
   2 C :   -0.301029
   3 C :   -0.374303
   4 H :    0.153199
   5 H :    0.164557
   6 S :    0.545982
   7 C :   -0.460030
   8 N :   -0.019631
   9 N :   -0.030237
  10 H :    0.176499
  11 H :    0.164736
  12 H :    0.108590
  13 H :    0.149270
  14 H :    0.162961
  15 O :   -0.275314
  16 O :   -0.245416
  17 C :   -0.282031
  18 H :    0.146717
  19 H :    0.136083
  20 C :   -0.286745
  21 C :   -0.290667
  22 H :    0.146849
  23 H :    0.143179
  24 H :    0.154173
  25 H :    0.159097
  26 C :   -0.284472
  27 H :    0.137824
  28 H :    0.143106
  29 C :   -0.289191
  30 H :    0.142898
  31 H :    0.148768
  32 C :   -0.285966
  33 H :    0.144980
  34 H :    0.139488
  35 H :    0.148511
  36 H :    0.144545
  37 H :    0.143509
  38 H :    0.145813
  39 F :    0.100073

  Mayer bond orders larger than 0.100000
B(  0-C ,  1-C ) :   0.9308 B(  0-C , 17-C ) :   0.9029 B(  0-C , 18-H ) :   1.0175
B(  0-C , 19-H ) :   1.0071 B(  1-C ,  7-C ) :   1.5938 B(  1-C , 12-H ) :   1.0110
B(  2-C ,  3-C ) :   0.9331 B(  2-C , 21-C ) :   0.9314 B(  2-C , 24-H ) :   0.9587
B(  2-C , 25-H ) :   0.9632 B(  3-C ,  4-H ) :   0.9442 B(  3-C ,  5-H ) :   0.9438
B(  3-C ,  6-S ) :   0.9298 B(  6-S , 15-O ) :   1.7666 B(  6-S , 16-O ) :   2.0219
B(  6-S , 39-F ) :   1.1363 B(  7-C ,  8-N ) :   1.2005 B(  7-C ,  9-N ) :   1.1386
B(  8-N , 13-H ) :   0.8608 B(  8-N , 14-H ) :   0.9303 B(  9-N , 10-H ) :   0.9114
B(  9-N , 11-H ) :   0.9302 B( 17-C , 26-C ) :   0.9623 B( 17-C , 27-H ) :   0.9917
B( 17-C , 28-H ) :   0.9783 B( 20-C , 21-C ) :   0.9279 B( 20-C , 32-C ) :   0.9423
B( 20-C , 35-H ) :   0.9854 B( 20-C , 36-H ) :   0.9780 B( 21-C , 22-H ) :   0.9643
B( 21-C , 23-H ) :   0.9698 B( 26-C , 29-C ) :   0.8928 B( 26-C , 30-H ) :   0.9802
B( 26-C , 31-H ) :   0.9638 B( 29-C , 32-C ) :   0.9345 B( 29-C , 33-H ) :   0.9761
B( 29-C , 34-H ) :   0.9925 B( 32-C , 37-H ) :   0.9938 B( 32-C , 38-H ) :   0.9876

FINAL SINGLE POINT ENERGY     -1188.476672582742

DIPOLE MOMENT
-------------
                                X             Y             Z
Electronic contribution:    -18.41202       4.06254     -18.00397
Nuclear contribution   :     18.74089      -4.92611      17.99644
                        -----------------------------------------
Total Dipole Moment    :      0.32887      -0.86357      -0.00752
                        -----------------------------------------
Magnitude (a.u.)       :      0.92410
Magnitude (Debye)      :      2.34888

Rotational constants in cm-1:     0.014210     0.012324     0.007480
Rotational constants in MHz :   425.991442   369.455467   224.259162

                             ****ORCA TERMINATED NORMALLY****
TOTAL RUN TIME: 0 days 0 hours 1 minutes 44 seconds 238 msec
