                         Program Version 5.0.0 -  RELEASE  -
|  1> !LC-PBE RIJCOSX def2-TZVP def2/J TightSCF xyzfile
|  2>
|  3> *xyzfile 0 1 D8.xyz
|  4>
|  5> %MaxCore 64000
|  6>
|  7> %pal nprocs 18
|  8> end
|  9>
| 10> %scf
| 11>   MaxIter 150
| 12> end
| 13>
| 14>
| 15>                          ****END OF INPUT****

CARTESIAN COORDINATES (ANGSTROEM)
---------------------------------
  C      4.490588    1.155899   -2.469290
  N      4.305394    1.222762   -3.908317
  C      4.906458   -3.102816   -5.954844
  C      3.511771   -2.806215   -6.492283
  H      2.736044   -3.373445   -5.973736
  H      3.444904   -3.040831   -7.555281
  S      3.004618   -1.096206   -6.389259
  C      4.631918    2.246365   -4.670958
  C      4.541686    2.143990   -5.987139
  N      5.084086    3.393584   -4.118545
  H      4.920675    3.570501   -3.135870
  H      5.254652    4.197390   -4.706956
  H      3.824530    0.449113   -4.350926
  H      4.343373    1.249318   -6.416646
  H      4.676712    2.956624   -6.574113
  O      4.128856   -0.329647   -6.953717
  O      1.781285   -1.000779   -7.136399
  C      5.942129    0.939500   -2.036893
  H      3.864305    0.328532   -2.136611
  H      4.076233    2.049994   -1.989010
  C      6.462677   -3.117775   -3.944671
  C      5.024977   -3.025679   -4.437625
  H      4.423321   -3.818693   -3.977648
  H      4.579350   -2.087131   -4.108727
  H      5.201533   -4.100207   -6.296905
  H      5.605922   -2.397822   -6.413368
  C      6.559957   -0.356290   -2.559086
  H      5.967976    0.952567   -0.942444
  H      6.547184    1.788331   -2.368849
  C      6.006283   -1.615917   -1.899301
  H      7.642360   -0.318000   -2.402059
  H      6.414855   -0.403433   -3.642587
  C      6.608718   -2.917014   -2.435655
  H      6.190324   -1.561115   -0.820948
  H      4.919250   -1.651245   -2.016586
  H      7.066975   -2.374258   -4.475514
  H      6.887808   -4.089747   -4.215332
  H      6.135197   -3.755573   -1.915159
  H      7.671142   -2.955503   -2.172291
  F      2.851546   -0.783683   -4.956789

 Total Charge           Charge          ....    0
 Multiplicity           Mult            ....    1
 Number of Electrons    NEL             ....  144
 Basis Dimension        Dim             ....  671

ORBITAL ENERGIES
----------------

  NO   OCC          E(Eh)            E(eV)
   0   2.0000     -88.539841     -2409.2916
   1   2.0000     -24.618214      -669.8957
   2   2.0000     -19.000651      -517.0340
   3   2.0000     -18.987680      -516.6810
   4   2.0000     -14.198806      -386.3692
   5   2.0000     -14.195772      -386.2866
   6   2.0000     -10.184291      -277.1286
   7   2.0000     -10.147499      -276.1275
   8   2.0000     -10.145237      -276.0659
   9   2.0000     -10.144440      -276.0443
  10   2.0000     -10.131015      -275.6789
  11   2.0000     -10.121049      -275.4077
  12   2.0000     -10.117278      -275.3051
  13   2.0000     -10.113592      -275.2048
  14   2.0000     -10.108562      -275.0679
  15   2.0000     -10.107452      -275.0378
  16   2.0000      -9.990883      -271.8657
  17   2.0000      -8.151418      -221.8114
  18   2.0000      -6.172189      -167.9538
  19   2.0000      -6.164550      -167.7459
  20   2.0000      -6.164014      -167.7314
  21   2.0000      -1.541864       -41.9563
  22   2.0000      -1.289914       -35.1003
  23   2.0000      -1.186688       -32.2914
  24   2.0000      -1.132780       -30.8245
  25   2.0000      -1.040260       -28.3069
  26   2.0000      -1.031137       -28.0587
  27   2.0000      -0.998622       -27.1739
  28   2.0000      -0.966399       -26.2970
  29   2.0000      -0.926394       -25.2084
  30   2.0000      -0.898432       -24.4476
  31   2.0000      -0.877017       -23.8648
  32   2.0000      -0.843007       -22.9394
  33   2.0000      -0.817544       -22.2465
  34   2.0000      -0.795438       -21.6450
  35   2.0000      -0.769206       -20.9312
  36   2.0000      -0.758218       -20.6322
  37   2.0000      -0.746534       -20.3142
  38   2.0000      -0.727599       -19.7990
  39   2.0000      -0.714050       -19.4303
  40   2.0000      -0.710618       -19.3369
  41   2.0000      -0.666826       -18.1453
  42   2.0000      -0.653783       -17.7903
  43   2.0000      -0.639266       -17.3953
  44   2.0000      -0.631846       -17.1934
  45   2.0000      -0.629284       -17.1237
  46   2.0000      -0.617166       -16.7939
  47   2.0000      -0.611783       -16.6475
  48   2.0000      -0.604265       -16.4429
  49   2.0000      -0.587331       -15.9821
  50   2.0000      -0.584373       -15.9016
  51   2.0000      -0.573967       -15.6184
  52   2.0000      -0.556680       -15.1480
  53   2.0000      -0.547574       -14.9002
  54   2.0000      -0.533566       -14.5191
  55   2.0000      -0.527280       -14.3480
  56   2.0000      -0.522388       -14.2149
  57   2.0000      -0.514430       -13.9984
  58   2.0000      -0.505313       -13.7503
  59   2.0000      -0.498725       -13.5710
  60   2.0000      -0.495137       -13.4734
  61   2.0000      -0.481583       -13.1045
  62   2.0000      -0.476240       -12.9591
  63   2.0000      -0.469081       -12.7643
  64   2.0000      -0.466768       -12.7014
  65   2.0000      -0.457864       -12.4591
  66   2.0000      -0.447222       -12.1695
  67   2.0000      -0.443866       -12.0782
  68   2.0000      -0.438072       -11.9205
  69   2.0000      -0.424617       -11.5544
  70   2.0000      -0.372250       -10.1294
  71   2.0000      -0.260471        -7.0878
  72   0.0000       0.094910         2.5826
  73   0.0000       0.112126         3.0511
  74   0.0000       0.113870         3.0986
  75   0.0000       0.123774         3.3681
  76   0.0000       0.127547         3.4707

MULLIKEN ATOMIC CHARGES
-----------------------
   0 C :   -0.407699
   1 N :   -0.287494
   2 C :   -0.314474
   3 C :   -0.329698
   4 H :    0.197651
   5 H :    0.224351
   6 S :    0.776528
   7 C :    0.418912
   8 C :   -0.687182
   9 N :   -0.533850
  10 H :    0.244182
  11 H :    0.257553
  12 H :    0.214263
  13 H :    0.170733
  14 H :    0.121466
  15 O :   -0.405682
  16 O :   -0.369043
  17 C :   -0.198828
  18 H :    0.178703
  19 H :    0.172152
  20 C :   -0.366075
  21 C :   -0.299911
  22 H :    0.159900
  23 H :    0.116023
  24 H :    0.167096
  25 H :    0.209588
  26 C :   -0.322893
  27 H :    0.140164
  28 H :    0.166916
  29 C :   -0.367442
  30 H :    0.155646
  31 H :    0.187774
  32 C :   -0.245451
  33 H :    0.157100
  34 H :    0.156727
  35 H :    0.185571
  36 H :    0.158272
  37 H :    0.152301
  38 H :    0.156411
  39 F :   -0.110260
Sum of atomic charges:    0.0000000

LOEWDIN ATOMIC CHARGES
----------------------
   0 C :   -0.318456
   1 N :    0.108904
   2 C :   -0.300639
   3 C :   -0.376243
   4 H :    0.151183
   5 H :    0.165693
   6 S :    0.536180
   7 C :   -0.475555
   8 C :   -0.350789
   9 N :   -0.034011
  10 H :    0.162270
  11 H :    0.178440
  12 H :    0.168905
  13 H :    0.089014
  14 H :    0.098836
  15 O :   -0.251769
  16 O :   -0.243616
  17 C :   -0.288593
  18 H :    0.139917
  19 H :    0.133772
  20 C :   -0.285961
  21 C :   -0.291541
  22 H :    0.147467
  23 H :    0.137233
  24 H :    0.154534
  25 H :    0.160686
  26 C :   -0.285198
  27 H :    0.144514
  28 H :    0.147746
  29 C :   -0.290714
  30 H :    0.147185
  31 H :    0.150412
  32 C :   -0.284694
  33 H :    0.145980
  34 H :    0.137656
  35 H :    0.149440
  36 H :    0.146302
  37 H :    0.144845
  38 H :    0.147123
  39 F :    0.083543

  Mayer bond orders larger than 0.100000
B(  0-C ,  1-N ) :   0.9360 B(  0-C , 17-C ) :   0.8812 B(  0-C , 18-H ) :   0.9939
B(  0-C , 19-H ) :   1.0049 B(  1-N ,  7-C ) :   1.1574 B(  1-N , 12-H ) :   0.9267
B(  2-C ,  3-C ) :   0.9322 B(  2-C , 21-C ) :   0.9361 B(  2-C , 24-H ) :   0.9581
B(  2-C , 25-H ) :   0.9599 B(  3-C ,  4-H ) :   0.9451 B(  3-C ,  5-H ) :   0.9425
B(  3-C ,  6-S ) :   0.9309 B(  6-S , 15-O ) :   1.8389 B(  6-S , 16-O ) :   2.0206
B(  6-S , 39-F ) :   1.0741 B(  7-C ,  8-C ) :   1.5724 B(  7-C ,  9-N ) :   1.0919
B(  8-C , 13-H ) :   1.0209 B(  8-C , 14-H ) :   1.0078 B(  9-N , 10-H ) :   0.9211
B(  9-N , 11-H ) :   0.9248 B( 17-C , 26-C ) :   0.9504 B( 17-C , 27-H ) :   0.9803
B( 17-C , 28-H ) :   0.9725 B( 20-C , 21-C ) :   0.9267 B( 20-C , 32-C ) :   0.9378
B( 20-C , 35-H ) :   0.9854 B( 20-C , 36-H ) :   0.9771 B( 21-C , 22-H ) :   0.9637
B( 21-C , 23-H ) :   0.9727 B( 26-C , 29-C ) :   0.8935 B( 26-C , 30-H ) :   0.9759
B( 26-C , 31-H ) :   0.9641 B( 29-C , 32-C ) :   0.9389 B( 29-C , 33-H ) :   0.9744
B( 29-C , 34-H ) :   0.9917 B( 32-C , 37-H ) :   0.9928 B( 32-C , 38-H ) :   0.9870

FINAL SINGLE POINT ENERGY     -1188.452187752604

DIPOLE MOMENT
-------------
                                X             Y             Z
Electronic contribution:    -18.45144       3.14411     -16.12655
Nuclear contribution   :     18.77618      -4.78855      17.68602
                        -----------------------------------------
Total Dipole Moment    :      0.32474      -1.64443       1.55947
                        -----------------------------------------
Magnitude (a.u.)       :      2.28945
Magnitude (Debye)      :      5.81932

Rotational constants in cm-1:     0.014368     0.012319     0.007509
Rotational constants in MHz :   430.738566   369.302170   225.105103

                             ****ORCA TERMINATED NORMALLY****
TOTAL RUN TIME: 0 days 0 hours 2 minutes 18 seconds 317 msec
