                         Program Version 5.0.0 -  RELEASE  -
|  1> !LC-PBE RIJCOSX def2-TZVP def2/J TightSCF xyzfile
|  2>
|  3> *xyzfile 0 1 D9.xyz
|  4>
|  5> %MaxCore 64000
|  6>
|  7> %pal nprocs 18
|  8> end
|  9>
| 10> %scf
| 11>   MaxIter 150
| 12> end
| 13>
| 14>
| 15>                          ****END OF INPUT****

CARTESIAN COORDINATES (ANGSTROEM)
---------------------------------
  C      4.490588    1.155899   -2.469290
  N      4.305394    1.222762   -3.908317
  C      4.906458   -3.102816   -5.954844
  C      3.511771   -2.806215   -6.492283
  H      2.736044   -3.373445   -5.973736
  H      3.444904   -3.040831   -7.555281
  S      3.004618   -1.096206   -6.389259
  C      4.631918    2.246365   -4.670958
  N      4.541686    2.143990   -5.987139
  C      5.084086    3.393584   -4.118545
  H      4.920675    3.570501   -3.135870
  H      5.254652    4.197390   -4.706956
  H      3.824530    0.449113   -4.350926
  H      4.343373    1.249318   -6.416646
  H      4.676712    2.956624   -6.574113
  O      4.128856   -0.329647   -6.953717
  O      1.781285   -1.000779   -7.136399
  C      5.942129    0.939500   -2.036893
  H      3.864305    0.328532   -2.136611
  H      4.076233    2.049994   -1.989010
  C      6.462677   -3.117775   -3.944671
  C      5.024977   -3.025679   -4.437625
  H      4.423321   -3.818693   -3.977648
  H      4.579350   -2.087131   -4.108727
  H      5.201533   -4.100207   -6.296905
  H      5.605922   -2.397822   -6.413368
  C      6.559957   -0.356290   -2.559086
  H      5.967976    0.952567   -0.942444
  H      6.547184    1.788331   -2.368849
  C      6.006283   -1.615917   -1.899301
  H      7.642360   -0.318000   -2.402059
  H      6.414855   -0.403433   -3.642587
  C      6.608718   -2.917014   -2.435655
  H      6.190324   -1.561115   -0.820948
  H      4.919250   -1.651245   -2.016586
  H      7.066975   -2.374258   -4.475514
  H      6.887808   -4.089747   -4.215332
  H      6.135197   -3.755573   -1.915159
  H      7.671142   -2.955503   -2.172291
  F      2.851546   -0.783683   -4.956789

 Total Charge           Charge          ....    0
 Multiplicity           Mult            ....    1
 Number of Electrons    NEL             ....  144
 Basis Dimension        Dim             ....  671

ORBITAL ENERGIES
----------------

  NO   OCC          E(Eh)            E(eV)
   0   2.0000     -88.560565     -2409.8555
   1   2.0000     -24.633917      -670.3230
   2   2.0000     -19.019114      -517.5364
   3   2.0000     -19.016082      -517.4539
   4   2.0000     -14.203072      -386.4852
   5   2.0000     -14.177701      -385.7948
   6   2.0000     -10.198225      -277.5078
   7   2.0000     -10.155099      -276.3343
   8   2.0000     -10.149462      -276.1809
   9   2.0000     -10.139626      -275.9133
  10   2.0000     -10.137263      -275.8490
  11   2.0000     -10.124654      -275.5058
  12   2.0000     -10.118071      -275.3267
  13   2.0000     -10.111946      -275.1600
  14   2.0000     -10.103729      -274.9364
  15   2.0000     -10.099009      -274.8080
  16   2.0000     -10.004676      -272.2411
  17   2.0000      -8.172156      -222.3757
  18   2.0000      -6.192888      -168.5171
  19   2.0000      -6.185373      -168.3126
  20   2.0000      -6.184738      -168.2953
  21   2.0000      -1.558028       -42.3961
  22   2.0000      -1.311160       -35.6785
  23   2.0000      -1.210628       -32.9429
  24   2.0000      -1.132943       -30.8289
  25   2.0000      -1.042929       -28.3796
  26   2.0000      -1.039172       -28.2773
  27   2.0000      -1.001785       -27.2600
  28   2.0000      -0.964216       -26.2377
  29   2.0000      -0.927648       -25.2426
  30   2.0000      -0.902176       -24.5495
  31   2.0000      -0.869660       -23.6646
  32   2.0000      -0.856992       -23.3199
  33   2.0000      -0.829450       -22.5705
  34   2.0000      -0.804409       -21.8891
  35   2.0000      -0.774306       -21.0699
  36   2.0000      -0.764339       -20.7987
  37   2.0000      -0.756919       -20.5968
  38   2.0000      -0.735640       -20.0178
  39   2.0000      -0.721524       -19.6337
  40   2.0000      -0.689390       -18.7592
  41   2.0000      -0.676218       -18.4008
  42   2.0000      -0.666301       -18.1310
  43   2.0000      -0.656928       -17.8759
  44   2.0000      -0.641549       -17.4574
  45   2.0000      -0.641409       -17.4536
  46   2.0000      -0.622093       -16.9280
  47   2.0000      -0.618654       -16.8344
  48   2.0000      -0.598836       -16.2951
  49   2.0000      -0.594446       -16.1757
  50   2.0000      -0.582187       -15.8421
  51   2.0000      -0.578604       -15.7446
  52   2.0000      -0.563444       -15.3321
  53   2.0000      -0.551204       -14.9990
  54   2.0000      -0.537702       -14.6316
  55   2.0000      -0.528398       -14.3785
  56   2.0000      -0.522046       -14.2056
  57   2.0000      -0.514867       -14.0102
  58   2.0000      -0.505524       -13.7560
  59   2.0000      -0.501193       -13.6382
  60   2.0000      -0.494056       -13.4440
  61   2.0000      -0.488613       -13.2958
  62   2.0000      -0.483900       -13.1676
  63   2.0000      -0.478411       -13.0182
  64   2.0000      -0.473570       -12.8865
  65   2.0000      -0.468682       -12.7535
  66   2.0000      -0.464297       -12.6342
  67   2.0000      -0.445381       -12.1194
  68   2.0000      -0.442249       -12.0342
  69   2.0000      -0.433631       -11.7997
  70   2.0000      -0.360668        -9.8143
  71   2.0000      -0.263990        -7.1835
  72   0.0000       0.084162         2.2902
  73   0.0000       0.104241         2.8365
  74   0.0000       0.115374         3.1395
  75   0.0000       0.119055         3.2397
  76   0.0000       0.129811         3.5323

MULLIKEN ATOMIC CHARGES
-----------------------
   0 C :   -0.357102
   1 N :   -0.290434
   2 C :   -0.317969
   3 C :   -0.325505
   4 H :    0.205488
   5 H :    0.227705
   6 S :    0.785545
   7 C :    0.384542
   8 N :   -0.509934
   9 C :   -0.681540
  10 H :    0.141360
  11 H :    0.109496
  12 H :    0.185951
  13 H :    0.262821
  14 H :    0.255964
  15 O :   -0.444722
  16 O :   -0.360503
  17 C :   -0.218806
  18 H :    0.172331
  19 H :    0.183401
  20 C :   -0.364817
  21 C :   -0.305222
  22 H :    0.162514
  23 H :    0.118361
  24 H :    0.171640
  25 H :    0.208714
  26 C :   -0.318299
  27 H :    0.140984
  28 H :    0.196179
  29 C :   -0.368823
  30 H :    0.156075
  31 H :    0.171272
  32 C :   -0.246070
  33 H :    0.158611
  34 H :    0.155581
  35 H :    0.184791
  36 H :    0.159161
  37 H :    0.152223
  38 H :    0.157564
  39 F :   -0.098527
Sum of atomic charges:   -0.0000000

LOEWDIN ATOMIC CHARGES
----------------------
   0 C :   -0.301067
   1 N :    0.108707
   2 C :   -0.300236
   3 C :   -0.372632
   4 H :    0.154303
   5 H :    0.166914
   6 S :    0.540325
   7 C :   -0.474515
   8 N :   -0.017967
   9 C :   -0.381892
  10 H :    0.100191
  11 H :    0.096738
  12 H :    0.157910
  13 H :    0.138801
  14 H :    0.179360
  15 O :   -0.270964
  16 O :   -0.236457
  17 C :   -0.283010
  18 H :    0.136450
  19 H :    0.143128
  20 C :   -0.285934
  21 C :   -0.291634
  22 H :    0.148311
  23 H :    0.137467
  24 H :    0.156241
  25 H :    0.159936
  26 C :   -0.286506
  27 H :    0.144967
  28 H :    0.155773
  29 C :   -0.290986
  30 H :    0.147070
  31 H :    0.145919
  32 C :   -0.284735
  33 H :    0.146650
  34 H :    0.136916
  35 H :    0.149239
  36 H :    0.146362
  37 H :    0.144630
  38 H :    0.147621
  39 F :    0.088605

  Mayer bond orders larger than 0.100000
B(  0-C ,  1-N ) :   0.9266 B(  0-C , 17-C ) :   0.9046 B(  0-C , 18-H ) :   0.9942
B(  0-C , 19-H ) :   0.9920 B(  1-N ,  7-C ) :   1.1559 B(  1-N , 12-H ) :   0.9304
B(  2-C ,  3-C ) :   0.9317 B(  2-C , 21-C ) :   0.9304 B(  2-C , 24-H ) :   0.9569
B(  2-C , 25-H ) :   0.9625 B(  3-C ,  4-H ) :   0.9424 B(  3-C ,  5-H ) :   0.9408
B(  3-C ,  6-S ) :   0.9282 B(  6-S , 15-O ) :   1.7846 B(  6-S , 16-O ) :   2.0281
B(  6-S , 39-F ) :   1.0907 B(  7-C ,  8-N ) :   1.1692 B(  7-C ,  9-C ) :   1.5797
B(  8-N , 13-H ) :   0.8720 B(  8-N , 14-H ) :   0.9248 B(  9-C , 10-H ) :   0.9994
B(  9-C , 11-H ) :   1.0098 B( 17-C , 26-C ) :   0.9554 B( 17-C , 27-H ) :   0.9855
B( 17-C , 28-H ) :   0.9657 B( 20-C , 21-C ) :   0.9274 B( 20-C , 32-C ) :   0.9389
B( 20-C , 35-H ) :   0.9851 B( 20-C , 36-H ) :   0.9771 B( 21-C , 22-H ) :   0.9631
B( 21-C , 23-H ) :   0.9740 B( 26-C , 29-C ) :   0.8911 B( 26-C , 30-H ) :   0.9766
B( 26-C , 31-H ) :   0.9664 B( 29-C , 32-C ) :   0.9364 B( 29-C , 33-H ) :   0.9747
B( 29-C , 34-H ) :   0.9928 B( 32-C , 37-H ) :   0.9931 B( 32-C , 38-H ) :   0.9865

FINAL SINGLE POINT ENERGY     -1188.468967122201

DIPOLE MOMENT
-------------
                                X             Y             Z
Electronic contribution:    -18.98476       1.77686     -17.82981
Nuclear contribution   :     18.85717      -4.60195      17.96505
                        -----------------------------------------
Total Dipole Moment    :     -0.12759      -2.82509       0.13524
                        -----------------------------------------
Magnitude (a.u.)       :      2.83120
Magnitude (Debye)      :      7.19634

Rotational constants in cm-1:     0.014436     0.012382     0.007563
Rotational constants in MHz :   432.785702   371.214592   226.743759

                             ****ORCA TERMINATED NORMALLY****
TOTAL RUN TIME: 0 days 0 hours 1 minutes 48 seconds 207 msec
