                         Program Version 5.0.0 -  RELEASE  -
|  1> !TPSS D3BJ RIJCOSX def2-TZVPD def2/J TightSCF
|  2> *xyz -1 1
|  3> C         -1.91658       -2.48508       -3.64367
|  4> C         -1.36353       -1.98134       -2.29361
|  5> O         -0.35039       -2.74969       -1.79601
|  6> H         -2.22622       -1.90839       -1.60204
|  7> H         -1.05135       -0.91567       -2.44333
|  8> H         -1.11522       -2.57167       -4.34739
|  9> H         -2.64227       -1.79099       -4.01314
| 10> H         -2.37564       -3.44180       -3.50640
| 11> *
| 12>
| 13> %MaxCore 64000
| 14> %pal nprocs 4
| 15> end
| 16>
| 17> %scf
| 18>   MaxIter 150
| 19> end
| 20>
| 21>
| 22>                          ****END OF INPUT****

CARTESIAN COORDINATES (ANGSTROEM)
---------------------------------
  C     -1.916580   -2.485080   -3.643670
  C     -1.363530   -1.981340   -2.293610
  O     -0.350390   -2.749690   -1.796010
  H     -2.226220   -1.908390   -1.602040
  H     -1.051350   -0.915670   -2.443330
  H     -1.115220   -2.571670   -4.347390
  H     -2.642270   -1.790990   -4.013140
  H     -2.375640   -3.441800   -3.506400

 Total Charge           Charge          ....   -1
 Multiplicity           Mult            ....    1
 Number of Electrons    NEL             ....   26
 Basis Dimension        Dim             ....  159

ORBITAL ENERGIES
----------------

  NO   OCC          E(Eh)            E(eV)
   0   2.0000     -18.561687      -505.0892
   1   2.0000      -9.802033      -266.7269
   2   2.0000      -9.777618      -266.0625
   3   2.0000      -0.622621       -16.9424
   4   2.0000      -0.474168       -12.9028
   5   2.0000      -0.327889        -8.9223
   6   2.0000      -0.209972        -5.7136
   7   2.0000      -0.189536        -5.1575
   8   2.0000      -0.135609        -3.6901
   9   2.0000      -0.121958        -3.3187
  10   2.0000      -0.077440        -2.1073
  11   2.0000       0.061470         1.6727
  12   2.0000       0.064910         1.7663
  13   0.0000       0.146264         3.9800
  14   0.0000       0.168788         4.5929
  15   0.0000       0.193924         5.2769
  16   0.0000       0.197322         5.3694
  17   0.0000       0.218242         5.9387

MULLIKEN ATOMIC CHARGES
-----------------------
   0 C :   -1.045733
   1 C :   -0.063589
   2 O :   -1.007639
   3 H :    0.141043
   4 H :    0.141360
   5 H :    0.243032
   6 H :    0.344041
   7 H :    0.247487
Sum of atomic charges:   -1.0000000

LOEWDIN ATOMIC CHARGES
----------------------
   0 C :   -0.171673
   1 C :   -0.614718
   2 O :   -0.391819
   3 H :    0.045412
   4 H :    0.048428
   5 H :    0.033775
   6 H :    0.018339
   7 H :    0.032256

  Mayer bond orders larger than 0.100000
B(  0-C ,  1-C ) :   0.9303 B(  0-C ,  2-O ) :   0.6232 B(  0-C ,  5-H ) :   0.9809
B(  0-C ,  6-H ) :   0.9243 B(  0-C ,  7-H ) :   0.9714 B(  1-C ,  2-O ) :   0.6800
B(  1-C ,  3-H ) :   1.0499 B(  1-C ,  4-H ) :   1.0486

Dispersion correction           -0.004550127
FINAL SINGLE POINT ENERGY      -154.515481009998

DIPOLE MOMENT
-------------
                                X             Y             Z
Electronic contribution:      2.19802      -0.92932       1.98427
Nuclear contribution   :     -3.14382       1.30299      -2.83231
                        -----------------------------------------
Total Dipole Moment    :     -0.94580       0.37367      -0.84803
                        -----------------------------------------
Magnitude (a.u.)       :      1.32413
Magnitude (Debye)      :      3.36568

Rotational constants in cm-1:     1.288206     0.322942     0.285188
Rotational constants in MHz : 38619.437223  9681.562038  8549.712012

                             ****ORCA TERMINATED NORMALLY****
TOTAL RUN TIME: 0 days 0 hours 0 minutes 11 seconds 817 msec
