                         Program Version 5.0.0 -  RELEASE  -
|  1> !TPSS D3BJ RIJCOSX def2-TZVPD def2/J TightSCF
|  2> *xyz 1 1
|  3> C          1.64703       -2.34528       -5.02041
|  4> C          2.20996       -2.81239       -3.66571
|  5> C          2.48901       -1.66851       -2.73754
|  6> N          3.59631       -0.94761       -2.95225
|  7> N          1.66394       -1.41369       -1.77781
|  8> H          0.81164       -1.96318       -1.70275
|  9> H          1.84550       -0.63508       -1.15875
| 10> H          4.20535       -1.17600       -3.73383
| 11> H          3.81723       -0.12585       -2.40604
| 12> H          3.14311       -3.36280       -3.81152
| 13> H          1.48768       -3.45893       -3.16521
| 14> H          1.46566       -3.19589       -5.64368
| 15> H          2.35406       -1.69850       -5.49654
| 16> H          0.73014       -1.81680       -4.86253
| 17> *
| 18>
| 19> %MaxCore 64000
| 20> %pal nprocs 4
| 21> end
| 22>
| 23> %scf
| 24>   MaxIter 150
| 25> end
| 26>
| 27>
| 28>                          ****END OF INPUT****

CARTESIAN COORDINATES (ANGSTROEM)
---------------------------------
  C      1.647030   -2.345280   -5.020410
  C      2.209960   -2.812390   -3.665710
  C      2.489010   -1.668510   -2.737540
  N      3.596310   -0.947610   -2.952250
  N      1.663940   -1.413690   -1.777810
  H      0.811640   -1.963180   -1.702750
  H      1.845500   -0.635080   -1.158750
  H      4.205350   -1.176000   -3.733830
  H      3.817230   -0.125850   -2.406040
  H      3.143110   -3.362800   -3.811520
  H      1.487680   -3.458930   -3.165210
  H      1.465660   -3.195890   -5.643680
  H      2.354060   -1.698500   -5.496540
  H      0.730140   -1.816800   -4.862530

 Total Charge           Charge          ....    1
 Multiplicity           Mult            ....    1
 Number of Electrons    NEL             ....   40
 Basis Dimension        Dim             ....  266

ORBITAL ENERGIES
----------------

  NO   OCC          E(Eh)            E(eV)
   0   2.0000     -14.351547      -390.5254
   1   2.0000     -14.343030      -390.2937
   2   2.0000     -10.296111      -280.1714
   3   2.0000     -10.184177      -277.1256
   4   2.0000     -10.141259      -275.9577
   5   2.0000      -1.139285       -31.0015
   6   2.0000      -1.049957       -28.5708
   7   2.0000      -0.911855       -24.8128
   8   2.0000      -0.810295       -22.0492
   9   2.0000      -0.768146       -20.9023
  10   2.0000      -0.727684       -19.8013
  11   2.0000      -0.706576       -19.2269
  12   2.0000      -0.661388       -17.9973
  13   2.0000      -0.604788       -16.4571
  14   2.0000      -0.582693       -15.8559
  15   2.0000      -0.571276       -15.5452
  16   2.0000      -0.506435       -13.7808
  17   2.0000      -0.499267       -13.5858
  18   2.0000      -0.495399       -13.4805
  19   2.0000      -0.455634       -12.3984
  20   0.0000      -0.236183        -6.4269
  21   0.0000      -0.181813        -4.9474
  22   0.0000      -0.139253        -3.7893
  23   0.0000      -0.135444        -3.6856
  24   0.0000      -0.107701        -2.9307

MULLIKEN ATOMIC CHARGES
-----------------------
   0 C :   -0.863813
   1 C :   -0.297322
   2 C :    0.848762
   3 N :   -0.372529
   4 N :   -0.312081
   5 H :    0.215705
   6 H :    0.180291
   7 H :    0.215505
   8 H :    0.180998
   9 H :    0.205760
  10 H :    0.188813
  11 H :    0.227149
  12 H :    0.296037
  13 H :    0.286725
Sum of atomic charges:    1.0000000

LOEWDIN ATOMIC CHARGES
----------------------
   0 C :   -0.044766
   1 C :   -0.140342
   2 C :   -0.368114
   3 N :    0.227139
   4 N :    0.242057
   5 H :    0.157334
   6 H :    0.151221
   7 H :    0.147335
   8 H :    0.140530
   9 H :    0.131067
  10 H :    0.121105
  11 H :    0.083416
  12 H :    0.072475
  13 H :    0.079542

  Mayer bond orders larger than 0.100000
B(  0-C ,  1-C ) :   0.8595 B(  0-C ,  2-C ) :   0.1325 B(  0-C , 11-H ) :   0.9926
B(  0-C , 12-H ) :   0.8973 B(  0-C , 13-H ) :   0.9482 B(  1-C ,  2-C ) :   0.9167
B(  1-C ,  3-N ) :   0.1026 B(  1-C ,  9-H ) :   0.9230 B(  1-C , 10-H ) :   0.9494
B(  2-C ,  3-N ) :   1.0733 B(  2-C ,  4-N ) :   1.1679 B(  3-N ,  4-N ) :   0.1218
B(  3-N ,  7-H ) :   0.9680 B(  3-N ,  8-H ) :   1.0344 B(  4-N ,  5-H ) :   0.9656
B(  4-N ,  6-H ) :   1.0393

Dispersion correction           -0.012451825
FINAL SINGLE POINT ENERGY      -229.163898082375

DIPOLE MOMENT
-------------
                                X             Y             Z
Electronic contribution:      1.19324       1.65431       3.60898
Nuclear contribution   :     -0.98617      -1.03178      -2.77619
                        -----------------------------------------
Total Dipole Moment    :      0.20708       0.62254       0.83279
                        -----------------------------------------
Magnitude (a.u.)       :      1.06018
Magnitude (Debye)      :      2.69476

Rotational constants in cm-1:     0.257311     0.127495     0.099037
Rotational constants in MHz :  7713.982239  3822.189706  2969.039713

                             ****ORCA TERMINATED NORMALLY****
TOTAL RUN TIME: 0 days 0 hours 0 minutes 22 seconds 111 msec
