                         Program Version 5.0.0 -  RELEASE  -
|  1> !TPSS D3BJ RIJCOSX def2-TZVPD def2/J TightSCF xyzfile
|  2>
|  3> *xyzfile 0 1 B.xyz
|  4>
|  5> %MaxCore 64000
|  6>
|  7> %pal nprocs 4
|  8> end
|  9>
| 10> %scf
| 11>   MaxIter 150
| 12> end
| 13>
| 14>
| 15>                          ****END OF INPUT****

CARTESIAN COORDINATES (ANGSTROEM)
---------------------------------
  C      1.647032   -2.345276   -5.020411
  C      0.217628   -1.814022   -4.924389
  C      2.209964   -2.812388   -3.665708
  C     -0.811356   -2.908780   -4.607625
  C     -1.916579   -2.485081   -3.643665
  H     -2.554525   -1.712428   -4.091993
  C     -1.363531   -1.981337   -2.293608
  H     -2.553448   -3.355667   -3.458815
  O     -0.350395   -2.749689   -1.796006
  H      2.308385   -1.588704   -5.457128
  H      1.674286   -3.203478   -5.697392
  C      2.489007   -1.668510   -2.737538
  N      3.596314   -0.947608   -2.952247
  N      1.663936   -1.413685   -1.777806
  H      0.811642   -1.963178   -1.702755
  H      1.845503   -0.635078   -1.158749
  H      4.205351   -1.176003   -3.733825
  H      3.817230   -0.125845   -2.406041
  H     -1.244829   -3.280884   -5.541040
  H     -0.306331   -3.757746   -4.142734
  H     -0.036244   -1.318555   -5.865303
  H      0.175004   -1.035382   -4.158095
  H      3.143106   -3.362803   -3.811524
  H      1.487683   -3.458935   -3.165211
  H     -2.226220   -1.908386   -1.602039
  H     -1.051353   -0.915671   -2.443331

 Total Charge           Charge          ....    0
 Multiplicity           Mult            ....    1
 Number of Electrons    NEL             ....   80
 Basis Dimension        Dim             ....  517

ORBITAL ENERGIES
----------------

  NO   OCC          E(Eh)            E(eV)
   0   2.0000     -18.745060      -510.0790
   1   2.0000     -14.177477      -385.7888
   2   2.0000     -14.132607      -384.5678
   3   2.0000     -10.113537      -275.2033
   4   2.0000     -10.010919      -272.4109
   5   2.0000      -9.998498      -272.0730
   6   2.0000      -9.969448      -271.2825
   7   2.0000      -9.960712      -271.0448
   8   2.0000      -9.950266      -270.7605
   9   2.0000      -9.933078      -270.2928
  10   2.0000      -0.956006       -26.0142
  11   2.0000      -0.869067       -23.6485
  12   2.0000      -0.815856       -22.2006
  13   2.0000      -0.758092       -20.6287
  14   2.0000      -0.698656       -19.0114
  15   2.0000      -0.651315       -17.7232
  16   2.0000      -0.601102       -16.3568
  17   2.0000      -0.580935       -15.8081
  18   2.0000      -0.550692       -14.9851
  19   2.0000      -0.541128       -14.7248
  20   2.0000      -0.517346       -14.0777
  21   2.0000      -0.477624       -12.9968
  22   2.0000      -0.456584       -12.4243
  23   2.0000      -0.441329       -12.0092
  24   2.0000      -0.422764       -11.5040
  25   2.0000      -0.398160       -10.8345
  26   2.0000      -0.388071       -10.5599
  27   2.0000      -0.363682        -9.8963
  28   2.0000      -0.351537        -9.5658
  29   2.0000      -0.348683        -9.4881
  30   2.0000      -0.318873        -8.6770
  31   2.0000      -0.310145        -8.4395
  32   2.0000      -0.301557        -8.2058
  33   2.0000      -0.281737        -7.6665
  34   2.0000      -0.274497        -7.4694
  35   2.0000      -0.263194        -7.1619
  36   2.0000      -0.255092        -6.9414
  37   2.0000      -0.248098        -6.7511
  38   2.0000      -0.132645        -3.6095
  39   2.0000      -0.124202        -3.3797
  40   0.0000      -0.061134        -1.6636
  41   0.0000      -0.042171        -1.1475
  42   0.0000      -0.007267        -0.1977
  43   0.0000       0.011420         0.3108
  44   0.0000       0.017116         0.4658

MULLIKEN ATOMIC CHARGES
-----------------------
   0 C :   -0.083502
   1 C :   -0.394215
   2 C :   -0.506346
   3 C :   -0.271977
   4 C :   -0.390849
   5 H :    0.128755
   6 C :   -0.238570
   7 H :    0.191649
   8 O :   -1.037553
   9 H :    0.162531
  10 H :    0.100149
  11 C :    0.710714
  12 N :   -0.472240
  13 N :   -0.276576
  14 H :    0.277507
  15 H :    0.102999
  16 H :    0.185211
  17 H :    0.148630
  18 H :    0.127155
  19 H :    0.243261
  20 H :    0.143600
  21 H :    0.254111
  22 H :    0.138199
  23 H :    0.374875
  24 H :    0.136202
  25 H :    0.246283
Sum of atomic charges:    0.0000000

LOEWDIN ATOMIC CHARGES
----------------------
   0 C :   -0.183871
   1 C :   -0.195665
   2 C :   -0.107279
   3 C :   -0.211008
   4 C :   -0.196549
   5 H :    0.099180
   6 C :   -0.429694
   7 H :    0.098707
   8 O :   -0.270935
   9 H :    0.098717
  10 H :    0.112107
  11 C :   -0.372350
  12 N :    0.177175
  13 N :    0.238363
  14 H :   -0.027103
  15 H :    0.135113
  16 H :    0.123218
  17 H :    0.119254
  18 H :    0.101902
  19 H :    0.093984
  20 H :    0.106099
  21 H :    0.091497
  22 H :    0.118883
  23 H :    0.108791
  24 H :    0.089504
  25 H :    0.081958

  Mayer bond orders larger than 0.100000
B(  0-C ,  1-C ) :   1.1199 B(  0-C ,  2-C ) :   0.9144 B(  0-C ,  3-C ) :   0.2379
B(  0-C ,  9-H ) :   0.7842 B(  0-C , 10-H ) :   0.9545 B(  0-C , 11-C ) :   0.1729
B(  1-C ,  3-C ) :   0.8120 B(  1-C ,  4-C ) :   0.2210 B(  1-C ,  6-C ) :   0.1253
B(  1-C , 20-H ) :   0.9209 B(  1-C , 21-H ) :   0.9076 B(  2-C , 11-C ) :   1.0211
B(  2-C , 12-N ) :   0.1034 B(  2-C , 22-H ) :   0.9324 B(  2-C , 23-H ) :   0.8815
B(  3-C ,  4-C ) :   1.1082 B(  3-C ,  8-O ) :  -0.1045 B(  3-C , 18-H ) :   0.9316
B(  3-C , 19-H ) :   0.8560 B(  4-C ,  5-H ) :   0.9870 B(  4-C ,  6-C ) :   0.9930
B(  4-C ,  7-H ) :   0.8730 B(  4-C ,  8-O ) :   0.1707 B(  6-C ,  8-O ) :   0.7965
B(  6-C , 24-H ) :   0.9801 B(  6-C , 25-H ) :   0.9631 B(  8-O , 13-N ) :  -0.1335
B(  8-O , 14-H ) :   0.3189 B(  8-O , 19-H ) :   0.1002 B( 11-C , 12-N ) :   0.8692
B( 11-C , 13-N ) :   1.2699 B( 12-N , 13-N ) :   0.1226 B( 12-N , 16-H ) :   1.0315
B( 12-N , 17-H ) :   1.0607 B( 13-N , 14-H ) :   0.6279 B( 13-N , 15-H ) :   1.0728

Dispersion correction           -0.033295761
FINAL SINGLE POINT ENERGY      -461.343159745439

DIPOLE MOMENT
-------------
                                X             Y             Z
Electronic contribution:      5.54341       0.82823       4.35745
Nuclear contribution   :     -2.25948       0.71378      -5.15247
                        -----------------------------------------
Total Dipole Moment    :      3.28393       1.54201      -0.79502
                        -----------------------------------------
Magnitude (a.u.)       :      3.71403
Magnitude (Debye)      :      9.44031

Rotational constants in cm-1:     0.063973     0.031829     0.024059
Rotational constants in MHz :  1917.874550   954.201145   721.285252

                             ****ORCA TERMINATED NORMALLY****
TOTAL RUN TIME: 0 days 0 hours 1 minutes 25 seconds 178 msec
