                         Program Version 5.0.0 -  RELEASE  -
|  1> !TPSS D3BJ RIJCOSX def2-TZVPD def2/J TightSCF
|  2> *xyz 0 1
|  3> C         -1.91658       -2.48508       -3.64367
|  4> C         -1.36353       -1.98134       -2.29361
|  5> F         -0.35039       -2.74969       -1.79601
|  6> H         -2.22622       -1.90839       -1.60204
|  7> H         -1.05135       -0.91567       -2.44333
|  8> H         -1.11522       -2.57167       -4.34739
|  9> H         -2.64227       -1.79099       -4.01314
| 10> H         -2.37564       -3.44180       -3.50640
| 11> *
| 12>
| 13> %MaxCore 64000
| 14> %pal nprocs 4
| 15> end
| 16>
| 17> %scf
| 18>   MaxIter 150
| 19> end
| 20>
| 21>
| 22>                          ****END OF INPUT****

CARTESIAN COORDINATES (ANGSTROEM)
---------------------------------
  C     -1.916580   -2.485080   -3.643670
  C     -1.363530   -1.981340   -2.293610
  F     -0.350390   -2.749690   -1.796010
  H     -2.226220   -1.908390   -1.602040
  H     -1.051350   -0.915670   -2.443330
  H     -1.115220   -2.571670   -4.347390
  H     -2.642270   -1.790990   -4.013140
  H     -2.375640   -3.441800   -3.506400

 Total Charge           Charge          ....    0
 Multiplicity           Mult            ....    1
 Number of Electrons    NEL             ....   26
 Basis Dimension        Dim             ....  159

ORBITAL ENERGIES
----------------

  NO   OCC          E(Eh)            E(eV)
   0   2.0000     -24.399255      -663.9375
   1   2.0000     -10.063048      -273.8294
   2   2.0000      -9.981238      -271.6033
   3   2.0000      -1.125120       -30.6161
   4   2.0000      -0.708322       -19.2744
   5   2.0000      -0.582128       -15.8405
   6   2.0000      -0.461051       -12.5458
   7   2.0000      -0.445981       -12.1358
   8   2.0000      -0.408201       -11.1077
   9   2.0000      -0.363697        -9.8967
  10   2.0000      -0.361903        -9.8479
  11   2.0000      -0.291294        -7.9265
  12   2.0000      -0.288522        -7.8511
  13   0.0000       0.000519         0.0141
  14   0.0000       0.027959         0.7608
  15   0.0000       0.041327         1.1246
  16   0.0000       0.047126         1.2824
  17   0.0000       0.072095         1.9618

MULLIKEN ATOMIC CHARGES
-----------------------
   0 C :   -0.726817
   1 C :    0.021577
   2 F :   -0.298879
   3 H :    0.160672
   4 H :    0.162405
   5 H :    0.210221
   6 H :    0.261174
   7 H :    0.209646
Sum of atomic charges:    0.0000000

LOEWDIN ATOMIC CHARGES
----------------------
   0 C :   -0.076367
   1 C :   -0.293949
   2 F :   -0.030381
   3 H :    0.105889
   4 H :    0.110853
   5 H :    0.060792
   6 H :    0.063333
   7 H :    0.059830

  Mayer bond orders larger than 0.100000
B(  0-C ,  1-C ) :   0.9996 B(  0-C ,  2-F ) :   0.1016 B(  0-C ,  5-H ) :   0.9601
B(  0-C ,  6-H ) :   0.9237 B(  0-C ,  7-H ) :   0.9575 B(  1-C ,  2-F ) :   0.7875
B(  1-C ,  3-H ) :   0.9611 B(  1-C ,  4-H ) :   0.9587

Dispersion correction           -0.004197165
FINAL SINGLE POINT ENERGY      -179.158082431878

DIPOLE MOMENT
-------------
                                X             Y             Z
Electronic contribution:      3.64316      -1.37653       3.43942
Nuclear contribution   :     -4.15401       1.70894      -3.75000
                        -----------------------------------------
Total Dipole Moment    :     -0.51086       0.33241      -0.31057
                        -----------------------------------------
Magnitude (a.u.)       :      0.68405
Magnitude (Debye)      :      1.73872

Rotational constants in cm-1:     1.266842     0.300492     0.266603
Rotational constants in MHz : 37978.968232  9008.526876  7992.551454

                             ****ORCA TERMINATED NORMALLY****
TOTAL RUN TIME: 0 days 0 hours 0 minutes 10 seconds 418 msec
