                         Program Version 5.0.0 -  RELEASE  -
|  1> !TPSS D3BJ RIJCOSX def2-TZVPD def2/J TightSCF
|  2> *xyz 0 1
|  3> C          1.64703       -2.34528       -5.02041
|  4> C          2.20996       -2.81239       -3.66571
|  5> C          2.48901       -1.66851       -2.73754
|  6> C          3.59631       -0.94761       -2.95225
|  7> N          1.66394       -1.41369       -1.77781
|  8> H          0.81164       -1.96318       -1.70275
|  9> H          1.84550       -0.63508       -1.15875
| 10> H          4.20535       -1.17600       -3.73383
| 11> H          3.81723       -0.12585       -2.40604
| 12> H          3.14311       -3.36280       -3.81152
| 13> H          1.48768       -3.45893       -3.16521
| 14> H          1.46566       -3.19589       -5.64368
| 15> H          2.35406       -1.69850       -5.49654
| 16> H          0.73014       -1.81680       -4.86253
| 17> *
| 18>
| 19> %MaxCore 64000
| 20> %pal nprocs 4
| 21> end
| 22>
| 23> %scf
| 24>   MaxIter 150
| 25> end
| 26>
| 27>
| 28>                          ****END OF INPUT****

CARTESIAN COORDINATES (ANGSTROEM)
---------------------------------
  C      1.647030   -2.345280   -5.020410
  C      2.209960   -2.812390   -3.665710
  C      2.489010   -1.668510   -2.737540
  C      3.596310   -0.947610   -2.952250
  N      1.663940   -1.413690   -1.777810
  H      0.811640   -1.963180   -1.702750
  H      1.845500   -0.635080   -1.158750
  H      4.205350   -1.176000   -3.733830
  H      3.817230   -0.125850   -2.406040
  H      3.143110   -3.362800   -3.811520
  H      1.487680   -3.458930   -3.165210
  H      1.465660   -3.195890   -5.643680
  H      2.354060   -1.698500   -5.496540
  H      0.730140   -1.816800   -4.862530

 Total Charge           Charge          ....    0
 Multiplicity           Mult            ....    1
 Number of Electrons    NEL             ....   40
 Basis Dimension        Dim             ....  266

ORBITAL ENERGIES
----------------

  NO   OCC          E(Eh)            E(eV)
   0   2.0000     -14.108171      -383.9029
   1   2.0000      -9.997781      -272.0534
   2   2.0000      -9.984932      -271.7038
   3   2.0000      -9.969330      -271.2793
   4   2.0000      -9.913715      -269.7659
   5   2.0000      -0.876756       -23.8578
   6   2.0000      -0.722034       -19.6475
   7   2.0000      -0.653893       -17.7933
   8   2.0000      -0.588790       -16.0218
   9   2.0000      -0.521186       -14.1822
  10   2.0000      -0.489209       -13.3121
  11   2.0000      -0.436309       -11.8726
  12   2.0000      -0.400922       -10.9096
  13   2.0000      -0.370612       -10.0849
  14   2.0000      -0.353239        -9.6121
  15   2.0000      -0.342791        -9.3278
  16   2.0000      -0.316154        -8.6030
  17   2.0000      -0.297301        -8.0900
  18   2.0000      -0.295082        -8.0296
  19   2.0000      -0.154126        -4.1940
  20   0.0000      -0.009103        -0.2477
  21   0.0000       0.013534         0.3683
  22   0.0000       0.024384         0.6635
  23   0.0000       0.029763         0.8099
  24   0.0000       0.039798         1.0830

MULLIKEN ATOMIC CHARGES
-----------------------
   0 C :   -0.874939
   1 C :   -0.304830
   2 C :    0.954984
   3 C :   -1.251851
   4 N :   -0.457774
   5 H :    0.167018
   6 H :    0.135956
   7 H :    0.272131
   8 H :    0.229422
   9 H :    0.185892
  10 H :    0.176659
  11 H :    0.217644
  12 H :    0.302302
  13 H :    0.247385
Sum of atomic charges:    0.0000000

LOEWDIN ATOMIC CHARGES
----------------------
   0 C :   -0.083133
   1 C :   -0.192849
   2 C :   -0.507613
   3 C :    0.018132
   4 N :    0.111667
   5 H :    0.112545
   6 H :    0.117369
   7 H :    0.019309
   8 H :    0.010312
   9 H :    0.110714
  10 H :    0.097899
  11 H :    0.057773
  12 H :    0.062931
  13 H :    0.064945

  Mayer bond orders larger than 0.100000
B(  0-C ,  1-C ) :   0.8108 B(  0-C ,  2-C ) :   0.1201 B(  0-C , 11-H ) :   0.9700
B(  0-C , 12-H ) :   0.9293 B(  0-C , 13-H ) :   0.9576 B(  1-C ,  2-C ) :   0.8305
B(  1-C ,  9-H ) :   0.9106 B(  1-C , 10-H ) :   1.0089 B(  2-C ,  3-C ) :   1.1471
B(  2-C ,  4-N ) :   0.8904 B(  3-C ,  4-N ) :   0.1275 B(  3-C ,  7-H ) :   0.9566
B(  3-C ,  8-H ) :   1.0481 B(  4-N ,  5-H ) :   1.0357 B(  4-N ,  6-H ) :   1.0670

Dispersion correction           -0.012969366
FINAL SINGLE POINT ENERGY      -212.685726246071

DIPOLE MOMENT
-------------
                                X             Y             Z
Electronic contribution:     -0.04079       0.66662       3.03007
Nuclear contribution   :     -0.69146      -0.83112      -2.71336
                        -----------------------------------------
Total Dipole Moment    :     -0.73226      -0.16450       0.31671
                        -----------------------------------------
Magnitude (a.u.)       :      0.81460
Magnitude (Debye)      :      2.07054

Rotational constants in cm-1:     0.270661     0.129240     0.102040
Rotational constants in MHz :  8114.202941  3874.518141  3059.074383

                             ****ORCA TERMINATED NORMALLY****
TOTAL RUN TIME: 0 days 0 hours 0 minutes 24 seconds 389 msec
