                         Program Version 5.0.0 -  RELEASE  -
|  1> !TPSS D3BJ RIJCOSX def2-TZVPD def2/J TightSCF
|  2> *xyz 0 1
|  3> C          1.64703       -2.34528       -5.02041
|  4> C          2.20996       -2.81239       -3.66571
|  5> C          2.48901       -1.66851       -2.73754
|  6> N          3.59631       -0.94761       -2.95225
|  7> C          1.66394       -1.41369       -1.77781
|  8> H          0.81164       -1.96318       -1.70275
|  9> H          1.84550       -0.63508       -1.15875
| 10> H          4.20535       -1.17600       -3.73383
| 11> H          3.81723       -0.12585       -2.40604
| 12> H          3.14311       -3.36280       -3.81152
| 13> H          1.48768       -3.45893       -3.16521
| 14> H          1.46566       -3.19589       -5.64368
| 15> H          2.35406       -1.69850       -5.49654
| 16> H          0.73014       -1.81680       -4.86253
| 17> *
| 18>
| 19> %MaxCore 64000
| 20> %pal nprocs 4
| 21> end
| 22>
| 23> %scf
| 24>   MaxIter 150
| 25> end
| 26>
| 27>
| 28>                          ****END OF INPUT****

CARTESIAN COORDINATES (ANGSTROEM)
---------------------------------
  C      1.647030   -2.345280   -5.020410
  C      2.209960   -2.812390   -3.665710
  C      2.489010   -1.668510   -2.737540
  N      3.596310   -0.947610   -2.952250
  C      1.663940   -1.413690   -1.777810
  H      0.811640   -1.963180   -1.702750
  H      1.845500   -0.635080   -1.158750
  H      4.205350   -1.176000   -3.733830
  H      3.817230   -0.125850   -2.406040
  H      3.143110   -3.362800   -3.811520
  H      1.487680   -3.458930   -3.165210
  H      1.465660   -3.195890   -5.643680
  H      2.354060   -1.698500   -5.496540
  H      0.730140   -1.816800   -4.862530

 Total Charge           Charge          ....    0
 Multiplicity           Mult            ....    1
 Number of Electrons    NEL             ....   40
 Basis Dimension        Dim             ....  266

ORBITAL ENERGIES
----------------

  NO   OCC          E(Eh)            E(eV)
   0   2.0000     -14.101629      -383.7248
   1   2.0000      -9.995317      -271.9864
   2   2.0000      -9.983401      -271.6622
   3   2.0000      -9.970436      -271.3093
   4   2.0000      -9.916049      -269.8294
   5   2.0000      -0.858780       -23.3686
   6   2.0000      -0.722522       -19.6608
   7   2.0000      -0.667109       -18.1530
   8   2.0000      -0.584561       -15.9067
   9   2.0000      -0.517575       -14.0839
  10   2.0000      -0.477262       -12.9869
  11   2.0000      -0.436559       -11.8794
  12   2.0000      -0.394531       -10.7357
  13   2.0000      -0.381108       -10.3705
  14   2.0000      -0.357228        -9.7207
  15   2.0000      -0.344088        -9.3631
  16   2.0000      -0.316081        -8.6010
  17   2.0000      -0.296335        -8.0637
  18   2.0000      -0.286773        -7.8035
  19   2.0000      -0.164187        -4.4677
  20   0.0000      -0.008083        -0.2199
  21   0.0000       0.015699         0.4272
  22   0.0000       0.026114         0.7106
  23   0.0000       0.030784         0.8377
  24   0.0000       0.040410         1.0996

MULLIKEN ATOMIC CHARGES
-----------------------
   0 C :   -0.843171
   1 C :   -0.295897
   2 C :    0.822561
   3 N :   -0.498621
   4 C :   -1.107823
   5 H :    0.254012
   6 H :    0.245912
   7 H :    0.160130
   8 H :    0.139759
   9 H :    0.203867
  10 H :    0.162086
  11 H :    0.213677
  12 H :    0.267519
  13 H :    0.275989
Sum of atomic charges:   -0.0000000

LOEWDIN ATOMIC CHARGES
----------------------
   0 C :   -0.084312
   1 C :   -0.193452
   2 C :   -0.498634
   3 N :    0.103583
   4 C :    0.018313
   5 H :    0.028939
   6 H :    0.024183
   7 H :    0.102986
   8 H :    0.105117
   9 H :    0.106064
  10 H :    0.104382
  11 H :    0.058085
  12 H :    0.056973
  13 H :    0.067773

  Mayer bond orders larger than 0.100000
B(  0-C ,  1-C ) :   0.8310 B(  0-C ,  2-C ) :   0.1019 B(  0-C , 11-H ) :   0.9791
B(  0-C , 12-H ) :   0.9247 B(  0-C , 13-H ) :   0.9702 B(  1-C ,  2-C ) :   0.8643
B(  1-C ,  3-N ) :   0.1227 B(  1-C ,  9-H ) :   0.9493 B(  1-C , 10-H ) :   0.9334
B(  2-C ,  3-N ) :   0.7684 B(  2-C ,  4-C ) :   1.3713 B(  3-N ,  4-C ) :   0.1232
B(  3-N ,  7-H ) :   1.0439 B(  3-N ,  8-H ) :   1.0570 B(  4-C ,  5-H ) :   0.9642
B(  4-C ,  6-H ) :   1.0120

Dispersion correction           -0.012955130
FINAL SINGLE POINT ENERGY      -212.689492724068

DIPOLE MOMENT
-------------
                                X             Y             Z
Electronic contribution:      1.64479       1.07904       2.00693
Nuclear contribution   :     -1.13902      -0.93906      -2.44135
                        -----------------------------------------
Total Dipole Moment    :      0.50577       0.13997      -0.43442
                        -----------------------------------------
Magnitude (a.u.)       :      0.68126
Magnitude (Debye)      :      1.73163

Rotational constants in cm-1:     0.267243     0.130607     0.102304
Rotational constants in MHz :  8011.748167  3915.504600  3066.999841

                             ****ORCA TERMINATED NORMALLY****
TOTAL RUN TIME: 0 days 0 hours 0 minutes 23 seconds 280 msec
