                         Program Version 5.0.0 -  RELEASE  -
|  1> !TPSS D3BJ RIJCOSX def2-TZVPD def2/J TightSCF xyzfile
|  2>
|  3> *xyzfile 0 1 D1.xyz
|  4>
|  5> %MaxCore 64000
|  6>
|  7> %pal nprocs 4
|  8> end
|  9>
| 10> %scf
| 11>   MaxIter 150
| 12> end
| 13>
| 14>
| 15>                          ****END OF INPUT****

CARTESIAN COORDINATES (ANGSTROEM)
---------------------------------
  C      1.647032   -2.345276   -5.020411
  C      0.217628   -1.814022   -4.924389
  C      2.209964   -2.812388   -3.665708
  C     -0.811356   -2.908780   -4.607625
  C     -1.916579   -2.485081   -3.643665
  H     -2.554525   -1.712428   -4.091993
  C     -1.363531   -1.981337   -2.293608
  H     -2.553448   -3.355667   -3.458815
  F     -0.350395   -2.749689   -1.796006
  H      2.308385   -1.588704   -5.457128
  H      1.674286   -3.203478   -5.697392
  C      2.489007   -1.668510   -2.737538
  C      3.596314   -0.947608   -2.952247
  N      1.663936   -1.413685   -1.777806
  H      0.811642   -1.963178   -1.702755
  H      1.845503   -0.635078   -1.158749
  H      4.205351   -1.176003   -3.733825
  H      3.817230   -0.125845   -2.406041
  H     -1.244829   -3.280884   -5.541040
  H     -0.306331   -3.757746   -4.142734
  H     -0.036244   -1.318555   -5.865303
  H      0.175004   -1.035382   -4.158095
  H      3.143106   -3.362803   -3.811524
  H      1.487683   -3.458935   -3.165211
  H     -2.226220   -1.908386   -1.602039
  H     -1.051353   -0.915671   -2.443331

 Total Charge           Charge          ....    0
 Multiplicity           Mult            ....    1
 Number of Electrons    NEL             ....   80
 Basis Dimension        Dim             ....  517

ORBITAL ENERGIES
----------------

  NO   OCC          E(Eh)            E(eV)
   0   2.0000     -24.445178      -665.1871
   1   2.0000     -14.072629      -382.9357
   2   2.0000     -10.082284      -274.3529
   3   2.0000     -10.003015      -272.1959
   4   2.0000      -9.987421      -271.7716
   5   2.0000      -9.982134      -271.6277
   6   2.0000      -9.979205      -271.5480
   7   2.0000      -9.975802      -271.4554
   8   2.0000      -9.972279      -271.3595
   9   2.0000      -9.898736      -269.3583
  10   2.0000      -1.180234       -32.1158
  11   2.0000      -0.854773       -23.2595
  12   2.0000      -0.762892       -20.7593
  13   2.0000      -0.723195       -19.6791
  14   2.0000      -0.680627       -18.5208
  15   2.0000      -0.638714       -17.3803
  16   2.0000      -0.614285       -16.7156
  17   2.0000      -0.563741       -15.3402
  18   2.0000      -0.540102       -14.6969
  19   2.0000      -0.525878       -14.3099
  20   2.0000      -0.486784       -13.2461
  21   2.0000      -0.484166       -13.1748
  22   2.0000      -0.462434       -12.5835
  23   2.0000      -0.443476       -12.0676
  24   2.0000      -0.423041       -11.5115
  25   2.0000      -0.414111       -11.2685
  26   2.0000      -0.394917       -10.7462
  27   2.0000      -0.379425       -10.3247
  28   2.0000      -0.376061       -10.2331
  29   2.0000      -0.348045        -9.4708
  30   2.0000      -0.332374        -9.0444
  31   2.0000      -0.326353        -8.8805
  32   2.0000      -0.319517        -8.6945
  33   2.0000      -0.315759        -8.5923
  34   2.0000      -0.302531        -8.2323
  35   2.0000      -0.294747        -8.0205
  36   2.0000      -0.285078        -7.7574
  37   2.0000      -0.272956        -7.4275
  38   2.0000      -0.272923        -7.4266
  39   2.0000      -0.137690        -3.7467
  40   0.0000      -0.009592        -0.2610
  41   0.0000       0.002092         0.0569
  42   0.0000       0.009645         0.2625
  43   0.0000       0.014473         0.3938
  44   0.0000       0.025736         0.7003

MULLIKEN ATOMIC CHARGES
-----------------------
   0 C :   -0.172989
   1 C :   -0.478173
   2 C :   -0.439541
   3 C :   -0.339211
   4 C :   -0.281239
   5 H :    0.118557
   6 C :   -0.195520
   7 H :    0.178422
   8 F :   -0.413462
   9 H :    0.269738
  10 H :    0.071648
  11 C :    0.724163
  12 C :   -1.312217
  13 N :   -0.527014
  14 H :    0.419105
  15 H :    0.048743
  16 H :    0.286170
  17 H :    0.251832
  18 H :    0.116012
  19 H :    0.272392
  20 H :    0.138945
  21 H :    0.313687
  22 H :    0.146007
  23 H :    0.322454
  24 H :    0.153562
  25 H :    0.327929
Sum of atomic charges:    0.0000000

LOEWDIN ATOMIC CHARGES
----------------------
   0 C :   -0.184508
   1 C :   -0.194009
   2 C :   -0.139497
   3 C :   -0.203390
   4 C :   -0.169478
   5 H :    0.117171
   6 C :   -0.213389
   7 H :    0.104703
   8 F :   -0.013070
   9 H :    0.107997
  10 H :    0.105903
  11 C :   -0.487293
  12 C :    0.014324
  13 N :    0.132419
  14 H :    0.017956
  15 H :    0.120872
  16 H :    0.015334
  17 H :    0.007820
  18 H :    0.110443
  19 H :    0.097502
  20 H :    0.107337
  21 H :    0.094542
  22 H :    0.116412
  23 H :    0.093330
  24 H :    0.120049
  25 H :    0.120519

  Mayer bond orders larger than 0.100000
B(  0-C ,  1-C ) :   1.1455 B(  0-C ,  2-C ) :   0.9329 B(  0-C ,  3-C ) :   0.2078
B(  0-C ,  9-H ) :   0.7978 B(  0-C , 10-H ) :   0.9550 B(  0-C , 11-C ) :   0.1732
B(  1-C ,  3-C ) :   0.8059 B(  1-C ,  4-C ) :   0.1744 B(  1-C ,  6-C ) :   0.1451
B(  1-C , 11-C ) :   0.1350 B(  1-C , 20-H ) :   0.9093 B(  1-C , 21-H ) :   0.8870
B(  2-C , 11-C ) :   0.8781 B(  2-C , 22-H ) :   0.9393 B(  2-C , 23-H ) :   0.8823
B(  3-C ,  4-C ) :   1.0626 B(  3-C , 18-H ) :   0.9364 B(  3-C , 19-H ) :   0.9066
B(  4-C ,  5-H ) :   0.9584 B(  4-C ,  6-C ) :   1.0402 B(  4-C ,  7-H ) :   0.8967
B(  4-C ,  8-F ) :   0.1580 B(  6-C ,  8-F ) :   0.6732 B(  6-C , 13-N ) :   0.1008
B(  6-C , 24-H ) :   0.9228 B(  6-C , 25-H ) :   0.9080 B( 11-C , 12-C ) :   1.1380
B( 11-C , 13-N ) :   0.9003 B( 12-C , 13-N ) :   0.1697 B( 12-C , 16-H ) :   0.9964
B( 12-C , 17-H ) :   0.9882 B( 13-N , 14-H ) :   0.6831 B( 13-N , 15-H ) :   1.1348

Dispersion correction           -0.032979577
FINAL SINGLE POINT ENERGY      -469.296197113385

DIPOLE MOMENT
-------------
                                X             Y             Z
Electronic contribution:     -1.26966      -1.75500       6.94497
Nuclear contribution   :     -0.37390       1.73388      -6.94752
                        -----------------------------------------
Total Dipole Moment    :     -1.64357      -0.02111      -0.00255
                        -----------------------------------------
Magnitude (a.u.)       :      1.64371
Magnitude (Debye)      :      4.17797

Rotational constants in cm-1:     0.062220     0.032742     0.024374
Rotational constants in MHz :  1865.297979   981.573941   730.711364

                             ****ORCA TERMINATED NORMALLY****
TOTAL RUN TIME: 0 days 0 hours 1 minutes 22 seconds 429 msec
