                         Program Version 5.0.0 -  RELEASE  -
|  1> !TPSS D3BJ RIJCOSX def2-TZVPD def2/J TightSCF xyzfile
|  2>
|  3> *xyzfile 0 1 D2.xyz
|  4>
|  5> %MaxCore 64000
|  6>
|  7> %pal nprocs 4
|  8> end
|  9>
| 10> %scf
| 11>   MaxIter 150
| 12> end
| 13>
| 14>
| 15>                          ****END OF INPUT****

CARTESIAN COORDINATES (ANGSTROEM)
---------------------------------
  C      1.647032   -2.345276   -5.020411
  C      0.217628   -1.814022   -4.924389
  C      2.209964   -2.812388   -3.665708
  C     -0.811356   -2.908780   -4.607625
  C     -1.916579   -2.485081   -3.643665
  H     -2.554525   -1.712428   -4.091993
  C     -1.363531   -1.981337   -2.293608
  H     -2.553448   -3.355667   -3.458815
  F     -0.350395   -2.749689   -1.796006
  H      2.308385   -1.588704   -5.457128
  H      1.674286   -3.203478   -5.697392
  C      2.489007   -1.668510   -2.737538
  N      3.596314   -0.947608   -2.952247
  C      1.663936   -1.413685   -1.777806
  H      0.811642   -1.963178   -1.702755
  H      1.845503   -0.635078   -1.158749
  H      4.205351   -1.176003   -3.733825
  H      3.817230   -0.125845   -2.406041
  H     -1.244829   -3.280884   -5.541040
  H     -0.306331   -3.757746   -4.142734
  H     -0.036244   -1.318555   -5.865303
  H      0.175004   -1.035382   -4.158095
  H      3.143106   -3.362803   -3.811524
  H      1.487683   -3.458935   -3.165211
  H     -2.226220   -1.908386   -1.602039
  H     -1.051353   -0.915671   -2.443331

 Total Charge           Charge          ....    0
 Multiplicity           Mult            ....    1
 Number of Electrons    NEL             ....   80
 Basis Dimension        Dim             ....  517

ORBITAL ENERGIES
----------------

  NO   OCC          E(Eh)            E(eV)
   0   2.0000     -24.411862      -664.2805
   1   2.0000     -14.088807      -383.3759
   2   2.0000     -10.063119      -273.8314
   3   2.0000      -9.990812      -271.8638
   4   2.0000      -9.979641      -271.5598
   5   2.0000      -9.979636      -271.5597
   6   2.0000      -9.976723      -271.4804
   7   2.0000      -9.973038      -271.3802
   8   2.0000      -9.972054      -271.3534
   9   2.0000      -9.884551      -268.9723
  10   2.0000      -1.149044       -31.2671
  11   2.0000      -0.845907       -23.0183
  12   2.0000      -0.753609       -20.5067
  13   2.0000      -0.720236       -19.5986
  14   2.0000      -0.672553       -18.3011
  15   2.0000      -0.646619       -17.5954
  16   2.0000      -0.605350       -16.4724
  17   2.0000      -0.554885       -15.0992
  18   2.0000      -0.522980       -14.2310
  19   2.0000      -0.517087       -14.0707
  20   2.0000      -0.479636       -13.0516
  21   2.0000      -0.463767       -12.6197
  22   2.0000      -0.451798       -12.2941
  23   2.0000      -0.440557       -11.9882
  24   2.0000      -0.418725       -11.3941
  25   2.0000      -0.401048       -10.9131
  26   2.0000      -0.397746       -10.8232
  27   2.0000      -0.390113       -10.6155
  28   2.0000      -0.358899        -9.7661
  29   2.0000      -0.343406        -9.3445
  30   2.0000      -0.330144        -8.9837
  31   2.0000      -0.320585        -8.7236
  32   2.0000      -0.311845        -8.4857
  33   2.0000      -0.299207        -8.1418
  34   2.0000      -0.287354        -7.8193
  35   2.0000      -0.285685        -7.7739
  36   2.0000      -0.276223        -7.5164
  37   2.0000      -0.269435        -7.3317
  38   2.0000      -0.255770        -6.9598
  39   2.0000      -0.149540        -4.0692
  40   0.0000      -0.003419        -0.0930
  41   0.0000       0.003258         0.0887
  42   0.0000       0.009366         0.2549
  43   0.0000       0.020034         0.5452
  44   0.0000       0.031417         0.8549

MULLIKEN ATOMIC CHARGES
-----------------------
   0 C :   -0.069542
   1 C :   -0.425400
   2 C :   -0.517800
   3 C :   -0.371189
   4 C :   -0.269206
   5 H :    0.120483
   6 C :   -0.228184
   7 H :    0.176850
   8 F :   -0.330805
   9 H :    0.204824
  10 H :    0.058445
  11 C :    0.902197
  12 N :   -0.548411
  13 C :   -1.865998
  14 H :    0.940158
  15 H :    0.155689
  16 H :    0.157181
  17 H :    0.116070
  18 H :    0.124612
  19 H :    0.273310
  20 H :    0.132638
  21 H :    0.330316
  22 H :    0.180666
  23 H :    0.261352
  24 H :    0.143504
  25 H :    0.348237
Sum of atomic charges:   -0.0000000

LOEWDIN ATOMIC CHARGES
----------------------
   0 C :   -0.188244
   1 C :   -0.194838
   2 C :   -0.138413
   3 C :   -0.202569
   4 C :   -0.170874
   5 H :    0.114880
   6 C :   -0.217969
   7 H :    0.103273
   8 F :   -0.033156
   9 H :    0.102305
  10 H :    0.105178
  11 C :   -0.469224
  12 N :    0.101964
  13 C :    0.034842
  14 H :   -0.038897
  15 H :    0.034434
  16 H :    0.099320
  17 H :    0.102718
  18 H :    0.108577
  19 H :    0.098142
  20 H :    0.105978
  21 H :    0.094084
  22 H :    0.111579
  23 H :    0.098976
  24 H :    0.118033
  25 H :    0.119901

  Mayer bond orders larger than 0.100000
B(  0-C ,  1-C ) :   1.1718 B(  0-C ,  2-C ) :   0.9710 B(  0-C ,  3-C ) :   0.2164
B(  0-C ,  9-H ) :   0.7687 B(  0-C , 10-H ) :   0.9559 B(  1-C ,  3-C ) :   0.8009
B(  1-C ,  4-C ) :   0.1719 B(  1-C ,  6-C ) :   0.1530 B(  1-C , 11-C ) :   0.1105
B(  1-C , 20-H ) :   0.9219 B(  1-C , 21-H ) :   0.8929 B(  2-C , 11-C ) :   0.9356
B(  2-C , 12-N ) :   0.1596 B(  2-C , 22-H ) :   0.9701 B(  2-C , 23-H ) :   0.8984
B(  3-C ,  4-C ) :   1.0745 B(  3-C , 18-H ) :   0.9304 B(  3-C , 19-H ) :   0.9042
B(  4-C ,  5-H ) :   0.9524 B(  4-C ,  6-C ) :   1.0481 B(  4-C ,  7-H ) :   0.8925
B(  4-C ,  8-F ) :   0.1451 B(  6-C ,  8-F ) :   0.7182 B(  6-C , 13-C ) :   0.2647
B(  6-C , 24-H ) :   0.9052 B(  6-C , 25-H ) :   0.8830 B(  8-F , 13-C ) :   0.1676
B(  8-F , 14-H ) :  -0.3408 B( 11-C , 12-N ) :   0.6415 B( 11-C , 13-C ) :   1.0339
B( 11-C , 15-H ) :  -0.1084 B( 12-N , 13-C ) :   0.1172 B( 12-N , 16-H ) :   1.0737
B( 12-N , 17-H ) :   1.0879 B( 13-C , 14-H ) :   0.2484 B( 13-C , 15-H ) :   1.1463

Dispersion correction           -0.033160266
FINAL SINGLE POINT ENERGY      -469.279649365331

DIPOLE MOMENT
-------------
                                X             Y             Z
Electronic contribution:      0.45288      -1.33031       6.09947
Nuclear contribution   :     -0.73748       1.64619      -6.72655
                        -----------------------------------------
Total Dipole Moment    :     -0.28460       0.31588      -0.62708
                        -----------------------------------------
Magnitude (a.u.)       :      0.75764
Magnitude (Debye)      :      1.92576

Rotational constants in cm-1:     0.063169     0.031711     0.023958
Rotational constants in MHz :  1893.751676   950.657187   718.229932

                             ****ORCA TERMINATED NORMALLY****
TOTAL RUN TIME: 0 days 0 hours 1 minutes 24 seconds 920 msec
