                         Program Version 5.0.0 -  RELEASE  -
|  1> !LC-PBE RIJCOSX def2-TZVP def2/J TightSCF
|  2> *xyz -1 1
|  3> C         -0.72184       -0.99951       -3.43931
|  4> C          0.28725       -1.71177       -2.52740
|  5> H          1.13178       -2.06738       -3.15940
|  6> H         -0.20414       -2.63733       -2.17048
|  7> O          0.71050       -0.92751       -1.48177
|  8> H         -1.01315       -1.65739       -4.23129
|  9> H         -0.27123       -0.12142       -3.85259
| 10> H         -1.58442       -0.72333       -2.86958
| 11> *
| 12> %MaxCore 64000
| 13>
| 14> %pal nprocs 4
| 15> end
| 16>
| 17> %scf
| 18>   MaxIter 150
| 19> end
| 20>
| 21>
| 22>                          ****END OF INPUT****

CARTESIAN COORDINATES (ANGSTROEM)
---------------------------------
  C     -0.721840   -0.999510   -3.439310
  C      0.287250   -1.711770   -2.527400
  H      1.131780   -2.067380   -3.159400
  H     -0.204140   -2.637330   -2.170480
  O      0.710500   -0.927510   -1.481770
  H     -1.013150   -1.657390   -4.231290
  H     -0.271230   -0.121420   -3.852590
  H     -1.584420   -0.723330   -2.869580

 Total Charge           Charge          ....   -1
 Multiplicity           Mult            ....    1
 Number of Electrons    NEL             ....   26
 Basis Dimension        Dim             ....  123

ORBITAL ENERGIES
----------------

  NO   OCC          E(Eh)            E(eV)
   0   2.0000     -18.610293      -506.4118
   1   2.0000      -9.917536      -269.8699
   2   2.0000      -9.897343      -269.3204
   3   2.0000      -0.827369       -22.5139
   4   2.0000      -0.688553       -18.7365
   5   2.0000      -0.521116       -14.1803
   6   2.0000      -0.388736       -10.5781
   7   2.0000      -0.361924        -9.8484
   8   2.0000      -0.301840        -8.2135
   9   2.0000      -0.280588        -7.6352
  10   2.0000      -0.228280        -6.2118
  11   2.0000      -0.079372        -2.1598
  12   2.0000      -0.076317        -2.0767
  13   0.0000       0.297785         8.1031
  14   0.0000       0.336481         9.1561
  15   0.0000       0.362430         9.8622
  16   0.0000       0.363467         9.8904
  17   0.0000       0.398412        10.8413

MULLIKEN ATOMIC CHARGES
-----------------------
   0 C :   -0.304025
   1 C :   -0.018603
   2 H :   -0.034443
   3 H :   -0.032893
   4 O :   -0.786815
   5 H :    0.028086
   6 H :    0.073544
   7 H :    0.075150
Sum of atomic charges:   -1.0000000

LOEWDIN ATOMIC CHARGES
----------------------
   0 C :   -0.384025
   1 C :   -0.574559
   2 H :    0.064642
   3 H :    0.065723
   4 O :   -0.455607
   5 H :    0.086416
   6 H :    0.098431
   7 H :    0.098980

  Mayer bond orders larger than 0.100000
B(  0-C ,  1-C ) :   0.9049 B(  0-C ,  4-O ) :  -0.1451 B(  0-C ,  5-H ) :   0.9547
B(  0-C ,  6-H ) :   0.9763 B(  0-C ,  7-H ) :   0.9771 B(  1-C ,  2-H ) :   0.9481
B(  1-C ,  3-H ) :   0.9478 B(  1-C ,  4-O ) :   1.5731

FINAL SINGLE POINT ENERGY      -154.002481069751

DIPOLE MOMENT
-------------
                                X             Y             Z
Electronic contribution:      1.41948       0.72660       2.31712
Nuclear contribution   :     -2.24828      -1.06600      -3.62481
                        -----------------------------------------
Total Dipole Moment    :     -0.82879      -0.33939      -1.30769
                        -----------------------------------------
Magnitude (a.u.)       :      1.58497
Magnitude (Debye)      :      4.02869

Rotational constants in cm-1:     1.278116     0.325414     0.286672
Rotational constants in MHz : 38316.964654  9755.653004  8594.216906

                             ****ORCA TERMINATED NORMALLY****
TOTAL RUN TIME: 0 days 0 hours 0 minutes 10 seconds 730 msec
