                         Program Version 5.0.0 -  RELEASE  -
|  1> !LC-PBE RIJCOSX def2-TZVP def2/J TightSCF
|  2> *xyz 1 1
|  3> C          3.48828        1.60092       -1.52204
|  4> C          4.34297        1.31342       -2.75683
|  5> N          2.81029        0.42878       -1.01420
|  6> H          2.71455        2.33145       -1.76030
|  7> H          4.09099        2.06315       -0.73338
|  8> C          3.29098       -0.41802       -0.12908
|  9> N          2.51754       -1.43202        0.23936
| 10> N          4.53549       -0.28441        0.39580
| 11> H          5.04363        0.57189        0.22290
| 12> H          4.72335       -0.73327        1.28180
| 13> H          1.93479        0.10230       -1.40379
| 14> H          1.67464       -1.50562       -0.31610
| 15> H          2.92850       -2.21850        0.72549
| 16> H          3.73575        0.86277       -3.51385
| 17> H          5.13754        0.64699       -2.49333
| 18> H          4.75374        2.22930       -3.12740
| 19> *
| 20> %MaxCore 64000
| 21>
| 22> %pal nprocs 4
| 23> end
| 24>
| 25> %scf
| 26>   MaxIter 150
| 27> end
| 28>
| 29>
| 30>                          ****END OF INPUT****

CARTESIAN COORDINATES (ANGSTROEM)
---------------------------------
  C      3.488280    1.600920   -1.522040
  C      4.342970    1.313420   -2.756830
  N      2.810290    0.428780   -1.014200
  H      2.714550    2.331450   -1.760300
  H      4.090990    2.063150   -0.733380
  C      3.290980   -0.418020   -0.129080
  N      2.517540   -1.432020    0.239360
  N      4.535490   -0.284410    0.395800
  H      5.043630    0.571890    0.222900
  H      4.723350   -0.733270    1.281800
  H      1.934790    0.102300   -1.403790
  H      1.674640   -1.505620   -0.316100
  H      2.928500   -2.218500    0.725490
  H      3.735750    0.862770   -3.513850
  H      5.137540    0.646990   -2.493330
  H      4.753740    2.229300   -3.127400

 Total Charge           Charge          ....    1
 Multiplicity           Mult            ....    1
 Number of Electrons    NEL             ....   48
 Basis Dimension        Dim             ....  246

ORBITAL ENERGIES
----------------

  NO   OCC          E(Eh)            E(eV)
   0   2.0000     -14.446263      -393.1028
   1   2.0000     -14.438946      -392.9037
   2   2.0000     -14.436453      -392.8359
   3   2.0000     -10.459431      -284.6156
   4   2.0000     -10.326027      -280.9855
   5   2.0000     -10.248149      -278.8663
   6   2.0000      -1.402055       -38.1519
   7   2.0000      -1.280992       -34.8576
   8   2.0000      -1.265141       -34.4262
   9   2.0000      -1.108199       -30.1556
  10   2.0000      -0.999576       -27.1998
  11   2.0000      -0.967663       -26.3315
  12   2.0000      -0.934238       -25.4219
  13   2.0000      -0.898768       -24.4567
  14   2.0000      -0.834565       -22.7097
  15   2.0000      -0.823455       -22.4074
  16   2.0000      -0.801237       -21.8028
  17   2.0000      -0.790262       -21.5041
  18   2.0000      -0.744949       -20.2711
  19   2.0000      -0.701790       -19.0967
  20   2.0000      -0.666656       -18.1406
  21   2.0000      -0.643467       -17.5096
  22   2.0000      -0.613674       -16.6989
  23   2.0000      -0.580525       -15.7969
  24   0.0000      -0.075530        -2.0553
  25   0.0000      -0.065932        -1.7941
  26   0.0000      -0.036653        -0.9974
  27   0.0000      -0.021807        -0.5934
  28   0.0000       0.006877         0.1871

MULLIKEN ATOMIC CHARGES
-----------------------
   0 C :   -0.308130
   1 C :   -0.391326
   2 N :   -0.197976
   3 H :    0.204389
   4 H :    0.172389
   5 C :    0.363645
   6 N :   -0.394242
   7 N :   -0.432782
   8 H :    0.300383
   9 H :    0.302846
  10 H :    0.265382
  11 H :    0.284235
  12 H :    0.312236
  13 H :    0.169470
  14 H :    0.156061
  15 H :    0.193421
Sum of atomic charges:    1.0000000

LOEWDIN ATOMIC CHARGES
----------------------
   0 C :   -0.305243
   1 C :   -0.303466
   2 N :    0.176281
   3 H :    0.160073
   4 H :    0.148030
   5 C :   -0.403720
   6 N :    0.057153
   7 N :    0.040301
   8 H :    0.196423
   9 H :    0.201653
  10 H :    0.216568
  11 H :    0.203480
  12 H :    0.206444
  13 H :    0.133933
  14 H :    0.129010
  15 H :    0.143081

  Mayer bond orders larger than 0.100000
B(  0-C ,  1-C ) :   0.9576 B(  0-C ,  2-N ) :   0.8749 B(  0-C ,  3-H ) :   0.9551
B(  0-C ,  4-H ) :   0.9750 B(  1-C , 13-H ) :   0.9626 B(  1-C , 14-H ) :   0.9539
B(  1-C , 15-H ) :   0.9667 B(  2-N ,  5-C ) :   1.4154 B(  2-N , 10-H ) :   0.8997
B(  5-C ,  6-N ) :   1.3413 B(  5-C ,  7-N ) :   1.3146 B(  6-N , 11-H ) :   0.8963
B(  6-N , 12-H ) :   0.8856 B(  7-N ,  8-H ) :   0.8902 B(  7-N ,  9-H ) :   0.8907

FINAL SINGLE POINT ENERGY      -283.597448709945

DIPOLE MOMENT
-------------
                                X             Y             Z
Electronic contribution:     -1.94838      -3.01886       3.75528
Nuclear contribution   :      1.59382       2.33278      -3.02574
                        -----------------------------------------
Total Dipole Moment    :     -0.35456      -0.68609       0.72954
                        -----------------------------------------
Magnitude (a.u.)       :      1.06239
Magnitude (Debye)      :      2.70037

Rotational constants in cm-1:     0.232230     0.073139     0.063030
Rotational constants in MHz :  6962.079716  2192.649203  1889.578947

                             ****ORCA TERMINATED NORMALLY****
TOTAL RUN TIME: 0 days 0 hours 0 minutes 44 seconds 741 msec
