                         Program Version 5.0.0 -  RELEASE  -
|  1> !LC-PBE RIJCOSX def2-TZVP def2/J TightSCF
|  2> *xyz 0 1
|  3> C         -0.72184       -0.99951       -3.43931
|  4> C          0.28725       -1.71177       -2.52740
|  5> H          1.13178       -2.06738       -3.15940
|  6> H         -0.20414       -2.63733       -2.17048
|  7> F          0.71050       -0.92751       -1.48177
|  8> H         -1.01315       -1.65739       -4.23129
|  9> H         -0.27123       -0.12142       -3.85259
| 10> H         -1.58442       -0.72333       -2.86958
| 11> *
| 12> %MaxCore 64000
| 13>
| 14> %pal nprocs 4
| 15> end
| 16>
| 17> %scf
| 18>   MaxIter 150
| 19> end
| 20>
| 21>
| 22>                          ****END OF INPUT****

CARTESIAN COORDINATES (ANGSTROEM)
---------------------------------
  C     -0.721840   -0.999510   -3.439310
  C      0.287250   -1.711770   -2.527400
  H      1.131780   -2.067380   -3.159400
  H     -0.204140   -2.637330   -2.170480
  F      0.710500   -0.927510   -1.481770
  H     -1.013150   -1.657390   -4.231290
  H     -0.271230   -0.121420   -3.852590
  H     -1.584420   -0.723330   -2.869580

 Total Charge           Charge          ....    0
 Multiplicity           Mult            ....    1
 Number of Electrons    NEL             ....   26
 Basis Dimension        Dim             ....  123

ORBITAL ENERGIES
----------------

  NO   OCC          E(Eh)            E(eV)
   0   2.0000     -24.471979      -665.9164
   1   2.0000     -10.194555      -277.4079
   2   2.0000     -10.108461      -275.0652
   3   2.0000      -1.350642       -36.7528
   4   2.0000      -0.941290       -25.6138
   5   2.0000      -0.793806       -21.6006
   6   2.0000      -0.655001       -17.8235
   7   2.0000      -0.646950       -17.6044
   8   2.0000      -0.604337       -16.4448
   9   2.0000      -0.545315       -14.8388
  10   2.0000      -0.536766       -14.6062
  11   2.0000      -0.470189       -12.7945
  12   2.0000      -0.460932       -12.5426
  13   0.0000       0.125865         3.4250
  14   0.0000       0.165354         4.4995
  15   0.0000       0.185264         5.0413
  16   0.0000       0.191419         5.2088
  17   0.0000       0.200720         5.4619

MULLIKEN ATOMIC CHARGES
-----------------------
   0 C :   -0.425596
   1 C :   -0.037916
   2 H :    0.118540
   3 H :    0.117555
   4 F :   -0.214067
   5 H :    0.142540
   6 H :    0.149239
   7 H :    0.149703
Sum of atomic charges:    0.0000000

LOEWDIN ATOMIC CHARGES
----------------------
   0 C :   -0.331760
   1 C :   -0.390988
   2 H :    0.125325
   3 H :    0.124676
   4 F :    0.095121
   5 H :    0.128642
   6 H :    0.124367
   7 H :    0.124617

  Mayer bond orders larger than 0.100000
B(  0-C ,  1-C ) :   0.9841 B(  0-C ,  5-H ) :   0.9575 B(  0-C ,  6-H ) :   0.9677
B(  0-C ,  7-H ) :   0.9674 B(  1-C ,  2-H ) :   0.9729 B(  1-C ,  3-H ) :   0.9734
B(  1-C ,  4-F ) :   1.0163

FINAL SINGLE POINT ENERGY      -178.631795784956

DIPOLE MOMENT
-------------
                                X             Y             Z
Electronic contribution:      2.69133       1.02504       4.19540
Nuclear contribution   :     -2.97459      -1.40206      -4.79987
                        -----------------------------------------
Total Dipole Moment    :     -0.28326      -0.37702      -0.60447
                        -----------------------------------------
Magnitude (a.u.)       :      0.76666
Magnitude (Debye)      :      1.94869

Rotational constants in cm-1:     1.257024     0.302702     0.267953
Rotational constants in MHz : 37684.643733  9074.792567  8033.038070

                             ****ORCA TERMINATED NORMALLY****
TOTAL RUN TIME: 0 days 0 hours 0 minutes 11 seconds 999 msec
