                         Program Version 5.0.0 -  RELEASE  -
|  1> !LC-PBE RIJCOSX def2-TZVP def2/J TightSCF
|  2> *xyz 0 1
|  3> C          3.48828        1.60092       -1.52204
|  4> C          4.34297        1.31342       -2.75683
|  5> C          2.81029        0.42878       -1.01420
|  6> H          2.71455        2.33145       -1.76030
|  7> H          4.09099        2.06315       -0.73338
|  8> C          3.29098       -0.41802       -0.12908
|  9> N          2.51754       -1.43202        0.23936
| 10> N          4.53549       -0.28441        0.39580
| 11> H          5.04363        0.57189        0.22290
| 12> H          4.72335       -0.73327        1.28180
| 13> H          1.93479        0.10230       -1.40379
| 14> H          1.67464       -1.50562       -0.31610
| 15> H          2.92850       -2.21850        0.72549
| 16> H          3.73575        0.86277       -3.51385
| 17> H          5.13754        0.64699       -2.49333
| 18> H          4.75374        2.22930       -3.12740
| 19> *
| 20> %MaxCore 64000
| 21>
| 22> %pal nprocs 4
| 23> end
| 24>
| 25> %scf
| 26>   MaxIter 150
| 27> end
| 28>
| 29>
| 30>                          ****END OF INPUT****

CARTESIAN COORDINATES (ANGSTROEM)
---------------------------------
  C      3.488280    1.600920   -1.522040
  C      4.342970    1.313420   -2.756830
  C      2.810290    0.428780   -1.014200
  H      2.714550    2.331450   -1.760300
  H      4.090990    2.063150   -0.733380
  C      3.290980   -0.418020   -0.129080
  N      2.517540   -1.432020    0.239360
  N      4.535490   -0.284410    0.395800
  H      5.043630    0.571890    0.222900
  H      4.723350   -0.733270    1.281800
  H      1.934790    0.102300   -1.403790
  H      1.674640   -1.505620   -0.316100
  H      2.928500   -2.218500    0.725490
  H      3.735750    0.862770   -3.513850
  H      5.137540    0.646990   -2.493330
  H      4.753740    2.229300   -3.127400

 Total Charge           Charge          ....    0
 Multiplicity           Mult            ....    1
 Number of Electrons    NEL             ....   48
 Basis Dimension        Dim             ....  246

ORBITAL ENERGIES
----------------

  NO   OCC          E(Eh)            E(eV)
   0   2.0000     -14.212025      -386.7289
   1   2.0000     -14.207077      -386.5942
   2   2.0000     -10.158377      -276.4235
   3   2.0000     -10.090549      -274.5778
   4   2.0000     -10.076606      -274.1984
   5   2.0000     -10.035649      -273.0839
   6   2.0000      -1.135723       -30.9046
   7   2.0000      -1.038350       -28.2550
   8   2.0000      -0.953145       -25.9364
   9   2.0000      -0.863751       -23.5039
  10   2.0000      -0.774605       -21.0781
  11   2.0000      -0.732592       -19.9348
  12   2.0000      -0.685470       -18.6526
  13   2.0000      -0.657071       -17.8798
  14   2.0000      -0.602549       -16.3962
  15   2.0000      -0.580493       -15.7960
  16   2.0000      -0.561144       -15.2695
  17   2.0000      -0.543809       -14.7978
  18   2.0000      -0.517283       -14.0760
  19   2.0000      -0.488075       -13.2812
  20   2.0000      -0.461365       -12.5544
  21   2.0000      -0.446612       -12.1529
  22   2.0000      -0.399906       -10.8820
  23   2.0000      -0.278331        -7.5738
  24   0.0000       0.108110         2.9418
  25   0.0000       0.136467         3.7134
  26   0.0000       0.144919         3.9434
  27   0.0000       0.163591         4.4515
  28   0.0000       0.174951         4.7607

MULLIKEN ATOMIC CHARGES
-----------------------
   0 C :   -0.340679
   1 C :   -0.380589
   2 C :   -0.370466
   3 H :    0.135926
   4 H :    0.108950
   5 C :    0.321840
   6 N :   -0.483864
   7 N :   -0.508533
   8 H :    0.258549
   9 H :    0.240127
  10 H :    0.114452
  11 H :    0.254456
  12 H :    0.243532
  13 H :    0.138393
  14 H :    0.134234
  15 H :    0.133674
Sum of atomic charges:   -0.0000000

LOEWDIN ATOMIC CHARGES
----------------------
   0 C :   -0.324096
   1 C :   -0.322581
   2 C :   -0.290934
   3 H :    0.147463
   4 H :    0.136189
   5 C :   -0.461235
   6 N :   -0.028867
   7 N :   -0.039145
   8 H :    0.175258
   9 H :    0.166204
  10 H :    0.127064
  11 H :    0.186685
  12 H :    0.168665
  13 H :    0.122558
  14 H :    0.120680
  15 H :    0.116091

  Mayer bond orders larger than 0.100000
B(  0-C ,  1-C ) :   0.9350 B(  0-C ,  2-C ) :   0.9929 B(  0-C ,  3-H ) :   0.9931
B(  0-C ,  4-H ) :   0.9993 B(  1-C , 13-H ) :   0.9788 B(  1-C , 14-H ) :   0.9705
B(  1-C , 15-H ) :   0.9855 B(  2-C ,  5-C ) :   1.6578 B(  2-C , 10-H ) :   0.9887
B(  5-C ,  6-N ) :   1.1573 B(  5-C ,  7-N ) :   1.1336 B(  6-N , 11-H ) :   0.9189
B(  6-N , 12-H ) :   0.9227 B(  7-N ,  8-H ) :   0.9211 B(  7-N ,  9-H ) :   0.9242

FINAL SINGLE POINT ENERGY      -267.135461969834

DIPOLE MOMENT
-------------
                                X             Y             Z
Electronic contribution:     -1.25055      -2.94536       3.68244
Nuclear contribution   :      1.44676       2.38443      -3.07370
                        -----------------------------------------
Total Dipole Moment    :      0.19621      -0.56094       0.60874
                        -----------------------------------------
Magnitude (a.u.)       :      0.85072
Magnitude (Debye)      :      2.16235

Rotational constants in cm-1:     0.235977     0.073199     0.063283
Rotational constants in MHz :  7074.404583  2194.453291  1897.179599

                             ****ORCA TERMINATED NORMALLY****
TOTAL RUN TIME: 0 days 0 hours 0 minutes 45 seconds 33 msec
