                         Program Version 5.0.0 -  RELEASE  -
|  1> !LC-PBE RIJCOSX def2-TZVP def2/J TightSCF
|  2> *xyz 0 1
|  3> C          3.48828        1.60092       -1.52204
|  4> C          4.34297        1.31342       -2.75683
|  5> N          2.81029        0.42878       -1.01420
|  6> H          2.71455        2.33145       -1.76030
|  7> H          4.09099        2.06315       -0.73338
|  8> C          3.29098       -0.41802       -0.12908
|  9> C          2.51754       -1.43202        0.23936
| 10> N          4.53549       -0.28441        0.39580
| 11> H          5.04363        0.57189        0.22290
| 12> H          4.72335       -0.73327        1.28180
| 13> H          1.93479        0.10230       -1.40379
| 14> H          1.67464       -1.50562       -0.31610
| 15> H          2.92850       -2.21850        0.72549
| 16> H          3.73575        0.86277       -3.51385
| 17> H          5.13754        0.64699       -2.49333
| 18> H          4.75374        2.22930       -3.12740
| 19> *
| 20> %MaxCore 64000
| 21>
| 22> %pal nprocs 4
| 23> end
| 24>
| 25> %scf
| 26>   MaxIter 150
| 27> end
| 28>
| 29>
| 30>                          ****END OF INPUT****

CARTESIAN COORDINATES (ANGSTROEM)
---------------------------------
  C      3.488280    1.600920   -1.522040
  C      4.342970    1.313420   -2.756830
  N      2.810290    0.428780   -1.014200
  H      2.714550    2.331450   -1.760300
  H      4.090990    2.063150   -0.733380
  C      3.290980   -0.418020   -0.129080
  C      2.517540   -1.432020    0.239360
  N      4.535490   -0.284410    0.395800
  H      5.043630    0.571890    0.222900
  H      4.723350   -0.733270    1.281800
  H      1.934790    0.102300   -1.403790
  H      1.674640   -1.505620   -0.316100
  H      2.928500   -2.218500    0.725490
  H      3.735750    0.862770   -3.513850
  H      5.137540    0.646990   -2.493330
  H      4.753740    2.229300   -3.127400

 Total Charge           Charge          ....    0
 Multiplicity           Mult            ....    1
 Number of Electrons    NEL             ....   48
 Basis Dimension        Dim             ....  246

ORBITAL ENERGIES
----------------

  NO   OCC          E(Eh)            E(eV)
   0   2.0000     -14.215764      -386.8306
   1   2.0000     -14.212712      -386.7475
   2   2.0000     -10.164487      -276.5897
   3   2.0000     -10.158622      -276.4301
   4   2.0000     -10.103387      -274.9271
   5   2.0000     -10.019628      -272.6479
   6   2.0000      -1.148722       -31.2583
   7   2.0000      -1.054586       -28.6967
   8   2.0000      -0.952011       -25.9055
   9   2.0000      -0.871669       -23.7193
  10   2.0000      -0.792044       -21.5526
  11   2.0000      -0.752709       -20.4822
  12   2.0000      -0.685588       -18.6558
  13   2.0000      -0.647598       -17.6220
  14   2.0000      -0.619053       -16.8453
  15   2.0000      -0.581619       -15.8267
  16   2.0000      -0.576684       -15.6924
  17   2.0000      -0.543609       -14.7923
  18   2.0000      -0.512284       -13.9400
  19   2.0000      -0.505356       -13.7514
  20   2.0000      -0.501517       -13.6470
  21   2.0000      -0.487198       -13.2573
  22   2.0000      -0.389865       -10.6088
  23   2.0000      -0.279645        -7.6095
  24   0.0000       0.106069         2.8863
  25   0.0000       0.132759         3.6126
  26   0.0000       0.142899         3.8885
  27   0.0000       0.162351         4.4178
  28   0.0000       0.172055         4.6819

MULLIKEN ATOMIC CHARGES
-----------------------
   0 C :   -0.280164
   1 C :   -0.369338
   2 N :   -0.268590
   3 H :    0.154177
   4 H :    0.138280
   5 C :    0.340718
   6 C :   -0.599809
   7 N :   -0.507537
   8 H :    0.240670
   9 H :    0.267455
  10 H :    0.240313
  11 H :    0.084561
  12 H :    0.131026
  13 H :    0.141180
  14 H :    0.145325
  15 H :    0.141736
Sum of atomic charges:   -0.0000000

LOEWDIN ATOMIC CHARGES
----------------------
   0 C :   -0.335487
   1 C :   -0.326048
   2 N :    0.121849
   3 H :    0.140124
   4 H :    0.134983
   5 C :   -0.463479
   6 C :   -0.363229
   7 N :   -0.034017
   8 H :    0.162788
   9 H :    0.181732
  10 H :    0.203740
  11 H :    0.102797
  12 H :    0.102954
  13 H :    0.123834
  14 H :    0.124386
  15 H :    0.123074

  Mayer bond orders larger than 0.100000
B(  0-C ,  1-C ) :   0.9382 B(  0-C ,  2-N ) :   0.9396 B(  0-C ,  3-H ) :   0.9788
B(  0-C ,  4-H ) :   0.9890 B(  1-C , 13-H ) :   0.9719 B(  1-C , 14-H ) :   0.9641
B(  1-C , 15-H ) :   0.9751 B(  2-N ,  5-C ) :   1.1949 B(  2-N , 10-H ) :   0.9225
B(  5-C ,  6-C ) :   1.6345 B(  5-C ,  7-N ) :   1.1225 B(  6-C , 11-H ) :   1.0161
B(  6-C , 12-H ) :   1.0055 B(  7-N ,  8-H ) :   0.9259 B(  7-N ,  9-H ) :   0.9188

FINAL SINGLE POINT ENERGY      -267.121351901053

DIPOLE MOMENT
-------------
                                X             Y             Z
Electronic contribution:     -0.84824      -1.01304       2.41461
Nuclear contribution   :      1.38466       1.98967      -2.80776
                        -----------------------------------------
Total Dipole Moment    :      0.53642       0.97663      -0.39315
                        -----------------------------------------
Magnitude (a.u.)       :      1.18157
Magnitude (Debye)      :      3.00332

Rotational constants in cm-1:     0.235618     0.075969     0.065309
Rotational constants in MHz :  7063.646698  2277.495424  1957.925383

                             ****ORCA TERMINATED NORMALLY****
TOTAL RUN TIME: 0 days 0 hours 0 minutes 46 seconds 80 msec
