                         Program Version 5.0.0 -  RELEASE  -
|  1> !LC-PBE RIJCOSX def2-TZVP def2/J TightSCF
|  2> *xyz 0 1
|  3> C          3.48828        1.60092       -1.52204
|  4> C          4.34297        1.31342       -2.75683
|  5> N          2.81029        0.42878       -1.01420
|  6> H          2.71455        2.33145       -1.76030
|  7> H          4.09099        2.06315       -0.73338
|  8> C          3.29098       -0.41802       -0.12908
|  9> N          2.51754       -1.43202        0.23936
| 10> C          4.53549       -0.28441        0.39580
| 11> H          5.04363        0.57189        0.22290
| 12> H          4.72335       -0.73327        1.28180
| 13> H          1.93479        0.10230       -1.40379
| 14> H          1.67464       -1.50562       -0.31610
| 15> H          2.92850       -2.21850        0.72549
| 16> H          3.73575        0.86277       -3.51385
| 17> H          5.13754        0.64699       -2.49333
| 18> H          4.75374        2.22930       -3.12740
| 19> *
| 20> %MaxCore 64000
| 21>
| 22> %pal nprocs 4
| 23> end
| 24>
| 25> %scf
| 26>   MaxIter 150
| 27> end
| 28>
| 29>
| 30>                          ****END OF INPUT****

CARTESIAN COORDINATES (ANGSTROEM)
---------------------------------
  C      3.488280    1.600920   -1.522040
  C      4.342970    1.313420   -2.756830
  N      2.810290    0.428780   -1.014200
  H      2.714550    2.331450   -1.760300
  H      4.090990    2.063150   -0.733380
  C      3.290980   -0.418020   -0.129080
  N      2.517540   -1.432020    0.239360
  C      4.535490   -0.284410    0.395800
  H      5.043630    0.571890    0.222900
  H      4.723350   -0.733270    1.281800
  H      1.934790    0.102300   -1.403790
  H      1.674640   -1.505620   -0.316100
  H      2.928500   -2.218500    0.725490
  H      3.735750    0.862770   -3.513850
  H      5.137540    0.646990   -2.493330
  H      4.753740    2.229300   -3.127400

 Total Charge           Charge          ....    0
 Multiplicity           Mult            ....    1
 Number of Electrons    NEL             ....   48
 Basis Dimension        Dim             ....  246

ORBITAL ENERGIES
----------------

  NO   OCC          E(Eh)            E(eV)
   0   2.0000     -14.222028      -387.0011
   1   2.0000     -14.215074      -386.8118
   2   2.0000     -10.167697      -276.6771
   3   2.0000     -10.150389      -276.2061
   4   2.0000     -10.095079      -274.7011
   5   2.0000     -10.020235      -272.6645
   6   2.0000      -1.157746       -31.5039
   7   2.0000      -1.061067       -28.8731
   8   2.0000      -0.929855       -25.3027
   9   2.0000      -0.876184       -23.8422
  10   2.0000      -0.807474       -21.9725
  11   2.0000      -0.715722       -19.4758
  12   2.0000      -0.693004       -18.8576
  13   2.0000      -0.676823       -18.4173
  14   2.0000      -0.609597       -16.5880
  15   2.0000      -0.582981       -15.8637
  16   2.0000      -0.575379       -15.6569
  17   2.0000      -0.530839       -14.4449
  18   2.0000      -0.512817       -13.9545
  19   2.0000      -0.505502       -13.7554
  20   2.0000      -0.494643       -13.4599
  21   2.0000      -0.475694       -12.9443
  22   2.0000      -0.383051       -10.4234
  23   2.0000      -0.282272        -7.6810
  24   0.0000       0.101703         2.7675
  25   0.0000       0.134694         3.6652
  26   0.0000       0.147225         4.0062
  27   0.0000       0.162458         4.4207
  28   0.0000       0.179073         4.8728

MULLIKEN ATOMIC CHARGES
-----------------------
   0 C :   -0.245355
   1 C :   -0.390178
   2 N :   -0.278107
   3 H :    0.147254
   4 H :    0.163820
   5 C :    0.322948
   6 N :   -0.469919
   7 C :   -0.630571
   8 H :    0.109090
   9 H :    0.124879
  10 H :    0.205246
  11 H :    0.222358
  12 H :    0.276263
  13 H :    0.128243
  14 H :    0.171431
  15 H :    0.142597
Sum of atomic charges:   -0.0000000

LOEWDIN ATOMIC CHARGES
----------------------
   0 C :   -0.318919
   1 C :   -0.323715
   2 N :    0.119735
   3 H :    0.137449
   4 H :    0.146459
   5 C :   -0.474021
   6 N :   -0.018079
   7 C :   -0.383337
   8 H :    0.099143
   9 H :    0.100712
  10 H :    0.184920
  11 H :    0.168777
  12 H :    0.186595
  13 H :    0.119949
  14 H :    0.130626
  15 H :    0.123707

  Mayer bond orders larger than 0.100000
B(  0-C ,  1-C ) :   0.9464 B(  0-C ,  2-N ) :   0.9197 B(  0-C ,  3-H ) :   0.9788
B(  0-C ,  4-H ) :   0.9775 B(  1-C , 13-H ) :   0.9732 B(  1-C , 14-H ) :   0.9641
B(  1-C , 15-H ) :   0.9770 B(  2-N ,  5-C ) :   1.1925 B(  2-N , 10-H ) :   0.9321
B(  5-C ,  6-N ) :   1.1508 B(  5-C ,  7-C ) :   1.6213 B(  6-N , 11-H ) :   0.9292
B(  6-N , 12-H ) :   0.9134 B(  7-C ,  8-H ) :   1.0167 B(  7-C ,  9-H ) :   0.9987

FINAL SINGLE POINT ENERGY      -267.121083611278

DIPOLE MOMENT
-------------
                                X             Y             Z
Electronic contribution:     -2.88821      -2.30613       2.15897
Nuclear contribution   :      1.81275       2.23313      -2.77458
                        -----------------------------------------
Total Dipole Moment    :     -1.07545      -0.07300      -0.61560
                        -----------------------------------------
Magnitude (a.u.)       :      1.24133
Magnitude (Debye)      :      3.15521

Rotational constants in cm-1:     0.245202     0.073668     0.064348
Rotational constants in MHz :  7350.977980  2208.513334  1929.108541

                             ****ORCA TERMINATED NORMALLY****
TOTAL RUN TIME: 0 days 0 hours 0 minutes 42 seconds 980 msec
