                         Program Version 5.0.0 -  RELEASE  -
|  1> !LC-PBE RIJCOSX def2-TZVP def2/J TightSCF xyzfile
|  2>
|  3> *xyzfile 0 1 D3.xyz
|  4>
|  5> %MaxCore 64000
|  6>
|  7> %pal nprocs 18
|  8> end
|  9>
| 10> %scf
| 11>   MaxIter 150
| 12> end
| 13>
| 14>
| 15>                          ****END OF INPUT****

CARTESIAN COORDINATES (ANGSTROEM)
---------------------------------
  C      3.488276    1.600919   -1.522040
  C      4.342970    1.313419   -2.756826
  N      2.810285    0.428783   -1.014196
  H      5.132033    0.604994   -2.484466
  C      3.535896    0.749253   -3.924604
  H      4.841247    2.242136   -3.054083
  H      2.991617   -0.132199   -3.574137
  H      4.225505    0.392784   -4.695962
  C      2.564776    1.750890   -4.544523
  H      1.918749    2.171679   -3.769419
  C      1.686235    1.161657   -5.650111
  H      3.132494    2.594775   -4.951604
  C      0.839616   -0.037582   -5.220473
  H      2.323886    0.866395   -6.490796
  H      1.029518    1.951850   -6.029329
  C     -0.151019    0.254955   -4.094256
  H      1.499442   -0.857141   -4.922958
  H      0.290097   -0.410143   -6.091131
  H      0.328265    0.833022   -3.299125
  C     -0.721843   -0.999513   -3.439309
  H     -0.957367    0.884951   -4.485450
  H     -1.083403   -1.697555   -4.205656
  H     -1.581056   -0.723848   -2.820490
  C      0.287250   -1.711771   -2.527405
  H      1.131780   -2.067380   -3.159396
  H     -0.204137   -2.637326   -2.170480
  F      0.710505   -0.927506   -1.481767
  H      2.714548    2.331455   -1.760302
  H      4.090991    2.063151   -0.733382
  C      3.290978   -0.418021   -0.129083
  N      2.517536   -1.432017    0.239360
  C      4.535490   -0.284410    0.395800
  H      5.043627    0.571888    0.222899
  H      4.723346   -0.733273    1.281800
  H      1.934787    0.102305   -1.403788
  H      1.674638   -1.505616   -0.316095
  H      2.928503   -2.218502    0.725494

 Total Charge           Charge          ....    0
 Multiplicity           Mult            ....    1
 Number of Electrons    NEL             ....  112
 Basis Dimension        Dim             ....  572

ORBITAL ENERGIES
----------------

  NO   OCC          E(Eh)            E(eV)
   0   2.0000     -24.533732      -667.5968
   1   2.0000     -14.192681      -386.2025
   2   2.0000     -14.184558      -385.9815
   3   2.0000     -10.224018      -278.2097
   4   2.0000     -10.147844      -276.1369
   5   2.0000     -10.141908      -275.9754
   6   2.0000     -10.133556      -275.7481
   7   2.0000     -10.126589      -275.5585
   8   2.0000     -10.120559      -275.3944
   9   2.0000     -10.115340      -275.2524
  10   2.0000     -10.109442      -275.0919
  11   2.0000     -10.105342      -274.9803
  12   2.0000     -10.099432      -274.8195
  13   2.0000     -10.002146      -272.1722
  14   2.0000      -1.419054       -38.6144
  15   2.0000      -1.135163       -30.8893
  16   2.0000      -1.041118       -28.3303
  17   2.0000      -1.016648       -27.6644
  18   2.0000      -0.983603       -26.7652
  19   2.0000      -0.945915       -25.7396
  20   2.0000      -0.899476       -24.4760
  21   2.0000      -0.864713       -23.5300
  22   2.0000      -0.856892       -23.3172
  23   2.0000      -0.820788       -22.3348
  24   2.0000      -0.783147       -21.3105
  25   2.0000      -0.754918       -20.5424
  26   2.0000      -0.730370       -19.8744
  27   2.0000      -0.717078       -19.5127
  28   2.0000      -0.711915       -19.3722
  29   2.0000      -0.678298       -18.4574
  30   2.0000      -0.671455       -18.2712
  31   2.0000      -0.659093       -17.9348
  32   2.0000      -0.640281       -17.4229
  33   2.0000      -0.627260       -17.0686
  34   2.0000      -0.609884       -16.5958
  35   2.0000      -0.598143       -16.2763
  36   2.0000      -0.584194       -15.8967
  37   2.0000      -0.579085       -15.7577
  38   2.0000      -0.571509       -15.5516
  39   2.0000      -0.548020       -14.9124
  40   2.0000      -0.543370       -14.7859
  41   2.0000      -0.520691       -14.1687
  42   2.0000      -0.515073       -14.0158
  43   2.0000      -0.507752       -13.8166
  44   2.0000      -0.505117       -13.7449
  45   2.0000      -0.492734       -13.4080
  46   2.0000      -0.482280       -13.1235
  47   2.0000      -0.480230       -13.0677
  48   2.0000      -0.469742       -12.7823
  49   2.0000      -0.465199       -12.6587
  50   2.0000      -0.457577       -12.4513
  51   2.0000      -0.441861       -12.0236
  52   2.0000      -0.439460       -11.9583
  53   2.0000      -0.432524       -11.7696
  54   2.0000      -0.359535        -9.7834
  55   2.0000      -0.263640        -7.1740
  56   0.0000       0.102523         2.7898
  57   0.0000       0.116697         3.1755
  58   0.0000       0.124751         3.3947
  59   0.0000       0.130841         3.5604
  60   0.0000       0.143034         3.8922

MULLIKEN ATOMIC CHARGES
-----------------------
   0 C :   -0.364095
   1 C :   -0.185708
   2 N :   -0.281399
   3 H :    0.177719
   4 C :   -0.340345
   5 H :    0.139386
   6 H :    0.144441
   7 H :    0.155436
   8 C :   -0.351975
   9 H :    0.156492
  10 C :   -0.236047
  11 H :    0.155175
  12 C :   -0.374816
  13 H :    0.153804
  14 H :    0.151139
  15 C :   -0.307115
  16 H :    0.161286
  17 H :    0.160655
  18 H :    0.163074
  19 C :   -0.276057
  20 H :    0.161712
  21 H :    0.163304
  22 H :    0.165480
  23 C :   -0.110010
  24 H :    0.159122
  25 H :    0.169379
  26 F :   -0.236278
  27 H :    0.179417
  28 H :    0.183844
  29 C :    0.325493
  30 N :   -0.497086
  31 C :   -0.659033
  32 H :    0.107241
  33 H :    0.119977
  34 H :    0.251600
  35 H :    0.252260
  36 H :    0.262528
Sum of atomic charges:   -0.0000000

LOEWDIN ATOMIC CHARGES
----------------------
   0 C :   -0.300530
   1 C :   -0.283413
   2 N :    0.119959
   3 H :    0.153397
   4 C :   -0.287545
   5 H :    0.144595
   6 H :    0.139161
   7 H :    0.146034
   8 C :   -0.288601
   9 H :    0.139005
  10 C :   -0.285203
  11 H :    0.146651
  12 C :   -0.288939
  13 H :    0.146644
  14 H :    0.145619
  15 C :   -0.285392
  16 H :    0.140155
  17 H :    0.145597
  18 H :    0.146793
  19 C :   -0.289695
  20 H :    0.148554
  21 H :    0.156103
  22 H :    0.150734
  23 C :   -0.360541
  24 H :    0.137276
  25 H :    0.139308
  26 F :    0.146581
  27 H :    0.137151
  28 H :    0.147952
  29 C :   -0.470572
  30 N :   -0.027197
  31 C :   -0.398493
  32 H :    0.096838
  33 H :    0.098133
  34 H :    0.165135
  35 H :    0.149654
  36 H :    0.179088

  Mayer bond orders larger than 0.100000
B(  0-C ,  1-C ) :   0.8973 B(  0-C ,  2-N ) :   0.9037 B(  0-C , 27-H ) :   0.9992
B(  0-C , 28-H ) :   0.9848 B(  1-C ,  3-H ) :   0.9679 B(  1-C ,  4-C ) :   0.9534
B(  1-C ,  5-H ) :   0.9874 B(  2-N , 29-C ) :   1.2125 B(  2-N , 34-H ) :   0.8880
B(  4-C ,  6-H ) :   0.9798 B(  4-C ,  7-H ) :   0.9755 B(  4-C ,  8-C ) :   0.8926
B(  8-C ,  9-H ) :   0.9929 B(  8-C , 10-C ) :   0.9427 B(  8-C , 11-H ) :   0.9749
B( 10-C , 12-C ) :   0.9391 B( 10-C , 13-H ) :   0.9846 B( 10-C , 14-H ) :   0.9898
B( 12-C , 15-C ) :   0.8872 B( 12-C , 16-H ) :   0.9951 B( 12-C , 17-H ) :   0.9732
B( 15-C , 18-H ) :   0.9904 B( 15-C , 19-C ) :   0.9415 B( 15-C , 20-H ) :   0.9680
B( 19-C , 21-H ) :   0.9627 B( 19-C , 22-H ) :   0.9748 B( 19-C , 23-C ) :   0.9781
B( 23-C , 24-H ) :   0.9753 B( 23-C , 25-H ) :   0.9699 B( 23-C , 26-F ) :   0.8768
B( 29-C , 30-N ) :   1.1587 B( 29-C , 31-C ) :   1.5832 B( 30-N , 35-H ) :   0.8963
B( 30-N , 36-H ) :   0.9200 B( 31-C , 32-H ) :   1.0142 B( 31-C , 33-H ) :   1.0007

FINAL SINGLE POINT ENERGY      -640.491781305393

DIPOLE MOMENT
-------------
                                X             Y             Z
Electronic contribution:     -3.28997      -4.33856       9.02352
Nuclear contribution   :      1.49917       3.80845     -10.61369
                        -----------------------------------------
Total Dipole Moment    :     -1.79080      -0.53010      -1.59016
                        -----------------------------------------
Magnitude (a.u.)       :      2.45287
Magnitude (Debye)      :      6.23471

Rotational constants in cm-1:     0.026547     0.016542     0.011018
Rotational constants in MHz :   795.873737   495.912559   330.323979

                             ****ORCA TERMINATED NORMALLY****
TOTAL RUN TIME: 0 days 0 hours 1 minutes 21 seconds 654 msec
