                         Program Version 5.0.0 -  RELEASE  -
|  1> !PBE D3BJ RIJCOSX def2-SVPD def2/J TightSCF
|  2> *xyz -1 1
|  3> C         -0.05517        1.61942       -3.78858
|  4> C          1.22302        2.46987       -3.75691
|  5> H          1.11470        3.25807       -4.53300
|  6> H          1.23773        3.01124       -2.79216
|  7> O          2.35381        1.71203       -3.93448
|  8> H         -0.10198        1.08015       -4.71156
|  9> H         -0.91014        2.25726       -3.70441
| 10> H         -0.04403        0.92826       -2.97183
| 11> *
| 12>
| 13> %MaxCore 64000
| 14>
| 15> %pal nprocs 4
| 16> end
| 17>
| 18> %scf
| 19>   MaxIter 150
| 20> end
| 21>
| 22>
| 23>                          ****END OF INPUT****

CARTESIAN COORDINATES (ANGSTROEM)
---------------------------------
  C     -0.055170    1.619420   -3.788580
  C      1.223020    2.469870   -3.756910
  H      1.114700    3.258070   -4.533000
  H      1.237730    3.011240   -2.792160
  O      2.353810    1.712030   -3.934480
  H     -0.101980    1.080150   -4.711560
  H     -0.910140    2.257260   -3.704410
  H     -0.044030    0.928260   -2.971830

 Total Charge           Charge          ....   -1
 Multiplicity           Mult            ....    1
 Number of Electrons    NEL             ....   26
 Basis Dimension        Dim             ....  103

ORBITAL ENERGIES
----------------

  NO   OCC          E(Eh)            E(eV)
   0   2.0000     -18.443375      -501.8698
   1   2.0000      -9.710781      -264.2438
   2   2.0000      -9.688082      -263.6261
   3   2.0000      -0.593200       -16.1418
   4   2.0000      -0.451369       -12.2824
   5   2.0000      -0.309711        -8.4277
   6   2.0000      -0.203645        -5.5415
   7   2.0000      -0.181324        -4.9341
   8   2.0000      -0.133019        -3.6196
   9   2.0000      -0.114579        -3.1178
  10   2.0000      -0.072203        -1.9647
  11   2.0000       0.066375         1.8062
  12   2.0000       0.069797         1.8993
  13   0.0000       0.163379         4.4458
  14   0.0000       0.193064         5.2535
  15   0.0000       0.223930         6.0934
  16   0.0000       0.236884         6.4459
  17   0.0000       0.255262         6.9460

MULLIKEN ATOMIC CHARGES
-----------------------
   0 C :    0.207927
   1 C :    0.125055
   2 H :   -0.146120
   3 H :   -0.162415
   4 O :   -0.865120
   5 H :   -0.067239
   6 H :   -0.028624
   7 H :   -0.063465
Sum of atomic charges:   -1.0000000

LOEWDIN ATOMIC CHARGES
----------------------
   0 C :    0.055138
   1 C :   -0.270463
   2 H :   -0.037791
   3 H :   -0.039142
   4 O :   -0.549741
   5 H :   -0.044715
   6 H :   -0.067436
   7 H :   -0.045849

  Mayer bond orders larger than 0.100000
B(  0-C ,  1-C ) :   1.2171 B(  0-C ,  2-H ) :   0.1557 B(  0-C ,  3-H ) :   0.1551
B(  0-C ,  4-O ) :   0.3098 B(  0-C ,  5-H ) :   0.9149 B(  0-C ,  6-H ) :   0.9336
B(  0-C ,  7-H ) :   0.9144 B(  1-C ,  2-H ) :   0.9708 B(  1-C ,  3-H ) :   0.9799
B(  1-C ,  4-O ) :   1.0925 B(  1-C ,  5-H ) :   0.1901 B(  1-C ,  6-H ) :   0.1366
B(  1-C ,  7-H ) :   0.1798

Dispersion correction           -0.003764383
FINAL SINGLE POINT ENERGY      -154.133900771820

DIPOLE MOMENT
-------------
                                X             Y             Z
Electronic contribution:      2.90337      -0.54376      -0.26168
Nuclear contribution   :     -4.28298       0.81046       0.39340
                        -----------------------------------------
Total Dipole Moment    :     -1.37961       0.26670       0.13172
                        -----------------------------------------
Magnitude (a.u.)       :      1.41131
Magnitude (Debye)      :      3.58727

Rotational constants in cm-1:     1.266793     0.328147     0.288309
Rotational constants in MHz : 37977.512300  9837.594308  8643.275638

                             ****ORCA TERMINATED NORMALLY****
TOTAL RUN TIME: 0 days 0 hours 0 minutes 7 seconds 215 msec
