                         Program Version 5.0.0 -  RELEASE  -
|  1> !PBE D3BJ RIJCOSX def2-SVPD def2/J TightSCF
|  2> *xyz 1 1
|  3> C          1.63556       -1.67040       -5.29211
|  4> C          0.33848       -1.50091       -4.50540
|  5> N          2.48451       -0.50741       -5.14039
|  6> H          1.39834       -1.82924       -6.35259
|  7> H          2.15586       -2.56540       -4.93209
|  8> C          3.45115       -0.14953       -5.95259
|  9> N          3.92267        1.08956       -5.85071
| 10> N          3.96616       -1.00618       -6.86788
| 11> H          3.52139       -1.90647       -6.99527
| 12> H          4.44482       -0.62347       -7.67035
| 13> H          2.25200        0.24080       -4.49879
| 14> H          3.46428        1.64078       -5.13639
| 15> H          4.83447        1.31375       -6.22465
| 16> H         -0.17658       -0.62881       -4.85045
| 17> H          0.56384       -1.39374       -3.46490
| 18> H         -0.28102       -2.36136       -4.64938
| 19> *
| 20>
| 21> %MaxCore 64000
| 22>
| 23> %pal nprocs 4
| 24> end
| 25>
| 26> %scf
| 27>   MaxIter 150
| 28> end
| 29>
| 30>
| 31>                          ****END OF INPUT****

CARTESIAN COORDINATES (ANGSTROEM)
---------------------------------
  C      1.635560   -1.670400   -5.292110
  C      0.338480   -1.500910   -4.505400
  N      2.484510   -0.507410   -5.140390
  H      1.398340   -1.829240   -6.352590
  H      2.155860   -2.565400   -4.932090
  C      3.451150   -0.149530   -5.952590
  N      3.922670    1.089560   -5.850710
  N      3.966160   -1.006180   -6.867880
  H      3.521390   -1.906470   -6.995270
  H      4.444820   -0.623470   -7.670350
  H      2.252000    0.240800   -4.498790
  H      3.464280    1.640780   -5.136390
  H      4.834470    1.313750   -6.224650
  H     -0.176580   -0.628810   -4.850450
  H      0.563840   -1.393740   -3.464900
  H     -0.281020   -2.361360   -4.649380

 Total Charge           Charge          ....    1
 Multiplicity           Mult            ....    1
 Number of Electrons    NEL             ....   48
 Basis Dimension        Dim             ....  200

ORBITAL ENERGIES
----------------

  NO   OCC          E(Eh)            E(eV)
   0   2.0000     -14.228414      -387.1748
   1   2.0000     -14.222709      -387.0196
   2   2.0000     -14.221141      -386.9769
   3   2.0000     -10.216889      -278.0157
   4   2.0000     -10.106239      -275.0047
   5   2.0000     -10.037018      -273.1211
   6   2.0000      -1.128011       -30.6947
   7   2.0000      -1.022104       -27.8129
   8   2.0000      -1.009067       -27.4581
   9   2.0000      -0.863723       -23.5031
  10   2.0000      -0.769970       -20.9519
  11   2.0000      -0.753832       -20.5128
  12   2.0000      -0.724072       -19.7030
  13   2.0000      -0.691809       -18.8251
  14   2.0000      -0.643488       -17.5102
  15   2.0000      -0.637169       -17.3383
  16   2.0000      -0.613145       -16.6845
  17   2.0000      -0.596944       -16.2437
  18   2.0000      -0.556346       -15.1390
  19   2.0000      -0.505439       -13.7537
  20   2.0000      -0.489924       -13.3315
  21   2.0000      -0.478786       -13.0284
  22   2.0000      -0.438049       -11.9199
  23   2.0000      -0.416734       -11.3399
  24   0.0000      -0.205377        -5.5886
  25   0.0000      -0.179154        -4.8750
  26   0.0000      -0.147895        -4.0244
  27   0.0000      -0.130420        -3.5489
  28   0.0000      -0.114457        -3.1145

MULLIKEN ATOMIC CHARGES
-----------------------
   0 C :    0.062245
   1 C :    0.838985
   2 N :   -0.461202
   3 H :   -0.070898
   4 H :   -0.086776
   5 C :    1.273980
   6 N :    0.025627
   7 N :   -0.036749
   8 H :   -0.033928
   9 H :   -0.097369
  10 H :   -0.142611
  11 H :    0.016122
  12 H :   -0.119382
  13 H :   -0.039522
  14 H :   -0.029380
  15 H :   -0.099143
Sum of atomic charges:    1.0000000

LOEWDIN ATOMIC CHARGES
----------------------
   0 C :    0.018363
   1 C :    0.161837
   2 N :    0.047987
   3 H :    0.039470
   4 H :    0.044442
   5 C :   -0.057854
   6 N :    0.275422
   7 N :    0.294870
   8 H :    0.012955
   9 H :    0.033516
  10 H :    0.052391
  11 H :    0.031040
  12 H :    0.041957
  13 H :   -0.002085
  14 H :   -0.000756
  15 H :    0.006446

  Mayer bond orders larger than 0.100000
B(  0-C ,  1-C ) :   1.3622 B(  0-C ,  2-N ) :   0.9716 B(  0-C ,  3-H ) :   0.8453
B(  0-C ,  4-H ) :   0.8654 B(  0-C , 10-H ) :  -0.1186 B(  0-C , 13-H ) :   0.2254
B(  0-C , 14-H ) :   0.2521 B(  0-C , 15-H ) :   0.3081 B(  1-C , 13-H ) :   0.7709
B(  1-C , 14-H ) :   0.7109 B(  1-C , 15-H ) :   0.7200 B(  2-N ,  3-H ) :   0.1793
B(  2-N ,  4-H ) :   0.1824 B(  2-N ,  5-C ) :   1.0222 B(  2-N ,  6-N ) :   0.3204
B(  2-N ,  7-N ) :   0.2443 B(  2-N , 10-H ) :   1.1949 B(  5-C ,  6-N ) :   0.9166
B(  5-C ,  7-N ) :   0.9072 B(  5-C ,  8-H ) :  -0.1214 B(  5-C ,  9-H ) :  -0.1384
B(  5-C , 10-H ) :  -0.2402 B(  5-C , 12-H ) :  -0.1286 B(  6-N ,  7-N ) :   0.1916
B(  6-N , 11-H ) :   1.0557 B(  6-N , 12-H ) :   1.2320 B(  7-N ,  8-H ) :   1.0404
B(  7-N ,  9-H ) :   1.2273 B(  8-H ,  9-H ) :  -0.1563 B( 11-H , 12-H ) :  -0.1474

Dispersion correction           -0.012048894
FINAL SINGLE POINT ENERGY      -283.862757482144

DIPOLE MOMENT
-------------
                                X             Y             Z
Electronic contribution:      4.69577       2.46568      -1.69631
Nuclear contribution   :     -3.96322      -1.85512       1.24891
                        -----------------------------------------
Total Dipole Moment    :      0.73255       0.61057      -0.44740
                        -----------------------------------------
Magnitude (a.u.)       :      1.05337
Magnitude (Debye)      :      2.67745

Rotational constants in cm-1:     0.261404     0.067000     0.054949
Rotational constants in MHz :  7836.702504  2008.609425  1647.329138

                             ****ORCA TERMINATED NORMALLY****
TOTAL RUN TIME: 0 days 0 hours 0 minutes 12 seconds 550 msec
