                         Program Version 5.0.0 -  RELEASE  -
|  1> !PBE D3BJ RIJCOSX def2-SVPD def2/J TightSCF
|  2> *xyz 0 1
|  3> C         -0.05517        1.61942       -3.78858
|  4> C          1.22302        2.46987       -3.75691
|  5> H          1.11470        3.25807       -4.53300
|  6> H          1.23773        3.01124       -2.79216
|  7> F          2.35381        1.71203       -3.93448
|  8> H         -0.10198        1.08015       -4.71156
|  9> H         -0.91014        2.25726       -3.70441
| 10> H         -0.04403        0.92826       -2.97183
| 11> *
| 12>
| 13> %MaxCore 64000
| 14>
| 15> %pal nprocs 4
| 16> end
| 17>
| 18> %scf
| 19>   MaxIter 150
| 20> end
| 21>
| 22>
| 23>                          ****END OF INPUT****

CARTESIAN COORDINATES (ANGSTROEM)
---------------------------------
  C     -0.055170    1.619420   -3.788580
  C      1.223020    2.469870   -3.756910
  H      1.114700    3.258070   -4.533000
  H      1.237730    3.011240   -2.792160
  F      2.353810    1.712030   -3.934480
  H     -0.101980    1.080150   -4.711560
  H     -0.910140    2.257260   -3.704410
  H     -0.044030    0.928260   -2.971830

 Total Charge           Charge          ....    0
 Multiplicity           Mult            ....    1
 Number of Electrons    NEL             ....   26
 Basis Dimension        Dim             ....  103

ORBITAL ENERGIES
----------------

  NO   OCC          E(Eh)            E(eV)
   0   2.0000     -24.264232      -660.2633
   1   2.0000      -9.974091      -271.4088
   2   2.0000      -9.892947      -269.2008
   3   2.0000      -1.084719       -29.5167
   4   2.0000      -0.689290       -18.7565
   5   2.0000      -0.565018       -15.3749
   6   2.0000      -0.458218       -12.4687
   7   2.0000      -0.442089       -12.0299
   8   2.0000      -0.405306       -11.0289
   9   2.0000      -0.356504        -9.7010
  10   2.0000      -0.355071        -9.6620
  11   2.0000      -0.290498        -7.9049
  12   2.0000      -0.285171        -7.7599
  13   0.0000       0.005223         0.1421
  14   0.0000       0.037071         1.0088
  15   0.0000       0.049969         1.3597
  16   0.0000       0.061023         1.6605
  17   0.0000       0.084200         2.2912

MULLIKEN ATOMIC CHARGES
-----------------------
   0 C :    0.345669
   1 C :    0.404719
   2 H :   -0.068314
   3 H :   -0.086092
   4 F :   -0.417777
   5 H :   -0.068971
   6 H :   -0.045165
   7 H :   -0.064069
Sum of atomic charges:    0.0000000

LOEWDIN ATOMIC CHARGES
----------------------
   0 C :    0.134069
   1 C :    0.048252
   2 H :    0.030606
   3 H :    0.028201
   4 F :   -0.198550
   5 H :   -0.014243
   6 H :   -0.013250
   7 H :   -0.015084

  Mayer bond orders larger than 0.100000
B(  0-C ,  1-C ) :   1.3740 B(  0-C ,  5-H ) :   0.8824 B(  0-C ,  6-H ) :   0.8537
B(  0-C ,  7-H ) :   0.8837 B(  1-C ,  2-H ) :   0.9272 B(  1-C ,  3-H ) :   0.9338
B(  1-C ,  4-F ) :   0.7790 B(  1-C ,  5-H ) :   0.1528 B(  1-C ,  6-H ) :   0.1264
B(  1-C ,  7-H ) :   0.1452

Dispersion correction           -0.003482557
FINAL SINGLE POINT ENERGY      -178.727838162953

DIPOLE MOMENT
-------------
                                X             Y             Z
Electronic contribution:      5.03981      -0.75169      -0.43537
Nuclear contribution   :     -5.66833       1.07099       0.52006
                        -----------------------------------------
Total Dipole Moment    :     -0.62852       0.31930       0.08469
                        -----------------------------------------
Magnitude (a.u.)       :      0.71005
Magnitude (Debye)      :      1.80480

Rotational constants in cm-1:     1.245689     0.305293     0.269541
Rotational constants in MHz : 37344.801915  9152.442838  8080.640229

                             ****ORCA TERMINATED NORMALLY****
TOTAL RUN TIME: 0 days 0 hours 0 minutes 6 seconds 627 msec
