                         Program Version 5.0.0 -  RELEASE  -
|  1> !PBE D3BJ RIJCOSX def2-SVPD def2/J TightSCF
|  2> *xyz 0 1
|  3> C          1.63556       -1.67040       -5.29211
|  4> C          0.33848       -1.50091       -4.50540
|  5> C          2.48451       -0.50741       -5.14039
|  6> H          1.39834       -1.82924       -6.35259
|  7> H          2.15586       -2.56540       -4.93209
|  8> C          3.45115       -0.14953       -5.95259
|  9> N          3.92267        1.08956       -5.85071
| 10> N          3.96616       -1.00618       -6.86788
| 11> H          3.52139       -1.90647       -6.99527
| 12> H          4.44482       -0.62347       -7.67035
| 13> H          2.25200        0.24080       -4.49879
| 14> H          3.46428        1.64078       -5.13639
| 15> H          4.83447        1.31375       -6.22465
| 16> H         -0.17658       -0.62881       -4.85045
| 17> H          0.56384       -1.39374       -3.46490
| 18> H         -0.28102       -2.36136       -4.64938
| 19> *
| 20>
| 21> %MaxCore 64000
| 22>
| 23> %pal nprocs 4
| 24> end
| 25>
| 26> %scf
| 27>   MaxIter 150
| 28> end
| 29>
| 30>
| 31>                          ****END OF INPUT****

CARTESIAN COORDINATES (ANGSTROEM)
---------------------------------
  C      1.635560   -1.670400   -5.292110
  C      0.338480   -1.500910   -4.505400
  C      2.484510   -0.507410   -5.140390
  H      1.398340   -1.829240   -6.352590
  H      2.155860   -2.565400   -4.932090
  C      3.451150   -0.149530   -5.952590
  N      3.922670    1.089560   -5.850710
  N      3.966160   -1.006180   -6.867880
  H      3.521390   -1.906470   -6.995270
  H      4.444820   -0.623470   -7.670350
  H      2.252000    0.240800   -4.498790
  H      3.464280    1.640780   -5.136390
  H      4.834470    1.313750   -6.224650
  H     -0.176580   -0.628810   -4.850450
  H      0.563840   -1.393740   -3.464900
  H     -0.281020   -2.361360   -4.649380

 Total Charge           Charge          ....    0
 Multiplicity           Mult            ....    1
 Number of Electrons    NEL             ....   48
 Basis Dimension        Dim             ....  200

ORBITAL ENERGIES
----------------

  NO   OCC          E(Eh)            E(eV)
   0   2.0000     -14.002232      -381.0201
   1   2.0000     -13.997227      -380.8839
   2   2.0000      -9.928735      -270.1746
   3   2.0000      -9.875035      -268.7134
   4   2.0000      -9.865313      -268.4488
   5   2.0000      -9.821026      -267.2437
   6   2.0000      -0.868896       -23.6439
   7   2.0000      -0.786997       -21.4153
   8   2.0000      -0.698273       -19.0010
   9   2.0000      -0.625476       -17.0201
  10   2.0000      -0.547842       -14.9075
  11   2.0000      -0.524039       -14.2598
  12   2.0000      -0.483429       -13.1548
  13   2.0000      -0.459666       -12.5081
  14   2.0000      -0.421395       -11.4667
  15   2.0000      -0.392484       -10.6800
  16   2.0000      -0.381496       -10.3810
  17   2.0000      -0.349368        -9.5068
  18   2.0000      -0.332986        -9.0610
  19   2.0000      -0.299530        -8.1506
  20   2.0000      -0.290206        -7.8969
  21   2.0000      -0.288329        -7.8458
  22   2.0000      -0.222496        -6.0544
  23   2.0000      -0.134155        -3.6505
  24   0.0000      -0.003328        -0.0906
  25   0.0000       0.021021         0.5720
  26   0.0000       0.027939         0.7602
  27   0.0000       0.040215         1.0943
  28   0.0000       0.048626         1.3232

MULLIKEN ATOMIC CHARGES
-----------------------
   0 C :   -0.247288
   1 C :    0.982794
   2 C :   -0.151964
   3 H :   -0.149851
   4 H :   -0.081246
   5 C :    0.542530
   6 N :    0.063274
   7 N :   -0.058733
   8 H :   -0.027594
   9 H :   -0.186888
  10 H :   -0.321049
  11 H :    0.053599
  12 H :   -0.228126
  13 H :   -0.022350
  14 H :   -0.018336
  15 H :   -0.148773
Sum of atomic charges:   -0.0000000

LOEWDIN ATOMIC CHARGES
----------------------
   0 C :   -0.120212
   1 C :    0.110657
   2 C :   -0.037405
   3 H :    0.016956
   4 H :    0.018979
   5 C :   -0.238631
   6 N :    0.186992
   7 N :    0.216760
   8 H :   -0.018636
   9 H :   -0.017531
  10 H :   -0.048914
  11 H :   -0.001532
  12 H :   -0.012330
  13 H :   -0.015458
  14 H :   -0.015266
  15 H :   -0.024430

  Mayer bond orders larger than 0.100000
B(  0-C ,  1-C ) :   1.2669 B(  0-C ,  2-C ) :   0.9904 B(  0-C ,  3-H ) :   0.8652
B(  0-C ,  4-H ) :   0.7349 B(  0-C , 10-H ) :   0.2276 B(  0-C , 13-H ) :   0.2429
B(  0-C , 14-H ) :   0.2574 B(  0-C , 15-H ) :   0.3468 B(  1-C , 10-H ) :  -0.1010
B(  1-C , 13-H ) :   0.7527 B(  1-C , 14-H ) :   0.7097 B(  1-C , 15-H ) :   0.6620
B(  2-C ,  3-H ) :   0.1401 B(  2-C ,  4-H ) :   0.2721 B(  2-C ,  5-C ) :   1.5508
B(  2-C ,  6-N ) :   0.3658 B(  2-C ,  7-N ) :   0.2411 B(  2-C ,  8-H ) :  -0.1335
B(  2-C , 10-H ) :   0.8751 B(  3-H , 10-H ) :   0.1175 B(  5-C ,  6-N ) :   0.9306
B(  5-C ,  7-N ) :   0.9591 B(  6-N ,  7-N ) :   0.1477 B(  6-N , 11-H ) :   1.0326
B(  6-N , 12-H ) :   1.2292 B(  7-N ,  8-H ) :   1.0366 B(  7-N ,  9-H ) :   1.2317
B(  8-H ,  9-H ) :  -0.1326 B( 11-H , 12-H ) :  -0.1469

Dispersion correction           -0.012504408
FINAL SINGLE POINT ENERGY      -267.399160101047

DIPOLE MOMENT
-------------
                                X             Y             Z
Electronic contribution:      4.53164       2.16466      -1.89592
Nuclear contribution   :     -3.99655      -1.83277       1.34879
                        -----------------------------------------
Total Dipole Moment    :      0.53509       0.33189      -0.54713
                        -----------------------------------------
Magnitude (a.u.)       :      0.83416
Magnitude (Debye)      :      2.12027

Rotational constants in cm-1:     0.262971     0.067064     0.055026
Rotational constants in MHz :  7883.664566  2010.513309  1649.636654

                             ****ORCA TERMINATED NORMALLY****
TOTAL RUN TIME: 0 days 0 hours 0 minutes 12 seconds 666 msec
