                         Program Version 5.0.0 -  RELEASE  -
|  1> !PBE D3BJ RIJCOSX def2-SVPD def2/J TightSCF
|  2> *xyz 0 1
|  3> C          1.63556       -1.67040       -5.29211
|  4> C          0.33848       -1.50091       -4.50540
|  5> N          2.48451       -0.50741       -5.14039
|  6> H          1.39834       -1.82924       -6.35259
|  7> H          2.15586       -2.56540       -4.93209
|  8> C          3.45115       -0.14953       -5.95259
|  9> C          3.92267        1.08956       -5.85071
| 10> N          3.96616       -1.00618       -6.86788
| 11> H          3.52139       -1.90647       -6.99527
| 12> H          4.44482       -0.62347       -7.67035
| 13> H          2.25200        0.24080       -4.49879
| 14> H          3.46428        1.64078       -5.13639
| 15> H          4.83447        1.31375       -6.22465
| 16> H         -0.17658       -0.62881       -4.85045
| 17> H          0.56384       -1.39374       -3.46490
| 18> H         -0.28102       -2.36136       -4.64938
| 19> *
| 20>
| 21> %MaxCore 64000
| 22>
| 23> %pal nprocs 4
| 24> end
| 25>
| 26> %scf
| 27>   MaxIter 150
| 28> end
| 29>
| 30>
| 31>                          ****END OF INPUT****

CARTESIAN COORDINATES (ANGSTROEM)
---------------------------------
  C      1.635560   -1.670400   -5.292110
  C      0.338480   -1.500910   -4.505400
  N      2.484510   -0.507410   -5.140390
  H      1.398340   -1.829240   -6.352590
  H      2.155860   -2.565400   -4.932090
  C      3.451150   -0.149530   -5.952590
  C      3.922670    1.089560   -5.850710
  N      3.966160   -1.006180   -6.867880
  H      3.521390   -1.906470   -6.995270
  H      4.444820   -0.623470   -7.670350
  H      2.252000    0.240800   -4.498790
  H      3.464280    1.640780   -5.136390
  H      4.834470    1.313750   -6.224650
  H     -0.176580   -0.628810   -4.850450
  H      0.563840   -1.393740   -3.464900
  H     -0.281020   -2.361360   -4.649380

 Total Charge           Charge          ....    0
 Multiplicity           Mult            ....    1
 Number of Electrons    NEL             ....   48
 Basis Dimension        Dim             ....  200

ORBITAL ENERGIES
----------------

  NO   OCC          E(Eh)            E(eV)
   0   2.0000     -14.002719      -381.0334
   1   2.0000     -13.999926      -380.9573
   2   2.0000      -9.937918      -270.4245
   3   2.0000      -9.931825      -270.2587
   4   2.0000      -9.897241      -269.3176
   5   2.0000      -9.806893      -266.8591
   6   2.0000      -0.880910       -23.9708
   7   2.0000      -0.799235       -21.7483
   8   2.0000      -0.703412       -19.1408
   9   2.0000      -0.629891       -17.1402
  10   2.0000      -0.563862       -15.3435
  11   2.0000      -0.539393       -14.6776
  12   2.0000      -0.484153       -13.1745
  13   2.0000      -0.447680       -12.1820
  14   2.0000      -0.431596       -11.7443
  15   2.0000      -0.417754       -11.3677
  16   2.0000      -0.372304       -10.1309
  17   2.0000      -0.350928        -9.5492
  18   2.0000      -0.337030        -9.1711
  19   2.0000      -0.334208        -9.0943
  20   2.0000      -0.331624        -9.0239
  21   2.0000      -0.305769        -8.3204
  22   2.0000      -0.217549        -5.9198
  23   2.0000      -0.131036        -3.5657
  24   0.0000      -0.005182        -0.1410
  25   0.0000       0.014152         0.3851
  26   0.0000       0.021197         0.5768
  27   0.0000       0.037950         1.0327
  28   0.0000       0.053644         1.4597

MULLIKEN ATOMIC CHARGES
-----------------------
   0 C :    0.061796
   1 C :    0.845485
   2 N :   -0.370387
   3 H :   -0.121450
   4 H :   -0.152091
   5 C :    0.565015
   6 C :    0.477330
   7 N :    0.024908
   8 H :   -0.157061
   9 H :   -0.088148
  10 H :   -0.154317
  11 H :   -0.222292
  12 H :   -0.467370
  13 H :   -0.065051
  14 H :   -0.051623
  15 H :   -0.124742
Sum of atomic charges:    0.0000000

LOEWDIN ATOMIC CHARGES
----------------------
   0 C :   -0.014447
   1 C :    0.130563
   2 N :   -0.012364
   3 H :    0.020223
   4 H :    0.020255
   5 C :   -0.246693
   6 C :    0.140848
   7 N :    0.213181
   8 H :   -0.032056
   9 H :    0.000388
  10 H :    0.027077
  11 H :   -0.104715
  12 H :   -0.099458
  13 H :   -0.012899
  14 H :   -0.014291
  15 H :   -0.015612

  Mayer bond orders larger than 0.100000
B(  0-C ,  1-C ) :   1.3193 B(  0-C ,  2-N ) :   0.9485 B(  0-C ,  3-H ) :   0.8676
B(  0-C ,  4-H ) :   0.8784 B(  0-C , 10-H ) :  -0.1272 B(  0-C , 13-H ) :   0.2461
B(  0-C , 14-H ) :   0.2615 B(  0-C , 15-H ) :   0.3150 B(  1-C , 13-H ) :   0.7657
B(  1-C , 14-H ) :   0.7123 B(  1-C , 15-H ) :   0.7196 B(  2-N ,  3-H ) :   0.1769
B(  2-N ,  4-H ) :   0.2189 B(  2-N ,  5-C ) :   1.0998 B(  2-N ,  6-C ) :   0.3058
B(  2-N ,  7-N ) :   0.1541 B(  2-N , 10-H ) :   1.1509 B(  5-C ,  6-C ) :   1.5609
B(  5-C ,  7-N ) :   0.8994 B(  5-C ,  9-H ) :  -0.1078 B(  5-C , 10-H ) :  -0.1777
B(  5-C , 11-H ) :   0.2541 B(  5-C , 12-H ) :   0.2817 B(  6-C ,  7-N ) :   0.2603
B(  6-C , 11-H ) :   0.7933 B(  6-C , 12-H ) :   0.6572 B(  7-N ,  8-H ) :   1.0504
B(  7-N ,  9-H ) :   1.1836 B(  8-H ,  9-H ) :  -0.1448

Dispersion correction           -0.012392279
FINAL SINGLE POINT ENERGY      -267.387093314643

DIPOLE MOMENT
-------------
                                X             Y             Z
Electronic contribution:      2.98406       0.57603      -1.28443
Nuclear contribution   :     -3.69145      -1.49398       1.19810
                        -----------------------------------------
Total Dipole Moment    :     -0.70739      -0.91795      -0.08633
                        -----------------------------------------
Magnitude (a.u.)       :      1.16210
Magnitude (Debye)      :      2.95383

Rotational constants in cm-1:     0.270790     0.068966     0.056679
Rotational constants in MHz :  8118.084803  2067.559423  1699.196934

                             ****ORCA TERMINATED NORMALLY****
TOTAL RUN TIME: 0 days 0 hours 0 minutes 12 seconds 928 msec
