                         Program Version 5.0.0 -  RELEASE  -
|  1> !PBE D3BJ RIJCOSX def2-SVPD def2/J TightSCF
|  2> *xyz 0 1
|  3> C          1.63556       -1.67040       -5.29211
|  4> C          0.33848       -1.50091       -4.50540
|  5> N          2.48451       -0.50741       -5.14039
|  6> H          1.39834       -1.82924       -6.35259
|  7> H          2.15586       -2.56540       -4.93209
|  8> C          3.45115       -0.14953       -5.95259
|  9> N          3.92267        1.08956       -5.85071
| 10> C          3.96616       -1.00618       -6.86788
| 11> H          3.52139       -1.90647       -6.99527
| 12> H          4.44482       -0.62347       -7.67035
| 13> H          2.25200        0.24080       -4.49879
| 14> H          3.46428        1.64078       -5.13639
| 15> H          4.83447        1.31375       -6.22465
| 16> H         -0.17658       -0.62881       -4.85045
| 17> H          0.56384       -1.39374       -3.46490
| 18> H         -0.28102       -2.36136       -4.64938
| 19> *
| 20>
| 21> %MaxCore 64000
| 22>
| 23> %pal nprocs 4
| 24> end
| 25>
| 26> %scf
| 27>   MaxIter 150
| 28> end
| 29>
| 30>
| 31>                          ****END OF INPUT****

CARTESIAN COORDINATES (ANGSTROEM)
---------------------------------
  C      1.635560   -1.670400   -5.292110
  C      0.338480   -1.500910   -4.505400
  N      2.484510   -0.507410   -5.140390
  H      1.398340   -1.829240   -6.352590
  H      2.155860   -2.565400   -4.932090
  C      3.451150   -0.149530   -5.952590
  N      3.922670    1.089560   -5.850710
  C      3.966160   -1.006180   -6.867880
  H      3.521390   -1.906470   -6.995270
  H      4.444820   -0.623470   -7.670350
  H      2.252000    0.240800   -4.498790
  H      3.464280    1.640780   -5.136390
  H      4.834470    1.313750   -6.224650
  H     -0.176580   -0.628810   -4.850450
  H      0.563840   -1.393740   -3.464900
  H     -0.281020   -2.361360   -4.649380

 Total Charge           Charge          ....    0
 Multiplicity           Mult            ....    1
 Number of Electrons    NEL             ....   48
 Basis Dimension        Dim             ....  200

ORBITAL ENERGIES
----------------

  NO   OCC          E(Eh)            E(eV)
   0   2.0000     -14.008954      -381.2030
   1   2.0000     -14.002122      -381.0171
   2   2.0000      -9.933374      -270.3008
   3   2.0000      -9.931297      -270.2443
   4   2.0000      -9.893516      -269.2163
   5   2.0000      -9.809325      -266.9253
   6   2.0000      -0.889207       -24.1966
   7   2.0000      -0.804268       -21.8853
   8   2.0000      -0.690236       -18.7823
   9   2.0000      -0.630513       -17.1571
  10   2.0000      -0.581366       -15.8198
  11   2.0000      -0.511741       -13.9252
  12   2.0000      -0.485332       -13.2066
  13   2.0000      -0.473083       -12.8732
  14   2.0000      -0.426732       -11.6120
  15   2.0000      -0.420864       -11.4523
  16   2.0000      -0.356143        -9.6911
  17   2.0000      -0.351678        -9.5697
  18   2.0000      -0.347974        -9.4688
  19   2.0000      -0.327567        -8.9135
  20   2.0000      -0.319466        -8.6931
  21   2.0000      -0.306802        -8.3485
  22   2.0000      -0.212263        -5.7760
  23   2.0000      -0.136156        -3.7050
  24   0.0000      -0.009027        -0.2456
  25   0.0000       0.010008         0.2723
  26   0.0000       0.027693         0.7536
  27   0.0000       0.039980         1.0879
  28   0.0000       0.050663         1.3786

MULLIKEN ATOMIC CHARGES
-----------------------
   0 C :    0.081517
   1 C :    0.853500
   2 N :   -0.396740
   3 H :   -0.072843
   4 H :   -0.109139
   5 C :    0.453038
   6 N :    0.113529
   7 C :    0.438076
   8 H :   -0.116901
   9 H :   -0.457369
  10 H :   -0.275418
  11 H :   -0.137309
  12 H :   -0.126471
  13 H :   -0.063403
  14 H :   -0.058387
  15 H :   -0.125680
Sum of atomic charges:   -0.0000000

LOEWDIN ATOMIC CHARGES
----------------------
   0 C :   -0.001373
   1 C :    0.128028
   2 N :   -0.012990
   3 H :    0.027803
   4 H :    0.028686
   5 C :   -0.256795
   6 N :    0.197697
   7 C :    0.163632
   8 H :   -0.123420
   9 H :   -0.108028
  10 H :    0.014645
  11 H :   -0.017900
  12 H :    0.008612
  13 H :   -0.016142
  14 H :   -0.017585
  15 H :   -0.014869

  Mayer bond orders larger than 0.100000
B(  0-C ,  1-C ) :   1.3109 B(  0-C ,  2-N ) :   0.9824 B(  0-C ,  3-H ) :   0.8504
B(  0-C ,  4-H ) :   0.8666 B(  0-C , 10-H ) :  -0.1191 B(  0-C , 13-H ) :   0.2283
B(  0-C , 14-H ) :   0.2641 B(  0-C , 15-H ) :   0.3098 B(  1-C , 13-H ) :   0.7752
B(  1-C , 14-H ) :   0.7010 B(  1-C , 15-H ) :   0.7172 B(  2-N ,  3-H ) :   0.1979
B(  2-N ,  4-H ) :   0.1847 B(  2-N ,  5-C ) :   1.1050 B(  2-N ,  6-N ) :   0.2242
B(  2-N ,  7-C ) :   0.3515 B(  2-N , 10-H ) :   1.2236 B(  5-C ,  6-N ) :   0.9197
B(  5-C ,  7-C ) :   1.7132 B(  5-C ,  8-H ) :   0.3123 B(  5-C ,  9-H ) :   0.2292
B(  5-C , 10-H ) :  -0.2426 B(  6-N ,  7-C ) :   0.2850 B(  6-N , 11-H ) :   1.0830
B(  6-N , 12-H ) :   1.2144 B(  7-C ,  8-H ) :   0.6407 B(  7-C ,  9-H ) :   0.7606
B(  8-H ,  9-H ) :   0.2099 B( 11-H , 12-H ) :  -0.1346

Dispersion correction           -0.012435794
FINAL SINGLE POINT ENERGY      -267.387995485190

DIPOLE MOMENT
-------------
                                X             Y             Z
Electronic contribution:      3.05159       2.61014      -0.22512
Nuclear contribution   :     -3.68222      -1.93858       0.98231
                        -----------------------------------------
Total Dipole Moment    :     -0.63063       0.67156       0.75719
                        -----------------------------------------
Magnitude (a.u.)       :      1.19249
Magnitude (Debye)      :      3.03107

Rotational constants in cm-1:     0.275407     0.068040     0.056255
Rotational constants in MHz :  8256.498401  2039.796466  1686.484500

                             ****ORCA TERMINATED NORMALLY****
TOTAL RUN TIME: 0 days 0 hours 0 minutes 12 seconds 388 msec
