                         Program Version 5.0.0 -  RELEASE  -
|  1> !PBE D3BJ RIJCOSX def2-SVPD def2/J TightSCF xyzfile
|  2>
|  3> *xyzfile 0 1 D1.xyz
|  4>
|  5> %MaxCore 64000
|  6>
|  7> %pal nprocs 4
|  8> end
|  9>
| 10> %scf
| 11>   MaxIter 150
| 12> end
| 13>
| 14>
| 15>                          ****END OF INPUT****

CARTESIAN COORDINATES (ANGSTROEM)
---------------------------------
  C      1.635557   -1.670396   -5.292109
  C      0.338484   -1.500907   -4.505398
  C      2.484511   -0.507410   -5.140392
  C     -0.684873   -0.528026   -5.099889
  C     -0.290406    0.951335   -5.153423
  H      0.607991    1.070692   -5.764412
  C     -0.055168    1.619420   -3.788577
  H     -1.080912    1.483775   -5.689436
  H      0.045006    0.862302   -3.003015
  H     -0.922936    2.230329   -3.517028
  C      1.223022    2.469865   -3.756911
  H      1.114701    3.258074   -4.532999
  H      1.237732    3.011242   -2.792157
  F      2.353815    1.712032   -3.934477
  H      1.398337   -1.829239   -6.352591
  H      2.155864   -2.565398   -4.932091
  C      3.451149   -0.149530   -5.952589
  N      3.922667    1.089559   -5.850711
  N      3.966162   -1.006183   -6.867880
  H      3.521391   -1.906467   -6.995270
  H      4.444824   -0.623472   -7.670348
  H      2.251995    0.240804   -4.498792
  H      3.464277    1.640782   -5.136392
  H      4.834470    1.313745   -6.224653
  H     -0.937999   -0.869056   -6.110838
  H     -1.604638   -0.622496   -4.513132
  H      0.594887   -1.211578   -3.482312
  H     -0.126530   -2.487656   -4.434176

 Total Charge           Charge          ....    0
 Multiplicity           Mult            ....    1
 Number of Electrons    NEL             ....   88
 Basis Dimension        Dim             ....  359

ORBITAL ENERGIES
----------------

  NO   OCC          E(Eh)            E(eV)
   0   2.0000     -24.292447      -661.0311
   1   2.0000     -13.988468      -380.6456
   2   2.0000     -13.972972      -380.2239
   3   2.0000      -9.982770      -271.6450
   4   2.0000      -9.911312      -269.7005
   5   2.0000      -9.903285      -269.4821
   6   2.0000      -9.886287      -269.0195
   7   2.0000      -9.883328      -268.9390
   8   2.0000      -9.874022      -268.6858
   9   2.0000      -9.863991      -268.4129
  10   2.0000      -9.794782      -266.5296
  11   2.0000      -1.120749       -30.4971
  12   2.0000      -0.851884       -23.1810
  13   2.0000      -0.770899       -20.9772
  14   2.0000      -0.729845       -19.8601
  15   2.0000      -0.698427       -19.0052
  16   2.0000      -0.652051       -17.7432
  17   2.0000      -0.620440       -16.8830
  18   2.0000      -0.574130       -15.6229
  19   2.0000      -0.543636       -14.7931
  20   2.0000      -0.521336       -14.1863
  21   2.0000      -0.495463       -13.4822
  22   2.0000      -0.481362       -13.0985
  23   2.0000      -0.470413       -12.8006
  24   2.0000      -0.453478       -12.3398
  25   2.0000      -0.448739       -12.2108
  26   2.0000      -0.431896       -11.7525
  27   2.0000      -0.409313       -11.1380
  28   2.0000      -0.393163       -10.6985
  29   2.0000      -0.390772       -10.6334
  30   2.0000      -0.371011       -10.0957
  31   2.0000      -0.355036        -9.6610
  32   2.0000      -0.343579        -9.3493
  33   2.0000      -0.333531        -9.0758
  34   2.0000      -0.318376        -8.6634
  35   2.0000      -0.313286        -8.5249
  36   2.0000      -0.306683        -8.3453
  37   2.0000      -0.294690        -8.0189
  38   2.0000      -0.278683        -7.5833
  39   2.0000      -0.269025        -7.3205
  40   2.0000      -0.263711        -7.1759
  41   2.0000      -0.250545        -6.8177
  42   2.0000      -0.206635        -5.6228
  43   2.0000      -0.117319        -3.1924
  44   0.0000       0.000369         0.0100
  45   0.0000       0.008688         0.2364
  46   0.0000       0.017198         0.4680
  47   0.0000       0.026769         0.7284
  48   0.0000       0.032723         0.8904

MULLIKEN ATOMIC CHARGES
-----------------------
   0 C :    0.386980
   1 C :    0.326068
   2 C :   -0.088100
   3 C :    0.203854
   4 C :    0.073456
   5 H :    0.037562
   6 C :    0.007797
   7 H :   -0.276389
   8 H :    0.005699
   9 H :   -0.251817
  10 C :    1.060844
  11 H :   -0.084188
  12 H :   -0.106992
  13 F :   -0.733036
  14 H :    0.038277
  15 H :   -0.185076
  16 C :    0.566320
  17 N :    0.181077
  18 N :   -0.091884
  19 H :   -0.045253
  20 H :   -0.171758
  21 H :   -0.308717
  22 H :   -0.008085
  23 H :   -0.320325
  24 H :    0.102918
  25 H :   -0.120530
  26 H :    0.029743
  27 H :   -0.228444
Sum of atomic charges:    0.0000000

LOEWDIN ATOMIC CHARGES
----------------------
   0 C :   -0.061125
   1 C :   -0.040549
   2 C :   -0.020965
   3 C :   -0.025673
   4 C :   -0.024011
   5 H :    0.011327
   6 C :   -0.002481
   7 H :    0.016964
   8 H :    0.017990
   9 H :    0.028922
  10 C :    0.143511
  11 H :    0.044405
  12 H :    0.034214
  13 F :   -0.196262
  14 H :    0.016618
  15 H :    0.016349
  16 C :   -0.214913
  17 N :    0.207792
  18 N :    0.214386
  19 H :   -0.021900
  20 H :   -0.021325
  21 H :   -0.111150
  22 H :   -0.070564
  23 H :   -0.014378
  24 H :    0.023776
  25 H :    0.019237
  26 H :    0.014200
  27 H :    0.015605

  Mayer bond orders larger than 0.100000
B(  0-C ,  1-C ) :   1.2071 B(  0-C ,  2-C ) :   0.7560 B(  0-C , 14-H ) :   0.7584
B(  0-C , 15-H ) :   0.5962 B(  0-C , 21-H ) :   0.4933 B(  0-C , 26-H ) :   0.1549
B(  0-C , 27-H ) :   0.2366 B(  1-C ,  2-C ) :   0.2501 B(  1-C ,  3-C ) :   1.2487
B(  1-C , 21-H ) :  -0.1392 B(  1-C , 24-H ) :   0.1727 B(  1-C , 25-H ) :   0.2009
B(  1-C , 26-H ) :   0.6843 B(  1-C , 27-H ) :   0.7145 B(  2-C , 14-H ) :   0.2187
B(  2-C , 15-H ) :   0.3776 B(  2-C , 16-C ) :   1.7514 B(  2-C , 17-N ) :   0.4707
B(  2-C , 18-N ) :   0.3328 B(  2-C , 19-H ) :  -0.1678 B(  2-C , 21-H ) :   0.3597
B(  2-C , 27-H ) :   0.1000 B(  3-C ,  4-C ) :   1.3137 B(  3-C ,  5-H ) :   0.1641
B(  3-C ,  7-H ) :   0.1574 B(  3-C , 24-H ) :   0.6381 B(  3-C , 25-H ) :   0.8075
B(  3-C , 26-H ) :   0.1675 B(  3-C , 27-H ) :   0.1639 B(  4-C ,  5-H ) :   0.7885
B(  4-C ,  6-C ) :   1.2268 B(  4-C ,  7-H ) :   0.8013 B(  4-C ,  8-H ) :   0.1373
B(  4-C ,  9-H ) :   0.1693 B(  4-C , 24-H ) :   0.2195 B(  4-C , 25-H ) :   0.1270
B(  5-H ,  7-H ) :  -0.1167 B(  5-H , 21-H ) :   0.1593 B(  6-C ,  8-H ) :   0.8413
B(  6-C ,  9-H ) :   0.9161 B(  6-C , 10-C ) :   1.1808 B(  6-C , 11-H ) :   0.1209
B(  6-C , 12-H ) :   0.1895 B(  6-C , 13-F ) :   0.1592 B(  7-H , 21-H ) :  -0.1273
B(  8-H , 26-H ) :   0.1093 B( 10-C , 11-H ) :   0.7852 B( 10-C , 12-H ) :   0.7461
B( 10-C , 13-F ) :   0.6632 B( 11-H , 13-F ) :   0.2924 B( 13-F , 22-H ) :   0.1343
B( 14-H , 21-H ) :   0.1280 B( 14-H , 25-H ) :  -0.1012 B( 16-C , 17-N ) :   0.6994
B( 16-C , 18-N ) :   0.8911 B( 16-C , 21-H ) :   0.2106 B( 16-C , 23-H ) :  -0.1997
B( 17-N , 18-N ) :   0.1364 B( 17-N , 22-H ) :   1.0464 B( 17-N , 23-H ) :   1.3321
B( 18-N , 19-H ) :   1.0806 B( 18-N , 20-H ) :   1.2358 B( 18-N , 21-H ) :  -0.1497
B( 19-H , 20-H ) :  -0.1399 B( 21-H , 22-H ) :  -0.1120 B( 21-H , 27-H ) :  -0.1270
B( 22-H , 23-H ) :  -0.1889 B( 26-H , 27-H ) :  -0.1132

Dispersion correction           -0.029029259
FINAL SINGLE POINT ENERGY      -523.386542803766

DIPOLE MOMENT
-------------
                                X             Y             Z
Electronic contribution:      7.86624       3.82017       1.14933
Nuclear contribution   :     -8.11591      -2.99033      -1.35383
                        -----------------------------------------
Total Dipole Moment    :     -0.24967       0.82984      -0.20450
                        -----------------------------------------
Magnitude (a.u.)       :      0.89039
Magnitude (Debye)      :      2.26318

Rotational constants in cm-1:     0.043530     0.028984     0.019589
Rotational constants in MHz :  1305.007140   868.923804   587.262638

                             ****ORCA TERMINATED NORMALLY****
TOTAL RUN TIME: 0 days 0 hours 0 minutes 29 seconds 910 msec
