                         Program Version 5.0.0 -  RELEASE  -
|  1> !PBE D3BJ RIJCOSX def2-SVPD def2/J TightSCF xyzfile
|  2>
|  3> *xyzfile 0 1 D2.xyz
|  4>
|  5> %MaxCore 64000
|  6>
|  7> %pal nprocs 4
|  8> end
|  9>
| 10> %scf
| 11>   MaxIter 150
| 12> end
| 13>
| 14>
| 15>                          ****END OF INPUT****

CARTESIAN COORDINATES (ANGSTROEM)
---------------------------------
  C      1.635557   -1.670396   -5.292109
  C      0.338484   -1.500907   -4.505398
  N      2.484511   -0.507410   -5.140392
  C     -0.684873   -0.528026   -5.099889
  C     -0.290406    0.951335   -5.153423
  H      0.607991    1.070692   -5.764412
  C     -0.055168    1.619420   -3.788577
  H     -1.080912    1.483775   -5.689436
  H      0.045006    0.862302   -3.003015
  H     -0.922936    2.230329   -3.517028
  C      1.223022    2.469865   -3.756911
  H      1.114701    3.258074   -4.532999
  H      1.237732    3.011242   -2.792157
  F      2.353815    1.712032   -3.934477
  H      1.398337   -1.829239   -6.352591
  H      2.155864   -2.565398   -4.932091
  C      3.451149   -0.149530   -5.952589
  C      3.922667    1.089559   -5.850711
  N      3.966162   -1.006183   -6.867880
  H      3.521391   -1.906467   -6.995270
  H      4.444824   -0.623472   -7.670348
  H      2.251995    0.240804   -4.498792
  H      3.464277    1.640782   -5.136392
  H      4.834470    1.313745   -6.224653
  H     -0.937999   -0.869056   -6.110838
  H     -1.604638   -0.622496   -4.513132
  H      0.594887   -1.211578   -3.482312
  H     -0.126530   -2.487656   -4.434176

 Total Charge           Charge          ....    0
 Multiplicity           Mult            ....    1
 Number of Electrons    NEL             ....   88
 Basis Dimension        Dim             ....  359

ORBITAL ENERGIES
----------------

  NO   OCC          E(Eh)            E(eV)
   0   2.0000     -24.293722      -661.0658
   1   2.0000     -13.985821      -380.5735
   2   2.0000     -13.975659      -380.2970
   3   2.0000      -9.984431      -271.6902
   4   2.0000      -9.923931      -270.0439
   5   2.0000      -9.914469      -269.7864
   6   2.0000      -9.911925      -269.7172
   7   2.0000      -9.901049      -269.4212
   8   2.0000      -9.900640      -269.4101
   9   2.0000      -9.898843      -269.3612
  10   2.0000      -9.782538      -266.1964
  11   2.0000      -1.121598       -30.5202
  12   2.0000      -0.863713       -23.5028
  13   2.0000      -0.785197       -21.3663
  14   2.0000      -0.740251       -20.1433
  15   2.0000      -0.701166       -19.0797
  16   2.0000      -0.664515       -18.0824
  17   2.0000      -0.613838       -16.7034
  18   2.0000      -0.584916       -15.9164
  19   2.0000      -0.558001       -15.1840
  20   2.0000      -0.526041       -14.3143
  21   2.0000      -0.508987       -13.8502
  22   2.0000      -0.490535       -13.3481
  23   2.0000      -0.465183       -12.6583
  24   2.0000      -0.456830       -12.4310
  25   2.0000      -0.449377       -12.2282
  26   2.0000      -0.436732       -11.8841
  27   2.0000      -0.422336       -11.4924
  28   2.0000      -0.403748       -10.9866
  29   2.0000      -0.395837       -10.7713
  30   2.0000      -0.376542       -10.2462
  31   2.0000      -0.363552        -9.8927
  32   2.0000      -0.354204        -9.6384
  33   2.0000      -0.335292        -9.1238
  34   2.0000      -0.329138        -8.9563
  35   2.0000      -0.319609        -8.6970
  36   2.0000      -0.309380        -8.4187
  37   2.0000      -0.305746        -8.3198
  38   2.0000      -0.292621        -7.9626
  39   2.0000      -0.284757        -7.7486
  40   2.0000      -0.280044        -7.6204
  41   2.0000      -0.277316        -7.5462
  42   2.0000      -0.200396        -5.4531
  43   2.0000      -0.114548        -3.1170
  44   0.0000      -0.004628        -0.1259
  45   0.0000       0.005560         0.1513
  46   0.0000       0.015017         0.4086
  47   0.0000       0.018923         0.5149
  48   0.0000       0.031163         0.8480

MULLIKEN ATOMIC CHARGES
-----------------------
   0 C :    0.703634
   1 C :    0.134953
   2 N :   -0.142630
   3 C :    0.213103
   4 C :    0.075502
   5 H :    0.111767
   6 C :   -0.014408
   7 H :   -0.318743
   8 H :   -0.031721
   9 H :   -0.185828
  10 C :    1.015118
  11 H :   -0.081720
  12 H :   -0.107018
  13 F :   -0.796894
  14 H :   -0.026119
  15 H :   -0.250604
  16 C :    0.693393
  17 C :    0.660539
  18 N :   -0.001780
  19 H :   -0.096617
  20 H :   -0.103966
  21 H :   -0.392395
  22 H :   -0.233721
  23 H :   -0.596079
  24 H :    0.101048
  25 H :   -0.119831
  26 H :   -0.003272
  27 H :   -0.205712
Sum of atomic charges:    0.0000000

LOEWDIN ATOMIC CHARGES
----------------------
   0 C :    0.038468
   1 C :   -0.026823
   2 N :    0.012105
   3 C :   -0.028034
   4 C :   -0.023016
   5 H :    0.012300
   6 C :   -0.004696
   7 H :    0.020305
   8 H :    0.015565
   9 H :    0.030577
  10 C :    0.145845
  11 H :    0.048210
  12 H :    0.036077
  13 F :   -0.193919
  14 H :    0.019887
  15 H :    0.017455
  16 C :   -0.225308
  17 C :    0.163250
  18 N :    0.210717
  19 H :   -0.034991
  20 H :   -0.003010
  21 H :   -0.059997
  22 H :   -0.155045
  23 H :   -0.100194
  24 H :    0.025179
  25 H :    0.022419
  26 H :    0.014557
  27 H :    0.022119

  Mayer bond orders larger than 0.100000
B(  0-C ,  1-C ) :   1.2236 B(  0-C ,  2-N ) :   0.9573 B(  0-C , 14-H ) :   0.7342
B(  0-C , 15-H ) :   0.8202 B(  0-C , 21-H ) :  -0.1884 B(  0-C , 26-H ) :   0.1388
B(  0-C , 27-H ) :   0.2241 B(  1-C ,  2-N ) :   0.1109 B(  1-C ,  3-C ) :   1.2415
B(  1-C , 24-H ) :   0.1765 B(  1-C , 25-H ) :   0.2109 B(  1-C , 26-H ) :   0.7479
B(  1-C , 27-H ) :   0.7596 B(  2-N , 14-H ) :   0.3591 B(  2-N , 15-H ) :   0.2350
B(  2-N , 16-C ) :   0.9784 B(  2-N , 17-C ) :   0.3981 B(  2-N , 18-N ) :   0.1751
B(  2-N , 21-H ) :   1.0083 B(  3-C ,  4-C ) :   1.3254 B(  3-C ,  5-H ) :   0.1544
B(  3-C ,  7-H ) :   0.1484 B(  3-C , 24-H ) :   0.6366 B(  3-C , 25-H ) :   0.8133
B(  3-C , 26-H ) :   0.1633 B(  3-C , 27-H ) :   0.1500 B(  4-C ,  5-H ) :   0.8245
B(  4-C ,  6-C ) :   1.2150 B(  4-C ,  7-H ) :   0.7963 B(  4-C ,  8-H ) :   0.1312
B(  4-C ,  9-H ) :   0.1806 B(  4-C , 24-H ) :   0.2311 B(  4-C , 25-H ) :   0.1414
B(  5-H ,  7-H ) :  -0.1117 B(  6-C ,  8-H ) :   0.8606 B(  6-C ,  9-H ) :   0.8942
B(  6-C , 10-C ) :   1.1784 B(  6-C , 11-H ) :   0.1083 B(  6-C , 12-H ) :   0.1892
B(  6-C , 13-F ) :   0.1489 B( 10-C , 11-H ) :   0.8168 B( 10-C , 12-H ) :   0.7674
B( 10-C , 13-F ) :   0.6914 B( 11-H , 13-F ) :   0.2274 B( 13-F , 22-H ) :   0.2149
B( 14-H , 25-H ) :  -0.1082 B( 16-C , 17-C ) :   1.4495 B( 16-C , 18-N ) :   0.7710
B( 16-C , 20-H ) :  -0.1498 B( 16-C , 21-H ) :  -0.4141 B( 16-C , 22-H ) :   0.3186
B( 16-C , 23-H ) :   0.4302 B( 17-C , 18-N ) :   0.3450 B( 17-C , 22-H ) :   0.5166
B( 17-C , 23-H ) :   0.4415 B( 18-N , 19-H ) :   0.9967 B( 18-N , 20-H ) :   1.2222
B( 19-H , 20-H ) :  -0.1538 B( 21-H , 22-H ) :  -0.1261 B( 24-H , 25-H ) :  -0.1002

Dispersion correction           -0.028834865
FINAL SINGLE POINT ENERGY      -523.376566934247

DIPOLE MOMENT
-------------
                                X             Y             Z
Electronic contribution:      6.39562       2.44910       1.71234
Nuclear contribution   :     -7.85451      -2.70006      -1.48294
                        -----------------------------------------
Total Dipole Moment    :     -1.45889      -0.25096       0.22940
                        -----------------------------------------
Magnitude (a.u.)       :      1.49798
Magnitude (Debye)      :      3.80757

Rotational constants in cm-1:     0.044065     0.029250     0.019826
Rotational constants in MHz :  1321.026981   876.903192   594.367265

                             ****ORCA TERMINATED NORMALLY****
TOTAL RUN TIME: 0 days 0 hours 0 minutes 29 seconds 165 msec
