                         Program Version 5.0.0 -  RELEASE  -
|  1> !PBE D3BJ RIJCOSX def2-SVPD def2/J TightSCF xyzfile
|  2>
|  3> *xyzfile 0 1 D3.xyz
|  4>
|  5> %MaxCore 64000
|  6>
|  7> %pal nprocs 4
|  8> end
|  9>
| 10> %scf
| 11>   MaxIter 150
| 12> end
| 13>
| 14>
| 15>                          ****END OF INPUT****

CARTESIAN COORDINATES (ANGSTROEM)
---------------------------------
  C      1.635557   -1.670396   -5.292109
  C      0.338484   -1.500907   -4.505398
  N      2.484511   -0.507410   -5.140392
  C     -0.684873   -0.528026   -5.099889
  C     -0.290406    0.951335   -5.153423
  H      0.607991    1.070692   -5.764412
  C     -0.055168    1.619420   -3.788577
  H     -1.080912    1.483775   -5.689436
  H      0.045006    0.862302   -3.003015
  H     -0.922936    2.230329   -3.517028
  C      1.223022    2.469865   -3.756911
  H      1.114701    3.258074   -4.532999
  H      1.237732    3.011242   -2.792157
  F      2.353815    1.712032   -3.934477
  H      1.398337   -1.829239   -6.352591
  H      2.155864   -2.565398   -4.932091
  C      3.451149   -0.149530   -5.952589
  N      3.922667    1.089559   -5.850711
  C      3.966162   -1.006183   -6.867880
  H      3.521391   -1.906467   -6.995270
  H      4.444824   -0.623472   -7.670348
  H      2.251995    0.240804   -4.498792
  H      3.464277    1.640782   -5.136392
  H      4.834470    1.313745   -6.224653
  H     -0.937999   -0.869056   -6.110838
  H     -1.604638   -0.622496   -4.513132
  H      0.594887   -1.211578   -3.482312
  H     -0.126530   -2.487656   -4.434176

 Total Charge           Charge          ....    0
 Multiplicity           Mult            ....    1
 Number of Electrons    NEL             ....   88
 Basis Dimension        Dim             ....  359

ORBITAL ENERGIES
----------------

  NO   OCC          E(Eh)            E(eV)
   0   2.0000     -24.321239      -661.8146
   1   2.0000     -13.979022      -380.3885
   2   2.0000     -13.974509      -380.2657
   3   2.0000     -10.001437      -272.1529
   4   2.0000      -9.921597      -269.9804
   5   2.0000      -9.916745      -269.8483
   6   2.0000      -9.914570      -269.7892
   7   2.0000      -9.904752      -269.5220
   8   2.0000      -9.901610      -269.4365
   9   2.0000      -9.898685      -269.3569
  10   2.0000      -9.792259      -266.4609
  11   2.0000      -1.148075       -31.2407
  12   2.0000      -0.868318       -23.6281
  13   2.0000      -0.785531       -21.3754
  14   2.0000      -0.745171       -20.2771
  15   2.0000      -0.704659       -19.1748
  16   2.0000      -0.658029       -17.9059
  17   2.0000      -0.622181       -16.9304
  18   2.0000      -0.592758       -16.1298
  19   2.0000      -0.571066       -15.5395
  20   2.0000      -0.520468       -14.1627
  21   2.0000      -0.515037       -14.0149
  22   2.0000      -0.501190       -13.6381
  23   2.0000      -0.476964       -12.9788
  24   2.0000      -0.473817       -12.8932
  25   2.0000      -0.446796       -12.1579
  26   2.0000      -0.440124       -11.9764
  27   2.0000      -0.425601       -11.5812
  28   2.0000      -0.414729       -11.2854
  29   2.0000      -0.391899       -10.6641
  30   2.0000      -0.381757       -10.3881
  31   2.0000      -0.371038       -10.0965
  32   2.0000      -0.356177        -9.6921
  33   2.0000      -0.335273        -9.1232
  34   2.0000      -0.332740        -9.0543
  35   2.0000      -0.321348        -8.7443
  36   2.0000      -0.315972        -8.5980
  37   2.0000      -0.310417        -8.4469
  38   2.0000      -0.299884        -8.1603
  39   2.0000      -0.294551        -8.0151
  40   2.0000      -0.285350        -7.7648
  41   2.0000      -0.280966        -7.6455
  42   2.0000      -0.191002        -5.1974
  43   2.0000      -0.118971        -3.2374
  44   0.0000      -0.010416        -0.2834
  45   0.0000       0.005718         0.1556
  46   0.0000       0.010464         0.2847
  47   0.0000       0.014354         0.3906
  48   0.0000       0.024686         0.6717

MULLIKEN ATOMIC CHARGES
-----------------------
   0 C :    0.692958
   1 C :    0.152147
   2 N :    0.179723
   3 C :    0.219212
   4 C :    0.173111
   5 H :   -0.025730
   6 C :   -0.026182
   7 H :   -0.297895
   8 H :   -0.024247
   9 H :   -0.177846
  10 C :    1.022728
  11 H :   -0.086385
  12 H :   -0.109348
  13 F :   -0.799326
  14 H :    0.020163
  15 H :   -0.241704
  16 C :    0.368402
  17 N :    0.415091
  18 C :    0.446176
  19 H :   -0.053925
  20 H :   -0.426455
  21 H :   -0.676662
  22 H :   -0.251197
  23 H :   -0.242576
  24 H :    0.110032
  25 H :   -0.121250
  26 H :   -0.023760
  27 H :   -0.215255
Sum of atomic charges:   -0.0000000

LOEWDIN ATOMIC CHARGES
----------------------
   0 C :    0.050392
   1 C :   -0.027060
   2 N :    0.013236
   3 C :   -0.026855
   4 C :   -0.023613
   5 H :    0.011551
   6 C :   -0.002721
   7 H :    0.020678
   8 H :    0.017307
   9 H :    0.032809
  10 C :    0.146141
  11 H :    0.048755
  12 H :    0.038618
  13 F :   -0.185896
  14 H :    0.026617
  15 H :    0.025497
  16 C :   -0.241091
  17 N :    0.217355
  18 C :    0.159153
  19 H :   -0.127749
  20 H :   -0.112428
  21 H :   -0.068349
  22 H :   -0.083470
  23 H :    0.006391
  24 H :    0.027310
  25 H :    0.022343
  26 H :    0.011813
  27 H :    0.023265

  Mayer bond orders larger than 0.100000
B(  0-C ,  1-C ) :   1.2168 B(  0-C ,  2-N ) :   1.0335 B(  0-C , 14-H ) :   0.7340
B(  0-C , 15-H ) :   0.8321 B(  0-C , 18-C ) :   0.1023 B(  0-C , 21-H ) :  -0.2023
B(  0-C , 26-H ) :   0.1345 B(  0-C , 27-H ) :   0.2097 B(  1-C ,  2-N ) :   0.1336
B(  1-C ,  3-C ) :   1.2425 B(  1-C , 24-H ) :   0.1760 B(  1-C , 25-H ) :   0.2166
B(  1-C , 26-H ) :   0.7389 B(  1-C , 27-H ) :   0.7774 B(  2-N , 13-F ) :  -0.1141
B(  2-N , 14-H ) :   0.2912 B(  2-N , 15-H ) :   0.1751 B(  2-N , 16-C ) :   1.3262
B(  2-N , 17-N ) :   0.1167 B(  2-N , 18-C ) :   0.2305 B(  2-N , 21-H ) :   0.7867
B(  3-C ,  4-C ) :   1.3195 B(  3-C ,  5-H ) :   0.1677 B(  3-C ,  7-H ) :   0.1551
B(  3-C , 24-H ) :   0.6390 B(  3-C , 25-H ) :   0.8138 B(  3-C , 26-H ) :   0.1595
B(  3-C , 27-H ) :   0.1420 B(  4-C ,  5-H ) :   0.8122 B(  4-C ,  6-C ) :   1.2078
B(  4-C ,  7-H ) :   0.7570 B(  4-C ,  8-H ) :   0.1362 B(  4-C ,  9-H ) :   0.1759
B(  4-C , 24-H ) :   0.2244 B(  4-C , 25-H ) :   0.1281 B(  5-H ,  6-C ) :   0.1067
B(  6-C ,  8-H ) :   0.8628 B(  6-C ,  9-H ) :   0.8968 B(  6-C , 10-C ) :   1.1809
B(  6-C , 11-H ) :   0.1173 B(  6-C , 12-H ) :   0.1849 B(  6-C , 13-F ) :   0.1428
B( 10-C , 11-H ) :   0.8088 B( 10-C , 12-H ) :   0.7700 B( 10-C , 13-F ) :   0.6720
B( 11-H , 13-F ) :   0.2440 B( 13-F , 21-H ) :   0.1207 B( 13-F , 22-H ) :   0.2274
B( 14-H , 25-H ) :  -0.1068 B( 16-C , 17-N ) :   0.8417 B( 16-C , 18-C ) :   1.7289
B( 16-C , 19-H ) :   0.3515 B( 16-C , 20-H ) :   0.2571 B( 16-C , 21-H ) :  -0.4545
B( 16-C , 23-H ) :  -0.1743 B( 17-N , 18-C ) :   0.2388 B( 17-N , 22-H ) :   0.9775
B( 17-N , 23-H ) :   1.3159 B( 18-C , 19-H ) :   0.5887 B( 18-C , 20-H ) :   0.7332
B( 19-H , 20-H ) :   0.2142 B( 22-H , 23-H ) :  -0.1758 B( 24-H , 25-H ) :  -0.1013

Dispersion correction           -0.028790475
FINAL SINGLE POINT ENERGY      -523.388304170380

DIPOLE MOMENT
-------------
                                X             Y             Z
Electronic contribution:      6.30044       4.42645       2.79535
Nuclear contribution   :     -7.84660      -3.08098      -1.66782
                        -----------------------------------------
Total Dipole Moment    :     -1.54616       1.34547       1.12753
                        -----------------------------------------
Magnitude (a.u.)       :      2.33928
Magnitude (Debye)      :      5.94597

Rotational constants in cm-1:     0.043547     0.029898     0.020008
Rotational constants in MHz :  1305.520367   896.323854   599.829375

                             ****ORCA TERMINATED NORMALLY****
TOTAL RUN TIME: 0 days 0 hours 0 minutes 29 seconds 177 msec
