                         Program Version 5.0.0 -  RELEASE  -
|  1> !LC-BLYP RIJCOSX def2-TZVP def2/J TightSCF
|  2> *xyz -1 1
|  3> C          4.93020       -7.37532       -2.64962
|  4> C          3.84189       -6.95161       -3.63283
|  5> H          3.45814       -5.95442       -3.40712
|  6> H          2.98848       -7.64361       -3.56708
|  7> S          4.31812       -6.91593       -5.36869
|  8> O          5.40615       -5.89948       -5.51297
|  9> O          3.11191       -6.44508       -6.04379
| 10> O          4.76340       -8.23942       -5.69863
| 11> H          5.27901       -8.35440       -2.90385
| 12> H          4.53000       -7.38577       -1.65734
| 13> H          5.74437       -6.68276       -2.69856
| 14> *
| 15>
| 16> %MaxCore 64000
| 17>
| 18> %pal nprocs 4
| 19> end
| 20>
| 21> %scf
| 22>   MaxIter 150
| 23> end
| 24>
| 25>
| 26>                          ****END OF INPUT****

CARTESIAN COORDINATES (ANGSTROEM)
---------------------------------
  C      4.930200   -7.375320   -2.649620
  C      3.841890   -6.951610   -3.632830
  H      3.458140   -5.954420   -3.407120
  H      2.988480   -7.643610   -3.567080
  S      4.318120   -6.915930   -5.368690
  O      5.406150   -5.899480   -5.512970
  O      3.111910   -6.445080   -6.043790
  O      4.763400   -8.239420   -5.698630
  H      5.279010   -8.354400   -2.903850
  H      4.530000   -7.385770   -1.657340
  H      5.744370   -6.682760   -2.698560

 Total Charge           Charge          ....   -1
 Multiplicity           Mult            ....    1
 Number of Electrons    NEL             ....   58
 Basis Dimension        Dim             ....  222

ORBITAL ENERGIES
----------------

  NO   OCC          E(Eh)            E(eV)
   0   2.0000     -88.253667     -2401.5044
   1   2.0000     -18.715370      -509.2711
   2   2.0000     -18.705581      -509.0047
   3   2.0000     -18.697397      -508.7820
   4   2.0000      -9.931333      -270.2453
   5   2.0000      -9.923888      -270.0427
   6   2.0000      -7.795233      -212.1191
   7   2.0000      -5.823445      -158.4640
   8   2.0000      -5.822322      -158.4334
   9   2.0000      -5.821935      -158.4229
  10   2.0000      -1.013016       -27.5656
  11   2.0000      -0.880170       -23.9506
  12   2.0000      -0.851038       -23.1579
  13   2.0000      -0.742695       -20.2098
  14   2.0000      -0.614567       -16.7232
  15   2.0000      -0.484639       -13.1877
  16   2.0000      -0.423934       -11.5358
  17   2.0000      -0.415903       -11.3173
  18   2.0000      -0.376458       -10.2439
  19   2.0000      -0.359669        -9.7871
  20   2.0000      -0.352213        -9.5842
  21   2.0000      -0.329185        -8.9576
  22   2.0000      -0.309663        -8.4263
  23   2.0000      -0.247918        -6.7462
  24   2.0000      -0.246436        -6.7059
  25   2.0000      -0.211258        -5.7486
  26   2.0000      -0.201318        -5.4781
  27   2.0000      -0.193063        -5.2535
  28   2.0000      -0.154310        -4.1990
  29   0.0000       0.233916         6.3652
  30   0.0000       0.278742         7.5850
  31   0.0000       0.296132         8.0582
  32   0.0000       0.300217         8.1693
  33   0.0000       0.328934         8.9508

MULLIKEN ATOMIC CHARGES
-----------------------
   0 C :   -0.375609
   1 C :   -0.273039
   2 H :    0.105118
   3 H :    0.096717
   4 S :    0.682628
   5 O :   -0.563439
   6 O :   -0.517342
   7 O :   -0.490752
   8 H :    0.125921
   9 H :    0.084010
  10 H :    0.125788
Sum of atomic charges:   -1.0000000

LOEWDIN ATOMIC CHARGES
----------------------
   0 C :   -0.356911
   1 C :   -0.441904
   2 H :    0.123667
   3 H :    0.124228
   4 S :    0.397359
   5 O :   -0.436547
   6 O :   -0.391599
   7 O :   -0.359369
   8 H :    0.118186
   9 H :    0.104508
  10 H :    0.118381

  Mayer bond orders larger than 0.100000
B(  0-C ,  1-C ) :   0.9161 B(  0-C ,  8-H ) :   0.9735 B(  0-C ,  9-H ) :   0.9723
B(  0-C , 10-H ) :   0.9727 B(  1-C ,  2-H ) :   0.9656 B(  1-C ,  3-H ) :   0.9621
B(  1-C ,  4-S ) :   0.8822 B(  4-S ,  5-O ) :   1.7739 B(  4-S ,  6-O ) :   1.8621
B(  4-S ,  7-O ) :   1.8437

FINAL SINGLE POINT ENERGY      -702.476350695788

DIPOLE MOMENT
-------------
                                X             Y             Z
Electronic contribution:     -0.37226       0.81136      -7.82661
Nuclear contribution   :      0.07504      -1.14369       9.75001
                        -----------------------------------------
Total Dipole Moment    :     -0.29721      -0.33233       1.92340
                        -----------------------------------------
Magnitude (a.u.)       :      1.97440
Magnitude (Debye)      :      5.01851

Rotational constants in cm-1:     0.160553     0.082191     0.080550
Rotational constants in MHz :  4813.250478  2464.013016  2414.833054

                             ****ORCA TERMINATED NORMALLY****
TOTAL RUN TIME: 0 days 0 hours 0 minutes 30 seconds 57 msec
