                         Program Version 5.0.0 -  RELEASE  -
|  1> !LC-BLYP RIJCOSX def2-TZVP def2/J TightSCF
|  2> *xyz 1 1
|  3> C          5.55821       -1.99291       -6.21505
|  4> C          4.18188       -2.58967       -6.29891
|  5> N          3.14587       -1.76843       -6.48675
|  6> N          4.01910       -3.86431       -6.22743
|  7> H          4.76849       -4.59115       -5.99077
|  8> H          3.12241       -4.33339       -6.31462
|  9> H          3.28164       -0.77779       -6.56655
| 10> H          2.21255       -2.13419       -6.56225
| 11> C          6.41926       -2.54294       -5.07763
| 12> H          6.03683       -2.19819       -7.17685
| 13> H          5.46761       -0.90737       -6.12797
| 14> H          6.50056       -3.60553       -5.17358
| 15> H          5.96544       -2.30329       -4.13874
| 16> H          7.39438       -2.10494       -5.12457
| 17> *
| 18>
| 19> %MaxCore 64000
| 20>
| 21> %pal nprocs 4
| 22> end
| 23>
| 24> %scf
| 25>   MaxIter 150
| 26> end
| 27>
| 28>
| 29>                          ****END OF INPUT****

CARTESIAN COORDINATES (ANGSTROEM)
---------------------------------
  C      5.558210   -1.992910   -6.215050
  C      4.181880   -2.589670   -6.298910
  N      3.145870   -1.768430   -6.486750
  N      4.019100   -3.864310   -6.227430
  H      4.768490   -4.591150   -5.990770
  H      3.122410   -4.333390   -6.314620
  H      3.281640   -0.777790   -6.566550
  H      2.212550   -2.134190   -6.562250
  C      6.419260   -2.542940   -5.077630
  H      6.036830   -2.198190   -7.176850
  H      5.467610   -0.907370   -6.127970
  H      6.500560   -3.605530   -5.173580
  H      5.965440   -2.303290   -4.138740
  H      7.394380   -2.104940   -5.124570

 Total Charge           Charge          ....    1
 Multiplicity           Mult            ....    1
 Number of Electrons    NEL             ....   40
 Basis Dimension        Dim             ....  209

ORBITAL ENERGIES
----------------

  NO   OCC          E(Eh)            E(eV)
   0   2.0000     -14.420724      -392.4079
   1   2.0000     -14.409266      -392.0961
   2   2.0000     -10.394861      -282.8586
   3   2.0000     -10.266374      -279.3622
   4   2.0000     -10.221844      -278.1505
   5   2.0000      -1.305103       -35.5136
   6   2.0000      -1.206568       -32.8324
   7   2.0000      -1.078260       -29.3410
   8   2.0000      -0.973167       -26.4812
   9   2.0000      -0.922766       -25.1097
  10   2.0000      -0.878498       -23.9051
  11   2.0000      -0.851416       -23.1682
  12   2.0000      -0.798243       -21.7213
  13   2.0000      -0.764377       -20.7997
  14   2.0000      -0.725293       -19.7362
  15   2.0000      -0.707689       -19.2572
  16   2.0000      -0.649231       -17.6665
  17   2.0000      -0.638733       -17.3808
  18   2.0000      -0.621579       -16.9140
  19   2.0000      -0.590922       -16.0798
  20   0.0000      -0.123040        -3.3481
  21   0.0000      -0.093884        -2.5547
  22   0.0000      -0.056698        -1.5428
  23   0.0000      -0.046289        -1.2596
  24   0.0000      -0.019286        -0.5248

MULLIKEN ATOMIC CHARGES
-----------------------
   0 C :   -0.302362
   1 C :    0.328689
   2 N :   -0.337214
   3 N :   -0.323203
   4 H :    0.323937
   5 H :    0.289489
   6 H :    0.295159
   7 H :    0.276165
   8 C :   -0.397803
   9 H :    0.203767
  10 H :    0.162069
  11 H :    0.117812
  12 H :    0.172789
  13 H :    0.190708
Sum of atomic charges:    1.0000000

LOEWDIN ATOMIC CHARGES
----------------------
   0 C :   -0.228332
   1 C :   -0.297478
   2 N :    0.104063
   3 N :    0.115809
   4 H :    0.237813
   5 H :    0.203525
   6 H :    0.201959
   7 H :    0.194647
   8 C :   -0.278540
   9 H :    0.179073
  10 H :    0.163729
  11 H :    0.122252
  12 H :    0.136778
  13 H :    0.144704

  Mayer bond orders larger than 0.100000
B(  0-C ,  1-C ) :   0.9284 B(  0-C ,  8-C ) :   0.9468 B(  0-C ,  9-H ) :   0.9223
B(  0-C , 10-H ) :   0.9778 B(  1-C ,  2-N ) :   1.4305 B(  1-C ,  3-N ) :   1.4668
B(  2-N ,  6-H ) :   0.8946 B(  2-N ,  7-H ) :   0.9017 B(  3-N ,  4-H ) :   0.8729
B(  3-N ,  5-H ) :   0.8933 B(  8-C , 11-H ) :   0.9664 B(  8-C , 12-H ) :   0.9596
B(  8-C , 13-H ) :   0.9672

FINAL SINGLE POINT ENERGY      -228.504052780631

DIPOLE MOMENT
-------------
                                X             Y             Z
Electronic contribution:     -3.79112      -0.48035      -1.57432
Nuclear contribution   :      2.76041       0.12669       1.26265
                        -----------------------------------------
Total Dipole Moment    :     -1.03071      -0.35366      -0.31167
                        -----------------------------------------
Magnitude (a.u.)       :      1.13339
Magnitude (Debye)      :      2.88085

Rotational constants in cm-1:     0.280918     0.124524     0.094121
Rotational constants in MHz :  8421.697738  3733.133254  2821.684112

                             ****ORCA TERMINATED NORMALLY****
TOTAL RUN TIME: 0 days 0 hours 0 minutes 28 seconds 803 msec
