                         Program Version 5.0.0 -  RELEASE  -
|  1> !LC-BLYP RIJCOSX def2-TZVP def2/J TightSCF
|  2> *xyz 0 1
|  3> C          4.93020       -7.37532       -2.64962
|  4> C          3.84189       -6.95161       -3.63283
|  5> H          3.45814       -5.95442       -3.40712
|  6> H          2.98848       -7.64361       -3.56708
|  7> S          4.31812       -6.91593       -5.36869
|  8> F          5.40615       -5.89948       -5.51297
|  9> O          3.11191       -6.44508       -6.04379
| 10> O          4.76340       -8.23942       -5.69863
| 11> H          5.27901       -8.35440       -2.90385
| 12> H          4.53000       -7.38577       -1.65734
| 13> H          5.74437       -6.68276       -2.69856
| 14> *
| 15>
| 16> %MaxCore 64000
| 17>
| 18> %pal nprocs 4
| 19> end
| 20>
| 21> %scf
| 22>   MaxIter 150
| 23> end
| 24>
| 25>
| 26>                          ****END OF INPUT****

CARTESIAN COORDINATES (ANGSTROEM)
---------------------------------
  C      4.930200   -7.375320   -2.649620
  C      3.841890   -6.951610   -3.632830
  H      3.458140   -5.954420   -3.407120
  H      2.988480   -7.643610   -3.567080
  S      4.318120   -6.915930   -5.368690
  F      5.406150   -5.899480   -5.512970
  O      3.111910   -6.445080   -6.043790
  O      4.763400   -8.239420   -5.698630
  H      5.279010   -8.354400   -2.903850
  H      4.530000   -7.385770   -1.657340
  H      5.744370   -6.682760   -2.698560

 Total Charge           Charge          ....    0
 Multiplicity           Mult            ....    1
 Number of Electrons    NEL             ....   58
 Basis Dimension        Dim             ....  222

ORBITAL ENERGIES
----------------

  NO   OCC          E(Eh)            E(eV)
   0   2.0000     -88.516889     -2408.6670
   1   2.0000     -24.551809      -668.0887
   2   2.0000     -18.955252      -515.7986
   3   2.0000     -18.945221      -515.5257
   4   2.0000     -10.134473      -275.7730
   5   2.0000     -10.090380      -274.5732
   6   2.0000      -8.059164      -219.3010
   7   2.0000      -6.091027      -165.7453
   8   2.0000      -6.084228      -165.5603
   9   2.0000      -6.083609      -165.5434
  10   2.0000      -1.424457       -38.7614
  11   2.0000      -1.208042       -32.8725
  12   2.0000      -1.113495       -30.2997
  13   2.0000      -0.935474       -25.4556
  14   2.0000      -0.826441       -22.4886
  15   2.0000      -0.779044       -21.1989
  16   2.0000      -0.684025       -18.6133
  17   2.0000      -0.662073       -18.0159
  18   2.0000      -0.648667       -17.6511
  19   2.0000      -0.601207       -16.3597
  20   2.0000      -0.582629       -15.8542
  21   2.0000      -0.557883       -15.1808
  22   2.0000      -0.537872       -14.6363
  23   2.0000      -0.511636       -13.9223
  24   2.0000      -0.506376       -13.7792
  25   2.0000      -0.480823       -13.0839
  26   2.0000      -0.441441       -12.0122
  27   2.0000      -0.429582       -11.6895
  28   2.0000      -0.418730       -11.3942
  29   0.0000       0.074506         2.0274
  30   0.0000       0.115787         3.1507
  31   0.0000       0.129698         3.5293
  32   0.0000       0.138881         3.7791
  33   0.0000       0.145930         3.9709

MULLIKEN ATOMIC CHARGES
-----------------------
   0 C :   -0.399709
   1 C :   -0.296864
   2 H :    0.169651
   3 H :    0.183252
   4 S :    0.745457
   5 F :   -0.111326
   6 O :   -0.386069
   7 O :   -0.360506
   8 H :    0.164947
   9 H :    0.148626
  10 H :    0.142540
Sum of atomic charges:   -0.0000000

LOEWDIN ATOMIC CHARGES
----------------------
   0 C :   -0.329505
   1 C :   -0.403756
   2 H :    0.144078
   3 H :    0.158434
   4 S :    0.523509
   5 F :    0.047080
   6 O :   -0.278101
   7 O :   -0.246915
   8 H :    0.130523
   9 H :    0.130015
  10 H :    0.124639

  Mayer bond orders larger than 0.100000
B(  0-C ,  1-C ) :   0.9192 B(  0-C ,  8-H ) :   0.9633 B(  0-C ,  9-H ) :   0.9650
B(  0-C , 10-H ) :   0.9684 B(  1-C ,  2-H ) :   0.9440 B(  1-C ,  3-H ) :   0.9388
B(  1-C ,  4-S ) :   0.9096 B(  4-S ,  5-F ) :   1.1230 B(  4-S ,  6-O ) :   1.9744
B(  4-S ,  7-O ) :   1.9733

FINAL SINGLE POINT ENERGY      -727.000409643173

DIPOLE MOMENT
-------------
                                X             Y             Z
Electronic contribution:      1.30002       2.64028      -8.75304
Nuclear contribution   :     -0.98922      -2.24849      10.35711
                        -----------------------------------------
Total Dipole Moment    :      0.31080       0.39179       1.60406
                        -----------------------------------------
Magnitude (a.u.)       :      1.68021
Magnitude (Debye)      :      4.27076

Rotational constants in cm-1:     0.151436     0.080885     0.078670
Rotational constants in MHz :  4539.936009  2424.868817  2358.476812

                             ****ORCA TERMINATED NORMALLY****
TOTAL RUN TIME: 0 days 0 hours 0 minutes 29 seconds 869 msec
