                         Program Version 5.0.0 -  RELEASE  -
|  1> !LC-BLYP RIJCOSX def2-TZVP def2/J TightSCF
|  2> *xyz 0 1
|  3> C          5.55821       -1.99291       -6.21505
|  4> C          4.18188       -2.58967       -6.29891
|  5> C          3.14587       -1.76843       -6.48675
|  6> N          4.01910       -3.86431       -6.22743
|  7> H          4.76849       -4.59115       -5.99077
|  8> H          3.12241       -4.33339       -6.31462
|  9> H          3.28164       -0.77779       -6.56655
| 10> H          2.21255       -2.13419       -6.56225
| 11> C          6.41926       -2.54294       -5.07763
| 12> H          6.03683       -2.19819       -7.17685
| 13> H          5.46761       -0.90737       -6.12797
| 14> H          6.50056       -3.60553       -5.17358
| 15> H          5.96544       -2.30329       -4.13874
| 16> H          7.39438       -2.10494       -5.12457
| 17> *
| 18>
| 19> %MaxCore 64000
| 20>
| 21> %pal nprocs 4
| 22> end
| 23>
| 24> %scf
| 25>   MaxIter 150
| 26> end
| 27>
| 28>
| 29>                          ****END OF INPUT****

CARTESIAN COORDINATES (ANGSTROEM)
---------------------------------
  C      5.558210   -1.992910   -6.215050
  C      4.181880   -2.589670   -6.298910
  C      3.145870   -1.768430   -6.486750
  N      4.019100   -3.864310   -6.227430
  H      4.768490   -4.591150   -5.990770
  H      3.122410   -4.333390   -6.314620
  H      3.281640   -0.777790   -6.566550
  H      2.212550   -2.134190   -6.562250
  C      6.419260   -2.542940   -5.077630
  H      6.036830   -2.198190   -7.176850
  H      5.467610   -0.907370   -6.127970
  H      6.500560   -3.605530   -5.173580
  H      5.965440   -2.303290   -4.138740
  H      7.394380   -2.104940   -5.124570

 Total Charge           Charge          ....    0
 Multiplicity           Mult            ....    1
 Number of Electrons    NEL             ....   40
 Basis Dimension        Dim             ....  209

ORBITAL ENERGIES
----------------

  NO   OCC          E(Eh)            E(eV)
   0   2.0000     -14.175480      -385.7344
   1   2.0000     -10.091691      -274.6089
   2   2.0000     -10.066605      -273.9262
   3   2.0000     -10.055641      -273.6279
   4   2.0000      -9.994222      -271.9566
   5   2.0000      -1.035136       -28.1675
   6   2.0000      -0.886636       -24.1266
   7   2.0000      -0.824749       -22.4426
   8   2.0000      -0.738477       -20.0950
   9   2.0000      -0.687392       -18.7049
  10   2.0000      -0.622621       -16.9424
  11   2.0000      -0.578184       -15.7332
  12   2.0000      -0.547624       -14.9016
  13   2.0000      -0.525692       -14.3048
  14   2.0000      -0.492763       -13.4088
  15   2.0000      -0.483551       -13.1581
  16   2.0000      -0.457002       -12.4356
  17   2.0000      -0.434071       -11.8117
  18   2.0000      -0.426107       -11.5950
  19   2.0000      -0.279211        -7.5977
  20   0.0000       0.085250         2.3198
  21   0.0000       0.118982         3.2377
  22   0.0000       0.130535         3.5520
  23   0.0000       0.139518         3.7965
  24   0.0000       0.157838         4.2950

MULLIKEN ATOMIC CHARGES
-----------------------
   0 C :   -0.250379
   1 C :    0.238193
   2 C :   -0.481788
   3 N :   -0.428241
   4 H :    0.240457
   5 H :    0.236508
   6 H :    0.101563
   7 H :    0.101324
   8 C :   -0.381990
   9 H :    0.128183
  10 H :    0.125694
  11 H :    0.094019
  12 H :    0.140322
  13 H :    0.136134
Sum of atomic charges:    0.0000000

LOEWDIN ATOMIC CHARGES
----------------------
   0 C :   -0.245431
   1 C :   -0.378802
   2 C :   -0.290486
   3 N :    0.005660
   4 H :    0.189747
   5 H :    0.175199
   6 H :    0.101825
   7 H :    0.096550
   8 C :   -0.311774
   9 H :    0.147575
  10 H :    0.151449
  11 H :    0.111739
  12 H :    0.124719
  13 H :    0.122031

  Mayer bond orders larger than 0.100000
B(  0-C ,  1-C ) :   0.9358 B(  0-C ,  8-C ) :   0.9431 B(  0-C ,  9-H ) :   0.9671
B(  0-C , 10-H ) :   0.9880 B(  1-C ,  2-C ) :   1.7022 B(  1-C ,  3-N ) :   1.1720
B(  2-C ,  6-H ) :   1.0028 B(  2-C ,  7-H ) :   1.0038 B(  3-N ,  4-H ) :   0.9230
B(  3-N ,  5-H ) :   0.9266 B(  8-C , 11-H ) :   0.9771 B(  8-C , 12-H ) :   0.9706
B(  8-C , 13-H ) :   0.9845

FINAL SINGLE POINT ENERGY      -212.032804547223

DIPOLE MOMENT
-------------
                                X             Y             Z
Electronic contribution:     -2.02129      -1.09690      -1.02694
Nuclear contribution   :      2.41345       0.31141       1.16343
                        -----------------------------------------
Total Dipole Moment    :      0.39216      -0.78549       0.13649
                        -----------------------------------------
Magnitude (a.u.)       :      0.88849
Magnitude (Debye)      :      2.25836

Rotational constants in cm-1:     0.287957     0.129204     0.097498
Rotational constants in MHz :  8632.737925  3873.424745  2922.919500

                             ****ORCA TERMINATED NORMALLY****
TOTAL RUN TIME: 0 days 0 hours 0 minutes 31 seconds 331 msec
