                         Program Version 5.0.0 -  RELEASE  -
|  1> !LC-BLYP RIJCOSX def2-TZVP def2/J TightSCF
|  2> *xyz 0 1
|  3> C          4.93020       -7.37532       -2.64962
|  4> C          3.84189       -6.95161       -3.63283
|  5> H          3.45814       -5.95442       -3.40712
|  6> H          2.98848       -7.64361       -3.56708
|  7> S          4.31812       -6.91593       -5.36869
|  8> O          5.40615       -5.89948       -5.51297
|  9> F          3.11191       -6.44508       -6.04379
| 10> O          4.76340       -8.23942       -5.69863
| 11> H          5.27901       -8.35440       -2.90385
| 12> H          4.53000       -7.38577       -1.65734
| 13> H          5.74437       -6.68276       -2.69856
| 14> *
| 15>
| 16> %MaxCore 64000
| 17>
| 18> %pal nprocs 4
| 19> end
| 20>
| 21> %scf
| 22>   MaxIter 150
| 23> end
| 24>
| 25>
| 26>                          ****END OF INPUT****

CARTESIAN COORDINATES (ANGSTROEM)
---------------------------------
  C      4.930200   -7.375320   -2.649620
  C      3.841890   -6.951610   -3.632830
  H      3.458140   -5.954420   -3.407120
  H      2.988480   -7.643610   -3.567080
  S      4.318120   -6.915930   -5.368690
  O      5.406150   -5.899480   -5.512970
  F      3.111910   -6.445080   -6.043790
  O      4.763400   -8.239420   -5.698630
  H      5.279010   -8.354400   -2.903850
  H      4.530000   -7.385770   -1.657340
  H      5.744370   -6.682760   -2.698560

 Total Charge           Charge          ....    0
 Multiplicity           Mult            ....    1
 Number of Electrons    NEL             ....   58
 Basis Dimension        Dim             ....  222

ORBITAL ENERGIES
----------------

  NO   OCC          E(Eh)            E(eV)
   0   2.0000     -88.518793     -2408.7188
   1   2.0000     -24.566868      -668.4985
   2   2.0000     -18.954491      -515.7779
   3   2.0000     -18.937034      -515.3029
   4   2.0000     -10.135545      -275.8022
   5   2.0000     -10.088553      -274.5235
   6   2.0000      -8.061023      -219.3516
   7   2.0000      -6.092773      -165.7928
   8   2.0000      -6.085935      -165.6067
   9   2.0000      -6.085650      -165.5989
  10   2.0000      -1.450975       -39.4830
  11   2.0000      -1.201737       -32.7009
  12   2.0000      -1.095482       -29.8096
  13   2.0000      -0.935042       -25.4438
  14   2.0000      -0.839990       -22.8573
  15   2.0000      -0.779122       -21.2010
  16   2.0000      -0.686718       -18.6865
  17   2.0000      -0.681689       -18.5497
  18   2.0000      -0.658597       -17.9213
  19   2.0000      -0.602778       -16.4024
  20   2.0000      -0.586597       -15.9621
  21   2.0000      -0.543699       -14.7948
  22   2.0000      -0.533982       -14.5304
  23   2.0000      -0.513690       -13.9782
  24   2.0000      -0.489812       -13.3285
  25   2.0000      -0.489431       -13.3181
  26   2.0000      -0.437176       -11.8962
  27   2.0000      -0.422624       -11.5002
  28   2.0000      -0.405250       -11.0274
  29   0.0000       0.086640         2.3576
  30   0.0000       0.106245         2.8911
  31   0.0000       0.130935         3.5629
  32   0.0000       0.135214         3.6794
  33   0.0000       0.151679         4.1274

MULLIKEN ATOMIC CHARGES
-----------------------
   0 C :   -0.401253
   1 C :   -0.283572
   2 H :    0.164678
   3 H :    0.161581
   4 S :    0.746016
   5 O :   -0.423239
   6 F :   -0.081983
   7 O :   -0.354374
   8 H :    0.161381
   9 H :    0.147471
  10 H :    0.163293
Sum of atomic charges:   -0.0000000

LOEWDIN ATOMIC CHARGES
----------------------
   0 C :   -0.316271
   1 C :   -0.408971
   2 H :    0.142485
   3 H :    0.145008
   4 S :    0.517661
   5 O :   -0.318412
   6 F :    0.089574
   7 O :   -0.245391
   8 H :    0.131687
   9 H :    0.130313
  10 H :    0.132316

  Mayer bond orders larger than 0.100000
B(  0-C ,  1-C ) :   0.9365 B(  0-C ,  8-H ) :   0.9649 B(  0-C ,  9-H ) :   0.9624
B(  0-C , 10-H ) :   0.9648 B(  1-C ,  2-H ) :   0.9370 B(  1-C ,  3-H ) :   0.9347
B(  1-C ,  4-S ) :   0.9153 B(  4-S ,  5-O ) :   1.9077 B(  4-S ,  6-F ) :   1.1669
B(  4-S ,  7-O ) :   1.9761

FINAL SINGLE POINT ENERGY      -726.989028230067

DIPOLE MOMENT
-------------
                                X             Y             Z
Electronic contribution:     -2.61184       1.70595      -9.67258
Nuclear contribution   :      1.40145      -1.67996      10.91024
                        -----------------------------------------
Total Dipole Moment    :     -1.21039       0.02598       1.23766
                        -----------------------------------------
Magnitude (a.u.)       :      1.73134
Magnitude (Debye)      :      4.40071

Rotational constants in cm-1:     0.155875     0.079864     0.077188
Rotational constants in MHz :  4673.017506  2394.277415  2314.027118

                             ****ORCA TERMINATED NORMALLY****
TOTAL RUN TIME: 0 days 0 hours 0 minutes 30 seconds 869 msec
