                         Program Version 5.0.0 -  RELEASE  -
|  1> !LC-BLYP RIJCOSX def2-TZVP def2/J TightSCF
|  2> *xyz 0 1
|  3> C          5.55821       -1.99291       -6.21505
|  4> C          4.18188       -2.58967       -6.29891
|  5> N          3.14587       -1.76843       -6.48675
|  6> C          4.01910       -3.86431       -6.22743
|  7> H          4.76849       -4.59115       -5.99077
|  8> H          3.12241       -4.33339       -6.31462
|  9> H          3.28164       -0.77779       -6.56655
| 10> H          2.21255       -2.13419       -6.56225
| 11> C          6.41926       -2.54294       -5.07763
| 12> H          6.03683       -2.19819       -7.17685
| 13> H          5.46761       -0.90737       -6.12797
| 14> H          6.50056       -3.60553       -5.17358
| 15> H          5.96544       -2.30329       -4.13874
| 16> H          7.39438       -2.10494       -5.12457
| 17> *
| 18>
| 19> %MaxCore 64000
| 20>
| 21> %pal nprocs 4
| 22> end
| 23>
| 24> %scf
| 25>   MaxIter 150
| 26> end
| 27>
| 28>
| 29>                          ****END OF INPUT****

CARTESIAN COORDINATES (ANGSTROEM)
---------------------------------
  C      5.558210   -1.992910   -6.215050
  C      4.181880   -2.589670   -6.298910
  N      3.145870   -1.768430   -6.486750
  C      4.019100   -3.864310   -6.227430
  H      4.768490   -4.591150   -5.990770
  H      3.122410   -4.333390   -6.314620
  H      3.281640   -0.777790   -6.566550
  H      2.212550   -2.134190   -6.562250
  C      6.419260   -2.542940   -5.077630
  H      6.036830   -2.198190   -7.176850
  H      5.467610   -0.907370   -6.127970
  H      6.500560   -3.605530   -5.173580
  H      5.965440   -2.303290   -4.138740
  H      7.394380   -2.104940   -5.124570

 Total Charge           Charge          ....    0
 Multiplicity           Mult            ....    1
 Number of Electrons    NEL             ....   40
 Basis Dimension        Dim             ....  209

ORBITAL ENERGIES
----------------

  NO   OCC          E(Eh)            E(eV)
   0   2.0000     -14.164332      -385.4311
   1   2.0000     -10.089157      -274.5399
   2   2.0000     -10.067668      -273.9552
   3   2.0000     -10.049305      -273.4555
   4   2.0000     -10.001591      -272.1571
   5   2.0000      -1.024891       -27.8887
   6   2.0000      -0.889935       -24.2164
   7   2.0000      -0.819882       -22.3101
   8   2.0000      -0.749522       -20.3955
   9   2.0000      -0.662130       -18.0175
  10   2.0000      -0.626174       -17.0391
  11   2.0000      -0.591627       -16.0990
  12   2.0000      -0.553880       -15.0718
  13   2.0000      -0.520533       -14.1644
  14   2.0000      -0.487839       -13.2748
  15   2.0000      -0.471389       -12.8271
  16   2.0000      -0.449452       -12.2302
  17   2.0000      -0.433587       -11.7985
  18   2.0000      -0.425690       -11.5836
  19   2.0000      -0.287858        -7.8330
  20   0.0000       0.095114         2.5882
  21   0.0000       0.115978         3.1559
  22   0.0000       0.136329         3.7097
  23   0.0000       0.140227         3.8158
  24   0.0000       0.165125         4.4933

MULLIKEN ATOMIC CHARGES
-----------------------
   0 C :   -0.250265
   1 C :    0.258751
   2 N :   -0.440686
   3 C :   -0.462418
   4 H :    0.100953
   5 H :    0.103169
   6 H :    0.220400
   7 H :    0.224896
   8 C :   -0.383590
   9 H :    0.138699
  10 H :    0.101365
  11 H :    0.126685
  12 H :    0.133237
  13 H :    0.128806
Sum of atomic charges:   -0.0000000

LOEWDIN ATOMIC CHARGES
----------------------
   0 C :   -0.245498
   1 C :   -0.364661
   2 N :   -0.008979
   3 C :   -0.287646
   4 H :    0.122441
   5 H :    0.103229
   6 H :    0.161633
   7 H :    0.168704
   8 C :   -0.303332
   9 H :    0.153150
  10 H :    0.136515
  11 H :    0.121942
  12 H :    0.123644
  13 H :    0.118859

  Mayer bond orders larger than 0.100000
B(  0-C ,  1-C ) :   0.9029 B(  0-C ,  8-C ) :   0.9597 B(  0-C ,  9-H ) :   0.9652
B(  0-C , 10-H ) :   0.9963 B(  1-C ,  2-N ) :   1.1438 B(  1-C ,  3-C ) :   1.7282
B(  2-N ,  6-H ) :   0.9358 B(  2-N ,  7-H ) :   0.9315 B(  3-C ,  4-H ) :   1.0000
B(  3-C ,  5-H ) :   1.0004 B(  8-C , 11-H ) :   0.9761 B(  8-C , 12-H ) :   0.9741
B(  8-C , 13-H ) :   0.9824

FINAL SINGLE POINT ENERGY      -212.042801305035

DIPOLE MOMENT
-------------
                                X             Y             Z
Electronic contribution:     -2.81559       0.83006      -1.29251
Nuclear contribution   :      2.61570      -0.17401       1.22349
                        -----------------------------------------
Total Dipole Moment    :     -0.19989       0.65604      -0.06902
                        -----------------------------------------
Magnitude (a.u.)       :      0.68928
Magnitude (Debye)      :      1.75202

Rotational constants in cm-1:     0.298189     0.125314     0.096441
Rotational constants in MHz :  8939.495008  3756.825352  2891.223400

                             ****ORCA TERMINATED NORMALLY****
TOTAL RUN TIME: 0 days 0 hours 0 minutes 27 seconds 899 msec
