                         Program Version 5.0.0 -  RELEASE  -
|  1> !LC-BLYP RIJCOSX def2-TZVP def2/J TightSCF
|  2> *xyz 0 1
|  3> C          4.93020       -7.37532       -2.64962
|  4> C          3.84189       -6.95161       -3.63283
|  5> H          3.45814       -5.95442       -3.40712
|  6> H          2.98848       -7.64361       -3.56708
|  7> S          4.31812       -6.91593       -5.36869
|  8> O          5.40615       -5.89948       -5.51297
|  9> O          3.11191       -6.44508       -6.04379
| 10> F          4.76340       -8.23942       -5.69863
| 11> H          5.27901       -8.35440       -2.90385
| 12> H          4.53000       -7.38577       -1.65734
| 13> H          5.74437       -6.68276       -2.69856
| 14> *
| 15>
| 16> %MaxCore 64000
| 17>
| 18> %pal nprocs 4
| 19> end
| 20>
| 21> %scf
| 22>   MaxIter 150
| 23> end
| 24>
| 25>
| 26>                          ****END OF INPUT****

CARTESIAN COORDINATES (ANGSTROEM)
---------------------------------
  C      4.930200   -7.375320   -2.649620
  C      3.841890   -6.951610   -3.632830
  H      3.458140   -5.954420   -3.407120
  H      2.988480   -7.643610   -3.567080
  S      4.318120   -6.915930   -5.368690
  O      5.406150   -5.899480   -5.512970
  O      3.111910   -6.445080   -6.043790
  F      4.763400   -8.239420   -5.698630
  H      5.279010   -8.354400   -2.903850
  H      4.530000   -7.385770   -1.657340
  H      5.744370   -6.682760   -2.698560

 Total Charge           Charge          ....    0
 Multiplicity           Mult            ....    1
 Number of Electrons    NEL             ....   58
 Basis Dimension        Dim             ....  222

ORBITAL ENERGIES
----------------

  NO   OCC          E(Eh)            E(eV)
   0   2.0000     -88.520172     -2408.7563
   1   2.0000     -24.580384      -668.8663
   2   2.0000     -18.945427      -515.5313
   3   2.0000     -18.937976      -515.3285
   4   2.0000     -10.135573      -275.8030
   5   2.0000     -10.091416      -274.6014
   6   2.0000      -8.062359      -219.3879
   7   2.0000      -6.094241      -165.8327
   8   2.0000      -6.087055      -165.6372
   9   2.0000      -6.086999      -165.6357
  10   2.0000      -1.472515       -40.0692
  11   2.0000      -1.190892       -32.4058
  12   2.0000      -1.088104       -29.6088
  13   2.0000      -0.937673       -25.5154
  14   2.0000      -0.842441       -22.9240
  15   2.0000      -0.790244       -21.5036
  16   2.0000      -0.707601       -19.2548
  17   2.0000      -0.695707       -18.9312
  18   2.0000      -0.652820       -17.7641
  19   2.0000      -0.601454       -16.3664
  20   2.0000      -0.582022       -15.8376
  21   2.0000      -0.554149       -15.0792
  22   2.0000      -0.532532       -14.4909
  23   2.0000      -0.511318       -13.9137
  24   2.0000      -0.499802       -13.6003
  25   2.0000      -0.476573       -12.9682
  26   2.0000      -0.428259       -11.6535
  27   2.0000      -0.421940       -11.4816
  28   2.0000      -0.399558       -10.8725
  29   0.0000       0.075798         2.0626
  30   0.0000       0.115236         3.1357
  31   0.0000       0.128781         3.5043
  32   0.0000       0.136121         3.7040
  33   0.0000       0.144369         3.9285

MULLIKEN ATOMIC CHARGES
-----------------------
   0 C :   -0.398867
   1 C :   -0.295436
   2 H :    0.187085
   3 H :    0.166319
   4 S :    0.744305
   5 O :   -0.418792
   6 O :   -0.375632
   7 F :   -0.063744
   8 H :    0.138444
   9 H :    0.149081
  10 H :    0.167238
Sum of atomic charges:   -0.0000000

LOEWDIN ATOMIC CHARGES
----------------------
   0 C :   -0.329708
   1 C :   -0.404399
   2 H :    0.156031
   3 H :    0.146366
   4 S :    0.514116
   5 O :   -0.315014
   6 O :   -0.273139
   7 F :    0.120673
   8 H :    0.123524
   9 H :    0.130223
  10 H :    0.131326

  Mayer bond orders larger than 0.100000
B(  0-C ,  1-C ) :   0.9180 B(  0-C ,  8-H ) :   0.9685 B(  0-C ,  9-H ) :   0.9648
B(  0-C , 10-H ) :   0.9628 B(  1-C ,  2-H ) :   0.9405 B(  1-C ,  3-H ) :   0.9415
B(  1-C ,  4-S ) :   0.9084 B(  4-S ,  5-O ) :   1.9054 B(  4-S ,  6-O ) :   1.9761
B(  4-S ,  7-F ) :   1.1774

FINAL SINGLE POINT ENERGY      -726.977606894312

DIPOLE MOMENT
-------------
                                X             Y             Z
Electronic contribution:      0.19607      -1.33051      -9.07375
Nuclear contribution   :     -0.31946       0.18980      10.55057
                        -----------------------------------------
Total Dipole Moment    :     -0.12339      -1.14072       1.47682
                        -----------------------------------------
Magnitude (a.u.)       :      1.87015
Magnitude (Debye)      :      4.75354

Rotational constants in cm-1:     0.151421     0.081183     0.078684
Rotational constants in MHz :  4539.489207  2433.790160  2358.892966

                             ****ORCA TERMINATED NORMALLY****
TOTAL RUN TIME: 0 days 0 hours 0 minutes 31 seconds 213 msec
