                         Program Version 5.0.0 -  RELEASE  -
|  1> !LC-BLYP RIJCOSX def2-TZVP def2/J TightSCF xyzfile
|  2>
|  3> *xyzfile 0 1 D1.xyz
|  4>
|  5> %MaxCore 64000
|  6>
|  7> %pal nprocs 18
|  8> end
|  9>
| 10> %scf
| 11>   MaxIter 150
| 12> end
| 13>
| 14>
| 15>                          ****END OF INPUT****

CARTESIAN COORDINATES (ANGSTROEM)
---------------------------------
  C      5.558206   -1.992914   -6.215054
  C      4.930199   -7.375319   -2.649623
  C      3.841892   -6.951611   -3.632829
  H      3.458144   -5.954425   -3.407121
  H      2.988484   -7.643606   -3.567078
  S      4.318115   -6.915930   -5.368692
  C      4.181880   -2.589671   -6.298911
  C      3.145873   -1.768431   -6.486753
  N      4.019102   -3.864307   -6.227427
  H      4.768490   -4.591153   -5.990773
  H      3.122405   -4.333392   -6.314620
  H      3.281635   -0.777786   -6.566549
  H      2.212549   -2.134193   -6.562246
  F      5.406154   -5.899480   -5.512972
  O      3.111910   -6.445079   -6.043792
  C      6.419260   -2.542944   -5.077630
  C      5.872267   -5.002756   -2.427819
  C      6.173994   -6.485522   -2.606315
  H      6.734852   -6.613767   -3.534015
  H      6.821463   -6.831018   -1.793617
  H      4.469612   -7.406168   -1.655876
  H      5.230134   -8.398678   -2.885906
  C      5.896512   -2.169314   -3.694552
  H      7.428880   -2.143665   -5.208078
  H      6.505894   -3.627541   -5.175502
  C      6.807804   -2.623428   -2.551019
  H      4.894708   -2.589732   -3.557501
  H      5.778823   -1.081255   -3.635790
  C      7.111544   -4.122463   -2.520363
  H      7.751615   -2.071393   -2.614406
  H      6.345837   -2.326401   -1.604086
  H      5.362882   -4.828697   -1.471335
  H      5.174429   -4.702577   -3.211298
  H      7.778329   -4.329347   -1.677651
  H      7.673189   -4.402845   -3.417586
  O      4.763396   -8.239424   -5.698629
  H      6.036826   -2.198189   -7.176852
  H      5.467610   -0.907371   -6.127968

 Total Charge           Charge          ....    0
 Multiplicity           Mult            ....    1
 Number of Electrons    NEL             ....  136
 Basis Dimension        Dim             ....  634

ORBITAL ENERGIES
----------------

  NO   OCC          E(Eh)            E(eV)
   0   2.0000     -88.535876     -2409.1837
   1   2.0000     -24.583103      -668.9403
   2   2.0000     -18.973286      -516.2893
   3   2.0000     -18.966047      -516.0924
   4   2.0000     -14.151397      -385.0791
   5   2.0000     -10.142513      -275.9918
   6   2.0000     -10.105059      -274.9726
   7   2.0000     -10.088517      -274.5225
   8   2.0000     -10.080499      -274.3043
   9   2.0000     -10.079547      -274.2784
  10   2.0000     -10.072316      -274.0816
  11   2.0000     -10.067017      -273.9374
  12   2.0000     -10.066012      -273.9101
  13   2.0000     -10.061561      -273.7890
  14   2.0000     -10.060423      -273.7580
  15   2.0000      -9.984885      -271.7025
  16   2.0000      -8.078747      -219.8339
  17   2.0000      -6.111011      -166.2891
  18   2.0000      -6.103320      -166.0798
  19   2.0000      -6.103036      -166.0720
  20   2.0000      -1.461105       -39.7587
  21   2.0000      -1.228821       -33.4379
  22   2.0000      -1.134476       -30.8707
  23   2.0000      -1.021578       -27.7986
  24   2.0000      -0.964874       -26.2555
  25   2.0000      -0.931541       -25.3485
  26   2.0000      -0.902519       -24.5588
  27   2.0000      -0.870135       -23.6776
  28   2.0000      -0.850135       -23.1334
  29   2.0000      -0.820133       -22.3170
  30   2.0000      -0.808350       -21.9963
  31   2.0000      -0.769562       -20.9409
  32   2.0000      -0.734188       -19.9783
  33   2.0000      -0.724529       -19.7154
  34   2.0000      -0.718652       -19.5555
  35   2.0000      -0.693453       -18.8698
  36   2.0000      -0.679267       -18.4838
  37   2.0000      -0.668325       -18.1860
  38   2.0000      -0.662040       -18.0150
  39   2.0000      -0.620398       -16.8819
  40   2.0000      -0.610404       -16.6099
  41   2.0000      -0.597196       -16.2505
  42   2.0000      -0.591032       -16.0828
  43   2.0000      -0.581676       -15.8282
  44   2.0000      -0.571879       -15.5616
  45   2.0000      -0.566759       -15.4223
  46   2.0000      -0.557307       -15.1651
  47   2.0000      -0.540136       -14.6978
  48   2.0000      -0.536509       -14.5992
  49   2.0000      -0.526959       -14.3393
  50   2.0000      -0.513801       -13.9812
  51   2.0000      -0.511399       -13.9159
  52   2.0000      -0.495795       -13.4913
  53   2.0000      -0.480675       -13.0798
  54   2.0000      -0.473949       -12.8968
  55   2.0000      -0.470170       -12.7940
  56   2.0000      -0.468576       -12.7506
  57   2.0000      -0.458027       -12.4636
  58   2.0000      -0.454485       -12.3672
  59   2.0000      -0.444478       -12.0949
  60   2.0000      -0.440042       -11.9742
  61   2.0000      -0.435900       -11.8615
  62   2.0000      -0.434949       -11.8356
  63   2.0000      -0.426938       -11.6176
  64   2.0000      -0.416112       -11.3230
  65   2.0000      -0.409659       -11.1474
  66   2.0000      -0.405394       -11.0313
  67   2.0000      -0.268524        -7.3069
  68   0.0000       0.062633         1.7043
  69   0.0000       0.088964         2.4208
  70   0.0000       0.095378         2.5954
  71   0.0000       0.097912         2.6643
  72   0.0000       0.108392         2.9495

MULLIKEN ATOMIC CHARGES
-----------------------
   0 C :   -0.249743
   1 C :   -0.233781
   2 C :   -0.381765
   3 H :    0.206292
   4 H :    0.208927
   5 S :    0.783413
   6 C :    0.171861
   7 C :   -0.481336
   8 N :   -0.407190
   9 H :    0.244174
  10 H :    0.248040
  11 H :    0.094756
  12 H :    0.105524
  13 F :   -0.118731
  14 O :   -0.403712
  15 C :   -0.303853
  16 C :   -0.252895
  17 C :   -0.322715
  18 H :    0.159487
  19 H :    0.145484
  20 H :    0.150896
  21 H :    0.173767
  22 C :   -0.270802
  23 H :    0.133998
  24 H :    0.107848
  25 C :   -0.226569
  26 H :    0.157543
  27 H :    0.133048
  28 C :   -0.288078
  29 H :    0.134334
  30 H :    0.132034
  31 H :    0.135957
  32 H :    0.103831
  33 H :    0.136298
  34 H :    0.146184
  35 O :   -0.344121
  36 H :    0.138737
  37 H :    0.132861
Sum of atomic charges:    0.0000000

LOEWDIN ATOMIC CHARGES
----------------------
   0 C :   -0.220469
   1 C :   -0.294151
   2 C :   -0.374757
   3 H :    0.148865
   4 H :    0.163620
   5 S :    0.543565
   6 C :   -0.382935
   7 C :   -0.296218
   8 N :   -0.013492
   9 H :    0.151370
  10 H :    0.172466
  11 H :    0.099807
  12 H :    0.096487
  13 F :    0.073530
  14 O :   -0.261473
  15 C :   -0.276873
  16 C :   -0.281216
  17 C :   -0.284104
  18 H :    0.138842
  19 H :    0.147744
  20 H :    0.152948
  21 H :    0.151599
  22 C :   -0.274804
  23 H :    0.143416
  24 H :    0.128702
  25 C :   -0.277093
  26 H :    0.143026
  27 H :    0.145009
  28 C :   -0.278585
  29 H :    0.142087
  30 H :    0.141135
  31 H :    0.143565
  32 H :    0.132375
  33 H :    0.141905
  34 H :    0.140754
  35 O :   -0.230853
  36 H :    0.150377
  37 H :    0.153832

  Mayer bond orders larger than 0.100000
B(  0-C ,  6-C ) :   0.9245 B(  0-C , 15-C ) :   0.9385 B(  0-C , 36-H ) :   0.9801
B(  0-C , 37-H ) :   0.9936 B(  1-C ,  2-C ) :   0.8855 B(  1-C , 17-C ) :   0.9240
B(  1-C , 20-H ) :   0.9624 B(  1-C , 21-H ) :   0.9797 B(  2-C ,  3-H ) :   0.9362
B(  2-C ,  4-H ) :   0.9430 B(  2-C ,  5-S ) :   0.9164 B(  5-S , 13-F ) :   1.0401
B(  5-S , 14-O ) :   1.8928 B(  5-S , 35-O ) :   2.0302 B(  6-C ,  7-C ) :   1.7019
B(  6-C ,  8-N ) :   1.2094 B(  7-C , 11-H ) :   1.0039 B(  7-C , 12-H ) :   0.9989
B(  8-N ,  9-H ) :   0.8893 B(  8-N , 10-H ) :   0.9050 B( 15-C , 22-C ) :   0.8571
B( 15-C , 23-H ) :   0.9774 B( 15-C , 24-H ) :   0.9972 B( 16-C , 17-C ) :   0.8477
B( 16-C , 28-C ) :   0.8956 B( 16-C , 31-H ) :   0.9647 B( 16-C , 32-H ) :   0.9946
B( 17-C , 18-H ) :   0.9961 B( 17-C , 19-H ) :   0.9816 B( 22-C , 25-C ) :   0.9171
B( 22-C , 26-H ) :   0.9918 B( 22-C , 27-H ) :   0.9807 B( 25-C , 28-C ) :   0.9283
B( 25-C , 29-H ) :   0.9892 B( 25-C , 30-H ) :   0.9944 B( 28-C , 33-H ) :   0.9836
B( 28-C , 34-H ) :   0.9923

FINAL SINGLE POINT ENERGY     -1133.887806735684

DIPOLE MOMENT
-------------
                                X             Y             Z
Electronic contribution:     -7.00234     -18.79284     -13.19954
Nuclear contribution   :      7.78491      18.17172      15.09294
                        -----------------------------------------
Total Dipole Moment    :      0.78257      -0.62112       1.89340
                        -----------------------------------------
Magnitude (a.u.)       :      2.14083
Magnitude (Debye)      :      5.44156

Rotational constants in cm-1:     0.018190     0.012573     0.008405
Rotational constants in MHz :   545.327178   376.916509   251.974803

                             ****ORCA TERMINATED NORMALLY****
TOTAL RUN TIME: 0 days 0 hours 2 minutes 5 seconds 787 msec
