                         Program Version 5.0.0 -  RELEASE  -
|  1> !LC-BLYP RIJCOSX def2-TZVP def2/J TightSCF xyzfile
|  2>
|  3> *xyzfile 0 1 D2.xyz
|  4>
|  5> %MaxCore 64000
|  6>
|  7> %pal nprocs 18
|  8> end
|  9>
| 10> %scf
| 11>   MaxIter 150
| 12> end
| 13>
| 14>
| 15>                          ****END OF INPUT****

CARTESIAN COORDINATES (ANGSTROEM)
---------------------------------
  C      5.558206   -1.992914   -6.215054
  C      4.930199   -7.375319   -2.649623
  C      3.841892   -6.951611   -3.632829
  H      3.458144   -5.954425   -3.407121
  H      2.988484   -7.643606   -3.567078
  S      4.318115   -6.915930   -5.368692
  C      4.181880   -2.589671   -6.298911
  N      3.145873   -1.768431   -6.486753
  C      4.019102   -3.864307   -6.227427
  H      4.768490   -4.591153   -5.990773
  H      3.122405   -4.333392   -6.314620
  H      3.281635   -0.777786   -6.566549
  H      2.212549   -2.134193   -6.562246
  F      5.406154   -5.899480   -5.512972
  O      3.111910   -6.445079   -6.043792
  C      6.419260   -2.542944   -5.077630
  C      5.872267   -5.002756   -2.427819
  C      6.173994   -6.485522   -2.606315
  H      6.734852   -6.613767   -3.534015
  H      6.821463   -6.831018   -1.793617
  H      4.469612   -7.406168   -1.655876
  H      5.230134   -8.398678   -2.885906
  C      5.896512   -2.169314   -3.694552
  H      7.428880   -2.143665   -5.208078
  H      6.505894   -3.627541   -5.175502
  C      6.807804   -2.623428   -2.551019
  H      4.894708   -2.589732   -3.557501
  H      5.778823   -1.081255   -3.635790
  C      7.111544   -4.122463   -2.520363
  H      7.751615   -2.071393   -2.614406
  H      6.345837   -2.326401   -1.604086
  H      5.362882   -4.828697   -1.471335
  H      5.174429   -4.702577   -3.211298
  H      7.778329   -4.329347   -1.677651
  H      7.673189   -4.402845   -3.417586
  O      4.763396   -8.239424   -5.698629
  H      6.036826   -2.198189   -7.176852
  H      5.467610   -0.907371   -6.127968

 Total Charge           Charge          ....    0
 Multiplicity           Mult            ....    1
 Number of Electrons    NEL             ....  136
 Basis Dimension        Dim             ....  634

ORBITAL ENERGIES
----------------

  NO   OCC          E(Eh)            E(eV)
   0   2.0000     -88.514015     -2408.5888
   1   2.0000     -24.551603      -668.0831
   2   2.0000     -18.952924      -515.7353
   3   2.0000     -18.940689      -515.4024
   4   2.0000     -14.157299      -385.2397
   5   2.0000     -10.126563      -275.5578
   6   2.0000     -10.093261      -274.6516
   7   2.0000     -10.079474      -274.2764
   8   2.0000     -10.078268      -274.2436
   9   2.0000     -10.070400      -274.0295
  10   2.0000     -10.066035      -273.9108
  11   2.0000     -10.063383      -273.8386
  12   2.0000     -10.063253      -273.8350
  13   2.0000     -10.062213      -273.8067
  14   2.0000     -10.058575      -273.7077
  15   2.0000      -9.979686      -271.5611
  16   2.0000      -8.056566      -219.2303
  17   2.0000      -6.088617      -165.6797
  18   2.0000      -6.081462      -165.4850
  19   2.0000      -6.080871      -165.4689
  20   2.0000      -1.431454       -38.9519
  21   2.0000      -1.206361       -32.8267
  22   2.0000      -1.111358       -30.2416
  23   2.0000      -1.017688       -27.6927
  24   2.0000      -0.952190       -25.9104
  25   2.0000      -0.926253       -25.2046
  26   2.0000      -0.896189       -24.3865
  27   2.0000      -0.867319       -23.6009
  28   2.0000      -0.829183       -22.5632
  29   2.0000      -0.818389       -22.2695
  30   2.0000      -0.791792       -21.5458
  31   2.0000      -0.768703       -20.9175
  32   2.0000      -0.731265       -19.8987
  33   2.0000      -0.714800       -19.4507
  34   2.0000      -0.696589       -18.9551
  35   2.0000      -0.671639       -18.2762
  36   2.0000      -0.670398       -18.2425
  37   2.0000      -0.649389       -17.6708
  38   2.0000      -0.643474       -17.5098
  39   2.0000      -0.618720       -16.8362
  40   2.0000      -0.602572       -16.3968
  41   2.0000      -0.596918       -16.2430
  42   2.0000      -0.591267       -16.0892
  43   2.0000      -0.574796       -15.6410
  44   2.0000      -0.562677       -15.3112
  45   2.0000      -0.559110       -15.2142
  46   2.0000      -0.551086       -14.9958
  47   2.0000      -0.539828       -14.6895
  48   2.0000      -0.520879       -14.1738
  49   2.0000      -0.515683       -14.0324
  50   2.0000      -0.510827       -13.9003
  51   2.0000      -0.502311       -13.6686
  52   2.0000      -0.479443       -13.0463
  53   2.0000      -0.474308       -12.9066
  54   2.0000      -0.466521       -12.6947
  55   2.0000      -0.460636       -12.5346
  56   2.0000      -0.450784       -12.2665
  57   2.0000      -0.448418       -12.2021
  58   2.0000      -0.441660       -12.0182
  59   2.0000      -0.436017       -11.8646
  60   2.0000      -0.428144       -11.6504
  61   2.0000      -0.426955       -11.6180
  62   2.0000      -0.419500       -11.4152
  63   2.0000      -0.413794       -11.2599
  64   2.0000      -0.408831       -11.1249
  65   2.0000      -0.404507       -11.0072
  66   2.0000      -0.400223       -10.8906
  67   2.0000      -0.278553        -7.5798
  68   0.0000       0.078776         2.1436
  69   0.0000       0.096911         2.6371
  70   0.0000       0.099278         2.7015
  71   0.0000       0.101960         2.7745
  72   0.0000       0.112462         3.0602

MULLIKEN ATOMIC CHARGES
-----------------------
   0 C :   -0.250718
   1 C :   -0.230560
   2 C :   -0.378626
   3 H :    0.202428
   4 H :    0.201595
   5 S :    0.784012
   6 C :    0.176695
   7 N :   -0.432872
   8 C :   -0.448181
   9 H :    0.097976
  10 H :    0.142696
  11 H :    0.215068
  12 H :    0.222968
  13 F :   -0.106006
  14 O :   -0.390675
  15 C :   -0.286619
  16 C :   -0.252065
  17 C :   -0.321491
  18 H :    0.159906
  19 H :    0.139876
  20 H :    0.144931
  21 H :    0.169502
  22 C :   -0.277676
  23 H :    0.126996
  24 H :    0.122936
  25 C :   -0.224442
  26 H :    0.160187
  27 H :    0.123761
  28 C :   -0.291840
  29 H :    0.132130
  30 H :    0.129143
  31 H :    0.130638
  32 H :    0.122392
  33 H :    0.133022
  34 H :    0.146917
  35 O :   -0.355273
  36 H :    0.147185
  37 H :    0.114083
Sum of atomic charges:   -0.0000000

LOEWDIN ATOMIC CHARGES
----------------------
   0 C :   -0.221790
   1 C :   -0.295584
   2 C :   -0.375783
   3 H :    0.148143
   4 H :    0.160908
   5 S :    0.546630
   6 C :   -0.372698
   7 N :   -0.010036
   8 C :   -0.318429
   9 H :    0.098404
  10 H :    0.106112
  11 H :    0.159554
  12 H :    0.168607
  13 F :    0.076456
  14 O :   -0.251097
  15 C :   -0.266324
  16 C :   -0.280808
  17 C :   -0.284256
  18 H :    0.139600
  19 H :    0.145870
  20 H :    0.150644
  21 H :    0.150629
  22 C :   -0.276734
  23 H :    0.141558
  24 H :    0.137308
  25 C :   -0.277559
  26 H :    0.143191
  27 H :    0.140712
  28 C :   -0.278487
  29 H :    0.141140
  30 H :    0.140336
  31 H :    0.141898
  32 H :    0.137151
  33 H :    0.141032
  34 H :    0.141260
  35 O :   -0.242673
  36 H :    0.155590
  37 H :    0.139525

  Mayer bond orders larger than 0.100000
B(  0-C ,  6-C ) :   0.9091 B(  0-C , 15-C ) :   0.9620 B(  0-C , 36-H ) :   0.9700
B(  0-C , 37-H ) :   1.0012 B(  1-C ,  2-C ) :   0.8876 B(  1-C , 17-C ) :   0.9264
B(  1-C , 20-H ) :   0.9645 B(  1-C , 21-H ) :   0.9799 B(  2-C ,  3-H ) :   0.9392
B(  2-C ,  4-H ) :   0.9475 B(  2-C ,  5-S ) :   0.9158 B(  5-S , 13-F ) :   1.0644
B(  5-S , 14-O ) :   1.9121 B(  5-S , 35-O ) :   2.0222 B(  6-C ,  7-N ) :   1.1432
B(  6-C ,  8-C ) :   1.7439 B(  7-N , 11-H ) :   0.9348 B(  7-N , 12-H ) :   0.9303
B(  8-C ,  9-H ) :   1.0216 B(  8-C , 10-H ) :   0.9708 B( 15-C , 22-C ) :   0.8705
B( 15-C , 23-H ) :   0.9784 B( 15-C , 24-H ) :   0.9850 B( 16-C , 17-C ) :   0.8544
B( 16-C , 28-C ) :   0.8972 B( 16-C , 31-H ) :   0.9665 B( 16-C , 32-H ) :   0.9894
B( 17-C , 18-H ) :   0.9942 B( 17-C , 19-H ) :   0.9819 B( 22-C , 25-C ) :   0.9247
B( 22-C , 26-H ) :   0.9882 B( 22-C , 27-H ) :   0.9809 B( 25-C , 28-C ) :   0.9301
B( 25-C , 29-H ) :   0.9899 B( 25-C , 30-H ) :   0.9947 B( 28-C , 33-H ) :   0.9840
B( 28-C , 34-H ) :   0.9920

FINAL SINGLE POINT ENERGY     -1133.881819237550

DIPOLE MOMENT
-------------
                                X             Y             Z
Electronic contribution:     -7.75340     -16.92763     -13.62167
Nuclear contribution   :      7.91684      17.85507      15.13212
                        -----------------------------------------
Total Dipole Moment    :      0.16344       0.92744       1.51044
                        -----------------------------------------
Magnitude (a.u.)       :      1.77997
Magnitude (Debye)      :      4.52432

Rotational constants in cm-1:     0.018015     0.012410     0.008313
Rotational constants in MHz :   540.084467   372.038374   249.228144

                             ****ORCA TERMINATED NORMALLY****
TOTAL RUN TIME: 0 days 0 hours 1 minutes 54 seconds 856 msec
