                         Program Version 5.0.0 -  RELEASE  -
|  1> !LC-BLYP RIJCOSX def2-TZVP def2/J TightSCF xyzfile
|  2>
|  3> *xyzfile 0 1 D3.xyz
|  4>
|  5> %MaxCore 64000
|  6>
|  7> %pal nprocs 18
|  8> end
|  9>
| 10> %scf
| 11>   MaxIter 150
| 12> end
| 13>
| 14>
| 15>                          ****END OF INPUT****

CARTESIAN COORDINATES (ANGSTROEM)
---------------------------------
  C      5.558206   -1.992914   -6.215054
  C      4.930199   -7.375319   -2.649623
  C      3.841892   -6.951611   -3.632829
  H      3.458144   -5.954425   -3.407121
  H      2.988484   -7.643606   -3.567078
  S      4.318115   -6.915930   -5.368692
  C      4.181880   -2.589671   -6.298911
  C      3.145873   -1.768431   -6.486753
  N      4.019102   -3.864307   -6.227427
  H      4.768490   -4.591153   -5.990773
  H      3.122405   -4.333392   -6.314620
  H      3.281635   -0.777786   -6.566549
  H      2.212549   -2.134193   -6.562246
  O      5.406154   -5.899480   -5.512972
  F      3.111910   -6.445079   -6.043792
  C      6.419260   -2.542944   -5.077630
  C      5.872267   -5.002756   -2.427819
  C      6.173994   -6.485522   -2.606315
  H      6.734852   -6.613767   -3.534015
  H      6.821463   -6.831018   -1.793617
  H      4.469612   -7.406168   -1.655876
  H      5.230134   -8.398678   -2.885906
  C      5.896512   -2.169314   -3.694552
  H      7.428880   -2.143665   -5.208078
  H      6.505894   -3.627541   -5.175502
  C      6.807804   -2.623428   -2.551019
  H      4.894708   -2.589732   -3.557501
  H      5.778823   -1.081255   -3.635790
  C      7.111544   -4.122463   -2.520363
  H      7.751615   -2.071393   -2.614406
  H      6.345837   -2.326401   -1.604086
  H      5.362882   -4.828697   -1.471335
  H      5.174429   -4.702577   -3.211298
  H      7.778329   -4.329347   -1.677651
  H      7.673189   -4.402845   -3.417586
  O      4.763396   -8.239424   -5.698629
  H      6.036826   -2.198189   -7.176852
  H      5.467610   -0.907371   -6.127968

 Total Charge           Charge          ....    0
 Multiplicity           Mult            ....    1
 Number of Electrons    NEL             ....  136
 Basis Dimension        Dim             ....  634

ORBITAL ENERGIES
----------------

  NO   OCC          E(Eh)            E(eV)
   0   2.0000     -88.545976     -2409.4585
   1   2.0000     -24.593007      -669.2097
   2   2.0000     -18.978880      -516.4416
   3   2.0000     -18.971323      -516.2359
   4   2.0000     -14.139493      -384.7552
   5   2.0000     -10.147727      -276.1337
   6   2.0000     -10.106849      -275.0214
   7   2.0000     -10.076396      -274.1927
   8   2.0000     -10.074338      -274.1367
   9   2.0000     -10.067007      -273.9372
  10   2.0000     -10.060961      -273.7727
  11   2.0000     -10.057524      -273.6792
  12   2.0000     -10.052134      -273.5325
  13   2.0000     -10.051650      -273.5193
  14   2.0000     -10.051592      -273.5177
  15   2.0000      -9.979024      -271.5431
  16   2.0000      -8.088573      -220.1013
  17   2.0000      -6.120334      -166.5427
  18   2.0000      -6.113587      -166.3592
  19   2.0000      -6.112988      -166.3429
  20   2.0000      -1.478339       -40.2277
  21   2.0000      -1.230486       -33.4832
  22   2.0000      -1.134107       -30.8606
  23   2.0000      -1.013136       -27.5688
  24   2.0000      -0.962680       -26.1958
  25   2.0000      -0.923578       -25.1318
  26   2.0000      -0.897463       -24.4212
  27   2.0000      -0.868315       -23.6281
  28   2.0000      -0.845506       -23.0074
  29   2.0000      -0.816753       -22.2250
  30   2.0000      -0.798429       -21.7263
  31   2.0000      -0.763401       -20.7732
  32   2.0000      -0.730444       -19.8764
  33   2.0000      -0.717596       -19.5268
  34   2.0000      -0.710755       -19.3406
  35   2.0000      -0.696764       -18.9599
  36   2.0000      -0.684652       -18.6303
  37   2.0000      -0.665076       -18.0976
  38   2.0000      -0.659128       -17.9358
  39   2.0000      -0.629035       -17.1169
  40   2.0000      -0.613886       -16.7047
  41   2.0000      -0.602913       -16.4061
  42   2.0000      -0.587011       -15.9734
  43   2.0000      -0.571394       -15.5484
  44   2.0000      -0.564524       -15.3615
  45   2.0000      -0.561300       -15.2738
  46   2.0000      -0.551091       -14.9959
  47   2.0000      -0.535022       -14.5587
  48   2.0000      -0.527992       -14.3674
  49   2.0000      -0.521746       -14.1974
  50   2.0000      -0.515516       -14.0279
  51   2.0000      -0.505167       -13.7463
  52   2.0000      -0.491607       -13.3773
  53   2.0000      -0.485387       -13.2080
  54   2.0000      -0.473835       -12.8937
  55   2.0000      -0.464218       -12.6320
  56   2.0000      -0.459610       -12.5066
  57   2.0000      -0.456644       -12.4259
  58   2.0000      -0.449994       -12.2450
  59   2.0000      -0.435674       -11.8553
  60   2.0000      -0.431614       -11.7448
  61   2.0000      -0.426735       -11.6121
  62   2.0000      -0.424141       -11.5415
  63   2.0000      -0.412874       -11.2349
  64   2.0000      -0.405589       -11.0366
  65   2.0000      -0.398797       -10.8518
  66   2.0000      -0.395206       -10.7541
  67   2.0000      -0.262219        -7.1353
  68   0.0000       0.071103         1.9348
  69   0.0000       0.079538         2.1643
  70   0.0000       0.099409         2.7050
  71   0.0000       0.105502         2.8709
  72   0.0000       0.114704         3.1213

MULLIKEN ATOMIC CHARGES
-----------------------
   0 C :   -0.240660
   1 C :   -0.250175
   2 C :   -0.370616
   3 H :    0.200774
   4 H :    0.195042
   5 S :    0.799640
   6 C :    0.171303
   7 C :   -0.485074
   8 N :   -0.432141
   9 H :    0.290487
  10 H :    0.197716
  11 H :    0.092721
  12 H :    0.093264
  13 O :   -0.433068
  14 F :   -0.087648
  15 C :   -0.306960
  16 C :   -0.229198
  17 C :   -0.303749
  18 H :    0.177134
  19 H :    0.137312
  20 H :    0.154972
  21 H :    0.171827
  22 C :   -0.273764
  23 H :    0.126318
  24 H :    0.148943
  25 C :   -0.222624
  26 H :    0.149850
  27 H :    0.127416
  28 C :   -0.300095
  29 H :    0.130769
  30 H :    0.126677
  31 H :    0.125234
  32 H :    0.110486
  33 H :    0.129400
  34 H :    0.152380
  35 O :   -0.336612
  36 H :    0.134364
  37 H :    0.128354
Sum of atomic charges:   -0.0000000

LOEWDIN ATOMIC CHARGES
----------------------
   0 C :   -0.219366
   1 C :   -0.284265
   2 C :   -0.379783
   3 H :    0.147925
   4 H :    0.152189
   5 S :    0.554032
   6 C :   -0.382002
   7 C :   -0.307341
   8 N :   -0.022025
   9 H :    0.147628
  10 H :    0.155025
  11 H :    0.098829
  12 H :    0.092906
  13 O :   -0.269012
  14 F :    0.101244
  15 C :   -0.275205
  16 C :   -0.280122
  17 C :   -0.280812
  18 H :    0.146726
  19 H :    0.144932
  20 H :    0.154923
  21 H :    0.152441
  22 C :   -0.275405
  23 H :    0.141505
  24 H :    0.139158
  25 C :   -0.277840
  26 H :    0.141558
  27 H :    0.142818
  28 C :   -0.277305
  29 H :    0.141062
  30 H :    0.139389
  31 H :    0.139430
  32 H :    0.135976
  33 H :    0.139900
  34 H :    0.143660
  35 O :   -0.225324
  36 H :    0.150324
  37 H :    0.152224

  Mayer bond orders larger than 0.100000
B(  0-C ,  6-C ) :   0.9294 B(  0-C , 15-C ) :   0.9415 B(  0-C , 36-H ) :   0.9765
B(  0-C , 37-H ) :   0.9948 B(  1-C ,  2-C ) :   0.9046 B(  1-C , 17-C ) :   0.9342
B(  1-C , 20-H ) :   0.9633 B(  1-C , 21-H ) :   0.9776 B(  2-C ,  3-H ) :   0.9310
B(  2-C ,  4-H ) :   0.9422 B(  2-C ,  5-S ) :   0.9252 B(  5-S , 13-O ) :   1.7226
B(  5-S , 14-F ) :   1.1442 B(  5-S , 35-O ) :   2.0369 B(  6-C ,  7-C ) :   1.6978
B(  6-C ,  8-N ) :   1.2256 B(  7-C , 11-H ) :   1.0052 B(  7-C , 12-H ) :   1.0010
B(  8-N ,  9-H ) :   0.8129 B(  8-N , 10-H ) :   0.9265 B(  9-H , 13-O ) :   0.1152
B( 15-C , 22-C ) :   0.8622 B( 15-C , 23-H ) :   0.9774 B( 15-C , 24-H ) :   0.9885
B( 16-C , 17-C ) :   0.8695 B( 16-C , 28-C ) :   0.9073 B( 16-C , 31-H ) :   0.9669
B( 16-C , 32-H ) :   0.9805 B( 17-C , 18-H ) :   0.9822 B( 17-C , 19-H ) :   0.9825
B( 22-C , 25-C ) :   0.9211 B( 22-C , 26-H ) :   0.9920 B( 22-C , 27-H ) :   0.9822
B( 25-C , 28-C ) :   0.9281 B( 25-C , 29-H ) :   0.9893 B( 25-C , 30-H ) :   0.9948
B( 28-C , 33-H ) :   0.9840 B( 28-C , 34-H ) :   0.9916

FINAL SINGLE POINT ENERGY     -1133.885349745134

DIPOLE MOMENT
-------------
                                X             Y             Z
Electronic contribution:    -10.99136     -20.06558     -14.22543
Nuclear contribution   :     10.48431      18.81367      15.71750
                        -----------------------------------------
Total Dipole Moment    :     -0.50705      -1.25191       1.49207
                        -----------------------------------------
Magnitude (a.u.)       :      2.01262
Magnitude (Debye)      :      5.11567

Rotational constants in cm-1:     0.017977     0.012528     0.008321
Rotational constants in MHz :   538.924099   375.570730   249.458530

                             ****ORCA TERMINATED NORMALLY****
TOTAL RUN TIME: 0 days 0 hours 1 minutes 44 seconds 957 msec
