                         Program Version 5.0.0 -  RELEASE  -
|  1> !LC-BLYP RIJCOSX def2-TZVP def2/J TightSCF xyzfile
|  2>
|  3> *xyzfile 0 1 D5.xyz
|  4>
|  5> %MaxCore 64000
|  6>
|  7> %pal nprocs 18
|  8> end
|  9>
| 10> %scf
| 11>   MaxIter 150
| 12> end
| 13>
| 14>
| 15>                          ****END OF INPUT****

CARTESIAN COORDINATES (ANGSTROEM)
---------------------------------
  C      5.558206   -1.992914   -6.215054
  C      4.930199   -7.375319   -2.649623
  C      3.841892   -6.951611   -3.632829
  H      3.458144   -5.954425   -3.407121
  H      2.988484   -7.643606   -3.567078
  S      4.318115   -6.915930   -5.368692
  C      4.181880   -2.589671   -6.298911
  C      3.145873   -1.768431   -6.486753
  N      4.019102   -3.864307   -6.227427
  H      4.768490   -4.591153   -5.990773
  H      3.122405   -4.333392   -6.314620
  H      3.281635   -0.777786   -6.566549
  H      2.212549   -2.134193   -6.562246
  O      5.406154   -5.899480   -5.512972
  O      3.111910   -6.445079   -6.043792
  C      6.419260   -2.542944   -5.077630
  C      5.872267   -5.002756   -2.427819
  C      6.173994   -6.485522   -2.606315
  H      6.734852   -6.613767   -3.534015
  H      6.821463   -6.831018   -1.793617
  H      4.469612   -7.406168   -1.655876
  H      5.230134   -8.398678   -2.885906
  C      5.896512   -2.169314   -3.694552
  H      7.428880   -2.143665   -5.208078
  H      6.505894   -3.627541   -5.175502
  C      6.807804   -2.623428   -2.551019
  H      4.894708   -2.589732   -3.557501
  H      5.778823   -1.081255   -3.635790
  C      7.111544   -4.122463   -2.520363
  H      7.751615   -2.071393   -2.614406
  H      6.345837   -2.326401   -1.604086
  H      5.362882   -4.828697   -1.471335
  H      5.174429   -4.702577   -3.211298
  H      7.778329   -4.329347   -1.677651
  H      7.673189   -4.402845   -3.417586
  F      4.763396   -8.239424   -5.698629
  H      6.036826   -2.198189   -7.176852
  H      5.467610   -0.907371   -6.127968

 Total Charge           Charge          ....    0
 Multiplicity           Mult            ....    1
 Number of Electrons    NEL             ....  136
 Basis Dimension        Dim             ....  634

ORBITAL ENERGIES
----------------

  NO   OCC          E(Eh)            E(eV)
   0   2.0000     -88.550012     -2409.5683
   1   2.0000     -24.604728      -669.5287
   2   2.0000     -18.973667      -516.2997
   3   2.0000     -18.973229      -516.2878
   4   2.0000     -14.121924      -384.2771
   5   2.0000     -10.149245      -276.1750
   6   2.0000     -10.109835      -275.1026
   7   2.0000     -10.080477      -274.3037
   8   2.0000     -10.068164      -273.9687
   9   2.0000     -10.062118      -273.8042
  10   2.0000     -10.061130      -273.7773
  11   2.0000     -10.055922      -273.6355
  12   2.0000     -10.047964      -273.4190
  13   2.0000     -10.047680      -273.4113
  14   2.0000     -10.043969      -273.3103
  15   2.0000      -9.966808      -271.2106
  16   2.0000      -8.092425      -220.2061
  17   2.0000      -6.124143      -166.6464
  18   2.0000      -6.117588      -166.4680
  19   2.0000      -6.116726      -166.4446
  20   2.0000      -1.496630       -40.7254
  21   2.0000      -1.226111       -33.3642
  22   2.0000      -1.126418       -30.6514
  23   2.0000      -0.997633       -27.1470
  24   2.0000      -0.966664       -26.3043
  25   2.0000      -0.922673       -25.1072
  26   2.0000      -0.895531       -24.3686
  27   2.0000      -0.865385       -23.5483
  28   2.0000      -0.847252       -23.0549
  29   2.0000      -0.816208       -22.2101
  30   2.0000      -0.794531       -21.6203
  31   2.0000      -0.760995       -20.7077
  32   2.0000      -0.736445       -20.0397
  33   2.0000      -0.724131       -19.7046
  34   2.0000      -0.713376       -19.4119
  35   2.0000      -0.701064       -19.0769
  36   2.0000      -0.677449       -18.4343
  37   2.0000      -0.662572       -18.0295
  38   2.0000      -0.652687       -17.7605
  39   2.0000      -0.620472       -16.8839
  40   2.0000      -0.615932       -16.7604
  41   2.0000      -0.608698       -16.5635
  42   2.0000      -0.587074       -15.9751
  43   2.0000      -0.569185       -15.4883
  44   2.0000      -0.567173       -15.4336
  45   2.0000      -0.556884       -15.1536
  46   2.0000      -0.544331       -14.8120
  47   2.0000      -0.534828       -14.5534
  48   2.0000      -0.526264       -14.3204
  49   2.0000      -0.523240       -14.2381
  50   2.0000      -0.506561       -13.7842
  51   2.0000      -0.500415       -13.6170
  52   2.0000      -0.492148       -13.3920
  53   2.0000      -0.478195       -13.0123
  54   2.0000      -0.469549       -12.7771
  55   2.0000      -0.459237       -12.4965
  56   2.0000      -0.456142       -12.4123
  57   2.0000      -0.448831       -12.2133
  58   2.0000      -0.447039       -12.1645
  59   2.0000      -0.437312       -11.8999
  60   2.0000      -0.426889       -11.6162
  61   2.0000      -0.423159       -11.5147
  62   2.0000      -0.421317       -11.4646
  63   2.0000      -0.410202       -11.1622
  64   2.0000      -0.402399       -10.9498
  65   2.0000      -0.392973       -10.6933
  66   2.0000      -0.388741       -10.5782
  67   2.0000      -0.248593        -6.7645
  68   0.0000       0.060810         1.6547
  69   0.0000       0.087960         2.3935
  70   0.0000       0.101326         2.7572
  71   0.0000       0.102784         2.7969
  72   0.0000       0.111206         3.0261

MULLIKEN ATOMIC CHARGES
-----------------------
   0 C :   -0.240143
   1 C :   -0.268100
   2 C :   -0.377030
   3 H :    0.219540
   4 H :    0.199326
   5 S :    0.815220
   6 C :    0.169974
   7 C :   -0.494562
   8 N :   -0.410518
   9 H :    0.274295
  10 H :    0.227433
  11 H :    0.087630
  12 H :    0.095603
  13 O :   -0.434562
  14 O :   -0.391224
  15 C :   -0.304909
  16 C :   -0.229379
  17 C :   -0.288355
  18 H :    0.162463
  19 H :    0.138273
  20 H :    0.156912
  21 H :    0.160892
  22 C :   -0.274983
  23 H :    0.123246
  24 H :    0.143136
  25 C :   -0.222248
  26 H :    0.153041
  27 H :    0.127154
  28 C :   -0.300219
  29 H :    0.129913
  30 H :    0.126343
  31 H :    0.127222
  32 H :    0.116398
  33 H :    0.128587
  34 H :    0.151156
  35 F :   -0.053706
  36 H :    0.130465
  37 H :    0.125716
Sum of atomic charges:    0.0000000

LOEWDIN ATOMIC CHARGES
----------------------
   0 C :   -0.220784
   1 C :   -0.296685
   2 C :   -0.373537
   3 H :    0.160489
   4 H :    0.153712
   5 S :    0.554734
   6 C :   -0.384389
   7 C :   -0.315257
   8 N :   -0.009803
   9 H :    0.151029
  10 H :    0.166383
  11 H :    0.096996
  12 H :    0.093389
  13 O :   -0.273851
  14 O :   -0.255789
  15 C :   -0.276153
  16 C :   -0.279028
  17 C :   -0.284647
  18 H :    0.142130
  19 H :    0.144616
  20 H :    0.154497
  21 H :    0.144388
  22 C :   -0.275040
  23 H :    0.140307
  24 H :    0.137817
  25 C :   -0.278076
  26 H :    0.142621
  27 H :    0.142967
  28 C :   -0.277608
  29 H :    0.140862
  30 H :    0.139237
  31 H :    0.140141
  32 H :    0.138063
  33 H :    0.139374
  34 H :    0.143259
  35 F :    0.133316
  36 H :    0.149060
  37 H :    0.151260

  Mayer bond orders larger than 0.100000
B(  0-C ,  6-C ) :   0.9294 B(  0-C , 15-C ) :   0.9420 B(  0-C , 36-H ) :   0.9776
B(  0-C , 37-H ) :   0.9949 B(  1-C ,  2-C ) :   0.8883 B(  1-C , 17-C ) :   0.9082
B(  1-C , 20-H ) :   0.9646 B(  1-C , 21-H ) :   0.9892 B(  2-C ,  3-H ) :   0.9314
B(  2-C ,  4-H ) :   0.9503 B(  2-C ,  5-S ) :   0.9219 B(  5-S , 13-O ) :   1.7443
B(  5-S , 14-O ) :   1.9196 B(  5-S , 35-F ) :   1.2095 B(  6-C ,  7-C ) :   1.6845
B(  6-C ,  8-N ) :   1.2337 B(  7-C , 11-H ) :   1.0046 B(  7-C , 12-H ) :   0.9997
B(  8-N ,  9-H ) :   0.8388 B(  8-N , 10-H ) :   0.9166 B(  9-H , 13-O ) :   0.1052
B( 15-C , 22-C ) :   0.8633 B( 15-C , 23-H ) :   0.9778 B( 15-C , 24-H ) :   0.9890
B( 16-C , 17-C ) :   0.8647 B( 16-C , 28-C ) :   0.9059 B( 16-C , 31-H ) :   0.9675
B( 16-C , 32-H ) :   0.9803 B( 17-C , 18-H ) :   0.9873 B( 17-C , 19-H ) :   0.9808
B( 22-C , 25-C ) :   0.9190 B( 22-C , 26-H ) :   0.9922 B( 22-C , 27-H ) :   0.9824
B( 25-C , 28-C ) :   0.9303 B( 25-C , 29-H ) :   0.9891 B( 25-C , 30-H ) :   0.9950
B( 28-C , 33-H ) :   0.9842 B( 28-C , 34-H ) :   0.9913

FINAL SINGLE POINT ENERGY     -1133.877080303459

DIPOLE MOMENT
-------------
                                X             Y             Z
Electronic contribution:     -8.09597     -23.41358     -13.60433
Nuclear contribution   :      8.54118      20.92489      15.31138
                        -----------------------------------------
Total Dipole Moment    :      0.44521      -2.48869       1.70705
                        -----------------------------------------
Magnitude (a.u.)       :      3.05054
Magnitude (Debye)      :      7.75386

Rotational constants in cm-1:     0.018156     0.012306     0.008278
Rotational constants in MHz :   544.309022   368.914527   248.178402

                             ****ORCA TERMINATED NORMALLY****
TOTAL RUN TIME: 0 days 0 hours 1 minutes 55 seconds 359 msec
