                         Program Version 5.0.0 -  RELEASE  -
|  1> !TPSS D3BJ RIJCOSX def2-SVPD def2/J TightSCF
|  2> *xyz -1 1
|  3> C          3.93993        0.32036       -4.36773
|  4> C          5.10585        0.66802       -5.30546
|  5> O          4.80913        1.15019       -6.41436
|  6> O          6.26737        0.56500       -4.81948
|  7> H          3.01376        0.44480       -4.88890
|  8> H          3.96058        0.96928       -3.51722
|  9> H          4.03331       -0.69517       -4.04388
| 10> *
| 11>
| 12> %MaxCore 64000
| 13>
| 14> %pal nprocs 4
| 15> end
| 16>
| 17> %scf
| 18>   MaxIter 150
| 19> end
| 20>
| 21>
| 22>                          ****END OF INPUT****

CARTESIAN COORDINATES (ANGSTROEM)
---------------------------------
  C      3.939930    0.320360   -4.367730
  C      5.105850    0.668020   -5.305460
  O      4.809130    1.150190   -6.414360
  O      6.267370    0.565000   -4.819480
  H      3.013760    0.444800   -4.888900
  H      3.960580    0.969280   -3.517220
  H      4.033310   -0.695170   -4.043880

 Total Charge           Charge          ....   -1
 Multiplicity           Mult            ....    1
 Number of Electrons    NEL             ....   32
 Basis Dimension        Dim             ....  110

ORBITAL ENERGIES
----------------

  NO   OCC          E(Eh)            E(eV)
   0   2.0000     -18.637215      -507.1444
   1   2.0000     -18.633291      -507.0376
   2   2.0000      -9.874691      -268.7040
   3   2.0000      -9.811816      -266.9931
   4   2.0000      -0.737545       -20.0696
   5   2.0000      -0.649167       -17.6647
   6   2.0000      -0.479569       -13.0497
   7   2.0000      -0.250427        -6.8145
   8   2.0000      -0.216542        -5.8924
   9   2.0000      -0.201631        -5.4867
  10   2.0000      -0.173853        -4.7308
  11   2.0000      -0.137192        -3.7332
  12   2.0000      -0.124420        -3.3856
  13   2.0000      -0.011088        -0.3017
  14   2.0000       0.003147         0.0856
  15   2.0000       0.017644         0.4801
  16   0.0000       0.163668         4.4536
  17   0.0000       0.203858         5.5473
  18   0.0000       0.206490         5.6189
  19   0.0000       0.231286         6.2936
  20   0.0000       0.248317         6.7571

MULLIKEN ATOMIC CHARGES
-----------------------
   0 C :    0.394420
   1 C :    0.050565
   2 O :   -0.629088
   3 O :   -0.684765
   4 H :   -0.058630
   5 H :   -0.037069
   6 H :   -0.035434
Sum of atomic charges:   -1.0000000

LOEWDIN ATOMIC CHARGES
----------------------
   0 C :    0.148096
   1 C :   -0.332031
   2 O :   -0.328043
   3 O :   -0.344883
   4 H :   -0.052735
   5 H :   -0.042898
   6 H :   -0.047506

  Mayer bond orders larger than 0.100000
B(  0-C ,  1-C ) :   1.2447 B(  0-C ,  4-H ) :   0.8974 B(  0-C ,  5-H ) :   0.8541
B(  0-C ,  6-H ) :   0.8387 B(  1-C ,  2-O ) :   1.4710 B(  1-C ,  3-O ) :   1.4573
B(  1-C ,  4-H ) :   0.2290 B(  1-C ,  5-H ) :   0.1506 B(  1-C ,  6-H ) :   0.1667

Dispersion correction           -0.004509900
FINAL SINGLE POINT ENERGY      -228.405030803027

DIPOLE MOMENT
-------------
                                X             Y             Z
Electronic contribution:      2.77824       0.88727      -2.27388
Nuclear contribution   :     -3.81330      -1.22874       3.01208
                        -----------------------------------------
Total Dipole Moment    :     -1.03506      -0.34148       0.73820
                        -----------------------------------------
Magnitude (a.u.)       :      1.31639
Magnitude (Debye)      :      3.34601

Rotational constants in cm-1:     0.390282     0.335702     0.186718
Rotational constants in MHz : 11700.346989 10064.094211  5597.661196

                             ****ORCA TERMINATED NORMALLY****
TOTAL RUN TIME: 0 days 0 hours 0 minutes 4 seconds 896 msec
