                         Program Version 5.0.0 -  RELEASE  -
|  1> !TPSS D3BJ RIJCOSX def2-SVPD def2/J TightSCF
|  2> *xyz 1 1
|  3> C          3.90595        2.81985       -3.75292
|  4> N          5.29562        3.13151       -4.10533
|  5> C          5.70862        3.46889       -5.32419
|  6> N          6.90470        3.03895       -5.71708
|  7> N          4.98188        4.29357       -6.09746
|  8> H          5.00055        4.10131       -7.08776
|  9> H          4.08469        4.59690       -5.73965
| 10> H          5.96336        2.52611       -3.64239
| 11> H          7.04716        2.06686       -5.47360
| 12> H          7.19815        3.30799       -6.64523
| 13> H          3.24866        3.48801       -4.26909
| 14> H          3.77188        2.93227       -2.69732
| 15> H          3.68381        1.81198       -4.03533
| 16> *
| 17>
| 18> %MaxCore 64000
| 19>
| 20> %pal nprocs 4
| 21> end
| 22>
| 23> %scf
| 24>   MaxIter 150
| 25> end
| 26>
| 27>
| 28>                          ****END OF INPUT****

CARTESIAN COORDINATES (ANGSTROEM)
---------------------------------
  C      3.905950    2.819850   -3.752920
  N      5.295620    3.131510   -4.105330
  C      5.708620    3.468890   -5.324190
  N      6.904700    3.038950   -5.717080
  N      4.981880    4.293570   -6.097460
  H      5.000550    4.101310   -7.087760
  H      4.084690    4.596900   -5.739650
  H      5.963360    2.526110   -3.642390
  H      7.047160    2.066860   -5.473600
  H      7.198150    3.307990   -6.645230
  H      3.248660    3.488010   -4.269090
  H      3.771880    2.932270   -2.697320
  H      3.683810    1.811980   -4.035330

 Total Charge           Charge          ....    1
 Multiplicity           Mult            ....    1
 Number of Electrons    NEL             ....   40
 Basis Dimension        Dim             ....  164

ORBITAL ENERGIES
----------------

  NO   OCC          E(Eh)            E(eV)
   0   2.0000     -14.351256      -390.5175
   1   2.0000     -14.349823      -390.4785
   2   2.0000     -14.349490      -390.4695
   3   2.0000     -10.331783      -281.1421
   4   2.0000     -10.214304      -277.9453
   5   2.0000      -1.150928       -31.3183
   6   2.0000      -1.043884       -28.4055
   7   2.0000      -1.036924       -28.2161
   8   2.0000      -0.853347       -23.2207
   9   2.0000      -0.776717       -21.1355
  10   2.0000      -0.737239       -20.0613
  11   2.0000      -0.713522       -19.4159
  12   2.0000      -0.663964       -18.0674
  13   2.0000      -0.650871       -17.7111
  14   2.0000      -0.609748       -16.5921
  15   2.0000      -0.600044       -16.3280
  16   2.0000      -0.551772       -15.0145
  17   2.0000      -0.545845       -14.8532
  18   2.0000      -0.457247       -12.4423
  19   2.0000      -0.433713       -11.8019
  20   0.0000      -0.227695        -6.1959
  21   0.0000      -0.174980        -4.7614
  22   0.0000      -0.137210        -3.7337
  23   0.0000      -0.128879        -3.5070
  24   0.0000      -0.105249        -2.8640

MULLIKEN ATOMIC CHARGES
-----------------------
   0 C :    1.135075
   1 N :   -0.492204
   2 C :    0.837500
   3 N :   -0.011141
   4 N :    0.060920
   5 H :   -0.012995
   6 H :   -0.008133
   7 H :   -0.163183
   8 H :    0.018409
   9 H :    0.025488
  10 H :   -0.165493
  11 H :   -0.153689
  12 H :   -0.070555
Sum of atomic charges:    1.0000000

LOEWDIN ATOMIC CHARGES
----------------------
   0 C :    0.279033
   1 N :    0.030835
   2 C :   -0.056682
   3 N :    0.275647
   4 N :    0.287258
   5 H :    0.037548
   6 H :    0.019037
   7 H :    0.050175
   8 H :    0.037955
   9 H :    0.037100
  10 H :   -0.015424
  11 H :    0.010241
  12 H :    0.007277

  Mayer bond orders larger than 0.100000
B(  0-C ,  1-N ) :   0.8982 B(  0-C , 10-H ) :   0.8441 B(  0-C , 11-H ) :   0.7997
B(  0-C , 12-H ) :   0.8068 B(  1-N ,  2-C ) :   1.1518 B(  1-N ,  3-N ) :   0.2029
B(  1-N ,  4-N ) :   0.1066 B(  1-N ,  7-H ) :   1.1788 B(  1-N , 10-H ) :   0.1381
B(  1-N , 11-H ) :   0.1961 B(  1-N , 12-H ) :   0.1299 B(  2-C ,  3-N ) :   1.0038
B(  2-C ,  4-N ) :   1.0109 B(  2-C ,  7-H ) :  -0.1521 B(  3-N ,  4-N ) :   0.1410
B(  3-N ,  8-H ) :   1.0528 B(  3-N ,  9-H ) :   0.9702 B(  4-N ,  5-H ) :   1.1226
B(  4-N ,  6-H ) :   0.9796 B(  5-H ,  6-H ) :  -0.1155

Dispersion correction           -0.011217512
FINAL SINGLE POINT ENERGY      -244.954214043479

DIPOLE MOMENT
-------------
                                X             Y             Z
Electronic contribution:      2.50975       1.10332      -1.17797
Nuclear contribution   :     -2.62204      -1.73043       0.52001
                        -----------------------------------------
Total Dipole Moment    :     -0.11228      -0.62711      -0.65796
                        -----------------------------------------
Magnitude (a.u.)       :      0.91585
Magnitude (Debye)      :      2.32791

Rotational constants in cm-1:     0.299316     0.133886     0.097604
Rotational constants in MHz :  8973.254382  4013.798371  2926.103660

                             ****ORCA TERMINATED NORMALLY****
TOTAL RUN TIME: 0 days 0 hours 0 minutes 9 seconds 346 msec
