                         Program Version 5.0.0 -  RELEASE  -
|  1> !TPSS D3BJ RIJCOSX def2-SVPD def2/J TightSCF
|  2> *xyz 0 1
|  3> C          3.93993        0.32036       -4.36773
|  4> C          5.10585        0.66802       -5.30546
|  5> F          4.80913        1.15019       -6.41436
|  6> O          6.26737        0.56500       -4.81948
|  7> H          3.01376        0.44480       -4.88890
|  8> H          3.96058        0.96928       -3.51722
|  9> H          4.03331       -0.69517       -4.04388
| 10> *
| 11>
| 12> %MaxCore 64000
| 13>
| 14> %pal nprocs 4
| 15> end
| 16>
| 17> %scf
| 18>   MaxIter 150
| 19> end
| 20>
| 21>
| 22>                          ****END OF INPUT****

CARTESIAN COORDINATES (ANGSTROEM)
---------------------------------
  C      3.939930    0.320360   -4.367730
  C      5.105850    0.668020   -5.305460
  F      4.809130    1.150190   -6.414360
  O      6.267370    0.565000   -4.819480
  H      3.013760    0.444800   -4.888900
  H      3.960580    0.969280   -3.517220
  H      4.033310   -0.695170   -4.043880

 Total Charge           Charge          ....    0
 Multiplicity           Mult            ....    1
 Number of Electrons    NEL             ....   32
 Basis Dimension        Dim             ....  110

ORBITAL ENERGIES
----------------

  NO   OCC          E(Eh)            E(eV)
   0   2.0000     -24.504020      -666.7883
   1   2.0000     -18.908289      -514.5207
   2   2.0000     -10.177642      -276.9477
   3   2.0000     -10.029349      -272.9124
   4   2.0000      -1.236943       -33.6589
   5   2.0000      -0.953001       -25.9325
   6   2.0000      -0.709851       -19.3160
   7   2.0000      -0.606487       -16.5033
   8   2.0000      -0.502072       -13.6621
   9   2.0000      -0.496062       -13.4985
  10   2.0000      -0.453353       -12.3364
  11   2.0000      -0.406406       -11.0589
  12   2.0000      -0.393615       -10.7108
  13   2.0000      -0.355163        -9.6645
  14   2.0000      -0.316378        -8.6091
  15   2.0000      -0.251086        -6.8324
  16   0.0000      -0.069226        -1.8837
  17   0.0000       0.002176         0.0592
  18   0.0000       0.048447         1.3183
  19   0.0000       0.075258         2.0479
  20   0.0000       0.077215         2.1011

MULLIKEN ATOMIC CHARGES
-----------------------
   0 C :    0.344791
   1 C :    0.447895
   2 F :   -0.331868
   3 O :   -0.511824
   4 H :   -0.017862
   5 H :    0.038874
   6 H :    0.029994
Sum of atomic charges:   -0.0000000

LOEWDIN ATOMIC CHARGES
----------------------
   0 C :    0.223285
   1 C :   -0.035537
   2 F :   -0.024887
   3 O :   -0.140114
   4 H :   -0.020517
   5 H :    0.000144
   6 H :   -0.002374

  Mayer bond orders larger than 0.100000
B(  0-C ,  1-C ) :   1.2492 B(  0-C ,  4-H ) :   0.8970 B(  0-C ,  5-H ) :   0.8327
B(  0-C ,  6-H ) :   0.8195 B(  1-C ,  2-F ) :   0.8025 B(  1-C ,  3-O ) :   1.7527
B(  1-C ,  4-H ) :   0.1435 B(  1-C ,  5-H ) :   0.1210 B(  1-C ,  6-H ) :   0.1417

Dispersion correction           -0.004156096
FINAL SINGLE POINT ENERGY      -252.937274088399

DIPOLE MOMENT
-------------
                                X             Y             Z
Electronic contribution:      2.44567       1.63631      -4.17664
Nuclear contribution   :     -3.58567      -1.71656       4.24175
                        -----------------------------------------
Total Dipole Moment    :     -1.14000      -0.08025       0.06511
                        -----------------------------------------
Magnitude (a.u.)       :      1.14467
Magnitude (Debye)      :      2.90952

Rotational constants in cm-1:     0.365806     0.323297     0.177262
Rotational constants in MHz : 10966.600844  9692.195205  5314.176777

                             ****ORCA TERMINATED NORMALLY****
TOTAL RUN TIME: 0 days 0 hours 0 minutes 4 seconds 590 msec
