                         Program Version 5.0.0 -  RELEASE  -
|  1> !TPSS D3BJ RIJCOSX def2-SVPD def2/J TightSCF
|  2> *xyz 0 1
|  3> C          3.90595        2.81985       -3.75292
|  4> C          5.29562        3.13151       -4.10533
|  5> C          5.70862        3.46889       -5.32419
|  6> N          6.90470        3.03895       -5.71708
|  7> N          4.98188        4.29357       -6.09746
|  8> H          5.00055        4.10131       -7.08776
|  9> H          4.08469        4.59690       -5.73965
| 10> H          5.96336        2.52611       -3.64239
| 11> H          7.04716        2.06686       -5.47360
| 12> H          7.19815        3.30799       -6.64523
| 13> H          3.24866        3.48801       -4.26909
| 14> H          3.77188        2.93227       -2.69732
| 15> H          3.68381        1.81198       -4.03533
| 16> *
| 17>
| 18> %MaxCore 64000
| 19>
| 20> %pal nprocs 4
| 21> end
| 22>
| 23> %scf
| 24>   MaxIter 150
| 25> end
| 26>
| 27>
| 28>                          ****END OF INPUT****

CARTESIAN COORDINATES (ANGSTROEM)
---------------------------------
  C      3.905950    2.819850   -3.752920
  C      5.295620    3.131510   -4.105330
  C      5.708620    3.468890   -5.324190
  N      6.904700    3.038950   -5.717080
  N      4.981880    4.293570   -6.097460
  H      5.000550    4.101310   -7.087760
  H      4.084690    4.596900   -5.739650
  H      5.963360    2.526110   -3.642390
  H      7.047160    2.066860   -5.473600
  H      7.198150    3.307990   -6.645230
  H      3.248660    3.488010   -4.269090
  H      3.771880    2.932270   -2.697320
  H      3.683810    1.811980   -4.035330

 Total Charge           Charge          ....    0
 Multiplicity           Mult            ....    1
 Number of Electrons    NEL             ....   40
 Basis Dimension        Dim             ....  164

ORBITAL ENERGIES
----------------

  NO   OCC          E(Eh)            E(eV)
   0   2.0000     -14.121493      -384.2654
   1   2.0000     -14.120288      -384.2326
   2   2.0000     -10.034952      -273.0649
   3   2.0000      -9.972004      -271.3520
   4   2.0000      -9.927240      -270.1339
   5   2.0000      -0.891529       -24.2597
   6   2.0000      -0.808616       -22.0035
   7   2.0000      -0.691058       -18.8047
   8   2.0000      -0.600167       -16.3314
   9   2.0000      -0.531682       -14.4678
  10   2.0000      -0.491634       -13.3780
  11   2.0000      -0.462563       -12.5870
  12   2.0000      -0.434964       -11.8360
  13   2.0000      -0.387941       -10.5564
  14   2.0000      -0.363723        -9.8974
  15   2.0000      -0.338350        -9.2070
  16   2.0000      -0.315381        -8.5820
  17   2.0000      -0.296037        -8.0556
  18   2.0000      -0.234724        -6.3872
  19   2.0000      -0.139316        -3.7910
  20   0.0000      -0.001161        -0.0316
  21   0.0000       0.022706         0.6179
  22   0.0000       0.038248         1.0408
  23   0.0000       0.042573         1.1585
  24   0.0000       0.075700         2.0599

MULLIKEN ATOMIC CHARGES
-----------------------
   0 C :    0.806421
   1 C :   -0.522254
   2 C :    0.254475
   3 N :    0.034798
   4 N :    0.042752
   5 H :   -0.082223
   6 H :   -0.018723
   7 H :   -0.142835
   8 H :   -0.001276
   9 H :   -0.080580
  10 H :   -0.229150
  11 H :    0.011307
  12 H :   -0.072713
Sum of atomic charges:    0.0000000

LOEWDIN ATOMIC CHARGES
----------------------
   0 C :    0.106209
   1 C :   -0.049818
   2 C :   -0.247291
   3 N :    0.189163
   4 N :    0.198129
   5 H :   -0.015755
   6 H :   -0.013513
   7 H :   -0.057162
   8 H :    0.001833
   9 H :   -0.014428
  10 H :   -0.047281
  11 H :   -0.026303
  12 H :   -0.023784

  Mayer bond orders larger than 0.100000
B(  0-C ,  1-C ) :   1.1215 B(  0-C ,  7-H ) :   0.1912 B(  0-C , 10-H ) :   0.7625
B(  0-C , 11-H ) :   0.7080 B(  0-C , 12-H ) :   0.8388 B(  1-C ,  2-C ) :   1.8940
B(  1-C ,  3-N ) :   0.3237 B(  1-C ,  4-N ) :   0.1503 B(  1-C ,  7-H ) :   0.7270
B(  1-C , 10-H ) :   0.3003 B(  1-C , 11-H ) :   0.2225 B(  2-C ,  3-N ) :   0.9676
B(  2-C ,  4-N ) :   1.0382 B(  2-C ,  7-H ) :   0.3007 B(  3-N ,  4-N ) :   0.1072
B(  3-N ,  8-H ) :   1.0305 B(  3-N ,  9-H ) :   0.9458 B(  4-N ,  5-H ) :   1.0897
B(  4-N ,  6-H ) :   0.9629 B( 10-H , 11-H ) :   0.1283

Dispersion correction           -0.011737908
FINAL SINGLE POINT ENERGY      -228.486550239682

DIPOLE MOMENT
-------------
                                X             Y             Z
Electronic contribution:      2.54227       1.36894      -1.79132
Nuclear contribution   :     -2.63304      -1.77161       0.70501
                        -----------------------------------------
Total Dipole Moment    :     -0.09078      -0.40267      -1.08631
                        -----------------------------------------
Magnitude (a.u.)       :      1.16209
Magnitude (Debye)      :      2.95380

Rotational constants in cm-1:     0.303572     0.135185     0.098519
Rotational constants in MHz :  9100.846149  4052.756012  2953.539431

                             ****ORCA TERMINATED NORMALLY****
TOTAL RUN TIME: 0 days 0 hours 0 minutes 8 seconds 886 msec
