                         Program Version 5.0.0 -  RELEASE  -
|  1> !TPSS D3BJ RIJCOSX def2-SVPD def2/J TightSCF
|  2> *xyz 0 1
|  3> C          3.93993        0.32036       -4.36773
|  4> C          5.10585        0.66802       -5.30546
|  5> O          4.80913        1.15019       -6.41436
|  6> F          6.26737        0.56500       -4.81948
|  7> H          3.01376        0.44480       -4.88890
|  8> H          3.96058        0.96928       -3.51722
|  9> H          4.03331       -0.69517       -4.04388
| 10> *
| 11>
| 12> %MaxCore 64000
| 13>
| 14> %pal nprocs 4
| 15> end
| 16>
| 17> %scf
| 18>   MaxIter 150
| 19> end
| 20>
| 21>
| 22>                          ****END OF INPUT****

CARTESIAN COORDINATES (ANGSTROEM)
---------------------------------
  C      3.939930    0.320360   -4.367730
  C      5.105850    0.668020   -5.305460
  O      4.809130    1.150190   -6.414360
  F      6.267370    0.565000   -4.819480
  H      3.013760    0.444800   -4.888900
  H      3.960580    0.969280   -3.517220
  H      4.033310   -0.695170   -4.043880

 Total Charge           Charge          ....    0
 Multiplicity           Mult            ....    1
 Number of Electrons    NEL             ....   32
 Basis Dimension        Dim             ....  110

ORBITAL ENERGIES
----------------

  NO   OCC          E(Eh)            E(eV)
   0   2.0000     -24.497440      -666.6092
   1   2.0000     -18.911187      -514.5996
   2   2.0000     -10.176044      -276.9042
   3   2.0000     -10.029097      -272.9056
   4   2.0000      -1.223392       -33.2902
   5   2.0000      -0.964116       -26.2349
   6   2.0000      -0.709349       -19.3024
   7   2.0000      -0.599377       -16.3099
   8   2.0000      -0.495165       -13.4741
   9   2.0000      -0.490268       -13.3409
  10   2.0000      -0.452405       -12.3106
  11   2.0000      -0.404732       -11.0133
  12   2.0000      -0.394635       -10.7386
  13   2.0000      -0.357325        -9.7233
  14   2.0000      -0.325245        -8.8504
  15   2.0000      -0.253371        -6.8946
  16   0.0000      -0.065111        -1.7718
  17   0.0000       0.002479         0.0675
  18   0.0000       0.048655         1.3240
  19   0.0000       0.073264         1.9936
  20   0.0000       0.080970         2.2033

MULLIKEN ATOMIC CHARGES
-----------------------
   0 C :    0.356273
   1 C :    0.458814
   2 O :   -0.471229
   3 F :   -0.372504
   4 H :   -0.035048
   5 H :    0.035159
   6 H :    0.028535
Sum of atomic charges:   -0.0000000

LOEWDIN ATOMIC CHARGES
----------------------
   0 C :    0.223287
   1 C :   -0.035969
   2 O :   -0.128010
   3 F :   -0.036979
   4 H :   -0.006689
   5 H :   -0.005215
   6 H :   -0.010424

  Mayer bond orders larger than 0.100000
B(  0-C ,  1-C ) :   1.2321 B(  0-C ,  4-H ) :   0.9049 B(  0-C ,  5-H ) :   0.8294
B(  0-C ,  6-H ) :   0.8220 B(  1-C ,  2-O ) :   1.7903 B(  1-C ,  3-F ) :   0.7416
B(  1-C ,  4-H ) :   0.1926 B(  1-C ,  5-H ) :   0.1139 B(  1-C ,  6-H ) :   0.1236

Dispersion correction           -0.004156129
FINAL SINGLE POINT ENERGY      -252.942821787310

DIPOLE MOMENT
-------------
                                X             Y             Z
Electronic contribution:      4.78988       0.69363      -1.60643
Nuclear contribution   :     -5.09247      -1.11188       2.59376
                        -----------------------------------------
Total Dipole Moment    :     -0.30259      -0.41825       0.98733
                        -----------------------------------------
Magnitude (a.u.)       :      1.11414
Magnitude (Debye)      :      2.83193

Rotational constants in cm-1:     0.367940     0.321271     0.177147
Rotational constants in MHz : 11030.570495  9631.458923  5310.737691

                             ****ORCA TERMINATED NORMALLY****
TOTAL RUN TIME: 0 days 0 hours 0 minutes 4 seconds 545 msec
