                         Program Version 5.0.0 -  RELEASE  -
|  1> !TPSS D3BJ RIJCOSX def2-SVPD def2/J TightSCF
|  2> *xyz 0 1
|  3> C          3.90595        2.81985       -3.75292
|  4> N          5.29562        3.13151       -4.10533
|  5> C          5.70862        3.46889       -5.32419
|  6> C          6.90470        3.03895       -5.71708
|  7> N          4.98188        4.29357       -6.09746
|  8> H          5.00055        4.10131       -7.08776
|  9> H          4.08469        4.59690       -5.73965
| 10> H          5.96336        2.52611       -3.64239
| 11> H          7.04716        2.06686       -5.47360
| 12> H          7.19815        3.30799       -6.64523
| 13> H          3.24866        3.48801       -4.26909
| 14> H          3.77188        2.93227       -2.69732
| 15> H          3.68381        1.81198       -4.03533
| 16> *
| 17>
| 18> %MaxCore 64000
| 19>
| 20> %pal nprocs 4
| 21> end
| 22>
| 23> %scf
| 24>   MaxIter 150
| 25> end
| 26>
| 27>
| 28>                          ****END OF INPUT****

CARTESIAN COORDINATES (ANGSTROEM)
---------------------------------
  C      3.905950    2.819850   -3.752920
  N      5.295620    3.131510   -4.105330
  C      5.708620    3.468890   -5.324190
  C      6.904700    3.038950   -5.717080
  N      4.981880    4.293570   -6.097460
  H      5.000550    4.101310   -7.087760
  H      4.084690    4.596900   -5.739650
  H      5.963360    2.526110   -3.642390
  H      7.047160    2.066860   -5.473600
  H      7.198150    3.307990   -6.645230
  H      3.248660    3.488010   -4.269090
  H      3.771880    2.932270   -2.697320
  H      3.683810    1.811980   -4.035330

 Total Charge           Charge          ....    0
 Multiplicity           Mult            ....    1
 Number of Electrons    NEL             ....   40
 Basis Dimension        Dim             ....  164

ORBITAL ENERGIES
----------------

  NO   OCC          E(Eh)            E(eV)
   0   2.0000     -14.123104      -384.3092
   1   2.0000     -14.121890      -384.2762
   2   2.0000     -10.040475      -273.2152
   3   2.0000     -10.036387      -273.1040
   4   2.0000      -9.916029      -269.8289
   5   2.0000      -0.896479       -24.3944
   6   2.0000      -0.818142       -22.2628
   7   2.0000      -0.685281       -18.6475
   8   2.0000      -0.615695       -16.7539
   9   2.0000      -0.546945       -14.8831
  10   2.0000      -0.488646       -13.2967
  11   2.0000      -0.449178       -12.2228
  12   2.0000      -0.438785       -11.9399
  13   2.0000      -0.410903       -11.1812
  14   2.0000      -0.370410       -10.0794
  15   2.0000      -0.351802        -9.5730
  16   2.0000      -0.345080        -9.3901
  17   2.0000      -0.305054        -8.3009
  18   2.0000      -0.222330        -6.0499
  19   2.0000      -0.146491        -3.9862
  20   0.0000      -0.001870        -0.0509
  21   0.0000       0.018604         0.5062
  22   0.0000       0.037349         1.0163
  23   0.0000       0.044126         1.2007
  24   0.0000       0.069587         1.8936

MULLIKEN ATOMIC CHARGES
-----------------------
   0 C :    1.095324
   1 N :   -0.512791
   2 C :    0.200838
   3 C :    0.402976
   4 N :    0.112485
   5 H :   -0.052209
   6 H :   -0.109699
   7 H :   -0.145468
   8 H :   -0.215157
   9 H :   -0.278086
  10 H :   -0.204123
  11 H :   -0.202920
  12 H :   -0.091169
Sum of atomic charges:    0.0000000

LOEWDIN ATOMIC CHARGES
----------------------
   0 C :    0.220747
   1 N :   -0.034824
   2 C :   -0.249220
   3 C :    0.147169
   4 N :    0.204557
   5 H :    0.002664
   6 H :   -0.027256
   7 H :    0.021143
   8 H :   -0.104019
   9 H :   -0.105372
  10 H :   -0.035847
  11 H :   -0.018973
  12 H :   -0.020769

  Mayer bond orders larger than 0.100000
B(  0-C ,  1-N ) :   0.9060 B(  0-C , 10-H ) :   0.8442 B(  0-C , 11-H ) :   0.7912
B(  0-C , 12-H ) :   0.8086 B(  1-N ,  2-C ) :   1.1626 B(  1-N ,  3-C ) :   0.2177
B(  1-N ,  7-H ) :   1.1350 B(  1-N , 10-H ) :   0.1413 B(  1-N , 11-H ) :   0.2055
B(  1-N , 12-H ) :   0.1237 B(  2-C ,  3-C ) :   1.7258 B(  2-C ,  4-N ) :   0.9992
B(  2-C ,  7-H ) :  -0.1036 B(  2-C ,  8-H ) :   0.2129 B(  2-C ,  9-H ) :   0.3213
B(  3-C ,  4-N ) :   0.2274 B(  3-C ,  8-H ) :   0.8861 B(  3-C ,  9-H ) :   0.6126
B(  4-N ,  5-H ) :   1.0947 B(  4-N ,  6-H ) :   0.9689 B(  5-H ,  6-H ) :  -0.1057
B(  8-H ,  9-H ) :   0.1953

Dispersion correction           -0.011666684
FINAL SINGLE POINT ENERGY      -228.475846941890

DIPOLE MOMENT
-------------
                                X             Y             Z
Electronic contribution:      0.98139       1.47542      -0.29196
Nuclear contribution   :     -2.30713      -1.79036       0.37856
                        -----------------------------------------
Total Dipole Moment    :     -1.32574      -0.31494       0.08660
                        -----------------------------------------
Magnitude (a.u.)       :      1.36539
Magnitude (Debye)      :      3.47054

Rotational constants in cm-1:     0.307513     0.139026     0.101190
Rotational constants in MHz :  9218.994719  4167.905268  3033.592538

                             ****ORCA TERMINATED NORMALLY****
TOTAL RUN TIME: 0 days 0 hours 0 minutes 10 seconds 521 msec
