                         Program Version 5.0.0 -  RELEASE  -
|  1> !TPSS D3BJ RIJCOSX def2-SVPD def2/J TightSCF
|  2> *xyz 0 1
|  3> C          3.90595        2.81985       -3.75292
|  4> N          5.29562        3.13151       -4.10533
|  5> C          5.70862        3.46889       -5.32419
|  6> N          6.90470        3.03895       -5.71708
|  7> C          4.98188        4.29357       -6.09746
|  8> H          5.00055        4.10131       -7.08776
|  9> H          4.08469        4.59690       -5.73965
| 10> H          5.96336        2.52611       -3.64239
| 11> H          7.04716        2.06686       -5.47360
| 12> H          7.19815        3.30799       -6.64523
| 13> H          3.24866        3.48801       -4.26909
| 14> H          3.77188        2.93227       -2.69732
| 15> H          3.68381        1.81198       -4.03533
| 16> *
| 17>
| 18> %MaxCore 64000
| 19>
| 20> %pal nprocs 4
| 21> end
| 22>
| 23> %scf
| 24>   MaxIter 150
| 25> end
| 26>
| 27>
| 28>                          ****END OF INPUT****

CARTESIAN COORDINATES (ANGSTROEM)
---------------------------------
  C      3.905950    2.819850   -3.752920
  N      5.295620    3.131510   -4.105330
  C      5.708620    3.468890   -5.324190
  N      6.904700    3.038950   -5.717080
  C      4.981880    4.293570   -6.097460
  H      5.000550    4.101310   -7.087760
  H      4.084690    4.596900   -5.739650
  H      5.963360    2.526110   -3.642390
  H      7.047160    2.066860   -5.473600
  H      7.198150    3.307990   -6.645230
  H      3.248660    3.488010   -4.269090
  H      3.771880    2.932270   -2.697320
  H      3.683810    1.811980   -4.035330

 Total Charge           Charge          ....    0
 Multiplicity           Mult            ....    1
 Number of Electrons    NEL             ....   40
 Basis Dimension        Dim             ....  164

ORBITAL ENERGIES
----------------

  NO   OCC          E(Eh)            E(eV)
   0   2.0000     -14.123347      -384.3158
   1   2.0000     -14.122602      -384.2955
   2   2.0000     -10.039889      -273.1993
   3   2.0000     -10.030850      -272.9533
   4   2.0000      -9.920292      -269.9449
   5   2.0000      -0.901412       -24.5287
   6   2.0000      -0.819605       -22.3026
   7   2.0000      -0.663296       -18.0492
   8   2.0000      -0.639032       -17.3889
   9   2.0000      -0.518827       -14.1180
  10   2.0000      -0.494639       -13.4598
  11   2.0000      -0.478078       -13.0092
  12   2.0000      -0.412161       -11.2155
  13   2.0000      -0.407720       -11.0946
  14   2.0000      -0.378735       -10.3059
  15   2.0000      -0.346915        -9.4400
  16   2.0000      -0.340106        -9.2548
  17   2.0000      -0.308100        -8.3838
  18   2.0000      -0.223356        -6.0778
  19   2.0000      -0.147015        -4.0005
  20   0.0000      -0.000391        -0.0106
  21   0.0000       0.022049         0.6000
  22   0.0000       0.035871         0.9761
  23   0.0000       0.043856         1.1934
  24   0.0000       0.069062         1.8793

MULLIKEN ATOMIC CHARGES
-----------------------
   0 C :    1.141087
   1 N :   -0.417277
   2 C :    0.144459
   3 N :   -0.036686
   4 C :    0.364881
   5 H :   -0.309896
   6 H :   -0.137075
   7 H :   -0.267301
   8 H :   -0.025733
   9 H :    0.030006
  10 H :   -0.177220
  11 H :   -0.190544
  12 H :   -0.118700
Sum of atomic charges:    0.0000000

LOEWDIN ATOMIC CHARGES
----------------------
   0 C :    0.230537
   1 N :   -0.035583
   2 C :   -0.260174
   3 N :    0.190182
   4 C :    0.166360
   5 H :   -0.105716
   6 H :   -0.115849
   7 H :    0.008228
   8 H :   -0.012144
   9 H :    0.001729
  10 H :   -0.028827
  11 H :   -0.018675
  12 H :   -0.020070

  Mayer bond orders larger than 0.100000
B(  0-C ,  1-N ) :   0.8788 B(  0-C , 10-H ) :   0.8478 B(  0-C , 11-H ) :   0.7771
B(  0-C , 12-H ) :   0.8023 B(  1-N ,  2-C ) :   1.1364 B(  1-N ,  3-N ) :   0.1645
B(  1-N ,  4-C ) :   0.2276 B(  1-N ,  7-H ) :   1.1157 B(  1-N , 10-H ) :   0.1238
B(  1-N , 11-H ) :   0.1923 B(  1-N , 12-H ) :   0.1571 B(  2-C ,  3-N ) :   1.0247
B(  2-C ,  4-C ) :   1.7964 B(  2-C ,  5-H ) :   0.1947 B(  2-C ,  6-H ) :   0.2635
B(  3-N ,  4-C ) :   0.1699 B(  3-N ,  8-H ) :   0.9924 B(  3-N ,  9-H ) :   0.9656
B(  4-C ,  5-H ) :   0.8881 B(  4-C ,  6-H ) :   0.5578 B(  5-H ,  6-H ) :   0.2841

Dispersion correction           -0.011712233
FINAL SINGLE POINT ENERGY      -228.479109926422

DIPOLE MOMENT
-------------
                                X             Y             Z
Electronic contribution:      2.78970       0.31431       0.00383
Nuclear contribution   :     -2.69659      -1.53624       0.30152
                        -----------------------------------------
Total Dipole Moment    :      0.09311      -1.22193       0.30534
                        -----------------------------------------
Magnitude (a.u.)       :      1.26294
Magnitude (Debye)      :      3.21014

Rotational constants in cm-1:     0.320409     0.134796     0.100241
Rotational constants in MHz :  9605.632807  4041.079317  3005.150506

                             ****ORCA TERMINATED NORMALLY****
TOTAL RUN TIME: 0 days 0 hours 0 minutes 10 seconds 214 msec
