                         Program Version 5.0.0 -  RELEASE  -
|  1> !TPSS D3BJ RIJCOSX def2-SVPD def2/J TightSCF xyzfile
|  2>
|  3> *xyzfile 0 1 D1.xyz
|  4>
|  5> %MaxCore 64000
|  6>
|  7> %pal nprocs 4
|  8> end
|  9>
| 10> %scf
| 11>   MaxIter 150
| 12> end
| 13>
| 14>
| 15>                          ****END OF INPUT****

CARTESIAN COORDINATES (ANGSTROEM)
---------------------------------
  C      3.905947    2.819855   -3.752920
  C      5.295615    3.131515   -4.105334
  C      3.803511    1.374716   -3.260807
  C      3.939934    0.320362   -4.367729
  H      4.105043   -0.655085   -3.907733
  H      3.022801    0.280517   -4.957117
  C      5.105846    0.668022   -5.305463
  C      5.708619    3.468885   -5.324190
  N      6.904696    3.038954   -5.717084
  N      4.981884    4.293570   -6.097457
  H      5.000546    4.101311   -7.087761
  H      4.084693    4.596899   -5.739652
  H      5.963358    2.526112   -3.642391
  H      7.047164    2.066861   -5.473604
  H      7.198145    3.307994   -6.645225
  H      3.282025    2.949187   -4.640259
  H      3.565254    3.514574   -2.982523
  H      4.574833    1.215157   -2.500443
  H      2.843514    1.260845   -2.751465
  F      4.809132    1.150187   -6.414361
  O      6.267366    0.564999   -4.819481

 Total Charge           Charge          ....    0
 Multiplicity           Mult            ....    1
 Number of Electrons    NEL             ....   78
 Basis Dimension        Dim             ....  294

ORBITAL ENERGIES
----------------

  NO   OCC          E(Eh)            E(eV)
   0   2.0000     -24.503095      -666.7631
   1   2.0000     -18.906285      -514.4662
   2   2.0000     -14.124754      -384.3541
   3   2.0000     -14.103697      -383.7811
   4   2.0000     -10.174804      -276.8705
   5   2.0000     -10.037549      -273.1356
   6   2.0000     -10.028196      -272.8811
   7   2.0000     -10.008588      -272.3475
   8   2.0000      -9.992304      -271.9044
   9   2.0000      -9.930425      -270.2206
  10   2.0000      -1.235815       -33.6282
  11   2.0000      -0.957614       -26.0580
  12   2.0000      -0.888436       -24.1756
  13   2.0000      -0.804066       -21.8797
  14   2.0000      -0.752277       -20.4705
  15   2.0000      -0.689478       -18.7616
  16   2.0000      -0.634356       -17.2617
  17   2.0000      -0.601459       -16.3665
  18   2.0000      -0.555890       -15.1265
  19   2.0000      -0.530683       -14.4406
  20   2.0000      -0.504697       -13.7335
  21   2.0000      -0.492968       -13.4143
  22   2.0000      -0.481328       -13.0976
  23   2.0000      -0.472956       -12.8698
  24   2.0000      -0.454127       -12.3574
  25   2.0000      -0.425310       -11.5733
  26   2.0000      -0.418850       -11.3975
  27   2.0000      -0.397892       -10.8272
  28   2.0000      -0.390835       -10.6352
  29   2.0000      -0.352299        -9.5865
  30   2.0000      -0.347017        -9.4428
  31   2.0000      -0.332253        -9.0411
  32   2.0000      -0.323303        -8.7975
  33   2.0000      -0.311254        -8.4696
  34   2.0000      -0.299784        -8.1575
  35   2.0000      -0.287067        -7.8115
  36   2.0000      -0.255628        -6.9560
  37   2.0000      -0.227477        -6.1900
  38   2.0000      -0.145636        -3.9630
  39   0.0000      -0.068118        -1.8536
  40   0.0000      -0.001379        -0.0375
  41   0.0000       0.019369         0.5271
  42   0.0000       0.025151         0.6844
  43   0.0000       0.031472         0.8564

MULLIKEN ATOMIC CHARGES
-----------------------
   0 C :    0.334810
   1 C :   -0.049427
   2 C :    0.124720
   3 C :    0.230831
   4 H :   -0.046131
   5 H :    0.021330
   6 C :    0.799862
   7 C :    0.201959
   8 N :    0.227975
   9 N :   -0.037237
  10 H :   -0.058581
  11 H :    0.014784
  12 H :   -0.178070
  13 H :   -0.083514
  14 H :   -0.041071
  15 H :   -0.131086
  16 H :   -0.213728
  17 H :    0.075944
  18 H :   -0.143225
  19 F :   -0.414291
  20 O :   -0.635852
Sum of atomic charges:   -0.0000000

LOEWDIN ATOMIC CHARGES
----------------------
   0 C :   -0.040735
   1 C :   -0.002970
   2 C :   -0.007181
   3 C :    0.072448
   4 H :    0.032301
   5 H :    0.019258
   6 C :   -0.000082
   7 C :   -0.245431
   8 N :    0.225255
   9 N :    0.211175
  10 H :   -0.012772
  11 H :   -0.007265
  12 H :   -0.053503
  13 H :   -0.073056
  14 H :   -0.004840
  15 H :    0.002829
  16 H :    0.006980
  17 H :    0.029665
  18 H :    0.016368
  19 F :   -0.018395
  20 O :   -0.150048

  Mayer bond orders larger than 0.100000
B(  0-C ,  1-C ) :   0.9990 B(  0-C ,  2-C ) :   1.2088 B(  0-C , 12-H ) :   0.2069
B(  0-C , 15-H ) :   0.7835 B(  0-C , 16-H ) :   0.8504 B(  0-C , 18-H ) :   0.2073
B(  1-C ,  2-C ) :   0.1408 B(  1-C ,  7-C ) :   1.6808 B(  1-C ,  8-N ) :   0.3378
B(  1-C ,  9-N ) :   0.1733 B(  1-C , 12-H ) :   0.4793 B(  1-C , 15-H ) :   0.1210
B(  1-C , 16-H ) :   0.1659 B(  2-C ,  3-C ) :   1.1965 B(  2-C ,  4-H ) :   0.1746
B(  2-C ,  5-H ) :   0.1141 B(  2-C , 17-H ) :   0.8246 B(  2-C , 18-H ) :   0.8923
B(  3-C ,  4-H ) :   0.8183 B(  3-C ,  5-H ) :   0.8785 B(  3-C ,  6-C ) :   1.0947
B(  4-H ,  6-C ) :   0.1135 B(  5-H ,  6-C ) :   0.1102 B(  6-C , 19-F ) :   0.6153
B(  6-C , 20-O ) :   1.5680 B(  7-C ,  8-N ) :   0.8713 B(  7-C ,  9-N ) :   0.9241
B(  7-C , 12-H ) :   0.2882 B(  7-C , 14-H ) :   0.1744 B(  8-N ,  9-N ) :   0.1723
B(  8-N , 13-H ) :   0.8798 B(  8-N , 14-H ) :   0.8389 B(  9-N , 10-H ) :   1.0839
B(  9-N , 11-H ) :   0.9594 B( 13-H , 20-O ) :   0.1179 B( 15-H , 16-H ) :  -0.1042

Dispersion correction           -0.028462458
FINAL SINGLE POINT ENERGY      -519.529899079348

DIPOLE MOMENT
-------------
                                X             Y             Z
Electronic contribution:      3.46985      -3.52216      -6.43504
Nuclear contribution   :     -4.60158       3.22721       5.56005
                        -----------------------------------------
Total Dipole Moment    :     -1.13173      -0.29494      -0.87499
                        -----------------------------------------
Magnitude (a.u.)       :      1.46062
Magnitude (Debye)      :      3.71259

Rotational constants in cm-1:     0.061224     0.042534     0.033552
Rotational constants in MHz :  1835.464095  1275.135177  1005.856966

                             ****ORCA TERMINATED NORMALLY****
TOTAL RUN TIME: 0 days 0 hours 0 minutes 32 seconds 823 msec
