                         Program Version 5.0.0 -  RELEASE  -
|  1> !TPSS D3BJ RIJCOSX def2-SVPD def2/J TightSCF xyzfile
|  2>
|  3> *xyzfile 0 1 D4.xyz
|  4>
|  5> %MaxCore 64000
|  6>
|  7> %pal nprocs 4
|  8> end
|  9>
| 10> %scf
| 11>   MaxIter 150
| 12> end
| 13>
| 14>
| 15>                          ****END OF INPUT****

CARTESIAN COORDINATES (ANGSTROEM)
---------------------------------
  C      3.905947    2.819855   -3.752920
  C      5.295615    3.131515   -4.105334
  C      3.803511    1.374716   -3.260807
  C      3.939934    0.320362   -4.367729
  H      4.105043   -0.655085   -3.907733
  H      3.022801    0.280517   -4.957117
  C      5.105846    0.668022   -5.305463
  C      5.708619    3.468885   -5.324190
  N      6.904696    3.038954   -5.717084
  N      4.981884    4.293570   -6.097457
  H      5.000546    4.101311   -7.087761
  H      4.084693    4.596899   -5.739652
  H      5.963358    2.526112   -3.642391
  H      7.047164    2.066861   -5.473604
  H      7.198145    3.307994   -6.645225
  H      3.282025    2.949187   -4.640259
  H      3.565254    3.514574   -2.982523
  H      4.574833    1.215157   -2.500443
  H      2.843514    1.260845   -2.751465
  O      4.809132    1.150187   -6.414361
  F      6.267366    0.564999   -4.819481

 Total Charge           Charge          ....    0
 Multiplicity           Mult            ....    1
 Number of Electrons    NEL             ....   78
 Basis Dimension        Dim             ....  294

ORBITAL ENERGIES
----------------

  NO   OCC          E(Eh)            E(eV)
   0   2.0000     -24.500465      -666.6915
   1   2.0000     -18.902737      -514.3696
   2   2.0000     -14.123265      -384.3136
   3   2.0000     -14.112401      -384.0179
   4   2.0000     -10.167905      -276.6828
   5   2.0000     -10.040380      -273.2126
   6   2.0000     -10.025313      -272.8026
   7   2.0000     -10.008731      -272.3514
   8   2.0000      -9.989858      -271.8379
   9   2.0000      -9.931453      -270.2486
  10   2.0000      -1.228085       -33.4179
  11   2.0000      -0.959077       -26.0978
  12   2.0000      -0.890043       -24.2193
  13   2.0000      -0.806796       -21.9540
  14   2.0000      -0.751675       -20.4541
  15   2.0000      -0.688333       -18.7305
  16   2.0000      -0.633597       -17.2410
  17   2.0000      -0.599343       -16.3090
  18   2.0000      -0.556416       -15.1408
  19   2.0000      -0.538041       -14.6408
  20   2.0000      -0.502447       -13.6723
  21   2.0000      -0.490443       -13.3456
  22   2.0000      -0.482890       -13.1401
  23   2.0000      -0.464522       -12.6403
  24   2.0000      -0.447194       -12.1688
  25   2.0000      -0.427933       -11.6446
  26   2.0000      -0.420547       -11.4437
  27   2.0000      -0.400603       -10.9010
  28   2.0000      -0.386544       -10.5184
  29   2.0000      -0.352470        -9.5912
  30   2.0000      -0.345130        -9.3915
  31   2.0000      -0.334595        -9.1048
  32   2.0000      -0.326132        -8.8745
  33   2.0000      -0.308585        -8.3970
  34   2.0000      -0.300066        -8.1652
  35   2.0000      -0.291892        -7.9428
  36   2.0000      -0.247968        -6.7476
  37   2.0000      -0.227684        -6.1956
  38   2.0000      -0.147647        -4.0177
  39   0.0000      -0.060133        -1.6363
  40   0.0000       0.003219         0.0876
  41   0.0000       0.018497         0.5033
  42   0.0000       0.025565         0.6957
  43   0.0000       0.032327         0.8797

MULLIKEN ATOMIC CHARGES
-----------------------
   0 C :    0.395152
   1 C :   -0.139070
   2 C :    0.093257
   3 C :    0.273414
   4 H :   -0.051871
   5 H :    0.030452
   6 C :    0.685555
   7 C :    0.300734
   8 N :    0.197698
   9 N :   -0.046267
  10 H :   -0.059197
  11 H :    0.018572
  12 H :   -0.171020
  13 H :   -0.090515
  14 H :   -0.012740
  15 H :   -0.117520
  16 H :   -0.217212
  17 H :    0.033514
  18 H :   -0.147067
  19 O :   -0.510078
  20 F :   -0.465790
Sum of atomic charges:    0.0000000

LOEWDIN ATOMIC CHARGES
----------------------
   0 C :   -0.037796
   1 C :   -0.013241
   2 C :   -0.012956
   3 C :    0.072517
   4 H :    0.023317
   5 H :    0.030300
   6 C :   -0.019671
   7 C :   -0.242913
   8 N :    0.224715
   9 N :    0.224129
  10 H :   -0.005566
  11 H :   -0.003527
  12 H :   -0.058936
  13 H :   -0.050213
  14 H :    0.000864
  15 H :    0.007635
  16 H :    0.006508
  17 H :    0.023404
  18 H :    0.016157
  19 O :   -0.137752
  20 F :   -0.046974

  Mayer bond orders larger than 0.100000
B(  0-C ,  1-C ) :   0.9857 B(  0-C ,  2-C ) :   1.2015 B(  0-C , 12-H ) :   0.1852
B(  0-C , 15-H ) :   0.7829 B(  0-C , 16-H ) :   0.8363 B(  0-C , 18-H ) :   0.1972
B(  1-C ,  2-C ) :   0.1709 B(  1-C ,  7-C ) :   1.6783 B(  1-C ,  8-N ) :   0.3624
B(  1-C ,  9-N ) :   0.1660 B(  1-C , 12-H ) :   0.4952 B(  1-C , 15-H ) :   0.1166
B(  1-C , 16-H ) :   0.1714 B(  2-C ,  3-C ) :   1.1693 B(  2-C ,  4-H ) :   0.1791
B(  2-C ,  5-H ) :   0.1060 B(  2-C , 17-H ) :   0.8389 B(  2-C , 18-H ) :   0.8993
B(  3-C ,  4-H ) :   0.8204 B(  3-C ,  5-H ) :   0.8606 B(  3-C ,  6-C ) :   1.1024
B(  4-H ,  6-C ) :   0.1006 B(  5-H ,  6-C ) :   0.1828 B(  6-C , 19-O ) :   1.6862
B(  6-C , 20-F ) :   0.5487 B(  7-C ,  8-N ) :   0.8450 B(  7-C ,  9-N ) :   0.9415
B(  7-C , 12-H ) :   0.2621 B(  7-C , 14-H ) :   0.1771 B(  8-N ,  9-N ) :   0.1695
B(  8-N , 13-H ) :   0.8948 B(  8-N , 14-H ) :   0.8288 B(  9-N , 10-H ) :   1.0876
B(  9-N , 11-H ) :   0.9566 B( 15-H , 16-H ) :  -0.1012

Dispersion correction           -0.028515390
FINAL SINGLE POINT ENERGY      -519.530646684659

DIPOLE MOMENT
-------------
                                X             Y             Z
Electronic contribution:      5.88252      -4.38824      -3.90338
Nuclear contribution   :     -6.25608       3.89116       3.75052
                        -----------------------------------------
Total Dipole Moment    :     -0.37355      -0.49708      -0.15285
                        -----------------------------------------
Magnitude (a.u.)       :      0.64031
Magnitude (Debye)      :      1.62754

Rotational constants in cm-1:     0.061229     0.042568     0.033282
Rotational constants in MHz :  1835.590871  1276.154029   997.769927

                             ****ORCA TERMINATED NORMALLY****
TOTAL RUN TIME: 0 days 0 hours 0 minutes 36 seconds 372 msec
