                         Program Version 5.0.0 -  RELEASE  -
|  1> !wB97X-D3 RIJCOSX def2-SVP def2/J TightSCF
|  2> *xyz -1 1
|  3> C          3.90595        2.81985       -3.75292
|  4> C          3.80351        1.37472       -3.26081
|  5> C          3.93993        0.32036       -4.36773
|  6> H          4.10504       -0.65508       -3.90773
|  7> H          3.02280        0.28052       -4.95712
|  8> C          5.10585        0.66802       -5.30546
|  9> H          4.57483        1.21516       -2.50044
| 10> H          2.84351        1.26085       -2.75146
| 11> O          4.80913        1.15019       -6.41436
| 12> O          6.26737        0.56500       -4.81948
| 13> H          3.15892        2.99660       -4.49832
| 14> H          4.87575        2.98549       -4.17357
| 15> H          3.75481        3.48808       -2.93101
| 16> *
| 17>
| 18> %MaxCore 64000
| 19>
| 20> %pal nprocs 18
| 21> end
| 22>
| 23> %scf
| 24>   MaxIter 150
| 25> end
| 26>
| 27>
| 28>                          ****END OF INPUT****

CARTESIAN COORDINATES (ANGSTROEM)
---------------------------------
  C      3.905950    2.819850   -3.752920
  C      3.803510    1.374720   -3.260810
  C      3.939930    0.320360   -4.367730
  H      4.105040   -0.655080   -3.907730
  H      3.022800    0.280520   -4.957120
  C      5.105850    0.668020   -5.305460
  H      4.574830    1.215160   -2.500440
  H      2.843510    1.260850   -2.751460
  O      4.809130    1.150190   -6.414360
  O      6.267370    0.565000   -4.819480
  H      3.158920    2.996600   -4.498320
  H      4.875750    2.985490   -4.173570
  H      3.754810    3.488080   -2.931010

 Total Charge           Charge          ....   -1
 Multiplicity           Mult            ....    1
 Number of Electrons    NEL             ....   48
 Basis Dimension        Dim             ....  119

ORBITAL ENERGIES
----------------

  NO   OCC          E(Eh)            E(eV)
   0   2.0000     -18.946039      -515.5479
   1   2.0000     -18.941306      -515.4192
   2   2.0000     -10.147424      -276.1254
   3   2.0000     -10.133027      -275.7337
   4   2.0000     -10.123477      -275.4738
   5   2.0000     -10.098403      -274.7915
   6   2.0000      -0.898129       -24.4393
   7   2.0000      -0.801571       -21.8119
   8   2.0000      -0.736688       -20.0463
   9   2.0000      -0.635683       -17.2978
  10   2.0000      -0.537520       -14.6267
  11   2.0000      -0.415644       -11.3102
  12   2.0000      -0.394628       -10.7384
  13   2.0000      -0.374847       -10.2001
  14   2.0000      -0.336809        -9.1650
  15   2.0000      -0.310402        -8.4465
  16   2.0000      -0.293152        -7.9771
  17   2.0000      -0.285592        -7.7713
  18   2.0000      -0.275160        -7.4875
  19   2.0000      -0.250357        -6.8126
  20   2.0000      -0.240419        -6.5421
  21   2.0000      -0.112016        -3.0481
  22   2.0000      -0.106260        -2.8915
  23   2.0000      -0.094985        -2.5847
  24   0.0000       0.287037         7.8107
  25   0.0000       0.330966         9.0060
  26   0.0000       0.339466         9.2373
  27   0.0000       0.355344         9.6694
  28   0.0000       0.367146         9.9906

MULLIKEN ATOMIC CHARGES
-----------------------
   0 C :   -0.002747
   1 C :   -0.095279
   2 C :    0.032958
   3 H :   -0.031093
   4 H :   -0.038504
   5 C :    0.042971
   6 H :    0.001013
   7 H :   -0.033903
   8 O :   -0.435613
   9 O :   -0.465516
  10 H :    0.001661
  11 H :    0.054987
  12 H :   -0.030936
Sum of atomic charges:   -1.0000000

LOEWDIN ATOMIC CHARGES
----------------------
   0 C :   -0.061680
   1 C :   -0.042290
   2 C :   -0.092536
   3 H :    0.002982
   4 H :   -0.002340
   5 C :   -0.044060
   6 H :    0.011339
   7 H :   -0.005465
   8 O :   -0.388879
   9 O :   -0.420423
  10 H :    0.014134
  11 H :    0.031231
  12 H :   -0.002014

  Mayer bond orders larger than 0.100000
B(  0-C ,  1-C ) :   1.0957 B(  0-C , 10-H ) :   0.9709 B(  0-C , 11-H ) :   0.9626
B(  0-C , 12-H ) :   0.9676 B(  1-C ,  2-C ) :   1.0747 B(  1-C ,  6-H ) :   0.9509
B(  1-C ,  7-H ) :   0.9565 B(  2-C ,  3-H ) :   0.9366 B(  2-C ,  4-H ) :   0.9339
B(  2-C ,  5-C ) :   0.9239 B(  5-C ,  8-O ) :   1.8487 B(  5-C ,  9-O ) :   1.8211
B(  8-O ,  9-O ) :   0.1085

Dispersion correction           -0.003543483
FINAL SINGLE POINT ENERGY      -306.821544910997

DIPOLE MOMENT
-------------
                                X             Y             Z
Electronic contribution:      4.31623      -2.80360      -4.93720
Nuclear contribution   :     -5.80393       3.20473       6.46101
                        -----------------------------------------
Total Dipole Moment    :     -1.48770       0.40113       1.52380
                        -----------------------------------------
Magnitude (a.u.)       :      2.16706
Magnitude (Debye)      :      5.50822

Rotational constants in cm-1:     0.184459     0.088019     0.082330
Rotational constants in MHz :  5529.929668  2638.753248  2468.201746

                             ****ORCA TERMINATED NORMALLY****
TOTAL RUN TIME: 0 days 0 hours 0 minutes 7 seconds 110 msec
