                         Program Version 5.0.0 -  RELEASE  -
|  1> !wB97X-D3 RIJCOSX def2-SVP def2/J TightSCF
|  2> *xyz 1 1
|  3> C          3.90595        2.81985       -3.75292
|  4> N          5.29562        3.13151       -4.10533
|  5> C          3.80351        1.37472       -3.26081
|  6> C          3.93993        0.32036       -4.36773
|  7> C          5.70862        3.46889       -5.32419
|  8> N          6.90470        3.03895       -5.71708
|  9> N          4.98188        4.29357       -6.09746
| 10> H          5.00055        4.10131       -7.08776
| 11> H          4.08469        4.59690       -5.73965
| 12> H          5.96336        2.52611       -3.64239
| 13> H          7.04716        2.06686       -5.47360
| 14> H          7.19815        3.30799       -6.64523
| 15> H          3.28202        2.94919       -4.64026
| 16> H          3.56525        3.51457       -2.98252
| 17> H          4.57483        1.21516       -2.50044
| 18> H          2.84351        1.26085       -2.75146
| 19> H          3.18417        0.48061       -5.10803
| 20> H          3.82485       -0.65632       -3.94614
| 21> H          4.90589        0.40174       -4.82073
| 22> *
| 23>
| 24> %MaxCore 64000
| 25>
| 26> %pal nprocs 18
| 27> end
| 28>
| 29> %scf
| 30>   MaxIter 150
| 31> end
| 32>
| 33>
| 34>                          ****END OF INPUT****

CARTESIAN COORDINATES (ANGSTROEM)
---------------------------------
  C      3.905950    2.819850   -3.752920
  N      5.295620    3.131510   -4.105330
  C      3.803510    1.374720   -3.260810
  C      3.939930    0.320360   -4.367730
  C      5.708620    3.468890   -5.324190
  N      6.904700    3.038950   -5.717080
  N      4.981880    4.293570   -6.097460
  H      5.000550    4.101310   -7.087760
  H      4.084690    4.596900   -5.739650
  H      5.963360    2.526110   -3.642390
  H      7.047160    2.066860   -5.473600
  H      7.198150    3.307990   -6.645230
  H      3.282020    2.949190   -4.640260
  H      3.565250    3.514570   -2.982520
  H      4.574830    1.215160   -2.500440
  H      2.843510    1.260850   -2.751460
  H      3.184170    0.480610   -5.108030
  H      3.824850   -0.656320   -3.946140
  H      4.905890    0.401740   -4.820730

 Total Charge           Charge          ....    1
 Multiplicity           Mult            ....    1
 Number of Electrons    NEL             ....   56
 Basis Dimension        Dim             ....  158

ORBITAL ENERGIES
----------------

  NO   OCC          E(Eh)            E(eV)
   0   2.0000     -14.662035      -398.9743
   1   2.0000     -14.660665      -398.9370
   2   2.0000     -14.659191      -398.8969
   3   2.0000     -10.626842      -289.1711
   4   2.0000     -10.495013      -285.5838
   5   2.0000     -10.439244      -284.0663
   6   2.0000     -10.415811      -283.4286
   7   2.0000      -1.331791       -36.2399
   8   2.0000      -1.215992       -33.0888
   9   2.0000      -1.206937       -32.8424
  10   2.0000      -1.055106       -28.7109
  11   2.0000      -0.973010       -26.4770
  12   2.0000      -0.925860       -25.1939
  13   2.0000      -0.886479       -24.1223
  14   2.0000      -0.868821       -23.6418
  15   2.0000      -0.839971       -22.8568
  16   2.0000      -0.801017       -21.7968
  17   2.0000      -0.786604       -21.4046
  18   2.0000      -0.747953       -20.3528
  19   2.0000      -0.731641       -19.9090
  20   2.0000      -0.690340       -18.7851
  21   2.0000      -0.682648       -18.5758
  22   2.0000      -0.655462       -17.8360
  23   2.0000      -0.608789       -16.5660
  24   2.0000      -0.589080       -16.0297
  25   2.0000      -0.588639       -16.0177
  26   2.0000      -0.579246       -15.7621
  27   2.0000      -0.545826       -14.8527
  28   0.0000      -0.102973        -2.8020
  29   0.0000      -0.051431        -1.3995
  30   0.0000      -0.018413        -0.5010
  31   0.0000       0.002122         0.0577
  32   0.0000       0.013691         0.3726

MULLIKEN ATOMIC CHARGES
-----------------------
   0 C :    0.068224
   1 N :   -0.147679
   2 C :   -0.155001
   3 C :   -0.021708
   4 C :    0.060618
   5 N :   -0.052664
   6 N :   -0.066844
   7 H :    0.184661
   8 H :    0.184595
   9 H :    0.165609
  10 H :    0.184203
  11 H :    0.178111
  12 H :    0.047132
  13 H :    0.095734
  14 H :    0.062926
  15 H :    0.086262
  16 H :    0.049195
  17 H :    0.082553
  18 H :   -0.005926
Sum of atomic charges:    1.0000000

LOEWDIN ATOMIC CHARGES
----------------------
   0 C :    0.044799
   1 N :    0.027547
   2 C :   -0.045641
   3 C :   -0.049856
   4 C :    0.149239
   5 N :    0.043925
   6 N :    0.042857
   7 H :    0.110479
   8 H :    0.110036
   9 H :    0.101455
  10 H :    0.108922
  11 H :    0.110864
  12 H :    0.027008
  13 H :    0.046014
  14 H :    0.034191
  15 H :    0.051720
  16 H :    0.031487
  17 H :    0.047722
  18 H :    0.007232

  Mayer bond orders larger than 0.100000
B(  0-C ,  1-N ) :   0.9089 B(  0-C ,  2-C ) :   1.0658 B(  0-C , 12-H ) :   0.9520
B(  0-C , 13-H ) :   0.9484 B(  1-N ,  4-C ) :   1.3943 B(  1-N ,  9-H ) :   0.9086
B(  2-C ,  3-C ) :   1.0655 B(  2-C , 14-H ) :   0.9551 B(  2-C , 15-H ) :   0.9460
B(  3-C , 16-H ) :   0.9757 B(  3-C , 17-H ) :   0.9696 B(  3-C , 18-H ) :   0.9730
B(  4-C ,  5-N ) :   1.3793 B(  4-C ,  6-N ) :   1.3842 B(  5-N , 10-H ) :   0.9271
B(  5-N , 11-H ) :   0.9274 B(  6-N ,  7-H ) :   0.9266 B(  6-N ,  8-H ) :   0.9213

Dispersion correction           -0.005480949
FINAL SINGLE POINT ENERGY      -323.385461690763

DIPOLE MOMENT
-------------
                                X             Y             Z
Electronic contribution:      4.05266       5.69635      -2.14120
Nuclear contribution   :     -3.60155      -5.39511       0.90505
                        -----------------------------------------
Total Dipole Moment    :      0.45112       0.30124      -1.23615
                        -----------------------------------------
Magnitude (a.u.)       :      1.34994
Magnitude (Debye)      :      3.43126

Rotational constants in cm-1:     0.145371     0.050507     0.045444
Rotational constants in MHz :  4358.114605  1514.164418  1362.368391

                             ****ORCA TERMINATED NORMALLY****
TOTAL RUN TIME: 0 days 0 hours 0 minutes 10 seconds 913 msec
