                         Program Version 5.0.0 -  RELEASE  -
|  1> !wB97X-D3 RIJCOSX def2-SVP def2/J TightSCF xyzfile
|  2>
|  3> *xyzfile 0 1 B.xyz
|  4>
|  5> %MaxCore 64000
|  6>
|  7> %pal nprocs 18
|  8> end
|  9>
| 10> %scf
| 11>   MaxIter 150
| 12> end
| 13>
| 14>
| 15>                          ****END OF INPUT****

CARTESIAN COORDINATES (ANGSTROEM)
---------------------------------
  C      3.905947    2.819855   -3.752920
  N      5.295615    3.131515   -4.105334
  C      3.803511    1.374716   -3.260807
  C      3.939934    0.320362   -4.367729
  H      4.105043   -0.655085   -3.907733
  H      3.022801    0.280517   -4.957117
  C      5.105846    0.668022   -5.305463
  C      5.708619    3.468885   -5.324190
  N      6.904696    3.038954   -5.717084
  N      4.981884    4.293570   -6.097457
  H      5.000546    4.101311   -7.087761
  H      4.084693    4.596899   -5.739652
  H      5.963358    2.526112   -3.642391
  H      7.047164    2.066861   -5.473604
  H      7.198145    3.307994   -6.645225
  H      3.282025    2.949187   -4.640259
  H      3.565254    3.514574   -2.982523
  H      4.574833    1.215157   -2.500443
  H      2.843514    1.260845   -2.751465
  O      4.809132    1.150187   -6.414361
  O      6.267366    0.564999   -4.819481

 Total Charge           Charge          ....    0
 Multiplicity           Mult            ....    1
 Number of Electrons    NEL             ....   78
 Basis Dimension        Dim             ....  195

ORBITAL ENERGIES
----------------

  NO   OCC          E(Eh)            E(eV)
   0   2.0000     -19.142021      -520.8809
   1   2.0000     -19.137543      -520.7590
   2   2.0000     -14.499391      -394.5485
   3   2.0000     -14.487972      -394.2378
   4   2.0000     -14.465850      -393.6358
   5   2.0000     -10.456131      -284.5258
   6   2.0000     -10.349412      -281.6218
   7   2.0000     -10.334892      -281.2267
   8   2.0000     -10.297642      -280.2131
   9   2.0000     -10.259236      -279.1680
  10   2.0000      -1.159067       -31.5398
  11   2.0000      -1.094553       -29.7843
  12   2.0000      -1.048965       -28.5438
  13   2.0000      -1.028922       -27.9984
  14   2.0000      -0.998238       -27.1634
  15   2.0000      -0.903136       -24.5756
  16   2.0000      -0.817917       -22.2567
  17   2.0000      -0.759651       -20.6712
  18   2.0000      -0.725883       -19.7523
  19   2.0000      -0.709605       -19.3093
  20   2.0000      -0.675469       -18.3804
  21   2.0000      -0.635653       -17.2970
  22   2.0000      -0.614021       -16.7084
  23   2.0000      -0.596097       -16.2206
  24   2.0000      -0.576859       -15.6971
  25   2.0000      -0.566668       -15.4198
  26   2.0000      -0.528060       -14.3692
  27   2.0000      -0.513964       -13.9857
  28   2.0000      -0.501744       -13.6532
  29   2.0000      -0.479673       -13.0526
  30   2.0000      -0.471618       -12.8334
  31   2.0000      -0.463236       -12.6053
  32   2.0000      -0.430167       -11.7054
  33   2.0000      -0.424107       -11.5405
  34   2.0000      -0.406850       -11.0709
  35   2.0000      -0.379682       -10.3317
  36   2.0000      -0.309493        -8.4217
  37   2.0000      -0.297218        -8.0877
  38   2.0000      -0.287675        -7.8280
  39   0.0000       0.071721         1.9516
  40   0.0000       0.114547         3.1170
  41   0.0000       0.139209         3.7881
  42   0.0000       0.152337         4.1453
  43   0.0000       0.164514         4.4767

MULLIKEN ATOMIC CHARGES
-----------------------
   0 C :    0.090423
   1 N :   -0.163794
   2 C :   -0.121463
   3 C :    0.054269
   4 H :    0.032022
   5 H :    0.015370
   6 C :    0.079013
   7 C :    0.043445
   8 N :   -0.029936
   9 N :   -0.080798
  10 H :    0.170080
  11 H :    0.151656
  12 H :    0.159768
  13 H :    0.151894
  14 H :    0.136990
  15 H :    0.038282
  16 H :    0.045084
  17 H :    0.043559
  18 H :    0.037625
  19 O :   -0.403705
  20 O :   -0.449784
Sum of atomic charges:    0.0000000

LOEWDIN ATOMIC CHARGES
----------------------
   0 C :    0.039514
   1 N :    0.011753
   2 C :   -0.040877
   3 C :   -0.072088
   4 H :    0.031036
   5 H :    0.020496
   6 C :   -0.011157
   7 C :    0.151213
   8 N :    0.035818
   9 N :    0.016508
  10 H :    0.100444
  11 H :    0.091365
  12 H :    0.089872
  13 H :    0.062162
  14 H :    0.087851
  15 H :    0.024288
  16 H :    0.023627
  17 H :    0.027970
  18 H :    0.030268
  19 O :   -0.352161
  20 O :   -0.367900

  Mayer bond orders larger than 0.100000
B(  0-C ,  1-N ) :   0.9456 B(  0-C ,  2-C ) :   1.0714 B(  0-C , 15-H ) :   0.9438
B(  0-C , 16-H ) :   0.9516 B(  1-N ,  7-C ) :   1.3619 B(  1-N , 12-H ) :   0.8962
B(  2-C ,  3-C ) :   1.0599 B(  2-C , 17-H ) :   0.9483 B(  2-C , 18-H ) :   0.9506
B(  3-C ,  4-H ) :   0.9379 B(  3-C ,  5-H ) :   0.9439 B(  3-C ,  6-C ) :   0.9576
B(  6-C , 19-O ) :   1.7999 B(  6-C , 20-O ) :   1.6523 B(  7-C ,  8-N ) :   1.4622
B(  7-C ,  9-N ) :   1.3436 B(  7-C , 19-O ) :   0.1041 B(  8-N , 13-H ) :   0.8439
B(  8-N , 14-H ) :   0.9387 B(  9-N , 10-H ) :   0.9360 B(  9-N , 11-H ) :   0.9342
B( 13-H , 20-O ) :   0.1840

Dispersion correction           -0.009113476
FINAL SINGLE POINT ENERGY      -511.374426001623

DIPOLE MOMENT
-------------
                                X             Y             Z
Electronic contribution:      4.22928       0.50279      -3.52887
Nuclear contribution   :     -4.94498       2.03334       3.78956
                        -----------------------------------------
Total Dipole Moment    :     -0.71570       2.53613       0.26069
                        -----------------------------------------
Magnitude (a.u.)       :      2.64804
Magnitude (Debye)      :      6.73079

Rotational constants in cm-1:     0.062533     0.042832     0.033687
Rotational constants in MHz :  1874.701390  1284.063603  1009.911042

                             ****ORCA TERMINATED NORMALLY****
TOTAL RUN TIME: 0 days 0 hours 0 minutes 16 seconds 88 msec
