                         Program Version 5.0.0 -  RELEASE  -
|  1> !wB97X-D3 RIJCOSX def2-SVP def2/J TightSCF
|  2> *xyz 0 1
|  3> C          3.90595        2.81985       -3.75292
|  4> C          3.80351        1.37472       -3.26081
|  5> C          3.93993        0.32036       -4.36773
|  6> H          4.10504       -0.65508       -3.90773
|  7> H          3.02280        0.28052       -4.95712
|  8> C          5.10585        0.66802       -5.30546
|  9> H          4.57483        1.21516       -2.50044
| 10> H          2.84351        1.26085       -2.75146
| 11> F          4.80913        1.15019       -6.41436
| 12> O          6.26737        0.56500       -4.81948
| 13> H          3.15892        2.99660       -4.49832
| 14> H          4.87575        2.98549       -4.17357
| 15> H          3.75481        3.48808       -2.93101
| 16> *
| 17>
| 18> %MaxCore 64000
| 19>
| 20> %pal nprocs 18
| 21> end
| 22>
| 23> %scf
| 24>   MaxIter 150
| 25> end
| 26>
| 27>
| 28>                          ****END OF INPUT****

CARTESIAN COORDINATES (ANGSTROEM)
---------------------------------
  C      3.905950    2.819850   -3.752920
  C      3.803510    1.374720   -3.260810
  C      3.939930    0.320360   -4.367730
  H      4.105040   -0.655080   -3.907730
  H      3.022800    0.280520   -4.957120
  C      5.105850    0.668020   -5.305460
  H      4.574830    1.215160   -2.500440
  H      2.843510    1.260850   -2.751460
  F      4.809130    1.150190   -6.414360
  O      6.267370    0.565000   -4.819480
  H      3.158920    2.996600   -4.498320
  H      4.875750    2.985490   -4.173570
  H      3.754810    3.488080   -2.931010

 Total Charge           Charge          ....    0
 Multiplicity           Mult            ....    1
 Number of Electrons    NEL             ....   48
 Basis Dimension        Dim             ....  119

ORBITAL ENERGIES
----------------

  NO   OCC          E(Eh)            E(eV)
   0   2.0000     -24.863603      -676.5730
   1   2.0000     -19.239073      -523.5218
   2   2.0000     -10.463771      -284.7337
   3   2.0000     -10.314405      -280.6692
   4   2.0000     -10.303444      -280.3710
   5   2.0000     -10.283162      -279.8191
   6   2.0000      -1.422719       -38.7141
   7   2.0000      -1.127438       -30.6792
   8   2.0000      -0.923871       -25.1398
   9   2.0000      -0.834832       -22.7169
  10   2.0000      -0.767530       -20.8856
  11   2.0000      -0.716108       -19.4863
  12   2.0000      -0.654688       -17.8150
  13   2.0000      -0.635535       -17.2938
  14   2.0000      -0.606596       -16.5063
  15   2.0000      -0.564279       -15.3548
  16   2.0000      -0.554279       -15.0827
  17   2.0000      -0.515195       -14.0192
  18   2.0000      -0.496204       -13.5024
  19   2.0000      -0.466815       -12.7027
  20   2.0000      -0.450134       -12.2488
  21   2.0000      -0.440604       -11.9894
  22   2.0000      -0.433120       -11.7858
  23   2.0000      -0.379293       -10.3211
  24   0.0000       0.062488         1.7004
  25   0.0000       0.141748         3.8572
  26   0.0000       0.180021         4.8986
  27   0.0000       0.187207         5.0942
  28   0.0000       0.204053         5.5526

MULLIKEN ATOMIC CHARGES
-----------------------
   0 C :   -0.046056
   1 C :   -0.114500
   2 C :   -0.048453
   3 H :    0.073104
   4 H :    0.038440
   5 C :    0.236468
   6 H :    0.053593
   7 H :    0.040288
   8 F :   -0.070416
   9 O :   -0.280178
  10 H :    0.026973
  11 H :    0.051258
  12 H :    0.039479
Sum of atomic charges:   -0.0000000

LOEWDIN ATOMIC CHARGES
----------------------
   0 C :   -0.059439
   1 C :   -0.032454
   2 C :   -0.071264
   3 H :    0.050231
   4 H :    0.027695
   5 C :    0.108852
   6 H :    0.032126
   7 H :    0.028211
   8 F :    0.054673
   9 O :   -0.214447
  10 H :    0.021218
  11 H :    0.024927
  12 H :    0.029672

  Mayer bond orders larger than 0.100000
B(  0-C ,  1-C ) :   1.0912 B(  0-C , 10-H ) :   0.9754 B(  0-C , 11-H ) :   0.9623
B(  0-C , 12-H ) :   0.9708 B(  1-C ,  2-C ) :   1.0628 B(  1-C ,  6-H ) :   0.9552
B(  1-C ,  7-H ) :   0.9606 B(  2-C ,  3-H ) :   0.9409 B(  2-C ,  4-H ) :   0.9378
B(  2-C ,  5-C ) :   0.9868 B(  5-C ,  8-F ) :   1.1934 B(  5-C ,  9-O ) :   2.0535

Dispersion correction           -0.003458981
FINAL SINGLE POINT ENERGY      -331.368097543199

DIPOLE MOMENT
-------------
                                X             Y             Z
Electronic contribution:      4.87499      -3.18578      -8.28002
Nuclear contribution   :     -5.98367       3.22001       8.44002
                        -----------------------------------------
Total Dipole Moment    :     -1.10868       0.03423       0.16000
                        -----------------------------------------
Magnitude (a.u.)       :      1.12069
Magnitude (Debye)      :      2.84858

Rotational constants in cm-1:     0.177409     0.085514     0.078973
Rotational constants in MHz :  5318.577687  2563.657993  2367.557452

                             ****ORCA TERMINATED NORMALLY****
TOTAL RUN TIME: 0 days 0 hours 0 minutes 7 seconds 671 msec
