                         Program Version 5.0.0 -  RELEASE  -
|  1> !wB97X-D3 RIJCOSX def2-SVP def2/J TightSCF
|  2> *xyz 0 1
|  3> C          3.90595        2.81985       -3.75292
|  4> C          5.29562        3.13151       -4.10533
|  5> C          3.80351        1.37472       -3.26081
|  6> C          3.93993        0.32036       -4.36773
|  7> C          5.70862        3.46889       -5.32419
|  8> N          6.90470        3.03895       -5.71708
|  9> N          4.98188        4.29357       -6.09746
| 10> H          5.00055        4.10131       -7.08776
| 11> H          4.08469        4.59690       -5.73965
| 12> H          5.96336        2.52611       -3.64239
| 13> H          7.04716        2.06686       -5.47360
| 14> H          7.19815        3.30799       -6.64523
| 15> H          3.28202        2.94919       -4.64026
| 16> H          3.56525        3.51457       -2.98252
| 17> H          4.57483        1.21516       -2.50044
| 18> H          2.84351        1.26085       -2.75146
| 19> H          3.18417        0.48061       -5.10803
| 20> H          3.82485       -0.65632       -3.94614
| 21> H          4.90589        0.40174       -4.82073
| 22> *
| 23>
| 24> %MaxCore 64000
| 25>
| 26> %pal nprocs 18
| 27> end
| 28>
| 29> %scf
| 30>   MaxIter 150
| 31> end
| 32>
| 33>
| 34>                          ****END OF INPUT****

CARTESIAN COORDINATES (ANGSTROEM)
---------------------------------
  C      3.905950    2.819850   -3.752920
  C      5.295620    3.131510   -4.105330
  C      3.803510    1.374720   -3.260810
  C      3.939930    0.320360   -4.367730
  C      5.708620    3.468890   -5.324190
  N      6.904700    3.038950   -5.717080
  N      4.981880    4.293570   -6.097460
  H      5.000550    4.101310   -7.087760
  H      4.084690    4.596900   -5.739650
  H      5.963360    2.526110   -3.642390
  H      7.047160    2.066860   -5.473600
  H      7.198150    3.307990   -6.645230
  H      3.282020    2.949190   -4.640260
  H      3.565250    3.514570   -2.982520
  H      4.574830    1.215160   -2.500440
  H      2.843510    1.260850   -2.751460
  H      3.184170    0.480610   -5.108030
  H      3.824850   -0.656320   -3.946140
  H      4.905890    0.401740   -4.820730

 Total Charge           Charge          ....    0
 Multiplicity           Mult            ....    1
 Number of Electrons    NEL             ....   56
 Basis Dimension        Dim             ....  158

ORBITAL ENERGIES
----------------

  NO   OCC          E(Eh)            E(eV)
   0   2.0000     -14.434119      -392.7723
   1   2.0000     -14.430189      -392.6654
   2   2.0000     -10.327080      -281.0141
   3   2.0000     -10.268601      -279.4228
   4   2.0000     -10.264211      -279.3034
   5   2.0000     -10.261588      -279.2320
   6   2.0000     -10.205661      -277.7101
   7   2.0000      -1.069685       -29.1076
   8   2.0000      -0.978045       -26.6139
   9   2.0000      -0.896847       -24.4045
  10   2.0000      -0.827383       -22.5142
  11   2.0000      -0.763219       -20.7683
  12   2.0000      -0.693127       -18.8609
  13   2.0000      -0.668731       -18.1971
  14   2.0000      -0.632583       -17.2135
  15   2.0000      -0.609584       -16.5876
  16   2.0000      -0.572497       -15.5784
  17   2.0000      -0.542699       -14.7676
  18   2.0000      -0.534940       -14.5565
  19   2.0000      -0.509830       -13.8732
  20   2.0000      -0.477930       -13.0051
  21   2.0000      -0.465593       -12.6694
  22   2.0000      -0.442051       -12.0288
  23   2.0000      -0.423428       -11.5221
  24   2.0000      -0.408940       -11.1278
  25   2.0000      -0.403348       -10.9757
  26   2.0000      -0.362247        -9.8573
  27   2.0000      -0.248306        -6.7567
  28   0.0000       0.123081         3.3492
  29   0.0000       0.153734         4.1833
  30   0.0000       0.162918         4.4332
  31   0.0000       0.169218         4.6047
  32   0.0000       0.189812         5.1651

MULLIKEN ATOMIC CHARGES
-----------------------
   0 C :    0.024887
   1 C :   -0.109287
   2 C :   -0.093507
   3 C :   -0.004506
   4 C :   -0.094076
   5 N :   -0.101316
   6 N :   -0.102139
   7 H :    0.109157
   8 H :    0.130631
   9 H :   -0.077308
  10 H :    0.140381
  11 H :    0.105272
  12 H :   -0.023818
  13 H :    0.012735
  14 H :    0.023316
  15 H :    0.013251
  16 H :    0.016162
  17 H :    0.025485
  18 H :    0.004678
Sum of atomic charges:    0.0000000

LOEWDIN ATOMIC CHARGES
----------------------
   0 C :   -0.041330
   1 C :   -0.211810
   2 C :   -0.038700
   3 C :   -0.055561
   4 C :    0.015715
   5 N :   -0.022940
   6 N :   -0.029536
   7 H :    0.061250
   8 H :    0.079948
   9 H :   -0.010643
  10 H :    0.080215
  11 H :    0.063573
  12 H :    0.003640
  13 H :    0.015712
  14 H :    0.020140
  15 H :    0.016387
  16 H :    0.018570
  17 H :    0.022035
  18 H :    0.013333

  Mayer bond orders larger than 0.100000
B(  0-C ,  1-C ) :   1.0479 B(  0-C ,  2-C ) :   1.0743 B(  0-C , 12-H ) :   0.9471
B(  0-C , 13-H ) :   0.9299 B(  1-C ,  4-C ) :   1.7246 B(  1-C ,  9-H ) :   0.9378
B(  2-C ,  3-C ) :   1.0737 B(  2-C , 14-H ) :   0.9604 B(  2-C , 15-H ) :   0.9541
B(  3-C , 16-H ) :   0.9741 B(  3-C , 17-H ) :   0.9736 B(  3-C , 18-H ) :   0.9742
B(  4-C ,  5-N ) :   1.2042 B(  4-C ,  6-N ) :   1.2308 B(  5-N , 10-H ) :   0.9495
B(  5-N , 11-H ) :   0.9549 B(  6-N ,  7-H ) :   0.9451 B(  6-N ,  8-H ) :   0.9430

Dispersion correction           -0.005455308
FINAL SINGLE POINT ENERGY      -306.914285316465

DIPOLE MOMENT
-------------
                                X             Y             Z
Electronic contribution:      3.46401       4.95763      -2.28002
Nuclear contribution   :     -3.52450      -5.28471       1.03374
                        -----------------------------------------
Total Dipole Moment    :     -0.06049      -0.32708      -1.24627
                        -----------------------------------------
Magnitude (a.u.)       :      1.28990
Magnitude (Debye)      :      3.27866

Rotational constants in cm-1:     0.147126     0.050704     0.045476
Rotational constants in MHz :  4410.719889  1520.080198  1363.327077

                             ****ORCA TERMINATED NORMALLY****
TOTAL RUN TIME: 0 days 0 hours 0 minutes 10 seconds 981 msec
