                         Program Version 5.0.0 -  RELEASE  -
|  1> !wB97X-D3 RIJCOSX def2-SVP def2/J TightSCF
|  2> *xyz 0 1
|  3> C          3.90595        2.81985       -3.75292
|  4> C          3.80351        1.37472       -3.26081
|  5> C          3.93993        0.32036       -4.36773
|  6> H          4.10504       -0.65508       -3.90773
|  7> H          3.02280        0.28052       -4.95712
|  8> C          5.10585        0.66802       -5.30546
|  9> H          4.57483        1.21516       -2.50044
| 10> H          2.84351        1.26085       -2.75146
| 11> O          4.80913        1.15019       -6.41436
| 12> F          6.26737        0.56500       -4.81948
| 13> H          3.15892        2.99660       -4.49832
| 14> H          4.87575        2.98549       -4.17357
| 15> H          3.75481        3.48808       -2.93101
| 16> *
| 17>
| 18> %MaxCore 64000
| 19>
| 20> %pal nprocs 18
| 21> end
| 22>
| 23> %scf
| 24>   MaxIter 150
| 25> end
| 26>
| 27>
| 28>                          ****END OF INPUT****

CARTESIAN COORDINATES (ANGSTROEM)
---------------------------------
  C      3.905950    2.819850   -3.752920
  C      3.803510    1.374720   -3.260810
  C      3.939930    0.320360   -4.367730
  H      4.105040   -0.655080   -3.907730
  H      3.022800    0.280520   -4.957120
  C      5.105850    0.668020   -5.305460
  H      4.574830    1.215160   -2.500440
  H      2.843510    1.260850   -2.751460
  O      4.809130    1.150190   -6.414360
  F      6.267370    0.565000   -4.819480
  H      3.158920    2.996600   -4.498320
  H      4.875750    2.985490   -4.173570
  H      3.754810    3.488080   -2.931010

 Total Charge           Charge          ....    0
 Multiplicity           Mult            ....    1
 Number of Electrons    NEL             ....   48
 Basis Dimension        Dim             ....  119

ORBITAL ENERGIES
----------------

  NO   OCC          E(Eh)            E(eV)
   0   2.0000     -24.857129      -676.3969
   1   2.0000     -19.242530      -523.6159
   2   2.0000     -10.462081      -284.6877
   3   2.0000     -10.313702      -280.6501
   4   2.0000     -10.305639      -280.4307
   5   2.0000     -10.281619      -279.7771
   6   2.0000      -1.409305       -38.3491
   7   2.0000      -1.138878       -30.9904
   8   2.0000      -0.925069       -25.1724
   9   2.0000      -0.833199       -22.6725
  10   2.0000      -0.759501       -20.6671
  11   2.0000      -0.715875       -19.4800
  12   2.0000      -0.649386       -17.6707
  13   2.0000      -0.635348       -17.2887
  14   2.0000      -0.593444       -16.1484
  15   2.0000      -0.572520       -15.5791
  16   2.0000      -0.554457       -15.0875
  17   2.0000      -0.514104       -13.9895
  18   2.0000      -0.493924       -13.4404
  19   2.0000      -0.466129       -12.6840
  20   2.0000      -0.458444       -12.4749
  21   2.0000      -0.442839       -12.0502
  22   2.0000      -0.438428       -11.9302
  23   2.0000      -0.380135       -10.3440
  24   0.0000       0.067317         1.8318
  25   0.0000       0.139428         3.7940
  26   0.0000       0.180776         4.9192
  27   0.0000       0.187030         5.0893
  28   0.0000       0.204728         5.5709

MULLIKEN ATOMIC CHARGES
-----------------------
   0 C :   -0.027327
   1 C :   -0.142893
   2 C :   -0.040413
   3 H :    0.054178
   4 H :    0.064499
   5 C :    0.237602
   6 H :    0.041566
   7 H :    0.045033
   8 O :   -0.256993
   9 F :   -0.094238
  10 H :    0.038781
  11 H :    0.044223
  12 H :    0.035982
Sum of atomic charges:   -0.0000000

LOEWDIN ATOMIC CHARGES
----------------------
   0 C :   -0.055603
   1 C :   -0.040537
   2 C :   -0.068840
   3 H :    0.036931
   4 H :    0.044563
   5 C :    0.110973
   6 H :    0.025257
   7 H :    0.030266
   8 O :   -0.190225
   9 F :    0.029523
  10 H :    0.027692
  11 H :    0.022555
  12 H :    0.027445

  Mayer bond orders larger than 0.100000
B(  0-C ,  1-C ) :   1.0855 B(  0-C , 10-H ) :   0.9747 B(  0-C , 11-H ) :   0.9619
B(  0-C , 12-H ) :   0.9712 B(  1-C ,  2-C ) :   1.0499 B(  1-C ,  6-H ) :   0.9580
B(  1-C ,  7-H ) :   0.9595 B(  2-C ,  3-H ) :   0.9401 B(  2-C ,  4-H ) :   0.9471
B(  2-C ,  5-C ) :   0.9962 B(  5-C ,  8-O ) :   2.0772 B(  5-C ,  9-F ) :   1.1704

Dispersion correction           -0.003455041
FINAL SINGLE POINT ENERGY      -331.373552508724

DIPOLE MOMENT
-------------
                                X             Y             Z
Electronic contribution:      7.31819      -4.16718      -5.60717
Nuclear contribution   :     -7.63086       3.88103       6.63849
                        -----------------------------------------
Total Dipole Moment    :     -0.31267      -0.28615       1.03132
                        -----------------------------------------
Magnitude (a.u.)       :      1.11501
Magnitude (Debye)      :      2.83414

Rotational constants in cm-1:     0.177064     0.085023     0.079676
Rotational constants in MHz :  5308.232158  2548.918275  2388.614336

                             ****ORCA TERMINATED NORMALLY****
TOTAL RUN TIME: 0 days 0 hours 0 minutes 6 seconds 887 msec
