                         Program Version 5.0.0 -  RELEASE  -
|  1> !wB97X-D3 RIJCOSX def2-SVP def2/J TightSCF
|  2> *xyz 0 1
|  3> C          3.90595        2.81985       -3.75292
|  4> N          5.29562        3.13151       -4.10533
|  5> C          3.80351        1.37472       -3.26081
|  6> C          3.93993        0.32036       -4.36773
|  7> C          5.70862        3.46889       -5.32419
|  8> C          6.90470        3.03895       -5.71708
|  9> N          4.98188        4.29357       -6.09746
| 10> H          5.00055        4.10131       -7.08776
| 11> H          4.08469        4.59690       -5.73965
| 12> H          5.96336        2.52611       -3.64239
| 13> H          7.04716        2.06686       -5.47360
| 14> H          7.19815        3.30799       -6.64523
| 15> H          3.28202        2.94919       -4.64026
| 16> H          3.56525        3.51457       -2.98252
| 17> H          4.57483        1.21516       -2.50044
| 18> H          2.84351        1.26085       -2.75146
| 19> H          3.18417        0.48061       -5.10803
| 20> H          3.82485       -0.65632       -3.94614
| 21> H          4.90589        0.40174       -4.82073
| 22> *
| 23>
| 24> %MaxCore 64000
| 25>
| 26> %pal nprocs 18
| 27> end
| 28>
| 29> %scf
| 30>   MaxIter 150
| 31> end
| 32>
| 33>
| 34>                          ****END OF INPUT****

CARTESIAN COORDINATES (ANGSTROEM)
---------------------------------
  C      3.905950    2.819850   -3.752920
  N      5.295620    3.131510   -4.105330
  C      3.803510    1.374720   -3.260810
  C      3.939930    0.320360   -4.367730
  C      5.708620    3.468890   -5.324190
  C      6.904700    3.038950   -5.717080
  N      4.981880    4.293570   -6.097460
  H      5.000550    4.101310   -7.087760
  H      4.084690    4.596900   -5.739650
  H      5.963360    2.526110   -3.642390
  H      7.047160    2.066860   -5.473600
  H      7.198150    3.307990   -6.645230
  H      3.282020    2.949190   -4.640260
  H      3.565250    3.514570   -2.982520
  H      4.574830    1.215160   -2.500440
  H      2.843510    1.260850   -2.751460
  H      3.184170    0.480610   -5.108030
  H      3.824850   -0.656320   -3.946140
  H      4.905890    0.401740   -4.820730

 Total Charge           Charge          ....    0
 Multiplicity           Mult            ....    1
 Number of Electrons    NEL             ....   56
 Basis Dimension        Dim             ....  158

ORBITAL ENERGIES
----------------

  NO   OCC          E(Eh)            E(eV)
   0   2.0000     -14.433762      -392.7626
   1   2.0000     -14.430888      -392.6844
   2   2.0000     -10.332062      -281.1497
   3   2.0000     -10.325820      -280.9798
   4   2.0000     -10.297686      -280.2143
   5   2.0000     -10.281730      -279.7801
   6   2.0000     -10.194313      -277.4013
   7   2.0000      -1.075898       -29.2767
   8   2.0000      -0.991851       -26.9897
   9   2.0000      -0.900309       -24.4986
  10   2.0000      -0.833330       -22.6761
  11   2.0000      -0.778041       -21.1716
  12   2.0000      -0.707644       -19.2560
  13   2.0000      -0.695254       -18.9188
  14   2.0000      -0.632907       -17.2223
  15   2.0000      -0.595170       -16.1954
  16   2.0000      -0.576621       -15.6907
  17   2.0000      -0.561718       -15.2851
  18   2.0000      -0.543983       -14.8025
  19   2.0000      -0.504152       -13.7187
  20   2.0000      -0.492495       -13.4015
  21   2.0000      -0.480335       -13.0706
  22   2.0000      -0.458984       -12.4896
  23   2.0000      -0.447234       -12.1699
  24   2.0000      -0.444876       -12.1057
  25   2.0000      -0.427263       -11.6264
  26   2.0000      -0.348237        -9.4760
  27   2.0000      -0.253695        -6.9034
  28   0.0000       0.128541         3.4978
  29   0.0000       0.146814         3.9950
  30   0.0000       0.154859         4.2139
  31   0.0000       0.165737         4.5099
  32   0.0000       0.180358         4.9078

MULLIKEN ATOMIC CHARGES
-----------------------
   0 C :    0.105469
   1 N :   -0.179521
   2 C :   -0.131679
   3 C :   -0.016698
   4 C :   -0.045472
   5 C :   -0.108663
   6 N :   -0.121603
   7 H :    0.139963
   8 H :    0.113258
   9 H :    0.123243
  10 H :   -0.030583
  11 H :   -0.048280
  12 H :    0.007199
  13 H :    0.034610
  14 H :    0.033349
  15 H :    0.031348
  16 H :    0.023943
  17 H :    0.036102
  18 H :    0.034013
Sum of atomic charges:    0.0000000

LOEWDIN ATOMIC CHARGES
----------------------
   0 C :    0.031313
   1 N :   -0.034963
   2 C :   -0.051641
   3 C :   -0.054220
   4 C :    0.039186
   5 C :   -0.265992
   6 N :   -0.023362
   7 H :    0.081605
   8 H :    0.063888
   9 H :    0.080270
  10 H :   -0.008106
  11 H :   -0.010318
  12 H :    0.012608
  13 H :    0.017892
  14 H :    0.023108
  15 H :    0.025992
  16 H :    0.022130
  17 H :    0.026972
  18 H :    0.023637

  Mayer bond orders larger than 0.100000
B(  0-C ,  1-N ) :   0.9793 B(  0-C ,  2-C ) :   1.0746 B(  0-C , 12-H ) :   0.9473
B(  0-C , 13-H ) :   0.9533 B(  1-N ,  4-C ) :   1.2103 B(  1-N ,  9-H ) :   0.9307
B(  2-C ,  3-C ) :   1.0713 B(  2-C , 14-H ) :   0.9573 B(  2-C , 15-H ) :   0.9518
B(  3-C , 16-H ) :   0.9754 B(  3-C , 17-H ) :   0.9730 B(  3-C , 18-H ) :   0.9747
B(  4-C ,  5-C ) :   1.7328 B(  4-C ,  6-N ) :   1.2021 B(  5-C , 10-H ) :   0.9555
B(  5-C , 11-H ) :   0.9580 B(  6-N ,  7-H ) :   0.9504 B(  6-N ,  8-H ) :   0.9534

Dispersion correction           -0.005520942
FINAL SINGLE POINT ENERGY      -306.903884610882

DIPOLE MOMENT
-------------
                                X             Y             Z
Electronic contribution:      1.73256       4.89315      -0.62318
Nuclear contribution   :     -3.17203      -5.30499       0.68068
                        -----------------------------------------
Total Dipole Moment    :     -1.43947      -0.41184       0.05750
                        -----------------------------------------
Magnitude (a.u.)       :      1.49833
Magnitude (Debye)      :      3.80846

Rotational constants in cm-1:     0.149640     0.051631     0.046708
Rotational constants in MHz :  4486.107270  1547.846261  1400.277765

                             ****ORCA TERMINATED NORMALLY****
TOTAL RUN TIME: 0 days 0 hours 0 minutes 10 seconds 894 msec
