                         Program Version 5.0.0 -  RELEASE  -
|  1> !wB97X-D3 RIJCOSX def2-SVP def2/J TightSCF
|  2> *xyz 0 1
|  3> C          3.90595        2.81985       -3.75292
|  4> N          5.29562        3.13151       -4.10533
|  5> C          3.80351        1.37472       -3.26081
|  6> C          3.93993        0.32036       -4.36773
|  7> C          5.70862        3.46889       -5.32419
|  8> N          6.90470        3.03895       -5.71708
|  9> C          4.98188        4.29357       -6.09746
| 10> H          5.00055        4.10131       -7.08776
| 11> H          4.08469        4.59690       -5.73965
| 12> H          5.96336        2.52611       -3.64239
| 13> H          7.04716        2.06686       -5.47360
| 14> H          7.19815        3.30799       -6.64523
| 15> H          3.28202        2.94919       -4.64026
| 16> H          3.56525        3.51457       -2.98252
| 17> H          4.57483        1.21516       -2.50044
| 18> H          2.84351        1.26085       -2.75146
| 19> H          3.18417        0.48061       -5.10803
| 20> H          3.82485       -0.65632       -3.94614
| 21> H          4.90589        0.40174       -4.82073
| 22> *
| 23>
| 24> %MaxCore 64000
| 25>
| 26> %pal nprocs 18
| 27> end
| 28>
| 29> %scf
| 30>   MaxIter 150
| 31> end
| 32>
| 33>
| 34>                          ****END OF INPUT****

CARTESIAN COORDINATES (ANGSTROEM)
---------------------------------
  C      3.905950    2.819850   -3.752920
  N      5.295620    3.131510   -4.105330
  C      3.803510    1.374720   -3.260810
  C      3.939930    0.320360   -4.367730
  C      5.708620    3.468890   -5.324190
  N      6.904700    3.038950   -5.717080
  C      4.981880    4.293570   -6.097460
  H      5.000550    4.101310   -7.087760
  H      4.084690    4.596900   -5.739650
  H      5.963360    2.526110   -3.642390
  H      7.047160    2.066860   -5.473600
  H      7.198150    3.307990   -6.645230
  H      3.282020    2.949190   -4.640260
  H      3.565250    3.514570   -2.982520
  H      4.574830    1.215160   -2.500440
  H      2.843510    1.260850   -2.751460
  H      3.184170    0.480610   -5.108030
  H      3.824850   -0.656320   -3.946140
  H      4.905890    0.401740   -4.820730

 Total Charge           Charge          ....    0
 Multiplicity           Mult            ....    1
 Number of Electrons    NEL             ....   56
 Basis Dimension        Dim             ....  158

ORBITAL ENERGIES
----------------

  NO   OCC          E(Eh)            E(eV)
   0   2.0000     -14.432901      -392.7392
   1   2.0000     -14.432851      -392.7378
   2   2.0000     -10.330727      -281.1134
   3   2.0000     -10.319090      -280.7967
   4   2.0000     -10.295685      -280.1598
   5   2.0000     -10.283571      -279.8302
   6   2.0000     -10.199515      -277.5429
   7   2.0000      -1.080580       -29.4041
   8   2.0000      -0.994052       -27.0495
   9   2.0000      -0.895336       -24.3633
  10   2.0000      -0.817759       -22.2524
  11   2.0000      -0.797072       -21.6894
  12   2.0000      -0.713331       -19.4107
  13   2.0000      -0.667403       -18.1610
  14   2.0000      -0.633316       -17.2334
  15   2.0000      -0.614279       -16.7154
  16   2.0000      -0.572095       -15.5675
  17   2.0000      -0.566002       -15.4017
  18   2.0000      -0.530224       -14.4281
  19   2.0000      -0.511177       -13.9098
  20   2.0000      -0.491238       -13.3673
  21   2.0000      -0.475669       -12.9436
  22   2.0000      -0.461337       -12.5536
  23   2.0000      -0.447683       -12.1821
  24   2.0000      -0.442287       -12.0353
  25   2.0000      -0.427562       -11.6345
  26   2.0000      -0.345805        -9.4098
  27   2.0000      -0.256653        -6.9839
  28   0.0000       0.119274         3.2456
  29   0.0000       0.151223         4.1150
  30   0.0000       0.155977         4.2444
  31   0.0000       0.170026         4.6267
  32   0.0000       0.184029         5.0077

MULLIKEN ATOMIC CHARGES
-----------------------
   0 C :    0.129207
   1 N :   -0.196737
   2 C :   -0.138199
   3 C :   -0.007751
   4 C :   -0.040715
   5 N :   -0.099494
   6 C :   -0.123419
   7 H :   -0.029962
   8 H :   -0.031604
   9 H :    0.099950
  10 H :    0.107715
  11 H :    0.128462
  12 H :    0.032459
  13 H :    0.035330
  14 H :    0.026798
  15 H :    0.033605
  16 H :    0.033070
  17 H :    0.035476
  18 H :    0.005810
Sum of atomic charges:   -0.0000000

LOEWDIN ATOMIC CHARGES
----------------------
   0 C :    0.045763
   1 N :   -0.032435
   2 C :   -0.053657
   3 C :   -0.054124
   4 C :    0.029454
   5 N :   -0.024922
   6 C :   -0.254729
   7 H :   -0.007336
   8 H :   -0.008423
   9 H :    0.059649
  10 H :    0.059722
  11 H :    0.083087
  12 H :    0.025343
  13 H :    0.020204
  14 H :    0.019554
  15 H :    0.027653
  16 H :    0.025850
  17 H :    0.026277
  18 H :    0.013070

  Mayer bond orders larger than 0.100000
B(  0-C ,  1-N ) :   0.9771 B(  0-C ,  2-C ) :   1.0740 B(  0-C , 12-H ) :   0.9434
B(  0-C , 13-H ) :   0.9567 B(  1-N ,  4-C ) :   1.1808 B(  1-N ,  9-H ) :   0.9377
B(  2-C ,  3-C ) :   1.0711 B(  2-C , 14-H ) :   0.9570 B(  2-C , 15-H ) :   0.9510
B(  3-C , 16-H ) :   0.9754 B(  3-C , 17-H ) :   0.9736 B(  3-C , 18-H ) :   0.9727
B(  4-C ,  5-N ) :   1.2191 B(  4-C ,  6-C ) :   1.7330 B(  5-N , 10-H ) :   0.9501
B(  5-N , 11-H ) :   0.9469 B(  6-C ,  7-H ) :   0.9532 B(  6-C ,  8-H ) :   0.9503

Dispersion correction           -0.005502046
FINAL SINGLE POINT ENERGY      -306.908143482684

DIPOLE MOMENT
-------------
                                X             Y             Z
Electronic contribution:      3.69843       3.65563      -0.32290
Nuclear contribution   :     -3.59323      -5.03016       0.59736
                        -----------------------------------------
Total Dipole Moment    :      0.10520      -1.37453       0.27445
                        -----------------------------------------
Magnitude (a.u.)       :      1.40561
Magnitude (Debye)      :      3.57277

Rotational constants in cm-1:     0.148888     0.051791     0.046487
Rotational constants in MHz :  4463.542717  1552.665696  1393.643356

                             ****ORCA TERMINATED NORMALLY****
TOTAL RUN TIME: 0 days 0 hours 0 minutes 10 seconds 463 msec
