                         Program Version 5.0.0 -  RELEASE  -
|  1> !wB97X-D3 RIJCOSX def2-SVPD def2/J TightSCF
|  2> *xyz -1 1
|  3> C          3.34350        3.35457       -3.59200
|  4> C          2.95263        1.86308       -3.57485
|  5> C          4.12921        0.89839       -3.41895
|  6> H          3.73369       -0.10060       -3.23763
|  7> H          4.71910        0.86256       -4.33901
|  8> C          5.01734        1.31521       -2.22130
|  9> H          2.27894        1.73525       -2.72550
| 10> H          2.37747        1.62579       -4.47587
| 11> O          4.73706        0.85411       -1.12283
| 12> O          5.92815        2.16811       -2.49136
| 13> H          4.00801        3.53975       -4.40994
| 14> H          3.83025        3.60631       -2.67298
| 15> H          2.46347        3.95263       -3.70497
| 16> *
| 17> %MaxCore 64000
| 18>
| 19> %pal nprocs 18
| 20> end
| 21>
| 22> %scf
| 23>   MaxIter 150
| 24> end
| 25>
| 26>
| 27>                          ****END OF INPUT****

CARTESIAN COORDINATES (ANGSTROEM)
---------------------------------
  C      3.343500    3.354570   -3.592000
  C      2.952630    1.863080   -3.574850
  C      4.129210    0.898390   -3.418950
  H      3.733690   -0.100600   -3.237630
  H      4.719100    0.862560   -4.339010
  C      5.017340    1.315210   -2.221300
  H      2.278940    1.735250   -2.725500
  H      2.377470    1.625790   -4.475870
  O      4.737060    0.854110   -1.122830
  O      5.928150    2.168110   -2.491360
  H      4.008010    3.539750   -4.409940
  H      3.830250    3.606310   -2.672980
  H      2.463470    3.952630   -3.704970

 Total Charge           Charge          ....   -1
 Multiplicity           Mult            ....    1
 Number of Electrons    NEL             ....   48
 Basis Dimension        Dim             ....  182

ORBITAL ENERGIES
----------------

  NO   OCC          E(Eh)            E(eV)
   0   2.0000     -18.991786      -516.7928
   1   2.0000     -18.979994      -516.4719
   2   2.0000     -10.180189      -277.0170
   3   2.0000     -10.143922      -276.0302
   4   2.0000     -10.127777      -275.5908
   5   2.0000     -10.115160      -275.2475
   6   2.0000      -0.937517       -25.5111
   7   2.0000      -0.837768       -22.7968
   8   2.0000      -0.745022       -20.2731
   9   2.0000      -0.645998       -17.5785
  10   2.0000      -0.546924       -14.8826
  11   2.0000      -0.432807       -11.7773
  12   2.0000      -0.399154       -10.8615
  13   2.0000      -0.390350       -10.6220
  14   2.0000      -0.350426        -9.5356
  15   2.0000      -0.336296        -9.1511
  16   2.0000      -0.310710        -8.4548
  17   2.0000      -0.301624        -8.2076
  18   2.0000      -0.296198        -8.0600
  19   2.0000      -0.269654        -7.3377
  20   2.0000      -0.265719        -7.2306
  21   2.0000      -0.147869        -4.0237
  22   2.0000      -0.138924        -3.7803
  23   2.0000      -0.129066        -3.5121
  24   0.0000       0.216443         5.8897
  25   0.0000       0.240248         6.5375
  26   0.0000       0.253686         6.9031
  27   0.0000       0.266019         7.2388
  28   0.0000       0.296168         8.0591

MULLIKEN ATOMIC CHARGES
-----------------------
   0 C :    0.632733
   1 C :   -0.437509
   2 C :    0.150552
   3 H :   -0.014416
   4 H :   -0.014679
   5 C :    0.371471
   6 H :   -0.014381
   7 H :   -0.182199
   8 O :   -0.622352
   9 O :   -0.712407
  10 H :   -0.037844
  11 H :    0.010487
  12 H :   -0.129456
Sum of atomic charges:   -1.0000000

LOEWDIN ATOMIC CHARGES
----------------------
   0 C :    0.107822
   1 C :   -0.084422
   2 C :   -0.005576
   3 H :    0.000099
   4 H :    0.006730
   5 C :   -0.302891
   6 H :    0.012299
   7 H :   -0.001416
   8 O :   -0.302824
   9 O :   -0.344700
  10 H :   -0.020781
  11 H :   -0.024432
  12 H :   -0.039909

  Mayer bond orders larger than 0.100000
B(  0-C ,  1-C ) :   1.2752 B(  0-C , 10-H ) :   0.8013 B(  0-C , 11-H ) :   0.8125
B(  0-C , 12-H ) :   0.8029 B(  1-C ,  2-C ) :   1.1749 B(  1-C ,  3-H ) :   0.1412
B(  1-C ,  4-H ) :   0.1367 B(  1-C ,  6-H ) :   0.9262 B(  1-C ,  7-H ) :   0.9958
B(  1-C , 10-H ) :   0.1929 B(  1-C , 11-H ) :   0.2116 B(  1-C , 12-H ) :   0.1972
B(  2-C ,  3-H ) :   0.8576 B(  2-C ,  4-H ) :   0.9018 B(  2-C ,  5-C ) :   1.0013
B(  2-C ,  6-H ) :   0.1137 B(  3-H ,  5-C ) :   0.1421 B(  5-C ,  8-O ) :   1.5601
B(  5-C ,  9-O ) :   1.5056

Dispersion correction           -0.003467761
FINAL SINGLE POINT ENERGY      -306.861333551591

DIPOLE MOMENT
-------------
                                X             Y             Z
Electronic contribution:      4.90260      -2.55273       4.43778
Nuclear contribution   :     -6.63819       2.74067      -6.05656
                        -----------------------------------------
Total Dipole Moment    :     -1.73559       0.18794      -1.61878
                        -----------------------------------------
Magnitude (a.u.)       :      2.38077
Magnitude (Debye)      :      6.05143

Rotational constants in cm-1:     0.190880     0.089683     0.076466
Rotational constants in MHz :  5722.446013  2688.617255  2292.390699

                             ****ORCA TERMINATED NORMALLY****
TOTAL RUN TIME: 0 days 0 hours 0 minutes 9 seconds 758 msec
