                         Program Version 5.0.0 -  RELEASE  -
|  1> !wB97X-D3 RIJCOSX def2-SVPD def2/J TightSCF
|  2> *xyz 1 1
|  3> C          3.34350        3.35457       -3.59200
|  4> C          2.95263        1.86308       -3.57485
|  5> C          4.12921        0.89839       -3.41895
|  6> C          4.25587        3.70385       -4.72605
|  7> N          3.73403        4.29378       -5.80077
|  8> N          5.51504        3.40725       -4.63718
|  9> H          6.14919        3.60120       -5.39905
| 10> H          5.81358        2.89950       -3.80879
| 11> H          2.74138        4.51311       -5.82470
| 12> H          4.28755        4.52126       -6.61434
| 13> H          2.27894        1.73525       -2.72550
| 14> H          2.37747        1.62579       -4.47587
| 15> H          3.86125        3.59725       -2.66298
| 16> H          2.44649        3.97346       -3.65656
| 17> H          4.79753        1.01430       -4.24649
| 18> H          3.76482       -0.10731       -3.39293
| 19> H          4.64840        1.11330       -2.50837
| 20> *
| 21> %MaxCore 64000
| 22>
| 23> %pal nprocs 18
| 24> end
| 25>
| 26> %scf
| 27>   MaxIter 150
| 28> end
| 29>
| 30>
| 31>                          ****END OF INPUT****

CARTESIAN COORDINATES (ANGSTROEM)
---------------------------------
  C      3.343500    3.354570   -3.592000
  C      2.952630    1.863080   -3.574850
  C      4.129210    0.898390   -3.418950
  C      4.255870    3.703850   -4.726050
  N      3.734030    4.293780   -5.800770
  N      5.515040    3.407250   -4.637180
  H      6.149190    3.601200   -5.399050
  H      5.813580    2.899500   -3.808790
  H      2.741380    4.513110   -5.824700
  H      4.287550    4.521260   -6.614340
  H      2.278940    1.735250   -2.725500
  H      2.377470    1.625790   -4.475870
  H      3.861250    3.597250   -2.662980
  H      2.446490    3.973460   -3.656560
  H      4.797530    1.014300   -4.246490
  H      3.764820   -0.107310   -3.392930
  H      4.648400    1.113300   -2.508370

 Total Charge           Charge          ....    1
 Multiplicity           Mult            ....    1
 Number of Electrons    NEL             ....   48
 Basis Dimension        Dim             ....  208

ORBITAL ENERGIES
----------------

  NO   OCC          E(Eh)            E(eV)
   0   2.0000     -14.682927      -399.5428
   1   2.0000     -14.678836      -399.4314
   2   2.0000     -10.611925      -288.7652
   3   2.0000     -10.483967      -285.2832
   4   2.0000     -10.452676      -284.4318
   5   2.0000     -10.421439      -283.5818
   6   2.0000      -1.312947       -35.7271
   7   2.0000      -1.215061       -33.0635
   8   2.0000      -1.084796       -29.5188
   9   2.0000      -0.999155       -27.1884
  10   2.0000      -0.936644       -25.4874
  11   2.0000      -0.895241       -24.3607
  12   2.0000      -0.876399       -23.8480
  13   2.0000      -0.835571       -22.7370
  14   2.0000      -0.800431       -21.7808
  15   2.0000      -0.756513       -20.5858
  16   2.0000      -0.722789       -19.6681
  17   2.0000      -0.708130       -19.2692
  18   2.0000      -0.673196       -18.3186
  19   2.0000      -0.657933       -17.9033
  20   2.0000      -0.604317       -16.4443
  21   2.0000      -0.596958       -16.2441
  22   2.0000      -0.592825       -16.1316
  23   2.0000      -0.577852       -15.7241
  24   0.0000      -0.125043        -3.4026
  25   0.0000      -0.076488        -2.0813
  26   0.0000      -0.035600        -0.9687
  27   0.0000      -0.031660        -0.8615
  28   0.0000      -0.010562        -0.2874

MULLIKEN ATOMIC CHARGES
-----------------------
   0 C :   -0.009726
   1 C :   -0.308420
   2 C :    0.654590
   3 C :    0.830493
   4 N :   -0.098037
   5 N :    0.018623
   6 H :   -0.098582
   7 H :    0.109698
   8 H :    0.075824
   9 H :   -0.085377
  10 H :    0.016837
  11 H :   -0.039908
  12 H :    0.083290
  13 H :   -0.007284
  14 H :   -0.059199
  15 H :   -0.093181
  16 H :    0.010359
Sum of atomic charges:    1.0000000

LOEWDIN ATOMIC CHARGES
----------------------
   0 C :    0.043372
   1 C :   -0.034386
   2 C :    0.131414
   3 C :   -0.031356
   4 N :    0.274093
   5 N :    0.284005
   6 H :    0.058316
   7 H :    0.046585
   8 H :    0.053157
   9 H :    0.045150
  10 H :    0.040089
  11 H :    0.034463
  12 H :    0.048444
  13 H :    0.039924
  14 H :   -0.032820
  15 H :    0.003678
  16 H :   -0.004129

  Mayer bond orders larger than 0.100000
B(  0-C ,  1-C ) :   1.1612 B(  0-C ,  3-C ) :   1.0704 B(  0-C ,  4-N ) :   0.1042
B(  0-C ,  5-N ) :   0.1048 B(  0-C , 10-H ) :   0.1020 B(  0-C , 12-H ) :   0.8563
B(  0-C , 13-H ) :   0.9232 B(  1-C ,  2-C ) :   1.2839 B(  1-C , 10-H ) :   0.9181
B(  1-C , 11-H ) :   1.0052 B(  1-C , 12-H ) :   0.1148 B(  1-C , 13-H ) :   0.1073
B(  1-C , 14-H ) :   0.1842 B(  1-C , 15-H ) :   0.1887 B(  1-C , 16-H ) :   0.1863
B(  2-C , 14-H ) :   0.8175 B(  2-C , 15-H ) :   0.8612 B(  2-C , 16-H ) :   0.7982
B(  3-C ,  4-N ) :   1.0004 B(  3-C ,  5-N ) :   1.1185 B(  3-C ,  6-H ) :  -0.1832
B(  3-C ,  9-H ) :  -0.1599 B(  4-N ,  5-N ) :   0.1554 B(  4-N ,  8-H ) :   1.0816
B(  4-N ,  9-H ) :   1.2909 B(  5-N ,  6-H ) :   1.3477 B(  5-N ,  7-H ) :   0.9919
B(  6-H ,  7-H ) :  -0.1865 B(  8-H ,  9-H ) :  -0.1709

Dispersion correction           -0.004541151
FINAL SINGLE POINT ENERGY      -268.100761230169

DIPOLE MOMENT
-------------
                                X             Y             Z
Electronic contribution:      1.43039       4.42768      -2.93754
Nuclear contribution   :     -0.87169      -3.40560       1.97790
                        -----------------------------------------
Total Dipole Moment    :      0.55869       1.02208      -0.95963
                        -----------------------------------------
Magnitude (a.u.)       :      1.50920
Magnitude (Debye)      :      3.83608

Rotational constants in cm-1:     0.188632     0.081113     0.066356
Rotational constants in MHz :  5655.057814  2431.708101  1989.304146

                             ****ORCA TERMINATED NORMALLY****
TOTAL RUN TIME: 0 days 0 hours 0 minutes 13 seconds 378 msec
