                         Program Version 5.0.0 -  RELEASE  -
|  1> !wB97X-D3 RIJCOSX def2-SVPD def2/J TightSCF xyzfile
|  2>
|  3> *xyzfile 0 1 B.xyz
|  4>
|  5> %MaxCore 64000
|  6>
|  7> %pal nprocs 18
|  8> end
|  9>
| 10> %scf
| 11>   MaxIter 150
| 12> end
| 13>
| 14>
| 15>                          ****END OF INPUT****

CARTESIAN COORDINATES (ANGSTROEM)
---------------------------------
  C      3.343500    3.354571   -3.591998
  C      2.952633    1.863077   -3.574849
  C      4.129209    0.898394   -3.418950
  H      3.733687   -0.100605   -3.237633
  H      4.719095    0.862556   -4.339005
  C      5.017344    1.315212   -2.221305
  C      4.255868    3.703851   -4.726054
  N      3.734032    4.293783   -5.800770
  N      5.515039    3.407255   -4.637185
  H      6.149187    3.601203   -5.399053
  H      5.813584    2.899504   -3.808785
  H      2.741380    4.513109   -5.824701
  H      4.287548    4.521260   -6.614341
  H      2.278938    1.735250   -2.725496
  H      2.377466    1.625787   -4.475869
  O      4.737055    0.854112   -1.122825
  O      5.928146    2.168108   -2.491365
  H      3.861246    3.597252   -2.662979
  H      2.446493    3.973461   -3.656556

 Total Charge           Charge          ....    0
 Multiplicity           Mult            ....    1
 Number of Electrons    NEL             ....   70
 Basis Dimension        Dim             ....  266

ORBITAL ENERGIES
----------------

  NO   OCC          E(Eh)            E(eV)
   0   2.0000     -19.155012      -521.2344
   1   2.0000     -19.143776      -520.9286
   2   2.0000     -14.539166      -395.6308
   3   2.0000     -14.498603      -394.5270
   4   2.0000     -10.457666      -284.5676
   5   2.0000     -10.342225      -281.4262
   6   2.0000     -10.335943      -281.2553
   7   2.0000     -10.312172      -280.6085
   8   2.0000     -10.270137      -279.4646
   9   2.0000      -1.158632       -31.5280
  10   2.0000      -1.101299       -29.9679
  11   2.0000      -1.060126       -28.8475
  12   2.0000      -1.009138       -27.4600
  13   2.0000      -0.936810       -25.4919
  14   2.0000      -0.849031       -23.1033
  15   2.0000      -0.785416       -21.3723
  16   2.0000      -0.741188       -20.1688
  17   2.0000      -0.726905       -19.7801
  18   2.0000      -0.693104       -18.8603
  19   2.0000      -0.648507       -17.6468
  20   2.0000      -0.607971       -16.5437
  21   2.0000      -0.589080       -16.0297
  22   2.0000      -0.565374       -15.3846
  23   2.0000      -0.549402       -14.9500
  24   2.0000      -0.525891       -14.3102
  25   2.0000      -0.499338       -13.5877
  26   2.0000      -0.479476       -13.0472
  27   2.0000      -0.471941       -12.8422
  28   2.0000      -0.466573       -12.6961
  29   2.0000      -0.437037       -11.8924
  30   2.0000      -0.427563       -11.6346
  31   2.0000      -0.425851       -11.5880
  32   2.0000      -0.315346        -8.5810
  33   2.0000      -0.310461        -8.4481
  34   2.0000      -0.289453        -7.8764
  35   0.0000       0.024713         0.6725
  36   0.0000       0.043134         1.1737
  37   0.0000       0.081226         2.2103
  38   0.0000       0.101673         2.7667
  39   0.0000       0.108734         2.9588

MULLIKEN ATOMIC CHARGES
-----------------------
   0 C :    0.026868
   1 C :   -0.037092
   2 C :    0.172052
   3 H :   -0.128777
   4 H :    0.090379
   5 C :    0.484283
   6 C :    0.743509
   7 N :   -0.067227
   8 N :    0.360749
   9 H :   -0.147291
  10 H :   -0.230771
  11 H :    0.005320
  12 H :   -0.135164
  13 H :    0.072117
  14 H :   -0.138717
  15 O :   -0.568217
  16 O :   -0.646881
  17 H :    0.255868
  18 H :   -0.111008
Sum of atomic charges:    0.0000000

LOEWDIN ATOMIC CHARGES
----------------------
   0 C :    0.049696
   1 C :   -0.000462
   2 C :    0.027896
   3 H :    0.023732
   4 H :    0.009163
   5 C :   -0.222197
   6 C :   -0.031804
   7 N :    0.237791
   8 N :    0.304349
   9 H :    0.043049
  10 H :   -0.133663
  11 H :    0.032502
  12 H :    0.026120
  13 H :    0.037385
  14 H :    0.019330
  15 O :   -0.223717
  16 O :   -0.268303
  17 H :    0.043966
  18 H :    0.025169

  Mayer bond orders larger than 0.100000
B(  0-C ,  1-C ) :   1.2053 B(  0-C ,  6-C ) :   1.0864 B(  0-C , 13-H ) :   0.1084
B(  0-C , 14-H ) :   0.1300 B(  0-C , 17-H ) :   0.7297 B(  0-C , 18-H ) :   0.9223
B(  1-C ,  2-C ) :   1.2537 B(  1-C ,  3-H ) :   0.1669 B(  1-C ,  4-H ) :   0.1523
B(  1-C , 13-H ) :   0.8622 B(  1-C , 14-H ) :   0.9554 B(  1-C , 17-H ) :   0.1187
B(  1-C , 18-H ) :   0.1635 B(  2-C ,  3-H ) :   0.8473 B(  2-C ,  4-H ) :   0.8283
B(  2-C ,  5-C ) :   1.0010 B(  2-C , 13-H ) :   0.1331 B(  3-H ,  5-C ) :   0.1631
B(  5-C , 15-O ) :   1.6356 B(  5-C , 16-O ) :   1.2635 B(  6-C ,  7-N ) :   0.9519
B(  6-C ,  8-N ) :   1.1537 B(  6-C ,  9-H ) :  -0.2057 B(  6-C , 11-H ) :  -0.1083
B(  6-C , 12-H ) :  -0.1475 B(  6-C , 17-H ) :   0.1107 B(  7-N ,  8-N ) :   0.1413
B(  7-N , 11-H ) :   1.1577 B(  7-N , 12-H ) :   1.3036 B(  8-N ,  9-H ) :   1.3010
B(  8-N , 10-H ) :   1.0551 B(  9-H , 10-H ) :  -0.2340 B( 10-H , 16-O ) :   0.2811
B( 11-H , 12-H ) :  -0.1720 B( 15-O , 16-O ) :   0.1222

Dispersion correction           -0.007028433
FINAL SINGLE POINT ENERGY      -456.095592135961

DIPOLE MOMENT
-------------
                                X             Y             Z
Electronic contribution:      3.86571       0.05205       2.52114
Nuclear contribution   :     -5.42217       2.65262      -7.07590
                        -----------------------------------------
Total Dipole Moment    :     -1.55646       2.70467      -4.55476
                        -----------------------------------------
Magnitude (a.u.)       :      5.52120
Magnitude (Debye)      :     14.03378

Rotational constants in cm-1:     0.107541     0.035862     0.030371
Rotational constants in MHz :  3223.996852  1075.120464   910.508313

                             ****ORCA TERMINATED NORMALLY****
TOTAL RUN TIME: 0 days 0 hours 0 minutes 37 seconds 984 msec
