                         Program Version 5.0.0 -  RELEASE  -
|  1> !wB97X-D3 RIJCOSX def2-SVPD def2/J TightSCF
|  2> *xyz 0 1
|  3> C          3.34350        3.35457       -3.59200
|  4> C          2.95263        1.86308       -3.57485
|  5> C          4.12921        0.89839       -3.41895
|  6> H          3.73369       -0.10060       -3.23763
|  7> H          4.71910        0.86256       -4.33901
|  8> C          5.01734        1.31521       -2.22130
|  9> H          2.27894        1.73525       -2.72550
| 10> H          2.37747        1.62579       -4.47587
| 11> F          4.73706        0.85411       -1.12283
| 12> O          5.92815        2.16811       -2.49136
| 13> H          4.00801        3.53975       -4.40994
| 14> H          3.83025        3.60631       -2.67298
| 15> H          2.46347        3.95263       -3.70497
| 16> *
| 17> %MaxCore 64000
| 18>
| 19> %pal nprocs 18
| 20> end
| 21>
| 22> %scf
| 23>   MaxIter 150
| 24> end
| 25>
| 26>
| 27>                          ****END OF INPUT****

CARTESIAN COORDINATES (ANGSTROEM)
---------------------------------
  C      3.343500    3.354570   -3.592000
  C      2.952630    1.863080   -3.574850
  C      4.129210    0.898390   -3.418950
  H      3.733690   -0.100600   -3.237630
  H      4.719100    0.862560   -4.339010
  C      5.017340    1.315210   -2.221300
  H      2.278940    1.735250   -2.725500
  H      2.377470    1.625790   -4.475870
  F      4.737060    0.854110   -1.122830
  O      5.928150    2.168110   -2.491360
  H      4.008010    3.539750   -4.409940
  H      3.830250    3.606310   -2.672980
  H      2.463470    3.952630   -3.704970

 Total Charge           Charge          ....    0
 Multiplicity           Mult            ....    1
 Number of Electrons    NEL             ....   48
 Basis Dimension        Dim             ....  182

ORBITAL ENERGIES
----------------

  NO   OCC          E(Eh)            E(eV)
   0   2.0000     -24.889366      -677.2741
   1   2.0000     -19.252015      -523.8740
   2   2.0000     -10.478386      -285.1314
   3   2.0000     -10.320490      -280.8348
   4   2.0000     -10.308793      -280.5165
   5   2.0000     -10.277579      -279.6671
   6   2.0000      -1.451245       -39.4904
   7   2.0000      -1.130098       -30.7515
   8   2.0000      -0.925020       -25.1711
   9   2.0000      -0.835962       -22.7477
  10   2.0000      -0.782282       -21.2870
  11   2.0000      -0.721663       -19.6375
  12   2.0000      -0.675291       -18.3756
  13   2.0000      -0.656275       -17.8582
  14   2.0000      -0.606743       -16.5103
  15   2.0000      -0.572220       -15.5709
  16   2.0000      -0.557117       -15.1599
  17   2.0000      -0.515508       -14.0277
  18   2.0000      -0.495605       -13.4861
  19   2.0000      -0.462549       -12.5866
  20   2.0000      -0.458291       -12.4707
  21   2.0000      -0.445887       -12.1332
  22   2.0000      -0.433914       -11.8074
  23   2.0000      -0.383795       -10.4436
  24   0.0000       0.049255         1.3403
  25   0.0000       0.084732         2.3057
  26   0.0000       0.113933         3.1003
  27   0.0000       0.118768         3.2319
  28   0.0000       0.127400         3.4667

MULLIKEN ATOMIC CHARGES
-----------------------
   0 C :    0.623465
   1 C :   -0.423718
   2 C :    0.066024
   3 H :    0.040885
   4 H :    0.031280
   5 C :    0.789004
   6 H :   -0.012549
   7 H :   -0.124063
   8 F :   -0.354404
   9 O :   -0.523232
  10 H :   -0.019643
  11 H :   -0.003583
  12 H :   -0.089466
Sum of atomic charges:    0.0000000

LOEWDIN ATOMIC CHARGES
----------------------
   0 C :    0.127208
   1 C :   -0.062450
   2 C :    0.041745
   3 H :    0.022429
   4 H :    0.038917
   5 C :   -0.001580
   6 H :    0.021469
   7 H :    0.025360
   8 F :   -0.008363
   9 O :   -0.155914
  10 H :   -0.007760
  11 H :   -0.024347
  12 H :   -0.016715

  Mayer bond orders larger than 0.100000
B(  0-C ,  1-C ) :   1.2908 B(  0-C , 10-H ) :   0.8130 B(  0-C , 11-H ) :   0.8225
B(  0-C , 12-H ) :   0.8209 B(  1-C ,  2-C ) :   1.1734 B(  1-C ,  3-H ) :   0.1332
B(  1-C ,  4-H ) :   0.1319 B(  1-C ,  6-H ) :   0.9301 B(  1-C ,  7-H ) :   1.0035
B(  1-C , 10-H ) :   0.1809 B(  1-C , 11-H ) :   0.1924 B(  1-C , 12-H ) :   0.1848
B(  2-C ,  3-H ) :   0.8674 B(  2-C ,  4-H ) :   0.9175 B(  2-C ,  5-C ) :   1.0453
B(  5-C ,  8-F ) :   0.7377 B(  5-C ,  9-O ) :   1.7993

Dispersion correction           -0.003380459
FINAL SINGLE POINT ENERGY      -331.381425213527

DIPOLE MOMENT
-------------
                                X             Y             Z
Electronic contribution:      6.05784      -4.37752       7.57817
Nuclear contribution   :     -7.06456       3.75953      -7.86734
                        -----------------------------------------
Total Dipole Moment    :     -1.00671      -0.61798      -0.28917
                        -----------------------------------------
Magnitude (a.u.)       :      1.21614
Magnitude (Debye)      :      3.09118

Rotational constants in cm-1:     0.185871     0.085512     0.073500
Rotational constants in MHz :  5572.269993  2563.593529  2203.466497

                             ****ORCA TERMINATED NORMALLY****
TOTAL RUN TIME: 0 days 0 hours 0 minutes 10 seconds 647 msec
