                         Program Version 5.0.0 -  RELEASE  -
|  1> !wB97X-D3 RIJCOSX def2-SVPD def2/J TightSCF
|  2> *xyz 0 1
|  3> C          3.34350        3.35457       -3.59200
|  4> C          2.95263        1.86308       -3.57485
|  5> C          4.12921        0.89839       -3.41895
|  6> C          4.25587        3.70385       -4.72605
|  7> C          3.73403        4.29378       -5.80077
|  8> N          5.51504        3.40725       -4.63718
|  9> H          6.14919        3.60120       -5.39905
| 10> H          5.81358        2.89950       -3.80879
| 11> H          2.74138        4.51311       -5.82470
| 12> H          4.28755        4.52126       -6.61434
| 13> H          2.27894        1.73525       -2.72550
| 14> H          2.37747        1.62579       -4.47587
| 15> H          3.86125        3.59725       -2.66298
| 16> H          2.44649        3.97346       -3.65656
| 17> H          4.79753        1.01430       -4.24649
| 18> H          3.76482       -0.10731       -3.39293
| 19> H          4.64840        1.11330       -2.50837
| 20> *
| 21> %MaxCore 64000
| 22>
| 23> %pal nprocs 18
| 24> end
| 25>
| 26> %scf
| 27>   MaxIter 150
| 28> end
| 29>
| 30>
| 31>                          ****END OF INPUT****

CARTESIAN COORDINATES (ANGSTROEM)
---------------------------------
  C      3.343500    3.354570   -3.592000
  C      2.952630    1.863080   -3.574850
  C      4.129210    0.898390   -3.418950
  C      4.255870    3.703850   -4.726050
  C      3.734030    4.293780   -5.800770
  N      5.515040    3.407250   -4.637180
  H      6.149190    3.601200   -5.399050
  H      5.813580    2.899500   -3.808790
  H      2.741380    4.513110   -5.824700
  H      4.287550    4.521260   -6.614340
  H      2.278940    1.735250   -2.725500
  H      2.377470    1.625790   -4.475870
  H      3.861250    3.597250   -2.662980
  H      2.446490    3.973460   -3.656560
  H      4.797530    1.014300   -4.246490
  H      3.764820   -0.107310   -3.392930
  H      4.648400    1.113300   -2.508370

 Total Charge           Charge          ....    0
 Multiplicity           Mult            ....    1
 Number of Electrons    NEL             ....   48
 Basis Dimension        Dim             ....  208

ORBITAL ENERGIES
----------------

  NO   OCC          E(Eh)            E(eV)
   0   2.0000     -14.439885      -392.9293
   1   2.0000     -10.309840      -280.5450
   2   2.0000     -10.287836      -279.9463
   3   2.0000     -10.287636      -279.9408
   4   2.0000     -10.275359      -279.6067
   5   2.0000     -10.219162      -278.0775
   6   2.0000      -1.047376       -28.5006
   7   2.0000      -0.904041       -24.6002
   8   2.0000      -0.844768       -22.9873
   9   2.0000      -0.787686       -21.4340
  10   2.0000      -0.713926       -19.4269
  11   2.0000      -0.669457       -18.2168
  12   2.0000      -0.631002       -17.1704
  13   2.0000      -0.588164       -16.0048
  14   2.0000      -0.552906       -15.0453
  15   2.0000      -0.534307       -14.5392
  16   2.0000      -0.510383       -13.8882
  17   2.0000      -0.488880       -13.3031
  18   2.0000      -0.470921       -12.8144
  19   2.0000      -0.458667       -12.4810
  20   2.0000      -0.434718       -11.8293
  21   2.0000      -0.421463       -11.4686
  22   2.0000      -0.416164       -11.3244
  23   2.0000      -0.274345        -7.4653
  24   0.0000       0.088040         2.3957
  25   0.0000       0.112961         3.0738
  26   0.0000       0.117199         3.1892
  27   0.0000       0.122242         3.3264
  28   0.0000       0.141546         3.8517

MULLIKEN ATOMIC CHARGES
-----------------------
   0 C :    0.225324
   1 C :   -0.308220
   2 C :    0.659936
   3 C :   -0.068098
   4 C :    0.434541
   5 N :    0.192703
   6 H :   -0.169615
   7 H :   -0.054129
   8 H :   -0.151113
   9 H :   -0.475501
  10 H :   -0.031271
  11 H :   -0.090629
  12 H :   -0.031351
  13 H :    0.047537
  14 H :   -0.043429
  15 H :   -0.130337
  16 H :   -0.006347
Sum of atomic charges:   -0.0000000

LOEWDIN ATOMIC CHARGES
----------------------
   0 C :    0.002922
   1 C :   -0.057774
   2 C :    0.111130
   3 C :   -0.262172
   4 C :    0.172353
   5 N :    0.169284
   6 H :    0.019632
   7 H :   -0.000047
   8 H :   -0.083568
   9 H :   -0.089789
  10 H :    0.016182
  11 H :    0.024689
  12 H :    0.022359
  13 H :    0.024154
  14 H :   -0.034810
  15 H :   -0.017765
  16 H :   -0.016781

  Mayer bond orders larger than 0.100000
B(  0-C ,  1-C ) :   1.1445 B(  0-C ,  3-C ) :   1.1452 B(  0-C ,  4-C ) :   0.1438
B(  0-C ,  5-N ) :   0.1140 B(  0-C , 11-H ) :   0.1167 B(  0-C , 12-H ) :   0.7691
B(  0-C , 13-H ) :   0.8599 B(  1-C ,  2-C ) :   1.2634 B(  1-C , 10-H ) :   0.9078
B(  1-C , 11-H ) :   1.0159 B(  1-C , 12-H ) :   0.1289 B(  1-C , 13-H ) :   0.1118
B(  1-C , 14-H ) :   0.1927 B(  1-C , 15-H ) :   0.1986 B(  1-C , 16-H ) :   0.1962
B(  2-C , 14-H ) :   0.8335 B(  2-C , 15-H ) :   0.8332 B(  2-C , 16-H ) :   0.7869
B(  3-C ,  4-C ) :   1.7398 B(  3-C ,  5-N ) :   1.1354 B(  3-C ,  6-H ) :  -0.1040
B(  3-C ,  9-H ) :   0.1565 B(  3-C , 12-H ) :   0.1704 B(  3-C , 13-H ) :   0.1392
B(  4-C ,  5-N ) :   0.2621 B(  4-C ,  8-H ) :   0.9609 B(  4-C ,  9-H ) :   0.7161
B(  5-N ,  6-H ) :   1.2936 B(  5-N ,  7-H ) :   0.9997 B(  6-H ,  7-H ) :  -0.1654

Dispersion correction           -0.004552828
FINAL SINGLE POINT ENERGY      -251.640427562453

DIPOLE MOMENT
-------------
                                X             Y             Z
Electronic contribution:      1.43799       2.64990      -1.21232
Nuclear contribution   :     -0.93682      -3.08083       1.62582
                        -----------------------------------------
Total Dipole Moment    :      0.50117      -0.43093       0.41350
                        -----------------------------------------
Magnitude (a.u.)       :      0.77965
Magnitude (Debye)      :      1.98171

Rotational constants in cm-1:     0.191400     0.084268     0.068511
Rotational constants in MHz :  5738.038424  2526.291061  2053.912421

                             ****ORCA TERMINATED NORMALLY****
TOTAL RUN TIME: 0 days 0 hours 0 minutes 13 seconds 441 msec
