                         Program Version 5.0.0 -  RELEASE  -
|  1> !wB97X-D3 RIJCOSX def2-SVPD def2/J TightSCF
|  2> *xyz 0 1
|  3> C          3.34350        3.35457       -3.59200
|  4> C          2.95263        1.86308       -3.57485
|  5> C          4.12921        0.89839       -3.41895
|  6> H          3.73369       -0.10060       -3.23763
|  7> H          4.71910        0.86256       -4.33901
|  8> C          5.01734        1.31521       -2.22130
|  9> H          2.27894        1.73525       -2.72550
| 10> H          2.37747        1.62579       -4.47587
| 11> O          4.73706        0.85411       -1.12283
| 12> F          5.92815        2.16811       -2.49136
| 13> H          4.00801        3.53975       -4.40994
| 14> H          3.83025        3.60631       -2.67298
| 15> H          2.46347        3.95263       -3.70497
| 16> *
| 17> %MaxCore 64000
| 18>
| 19> %pal nprocs 18
| 20> end
| 21>
| 22> %scf
| 23>   MaxIter 150
| 24> end
| 25>
| 26>
| 27>                          ****END OF INPUT****

CARTESIAN COORDINATES (ANGSTROEM)
---------------------------------
  C      3.343500    3.354570   -3.592000
  C      2.952630    1.863080   -3.574850
  C      4.129210    0.898390   -3.418950
  H      3.733690   -0.100600   -3.237630
  H      4.719100    0.862560   -4.339010
  C      5.017340    1.315210   -2.221300
  H      2.278940    1.735250   -2.725500
  H      2.377470    1.625790   -4.475870
  O      4.737060    0.854110   -1.122830
  F      5.928150    2.168110   -2.491360
  H      4.008010    3.539750   -4.409940
  H      3.830250    3.606310   -2.672980
  H      2.463470    3.952630   -3.704970

 Total Charge           Charge          ....    0
 Multiplicity           Mult            ....    1
 Number of Electrons    NEL             ....   48
 Basis Dimension        Dim             ....  182

ORBITAL ENERGIES
----------------

  NO   OCC          E(Eh)            E(eV)
   0   2.0000     -24.867455      -676.6778
   1   2.0000     -19.261914      -524.1433
   2   2.0000     -10.474264      -285.0192
   3   2.0000     -10.319841      -280.8172
   4   2.0000     -10.309145      -280.5261
   5   2.0000     -10.286556      -279.9114
   6   2.0000      -1.409724       -38.3605
   7   2.0000      -1.163281       -31.6545
   8   2.0000      -0.927098       -25.2276
   9   2.0000      -0.835480       -22.7346
  10   2.0000      -0.766112       -20.8470
  11   2.0000      -0.719236       -19.5714
  12   2.0000      -0.653801       -17.7908
  13   2.0000      -0.635138       -17.2830
  14   2.0000      -0.613682       -16.6991
  15   2.0000      -0.567467       -15.4416
  16   2.0000      -0.556778       -15.1507
  17   2.0000      -0.519281       -14.1304
  18   2.0000      -0.511056       -13.9065
  19   2.0000      -0.484971       -13.1967
  20   2.0000      -0.456806       -12.4303
  21   2.0000      -0.448894       -12.2150
  22   2.0000      -0.442726       -12.0472
  23   2.0000      -0.395304       -10.7568
  24   0.0000       0.055307         1.5050
  25   0.0000       0.086788         2.3616
  26   0.0000       0.112927         3.0729
  27   0.0000       0.117132         3.1873
  28   0.0000       0.131638         3.5821

MULLIKEN ATOMIC CHARGES
-----------------------
   0 C :    0.602882
   1 C :   -0.396084
   2 C :    0.054779
   3 H :    0.039767
   4 H :    0.037844
   5 C :    0.784299
   6 H :    0.007685
   7 H :   -0.126528
   8 O :   -0.461084
   9 F :   -0.406259
  10 H :   -0.030879
  11 H :   -0.024592
  12 H :   -0.081831
Sum of atomic charges:    0.0000000

LOEWDIN ATOMIC CHARGES
----------------------
   0 C :    0.125591
   1 C :   -0.060161
   2 C :    0.042756
   3 H :    0.032407
   4 H :    0.029718
   5 C :   -0.005023
   6 H :    0.027430
   7 H :    0.025053
   8 O :   -0.116947
   9 F :   -0.052979
  10 H :   -0.011627
  11 H :   -0.021676
  12 H :   -0.014542

  Mayer bond orders larger than 0.100000
B(  0-C ,  1-C ) :   1.2949 B(  0-C , 10-H ) :   0.8095 B(  0-C , 11-H ) :   0.8276
B(  0-C , 12-H ) :   0.8269 B(  1-C ,  2-C ) :   1.1880 B(  1-C ,  3-H ) :   0.1293
B(  1-C ,  4-H ) :   0.1292 B(  1-C ,  6-H ) :   0.9338 B(  1-C ,  7-H ) :   1.0056
B(  1-C , 10-H ) :   0.1751 B(  1-C , 11-H ) :   0.1891 B(  1-C , 12-H ) :   0.1836
B(  2-C ,  3-H ) :   0.8779 B(  2-C ,  4-H ) :   0.9091 B(  2-C ,  5-C ) :   1.0292
B(  2-C ,  6-H ) :   0.1029 B(  3-H ,  5-C ) :   0.1154 B(  5-C ,  8-O ) :   1.8529
B(  5-C ,  9-F ) :   0.6732 B(  8-O ,  9-F ) :   0.1009

Dispersion correction           -0.003414802
FINAL SINGLE POINT ENERGY      -331.398289395688

DIPOLE MOMENT
-------------
                                X             Y             Z
Electronic contribution:      8.05929      -2.12450       5.21920
Nuclear contribution   :     -8.40998       2.27527      -6.32148
                        -----------------------------------------
Total Dipole Moment    :     -0.35069       0.15077      -1.10229
                        -----------------------------------------
Magnitude (a.u.)       :      1.16651
Magnitude (Debye)      :      2.96504

Rotational constants in cm-1:     0.181105     0.088112     0.073966
Rotational constants in MHz :  5429.384816  2641.525058  2217.445966

                             ****ORCA TERMINATED NORMALLY****
TOTAL RUN TIME: 0 days 0 hours 0 minutes 10 seconds 720 msec
