                         Program Version 5.0.0 -  RELEASE  -
|  1> !wB97X-D3 RIJCOSX def2-SVPD def2/J TightSCF
|  2> *xyz 0 1
|  3> C          3.34350        3.35457       -3.59200
|  4> C          2.95263        1.86308       -3.57485
|  5> C          4.12921        0.89839       -3.41895
|  6> C          4.25587        3.70385       -4.72605
|  7> N          3.73403        4.29378       -5.80077
|  8> C          5.51504        3.40725       -4.63718
|  9> H          6.14919        3.60120       -5.39905
| 10> H          5.81358        2.89950       -3.80879
| 11> H          2.74138        4.51311       -5.82470
| 12> H          4.28755        4.52126       -6.61434
| 13> H          2.27894        1.73525       -2.72550
| 14> H          2.37747        1.62579       -4.47587
| 15> H          3.86125        3.59725       -2.66298
| 16> H          2.44649        3.97346       -3.65656
| 17> H          4.79753        1.01430       -4.24649
| 18> H          3.76482       -0.10731       -3.39293
| 19> H          4.64840        1.11330       -2.50837
| 20> *
| 21> %MaxCore 64000
| 22>
| 23> %pal nprocs 18
| 24> end
| 25>
| 26> %scf
| 27>   MaxIter 150
| 28> end
| 29>
| 30>
| 31>                          ****END OF INPUT****

CARTESIAN COORDINATES (ANGSTROEM)
---------------------------------
  C      3.343500    3.354570   -3.592000
  C      2.952630    1.863080   -3.574850
  C      4.129210    0.898390   -3.418950
  C      4.255870    3.703850   -4.726050
  N      3.734030    4.293780   -5.800770
  C      5.515040    3.407250   -4.637180
  H      6.149190    3.601200   -5.399050
  H      5.813580    2.899500   -3.808790
  H      2.741380    4.513110   -5.824700
  H      4.287550    4.521260   -6.614340
  H      2.278940    1.735250   -2.725500
  H      2.377470    1.625790   -4.475870
  H      3.861250    3.597250   -2.662980
  H      2.446490    3.973460   -3.656560
  H      4.797530    1.014300   -4.246490
  H      3.764820   -0.107310   -3.392930
  H      4.648400    1.113300   -2.508370

 Total Charge           Charge          ....    0
 Multiplicity           Mult            ....    1
 Number of Electrons    NEL             ....   48
 Basis Dimension        Dim             ....  208

ORBITAL ENERGIES
----------------

  NO   OCC          E(Eh)            E(eV)
   0   2.0000     -14.436697      -392.8425
   1   2.0000     -10.306893      -280.4648
   2   2.0000     -10.287027      -279.9242
   3   2.0000     -10.285733      -279.8890
   4   2.0000     -10.263609      -279.2870
   5   2.0000     -10.218081      -278.0481
   6   2.0000      -1.032285       -28.0899
   7   2.0000      -0.904860       -24.6225
   8   2.0000      -0.840356       -22.8672
   9   2.0000      -0.794549       -21.6208
  10   2.0000      -0.702948       -19.1282
  11   2.0000      -0.667357       -18.1597
  12   2.0000      -0.621934       -16.9237
  13   2.0000      -0.582340       -15.8463
  14   2.0000      -0.553849       -15.0710
  15   2.0000      -0.535516       -14.5721
  16   2.0000      -0.492172       -13.3927
  17   2.0000      -0.491097       -13.3634
  18   2.0000      -0.471712       -12.8359
  19   2.0000      -0.456688       -12.4271
  20   2.0000      -0.428755       -11.6670
  21   2.0000      -0.417725       -11.3669
  22   2.0000      -0.411783       -11.2052
  23   2.0000      -0.280241        -7.6257
  24   0.0000       0.089198         2.4272
  25   0.0000       0.114524         3.1164
  26   0.0000       0.116226         3.1627
  27   0.0000       0.123820         3.3693
  28   0.0000       0.141096         3.8394

MULLIKEN ATOMIC CHARGES
-----------------------
   0 C :    0.198056
   1 C :   -0.296097
   2 C :    0.616037
   3 C :    0.099902
   4 N :    0.017491
   5 C :    0.411865
   6 H :   -0.596322
   7 H :    0.059676
   8 H :   -0.073328
   9 H :   -0.147995
  10 H :   -0.035846
  11 H :   -0.084022
  12 H :    0.092049
  13 H :   -0.111022
  14 H :    0.004723
  15 H :   -0.169215
  16 H :    0.014048
Sum of atomic charges:    0.0000000

LOEWDIN ATOMIC CHARGES
----------------------
   0 C :    0.003058
   1 C :   -0.059303
   2 C :    0.114089
   3 C :   -0.247981
   4 N :    0.163329
   5 C :    0.161445
   6 H :   -0.075315
   7 H :   -0.075333
   8 H :   -0.000979
   9 H :    0.004739
  10 H :    0.015766
  11 H :    0.021078
  12 H :    0.028688
  13 H :    0.013996
  14 H :   -0.034766
  15 H :   -0.019832
  16 H :   -0.012678

  Mayer bond orders larger than 0.100000
B(  0-C ,  1-C ) :   1.1568 B(  0-C ,  3-C ) :   1.0145 B(  0-C ,  4-N ) :   0.1225
B(  0-C ,  5-C ) :   0.1992 B(  0-C , 10-H ) :   0.1156 B(  0-C , 11-H ) :   0.1084
B(  0-C , 12-H ) :   0.8097 B(  0-C , 13-H ) :   0.8695 B(  1-C ,  2-C ) :   1.2815
B(  1-C , 10-H ) :   0.8804 B(  1-C , 11-H ) :   0.9925 B(  1-C , 12-H ) :   0.1299
B(  1-C , 13-H ) :   0.1218 B(  1-C , 14-H ) :   0.1909 B(  1-C , 15-H ) :   0.2072
B(  1-C , 16-H ) :   0.1901 B(  2-C , 14-H ) :   0.8262 B(  2-C , 15-H ) :   0.8572
B(  2-C , 16-H ) :   0.7904 B(  3-C ,  4-N ) :   1.0702 B(  3-C ,  5-C ) :   1.8881
B(  3-C ,  6-H ) :   0.1875 B(  3-C ,  7-H ) :   0.2249 B(  3-C , 13-H ) :   0.1213
B(  4-N ,  5-C ) :   0.2372 B(  4-N ,  8-H ) :   1.1232 B(  4-N ,  9-H ) :   1.2670
B(  5-C ,  6-H ) :   0.8196 B(  5-C ,  7-H ) :   0.6834 B(  6-H ,  7-H ) :  -0.1572
B(  8-H ,  9-H ) :  -0.1561

Dispersion correction           -0.004495537
FINAL SINGLE POINT ENERGY      -251.639961141583

DIPOLE MOMENT
-------------
                                X             Y             Z
Electronic contribution:     -0.07247       3.46453      -2.22840
Nuclear contribution   :     -0.51555      -3.29052       1.90104
                        -----------------------------------------
Total Dipole Moment    :     -0.58802       0.17401      -0.32736
                        -----------------------------------------
Magnitude (a.u.)       :      0.69513
Magnitude (Debye)      :      1.76689

Rotational constants in cm-1:     0.197086     0.081749     0.067746
Rotational constants in MHz :  5908.486274  2450.769911  2030.963952

                             ****ORCA TERMINATED NORMALLY****
TOTAL RUN TIME: 0 days 0 hours 0 minutes 12 seconds 930 msec
