                         Program Version 5.0.0 -  RELEASE  -
|  1> !B3LYP D3BJ RIJCOSX def2-TZVP def2/J TightSCF
|  2> *xyz -1 1
|  3> C         -2.79070       -0.78527        5.70281
|  4> C         -2.45380        0.05510        6.94145
|  5> C         -2.07842        1.48042        6.56410
|  6> H         -1.62558       -0.38216        7.49891
|  7> H         -3.32527        0.08775        7.59917
|  8> O         -0.90125        1.85816        6.82810
|  9> O         -2.93658        2.17731        5.96415
| 10> H         -1.94052       -0.82114        5.05412
| 11> H         -3.61590       -0.34261        5.18514
| 12> H         -3.05063       -1.77815        6.00536
| 13> *
| 14> %MaxCore 64000
| 15>
| 16> %pal nprocs 4
| 17> end
| 18>
| 19> %scf
| 20>   MaxIter 150
| 21> end
| 22>
| 23>
| 24>                          ****END OF INPUT****

CARTESIAN COORDINATES (ANGSTROEM)
---------------------------------
  C     -2.790700   -0.785270    5.702810
  C     -2.453800    0.055100    6.941450
  C     -2.078420    1.480420    6.564100
  H     -1.625580   -0.382160    7.498910
  H     -3.325270    0.087750    7.599170
  O     -0.901250    1.858160    6.828100
  O     -2.936580    2.177310    5.964150
  H     -1.940520   -0.821140    5.054120
  H     -3.615900   -0.342610    5.185140
  H     -3.050630   -1.778150    6.005360

 Total Charge           Charge          ....   -1
 Multiplicity           Mult            ....    1
 Number of Electrons    NEL             ....   40
 Basis Dimension        Dim             ....  185

ORBITAL ENERGIES
----------------

  NO   OCC          E(Eh)            E(eV)
   0   2.0000     -18.848160      -512.8845
   1   2.0000     -18.846535      -512.8403
   2   2.0000     -10.040736      -273.2223
   3   2.0000     -10.001862      -272.1645
   4   2.0000      -9.988764      -271.8081
   5   2.0000      -0.807025       -21.9603
   6   2.0000      -0.714766       -19.4498
   7   2.0000      -0.601038       -16.3551
   8   2.0000      -0.470314       -12.7979
   9   2.0000      -0.315562        -8.5869
  10   2.0000      -0.288394        -7.8476
  11   2.0000      -0.253800        -6.9063
  12   2.0000      -0.223548        -6.0831
  13   2.0000      -0.208689        -5.6787
  14   2.0000      -0.200873        -5.4660
  15   2.0000      -0.170104        -4.6288
  16   2.0000      -0.152949        -4.1620
  17   2.0000      -0.037979        -1.0335
  18   2.0000      -0.032966        -0.8970
  19   2.0000      -0.016722        -0.4550
  20   0.0000       0.183452         4.9920
  21   0.0000       0.224239         6.1018
  22   0.0000       0.243508         6.6262
  23   0.0000       0.248818         6.7707
  24   0.0000       0.260266         7.0822

MULLIKEN ATOMIC CHARGES
-----------------------
   0 C :   -0.308423
   1 C :   -0.096345
   2 C :    0.208036
   3 H :    0.027266
   4 H :    0.019621
   5 O :   -0.534926
   6 O :   -0.530986
   7 H :    0.081215
   8 H :    0.087416
   9 H :    0.047125
Sum of atomic charges:   -1.0000000

LOEWDIN ATOMIC CHARGES
----------------------
   0 C :   -0.318243
   1 C :   -0.286046
   2 C :   -0.693446
   3 H :    0.115382
   4 H :    0.116608
   5 O :   -0.124996
   6 O :   -0.115569
   7 H :    0.106645
   8 H :    0.109016
   9 H :    0.090650

  Mayer bond orders larger than 0.100000
B(  0-C ,  1-C ) :   0.9480 B(  0-C ,  7-H ) :   0.9844 B(  0-C ,  8-H ) :   0.9717
B(  0-C ,  9-H ) :   0.9695 B(  1-C ,  2-C ) :   0.9306 B(  1-C ,  3-H ) :   0.9507
B(  1-C ,  4-H ) :   0.9492 B(  2-C ,  5-O ) :   1.8766 B(  2-C ,  6-O ) :   1.8490

Dispersion correction           -0.010986427
FINAL SINGLE POINT ENERGY      -267.810434225312

DIPOLE MOMENT
-------------
                                X             Y             Z
Electronic contribution:      1.66682       5.64177       0.66432
Nuclear contribution   :     -2.24498      -7.51881      -0.57245
                        -----------------------------------------
Total Dipole Moment    :     -0.57816      -1.87704       0.09187
                        -----------------------------------------
Magnitude (a.u.)       :      1.96622
Magnitude (Debye)      :      4.99772

Rotational constants in cm-1:     0.305589     0.135336     0.107479
Rotational constants in MHz :  9161.317320  4057.276612  3222.126231

                             ****ORCA TERMINATED NORMALLY****
TOTAL RUN TIME: 0 days 0 hours 0 minutes 19 seconds 976 msec
