                         Program Version 5.0.0 -  RELEASE  -
|  1> !B3LYP D3BJ RIJCOSX def2-TZVP def2/J TightSCF
|  2> *xyz 1 1
|  3> C         -0.69912        3.48945        3.75516
|  4> H         -0.96672        4.34901        3.14049
|  5> N         -1.08067        3.79296        5.15686
|  6> C          0.77696        3.13839        3.61741
|  7> H         -1.33146        2.65651        3.44632
|  8> H         -0.87449        4.76274        5.42734
|  9> H         -0.68079        3.13476        5.83900
| 10> H         -2.05755        3.53169        5.34620
| 11> H          0.99957        2.92898        2.59199
| 12> H          0.99576        2.27685        4.21303
| 13> H          1.37223        3.96279        3.95046
| 14> *
| 15> %MaxCore 64000
| 16>
| 17> %pal nprocs 4
| 18> end
| 19>
| 20> %scf
| 21>   MaxIter 150
| 22> end
| 23>
| 24>
| 25>                          ****END OF INPUT****

CARTESIAN COORDINATES (ANGSTROEM)
---------------------------------
  C     -0.699120    3.489450    3.755160
  H     -0.966720    4.349010    3.140490
  N     -1.080670    3.792960    5.156860
  C      0.776960    3.138390    3.617410
  H     -1.331460    2.656510    3.446320
  H     -0.874490    4.762740    5.427340
  H     -0.680790    3.134760    5.839000
  H     -2.057550    3.531690    5.346200
  H      0.999570    2.928980    2.591990
  H      0.995760    2.276850    4.213030
  H      1.372230    3.962790    3.950460

 Total Charge           Charge          ....    1
 Multiplicity           Mult            ....    1
 Number of Electrons    NEL             ....   26
 Basis Dimension        Dim             ....  141

ORBITAL ENERGIES
----------------

  NO   OCC          E(Eh)            E(eV)
   0   2.0000     -14.650526      -398.6611
   1   2.0000     -10.422749      -283.6174
   2   2.0000     -10.341641      -281.4104
   3   2.0000      -1.218415       -33.1548
   4   2.0000      -0.966598       -26.3025
   5   2.0000      -0.846073       -23.0228
   6   2.0000      -0.816123       -22.2078
   7   2.0000      -0.767574       -20.8868
   8   2.0000      -0.699622       -19.0377
   9   2.0000      -0.643640       -17.5143
  10   2.0000      -0.582222       -15.8431
  11   2.0000      -0.568373       -15.4662
  12   2.0000      -0.551645       -15.0110
  13   0.0000      -0.200190        -5.4474
  14   0.0000      -0.138884        -3.7792
  15   0.0000      -0.135814        -3.6957
  16   0.0000      -0.114045        -3.1033
  17   0.0000      -0.076504        -2.0818

MULLIKEN ATOMIC CHARGES
-----------------------
   0 C :   -0.170821
   1 H :    0.185770
   2 N :   -0.277785
   3 C :   -0.323859
   4 H :    0.173506
   5 H :    0.329340
   6 H :    0.310441
   7 H :    0.320112
   8 H :    0.172172
   9 H :    0.140339
  10 H :    0.140786
Sum of atomic charges:    1.0000000

LOEWDIN ATOMIC CHARGES
----------------------
   0 C :   -0.272726
   1 H :    0.152315
   2 N :    0.169591
   3 C :   -0.270312
   4 H :    0.150409
   5 H :    0.222948
   6 H :    0.220709
   7 H :    0.223992
   8 H :    0.145928
   9 H :    0.127984
  10 H :    0.129162

  Mayer bond orders larger than 0.100000
B(  0-C ,  1-H ) :   0.9562 B(  0-C ,  2-N ) :   0.8462 B(  0-C ,  3-C ) :   0.9831
B(  0-C ,  4-H ) :   0.9537 B(  2-N ,  5-H ) :   0.8748 B(  2-N ,  6-H ) :   0.8820
B(  2-N ,  7-H ) :   0.8854 B(  3-C ,  8-H ) :   0.9600 B(  3-C ,  9-H ) :   0.9600
B(  3-C , 10-H ) :   0.9603

Dispersion correction           -0.009988775
FINAL SINGLE POINT ENERGY      -135.500471641309

DIPOLE MOMENT
-------------
                                X             Y             Z
Electronic contribution:     -1.33145       0.57271       1.10026
Nuclear contribution   :      0.33986      -0.24565       0.10678
                        -----------------------------------------
Total Dipole Moment    :     -0.99160       0.32705       1.20704
                        -----------------------------------------
Magnitude (a.u.)       :      1.59599
Magnitude (Debye)      :      4.05668

Rotational constants in cm-1:     1.016237     0.277523     0.247812
Rotational constants in MHz : 30466.024354  8319.937961  7429.230177

                             ****ORCA TERMINATED NORMALLY****
TOTAL RUN TIME: 0 days 0 hours 0 minutes 12 seconds 810 msec
