                         Program Version 5.0.0 -  RELEASE  -
|  1> !B3LYP D3BJ RIJCOSX def2-TZVP def2/J TightSCF xyzfile
|  2>
|  3> *xyzfile 0 1 B.xyz
|  4>
|  5> %MaxCore 64000
|  6>
|  7> %pal nprocs 18
|  8> end
|  9>
| 10> %scf
| 11>   MaxIter 150
| 12> end
| 13>
| 14>
| 15>                          ****END OF INPUT****

CARTESIAN COORDINATES (ANGSTROEM)
---------------------------------
  C     -0.699123    3.489451    3.755163
  H     -0.966716    4.349013    3.140491
  N     -1.080669    3.792957    5.156857
  C      0.776956    3.138391    3.617408
  H     -1.331455    2.656510    3.446323
  H      1.371398    3.888342    4.149744
  H      1.046926    3.232057    2.561331
  C      1.118917    1.731170    4.115155
  H      2.200573    1.654226    4.254882
  C      0.659466    0.635182    3.153306
  H      0.677024    1.576674    5.103150
  H      1.312288    0.638870    2.274207
  H     -0.339563    0.868049    2.772876
  C      0.639957   -0.771175    3.755619
  C     -0.341821   -0.965537    4.915046
  H      1.648266   -1.028665    4.097015
  H      0.398568   -1.482386    2.958453
  H     -0.279892   -2.005646    5.252547
  C     -1.789164   -0.639231    4.557496
  H     -0.032380   -0.352918    5.765118
  H     -2.107151   -1.270102    3.719619
  H     -1.856352    0.391636    4.197604
  C     -2.790700   -0.785275    5.702812
  H     -2.867308   -1.835651    6.001675
  H     -3.774554   -0.486577    5.334807
  C     -2.453797    0.055101    6.941445
  C     -2.078419    1.480421    6.564098
  H     -1.625584   -0.382163    7.498914
  H     -3.325274    0.087746    7.599175
  H     -0.874488    4.762737    5.427344
  H     -0.680793    3.134762    5.839000
  H     -2.057550    3.531691    5.346197
  O     -0.901252    1.858156    6.828104
  O     -2.936582    2.177309    5.964151

 Total Charge           Charge          ....    0
 Multiplicity           Mult            ....    1
 Number of Electrons    NEL             ....  104
 Basis Dimension        Dim             ....  529

ORBITAL ENERGIES
----------------

  NO   OCC          E(Eh)            E(eV)
   0   2.0000     -19.058164      -518.5990
   1   2.0000     -19.056381      -518.5505
   2   2.0000     -14.394048      -391.6820
   3   2.0000     -10.240367      -278.6545
   4   2.0000     -10.237329      -278.5719
   5   2.0000     -10.190453      -277.2963
   6   2.0000     -10.165718      -276.6232
   7   2.0000     -10.162540      -276.5368
   8   2.0000     -10.156050      -276.3602
   9   2.0000     -10.146832      -276.1093
  10   2.0000     -10.146513      -276.1007
  11   2.0000     -10.145362      -276.0693
  12   2.0000     -10.139173      -275.9009
  13   2.0000      -1.026873       -27.9426
  14   2.0000      -0.981271       -26.7017
  15   2.0000      -0.928411       -25.2633
  16   2.0000      -0.820722       -22.3330
  17   2.0000      -0.792426       -21.5630
  18   2.0000      -0.764308       -20.7979
  19   2.0000      -0.718573       -19.5534
  20   2.0000      -0.686395       -18.6778
  21   2.0000      -0.647775       -17.6269
  22   2.0000      -0.610030       -16.5998
  23   2.0000      -0.594028       -16.1643
  24   2.0000      -0.575567       -15.6620
  25   2.0000      -0.549856       -14.9623
  26   2.0000      -0.543217       -14.7817
  27   2.0000      -0.501154       -13.6371
  28   2.0000      -0.481840       -13.1115
  29   2.0000      -0.472926       -12.8690
  30   2.0000      -0.469523       -12.7764
  31   2.0000      -0.445383       -12.1195
  32   2.0000      -0.441114       -12.0033
  33   2.0000      -0.430757       -11.7215
  34   2.0000      -0.419638       -11.4189
  35   2.0000      -0.408956       -11.1283
  36   2.0000      -0.398910       -10.8549
  37   2.0000      -0.397947       -10.8287
  38   2.0000      -0.385942       -10.5020
  39   2.0000      -0.376746       -10.2518
  40   2.0000      -0.362097        -9.8532
  41   2.0000      -0.356988        -9.7142
  42   2.0000      -0.350218        -9.5299
  43   2.0000      -0.335552        -9.1308
  44   2.0000      -0.326348        -8.8804
  45   2.0000      -0.321057        -8.7364
  46   2.0000      -0.307648        -8.3715
  47   2.0000      -0.302426        -8.2294
  48   2.0000      -0.296602        -8.0710
  49   2.0000      -0.248029        -6.7492
  50   2.0000      -0.234697        -6.3864
  51   2.0000      -0.231924        -6.3110
  52   0.0000       0.000220         0.0060
  53   0.0000       0.036287         0.9874
  54   0.0000       0.043856         1.1934
  55   0.0000       0.048370         1.3162
  56   0.0000       0.053120         1.4455

MULLIKEN ATOMIC CHARGES
-----------------------
   0 C :   -0.178063
   1 H :    0.128044
   2 N :   -0.239548
   3 C :   -0.134527
   4 H :    0.143991
   5 H :    0.094199
   6 H :    0.096573
   7 C :   -0.233204
   8 H :    0.088808
   9 C :   -0.210248
  10 H :    0.156099
  11 H :    0.089345
  12 H :    0.091386
  13 C :   -0.112247
  14 C :   -0.241518
  15 H :    0.080713
  16 H :    0.081971
  17 H :    0.078688
  18 C :   -0.166607
  19 H :    0.139630
  20 H :    0.074182
  21 H :    0.080509
  22 C :   -0.143626
  23 H :    0.076506
  24 H :    0.085102
  25 C :   -0.146036
  26 C :    0.306939
  27 H :    0.090731
  28 H :    0.088768
  29 H :    0.241852
  30 H :    0.270932
  31 H :    0.279475
  32 O :   -0.532175
  33 O :   -0.526642
Sum of atomic charges:   -0.0000000

LOEWDIN ATOMIC CHARGES
----------------------
   0 C :   -0.270161
   1 H :    0.131215
   2 N :    0.136634
   3 C :   -0.265879
   4 H :    0.139844
   5 H :    0.134472
   6 H :    0.142426
   7 C :   -0.260443
   8 H :    0.135184
   9 C :   -0.266213
  10 H :    0.144027
  11 H :    0.131684
  12 H :    0.129228
  13 C :   -0.261747
  14 C :   -0.263290
  15 H :    0.133178
  16 H :    0.132861
  17 H :    0.132407
  18 C :   -0.265237
  19 H :    0.139878
  20 H :    0.131015
  21 H :    0.130830
  22 C :   -0.257201
  23 H :    0.130175
  24 H :    0.137173
  25 C :   -0.234129
  26 C :   -0.619841
  27 H :    0.135680
  28 H :    0.140607
  29 H :    0.182608
  30 H :    0.162349
  31 H :    0.175391
  32 O :   -0.066044
  33 O :   -0.058681

  Mayer bond orders larger than 0.100000
B(  0-C ,  1-H ) :   0.9738 B(  0-C ,  2-N ) :   0.9133 B(  0-C ,  3-C ) :   0.9638
B(  0-C ,  4-H ) :   0.9658 B(  2-N , 29-H ) :   0.9043 B(  2-N , 30-H ) :   0.7617
B(  2-N , 31-H ) :   0.7851 B(  3-C ,  5-H ) :   0.9677 B(  3-C ,  6-H ) :   0.9599
B(  3-C ,  7-C ) :   0.9594 B(  7-C ,  8-H ) :   0.9608 B(  7-C ,  9-C ) :   0.9354
B(  7-C , 10-H ) :   0.9781 B(  9-C , 11-H ) :   0.9610 B(  9-C , 12-H ) :   0.9826
B(  9-C , 13-C ) :   0.9652 B( 13-C , 14-C ) :   0.9726 B( 13-C , 15-H ) :   0.9712
B( 13-C , 16-H ) :   0.9692 B( 14-C , 17-H ) :   0.9634 B( 14-C , 18-C ) :   0.9345
B( 14-C , 19-H ) :   0.9777 B( 18-C , 20-H ) :   0.9645 B( 18-C , 21-H ) :   0.9759
B( 18-C , 22-C ) :   0.9894 B( 22-C , 23-H ) :   0.9655 B( 22-C , 24-H ) :   0.9579
B( 22-C , 25-C ) :   0.9634 B( 25-C , 26-C ) :   0.9496 B( 25-C , 27-H ) :   0.9765
B( 25-C , 28-H ) :   0.9478 B( 26-C , 32-O ) :   1.6247 B( 26-C , 33-O ) :   1.6800
B( 30-H , 32-O ) :   0.2270 B( 31-H , 33-O ) :   0.1867

Dispersion correction           -0.062212718
FINAL SINGLE POINT ENERGY      -598.849555585356

DIPOLE MOMENT
-------------
                                X             Y             Z
Electronic contribution:     -4.67590       4.85508       6.71808
Nuclear contribution   :      5.60885      -3.40606      -8.06960
                        -----------------------------------------
Total Dipole Moment    :      0.93295       1.44902      -1.35152
                        -----------------------------------------
Magnitude (a.u.)       :      2.19012
Magnitude (Debye)      :      5.56685

Rotational constants in cm-1:     0.028465     0.023505     0.015110
Rotational constants in MHz :   853.363165   704.655786   452.976312

                             ****ORCA TERMINATED NORMALLY****
TOTAL RUN TIME: 0 days 0 hours 1 minutes 16 seconds 814 msec
