                         Program Version 5.0.0 -  RELEASE  -
|  1> !B3LYP D3BJ RIJCOSX def2-TZVP def2/J TightSCF
|  2> *xyz 0 1
|  3> C         -2.79070       -0.78527        5.70281
|  4> C         -2.45380        0.05510        6.94145
|  5> C         -2.07842        1.48042        6.56410
|  6> H         -1.62558       -0.38216        7.49891
|  7> H         -3.32527        0.08775        7.59917
|  8> F         -0.90125        1.85816        6.82810
|  9> O         -2.93658        2.17731        5.96415
| 10> H         -1.94052       -0.82114        5.05412
| 11> H         -3.61590       -0.34261        5.18514
| 12> H         -3.05063       -1.77815        6.00536
| 13> *
| 14> %MaxCore 64000
| 15>
| 16> %pal nprocs 4
| 17> end
| 18>
| 19> %scf
| 20>   MaxIter 150
| 21> end
| 22>
| 23>
| 24>                          ****END OF INPUT****

CARTESIAN COORDINATES (ANGSTROEM)
---------------------------------
  C     -2.790700   -0.785270    5.702810
  C     -2.453800    0.055100    6.941450
  C     -2.078420    1.480420    6.564100
  H     -1.625580   -0.382160    7.498910
  H     -3.325270    0.087750    7.599170
  F     -0.901250    1.858160    6.828100
  O     -2.936580    2.177310    5.964150
  H     -1.940520   -0.821140    5.054120
  H     -3.615900   -0.342610    5.185140
  H     -3.050630   -1.778150    6.005360

 Total Charge           Charge          ....    0
 Multiplicity           Mult            ....    1
 Number of Electrons    NEL             ....   40
 Basis Dimension        Dim             ....  185

ORBITAL ENERGIES
----------------

  NO   OCC          E(Eh)            E(eV)
   0   2.0000     -24.747614      -673.4168
   1   2.0000     -19.129917      -520.5515
   2   2.0000     -10.346283      -281.5367
   3   2.0000     -10.201183      -277.5883
   4   2.0000     -10.174313      -276.8571
   5   2.0000      -1.312657       -35.7192
   6   2.0000      -1.031712       -28.0743
   7   2.0000      -0.801968       -21.8227
   8   2.0000      -0.689805       -18.7705
   9   2.0000      -0.637530       -17.3481
  10   2.0000      -0.545256       -14.8372
  11   2.0000      -0.531697       -14.4682
  12   2.0000      -0.508535       -13.8379
  13   2.0000      -0.466085       -12.6828
  14   2.0000      -0.435429       -11.8486
  15   2.0000      -0.400815       -10.9067
  16   2.0000      -0.381452       -10.3798
  17   2.0000      -0.376711       -10.2508
  18   2.0000      -0.347261        -9.4495
  19   2.0000      -0.293934        -7.9984
  20   0.0000      -0.033233        -0.9043
  21   0.0000       0.033603         0.9144
  22   0.0000       0.071466         1.9447
  23   0.0000       0.085977         2.3396
  24   0.0000       0.097270         2.6469

MULLIKEN ATOMIC CHARGES
-----------------------
   0 C :   -0.331024
   1 C :   -0.177988
   2 C :    0.378312
   3 H :    0.099990
   4 H :    0.117873
   5 F :   -0.110857
   6 O :   -0.335404
   7 H :    0.110524
   8 H :    0.133452
   9 H :    0.115122
Sum of atomic charges:    0.0000000

LOEWDIN ATOMIC CHARGES
----------------------
   0 C :   -0.279357
   1 C :   -0.253672
   2 C :   -0.488850
   3 H :    0.136763
   4 H :    0.152594
   5 F :    0.310596
   6 O :    0.062003
   7 H :    0.118158
   8 H :    0.124041
   9 H :    0.117725

  Mayer bond orders larger than 0.100000
B(  0-C ,  1-C ) :   0.9574 B(  0-C ,  7-H ) :   0.9750 B(  0-C ,  8-H ) :   0.9705
B(  0-C ,  9-H ) :   0.9705 B(  1-C ,  2-C ) :   0.9830 B(  1-C ,  3-H ) :   0.9576
B(  1-C ,  4-H ) :   0.9449 B(  2-C ,  5-F ) :   1.1468 B(  2-C ,  6-O ) :   2.0481

Dispersion correction           -0.010412680
FINAL SINGLE POINT ENERGY      -292.382315062710

DIPOLE MOMENT
-------------
                                X             Y             Z
Electronic contribution:      3.96598       7.43416       1.48552
Nuclear contribution   :     -3.69486      -8.49563      -1.04945
                        -----------------------------------------
Total Dipole Moment    :      0.27112      -1.06147       0.43606
                        -----------------------------------------
Magnitude (a.u.)       :      1.17914
Magnitude (Debye)      :      2.99714

Rotational constants in cm-1:     0.293725     0.129218     0.102393
Rotational constants in MHz :  8805.653529  3873.869810  3069.666716

                             ****ORCA TERMINATED NORMALLY****
TOTAL RUN TIME: 0 days 0 hours 0 minutes 18 seconds 626 msec
