                         Program Version 5.0.0 -  RELEASE  -
|  1> !B3LYP D3BJ RIJCOSX def2-TZVP def2/J TightSCF
|  2> *xyz 0 1
|  3> C         -0.69912        3.48945        3.75516
|  4> H         -0.96672        4.34901        3.14049
|  5> C         -1.08067        3.79296        5.15686
|  6> C          0.77696        3.13839        3.61741
|  7> H         -1.33146        2.65651        3.44632
|  8> H         -0.87449        4.76274        5.42734
|  9> H         -0.68079        3.13476        5.83900
| 10> H         -2.05755        3.53169        5.34620
| 11> H          0.99957        2.92898        2.59199
| 12> H          0.99576        2.27685        4.21303
| 13> H          1.37223        3.96279        3.95046
| 14> *
| 15> %MaxCore 64000
| 16>
| 17> %pal nprocs 4
| 18> end
| 19>
| 20> %scf
| 21>   MaxIter 150
| 22> end
| 23>
| 24>
| 25>                          ****END OF INPUT****

CARTESIAN COORDINATES (ANGSTROEM)
---------------------------------
  C     -0.699120    3.489450    3.755160
  H     -0.966720    4.349010    3.140490
  C     -1.080670    3.792960    5.156860
  C      0.776960    3.138390    3.617410
  H     -1.331460    2.656510    3.446320
  H     -0.874490    4.762740    5.427340
  H     -0.680790    3.134760    5.839000
  H     -2.057550    3.531690    5.346200
  H      0.999570    2.928980    2.591990
  H      0.995760    2.276850    4.213030
  H      1.372230    3.962790    3.950460

 Total Charge           Charge          ....    0
 Multiplicity           Mult            ....    1
 Number of Electrons    NEL             ....   26
 Basis Dimension        Dim             ....  141

ORBITAL ENERGIES
----------------

  NO   OCC          E(Eh)            E(eV)
   0   2.0000     -10.153860      -276.3006
   1   2.0000     -10.144454      -276.0446
   2   2.0000     -10.126359      -275.5522
   3   2.0000      -0.789557       -21.4849
   4   2.0000      -0.690792       -18.7974
   5   2.0000      -0.587489       -15.9864
   6   2.0000      -0.471018       -12.8171
   7   2.0000      -0.437981       -11.9181
   8   2.0000      -0.399494       -10.8708
   9   2.0000      -0.395385       -10.7590
  10   2.0000      -0.340015        -9.2523
  11   2.0000      -0.329223        -8.9586
  12   2.0000      -0.324824        -8.8389
  13   0.0000       0.040352         1.0980
  14   0.0000       0.082232         2.2376
  15   0.0000       0.088173         2.3993
  16   0.0000       0.092450         2.5157
  17   0.0000       0.115857         3.1526

MULLIKEN ATOMIC CHARGES
-----------------------
   0 C :   -0.129052
   1 H :    0.078683
   2 C :   -0.324601
   3 C :   -0.301961
   4 H :    0.076282
   5 H :    0.102030
   6 H :    0.098157
   7 H :    0.106498
   8 H :    0.101500
   9 H :    0.097481
  10 H :    0.094983
Sum of atomic charges:    0.0000000

LOEWDIN ATOMIC CHARGES
----------------------
   0 C :   -0.316186
   1 H :    0.129167
   2 C :   -0.306556
   3 C :   -0.300379
   4 H :    0.130085
   5 H :    0.105609
   6 H :    0.109732
   7 H :    0.110632
   8 H :    0.111970
   9 H :    0.112603
  10 H :    0.113323

  Mayer bond orders larger than 0.100000
B(  0-C ,  1-H ) :   0.9743 B(  0-C ,  2-C ) :   0.9600 B(  0-C ,  3-C ) :   0.9692
B(  0-C ,  4-H ) :   0.9763 B(  2-C ,  5-H ) :   0.9788 B(  2-C ,  6-H ) :   0.9810
B(  2-C ,  7-H ) :   0.9834 B(  3-C ,  8-H ) :   0.9794 B(  3-C ,  9-H ) :   0.9783
B(  3-C , 10-H ) :   0.9770

Dispersion correction           -0.010066383
FINAL SINGLE POINT ENERGY      -119.089697069475

DIPOLE MOMENT
-------------
                                X             Y             Z
Electronic contribution:     -0.14383       0.12099      -0.39675
Nuclear contribution   :      0.10024      -0.14218       0.41628
                        -----------------------------------------
Total Dipole Moment    :     -0.04359      -0.02120       0.01953
                        -----------------------------------------
Magnitude (a.u.)       :      0.05225
Magnitude (Debye)      :      0.13282

Rotational constants in cm-1:     1.024179     0.291605     0.259489
Rotational constants in MHz : 30704.103454  8742.106283  7779.285909

                             ****ORCA TERMINATED NORMALLY****
TOTAL RUN TIME: 0 days 0 hours 0 minutes 13 seconds 380 msec
