                         Program Version 5.0.0 -  RELEASE  -
|  1> !B3LYP D3BJ RIJCOSX def2-TZVP def2/J TightSCF
|  2> *xyz 0 1
|  3> C         -2.79070       -0.78527        5.70281
|  4> C         -2.45380        0.05510        6.94145
|  5> C         -2.07842        1.48042        6.56410
|  6> H         -1.62558       -0.38216        7.49891
|  7> H         -3.32527        0.08775        7.59917
|  8> O         -0.90125        1.85816        6.82810
|  9> F         -2.93658        2.17731        5.96415
| 10> H         -1.94052       -0.82114        5.05412
| 11> H         -3.61590       -0.34261        5.18514
| 12> H         -3.05063       -1.77815        6.00536
| 13> *
| 14> %MaxCore 64000
| 15>
| 16> %pal nprocs 4
| 17> end
| 18>
| 19> %scf
| 20>   MaxIter 150
| 21> end
| 22>
| 23>
| 24>                          ****END OF INPUT****

CARTESIAN COORDINATES (ANGSTROEM)
---------------------------------
  C     -2.790700   -0.785270    5.702810
  C     -2.453800    0.055100    6.941450
  C     -2.078420    1.480420    6.564100
  H     -1.625580   -0.382160    7.498910
  H     -3.325270    0.087750    7.599170
  O     -0.901250    1.858160    6.828100
  F     -2.936580    2.177310    5.964150
  H     -1.940520   -0.821140    5.054120
  H     -3.615900   -0.342610    5.185140
  H     -3.050630   -1.778150    6.005360

 Total Charge           Charge          ....    0
 Multiplicity           Mult            ....    1
 Number of Electrons    NEL             ....   40
 Basis Dimension        Dim             ....  185

ORBITAL ENERGIES
----------------

  NO   OCC          E(Eh)            E(eV)
   0   2.0000     -24.750778      -673.5029
   1   2.0000     -19.128095      -520.5019
   2   2.0000     -10.346000      -281.5290
   3   2.0000     -10.200757      -277.5767
   4   2.0000     -10.178271      -276.9648
   5   2.0000      -1.317978       -35.8640
   6   2.0000      -1.026706       -27.9381
   7   2.0000      -0.805004       -21.9053
   8   2.0000      -0.687782       -18.7155
   9   2.0000      -0.644131       -17.5277
  10   2.0000      -0.549548       -14.9539
  11   2.0000      -0.538122       -14.6431
  12   2.0000      -0.502628       -13.6772
  13   2.0000      -0.466614       -12.6972
  14   2.0000      -0.436601       -11.8805
  15   2.0000      -0.403091       -10.9687
  16   2.0000      -0.384585       -10.4651
  17   2.0000      -0.379510       -10.3270
  18   2.0000      -0.348585        -9.4855
  19   2.0000      -0.287764        -7.8304
  20   0.0000      -0.030275        -0.8238
  21   0.0000       0.029994         0.8162
  22   0.0000       0.070500         1.9184
  23   0.0000       0.088425         2.4062
  24   0.0000       0.101883         2.7724

MULLIKEN ATOMIC CHARGES
-----------------------
   0 C :   -0.335668
   1 C :   -0.175334
   2 C :    0.372515
   3 H :    0.123901
   4 H :    0.104683
   5 O :   -0.338259
   6 F :   -0.109002
   7 H :    0.121890
   8 H :    0.115978
   9 H :    0.119297
Sum of atomic charges:   -0.0000000

LOEWDIN ATOMIC CHARGES
----------------------
   0 C :   -0.285456
   1 C :   -0.250241
   2 C :   -0.491929
   3 H :    0.149868
   4 H :    0.144648
   5 O :    0.052242
   6 F :    0.322532
   7 H :    0.120644
   8 H :    0.118218
   9 H :    0.119475

  Mayer bond orders larger than 0.100000
B(  0-C ,  1-C ) :   0.9455 B(  0-C ,  7-H ) :   0.9735 B(  0-C ,  8-H ) :   0.9723
B(  0-C ,  9-H ) :   0.9707 B(  1-C ,  2-C ) :   1.0020 B(  1-C ,  3-H ) :   0.9646
B(  1-C ,  4-H ) :   0.9398 B(  2-C ,  5-O ) :   2.0544 B(  2-C ,  6-F ) :   1.1419

Dispersion correction           -0.010351990
FINAL SINGLE POINT ENERGY      -292.379904258975

DIPOLE MOMENT
-------------
                                X             Y             Z
Electronic contribution:      0.58594       7.94149       0.05570
Nuclear contribution   :     -1.47571      -8.84360      -0.10748
                        -----------------------------------------
Total Dipole Moment    :     -0.88978      -0.90212      -0.05178
                        -----------------------------------------
Magnitude (a.u.)       :      1.26815
Magnitude (Debye)      :      3.22337

Rotational constants in cm-1:     0.283081     0.133379     0.103386
Rotational constants in MHz :  8486.545774  3998.599544  3099.448040

                             ****ORCA TERMINATED NORMALLY****
TOTAL RUN TIME: 0 days 0 hours 0 minutes 19 seconds 82 msec
