                         Program Version 5.0.0 -  RELEASE  -
|  1> !B3LYP D3BJ RIJCOSX def2-TZVP def2/J TightSCF xyzfile
|  2>
|  3> *xyzfile 0 1 D1.xyz
|  4>
|  5> %MaxCore 64000
|  6>
|  7> %pal nprocs 18
|  8> end
|  9>
| 10> %scf
| 11>   MaxIter 150
| 12> end
| 13>
| 14>
| 15>                          ****END OF INPUT****

CARTESIAN COORDINATES (ANGSTROEM)
---------------------------------
  C     -0.699123    3.489451    3.755163
  H     -0.966716    4.349013    3.140491
  C     -1.080669    3.792957    5.156857
  C      0.776956    3.138391    3.617408
  H     -1.331455    2.656510    3.446323
  H      1.371398    3.888342    4.149744
  H      1.046926    3.232057    2.561331
  C      1.118917    1.731170    4.115155
  H      2.200573    1.654226    4.254882
  C      0.659466    0.635182    3.153306
  H      0.677024    1.576674    5.103150
  H      1.312288    0.638870    2.274207
  H     -0.339563    0.868049    2.772876
  C      0.639957   -0.771175    3.755619
  C     -0.341821   -0.965537    4.915046
  H      1.648266   -1.028665    4.097015
  H      0.398568   -1.482386    2.958453
  H     -0.279892   -2.005646    5.252547
  C     -1.789164   -0.639231    4.557496
  H     -0.032380   -0.352918    5.765118
  H     -2.107151   -1.270102    3.719619
  H     -1.856352    0.391636    4.197604
  C     -2.790700   -0.785275    5.702812
  H     -2.867308   -1.835651    6.001675
  H     -3.774554   -0.486577    5.334807
  C     -2.453797    0.055101    6.941445
  C     -2.078419    1.480421    6.564098
  H     -1.625584   -0.382163    7.498914
  H     -3.325274    0.087746    7.599175
  H     -0.874488    4.762737    5.427344
  H     -0.680793    3.134762    5.839000
  H     -2.057550    3.531691    5.346197
  F     -0.901252    1.858156    6.828104
  O     -2.936582    2.177309    5.964151

 Total Charge           Charge          ....    0
 Multiplicity           Mult            ....    1
 Number of Electrons    NEL             ....  104
 Basis Dimension        Dim             ....  529

ORBITAL ENERGIES
----------------

  NO   OCC          E(Eh)            E(eV)
   0   2.0000     -24.758549      -673.7144
   1   2.0000     -19.137127      -520.7477
   2   2.0000     -10.357247      -281.8350
   3   2.0000     -10.202817      -277.6328
   4   2.0000     -10.185118      -277.1511
   5   2.0000     -10.170216      -276.7457
   6   2.0000     -10.167224      -276.6642
   7   2.0000     -10.161950      -276.5207
   8   2.0000     -10.154751      -276.3248
   9   2.0000     -10.151983      -276.2495
  10   2.0000     -10.144847      -276.0553
  11   2.0000     -10.134858      -275.7835
  12   2.0000     -10.080826      -274.3132
  13   2.0000      -1.330482       -36.2043
  14   2.0000      -1.046637       -28.4805
  15   2.0000      -0.830449       -22.5977
  16   2.0000      -0.806131       -21.9359
  17   2.0000      -0.776319       -21.1247
  18   2.0000      -0.748472       -20.3670
  19   2.0000      -0.707347       -19.2479
  20   2.0000      -0.684562       -18.6279
  21   2.0000      -0.657682       -17.8964
  22   2.0000      -0.624794       -17.0015
  23   2.0000      -0.607216       -16.5232
  24   2.0000      -0.566139       -15.4054
  25   2.0000      -0.561271       -15.2730
  26   2.0000      -0.553854       -15.0711
  27   2.0000      -0.536497       -14.5988
  28   2.0000      -0.519374       -14.1329
  29   2.0000      -0.478907       -13.0317
  30   2.0000      -0.475322       -12.9342
  31   2.0000      -0.458963       -12.4890
  32   2.0000      -0.455608       -12.3977
  33   2.0000      -0.435777       -11.8581
  34   2.0000      -0.427275       -11.6267
  35   2.0000      -0.413605       -11.2548
  36   2.0000      -0.407187       -11.0801
  37   2.0000      -0.399341       -10.8666
  38   2.0000      -0.388503       -10.5717
  39   2.0000      -0.379476       -10.3261
  40   2.0000      -0.367508       -10.0004
  41   2.0000      -0.359963        -9.7951
  42   2.0000      -0.351975        -9.5777
  43   2.0000      -0.345464        -9.4006
  44   2.0000      -0.338129        -9.2010
  45   2.0000      -0.328748        -8.9457
  46   2.0000      -0.323176        -8.7941
  47   2.0000      -0.313151        -8.5213
  48   2.0000      -0.309290        -8.4162
  49   2.0000      -0.298983        -8.1357
  50   2.0000      -0.295304        -8.0356
  51   2.0000      -0.266260        -7.2453
  52   0.0000      -0.045095        -1.2271
  53   0.0000       0.028884         0.7860
  54   0.0000       0.046195         1.2570
  55   0.0000       0.049016         1.3338
  56   0.0000       0.057319         1.5597

MULLIKEN ATOMIC CHARGES
-----------------------
   0 C :   -0.175807
   1 H :    0.074132
   2 C :   -0.374788
   3 C :   -0.081690
   4 H :    0.078841
   5 H :    0.076343
   6 H :    0.068116
   7 C :   -0.204409
   8 H :    0.081389
   9 C :   -0.215342
  10 H :    0.083724
  11 H :    0.088743
  12 H :    0.105136
  13 C :   -0.106378
  14 C :   -0.233640
  15 H :    0.082500
  16 H :    0.085586
  17 H :    0.087807
  18 C :   -0.215586
  19 H :    0.100257
  20 H :    0.090863
  21 H :    0.117011
  22 C :   -0.143429
  23 H :    0.096300
  24 H :    0.108232
  25 C :   -0.199260
  26 C :    0.394718
  27 H :    0.118165
  28 H :    0.130639
  29 H :    0.088299
  30 H :    0.097713
  31 H :    0.150767
  32 F :   -0.117253
  33 O :   -0.337701
Sum of atomic charges:   -0.0000000

LOEWDIN ATOMIC CHARGES
----------------------
   0 C :   -0.297638
   1 H :    0.129807
   2 C :   -0.327597
   3 C :   -0.261430
   4 H :    0.127236
   5 H :    0.132196
   6 H :    0.130316
   7 C :   -0.261242
   8 H :    0.131169
   9 C :   -0.264927
  10 H :    0.128847
  11 H :    0.133319
  12 H :    0.131995
  13 C :   -0.261602
  14 C :   -0.265348
  15 H :    0.133776
  16 H :    0.133712
  17 H :    0.133778
  18 C :   -0.263746
  19 H :    0.128906
  20 H :    0.137941
  21 H :    0.138265
  22 C :   -0.247963
  23 H :    0.137696
  24 H :    0.143257
  25 C :   -0.227148
  26 C :   -0.472911
  27 H :    0.140637
  28 H :    0.155992
  29 H :    0.097729
  30 H :    0.098575
  31 H :    0.110087
  32 F :    0.326371
  33 O :    0.089947

  Mayer bond orders larger than 0.100000
B(  0-C ,  1-H ) :   0.9697 B(  0-C ,  2-C ) :   0.9384 B(  0-C ,  3-C ) :   0.9533
B(  0-C ,  4-H ) :   0.9994 B(  2-C , 29-H ) :   0.9618 B(  2-C , 30-H ) :   0.9913
B(  2-C , 31-H ) :   0.9645 B(  3-C ,  5-H ) :   0.9641 B(  3-C ,  6-H ) :   0.9646
B(  3-C ,  7-C ) :   0.9758 B(  7-C ,  8-H ) :   0.9614 B(  7-C ,  9-C ) :   0.9589
B(  7-C , 10-H ) :   0.9860 B(  9-C , 11-H ) :   0.9635 B(  9-C , 12-H ) :   0.9829
B(  9-C , 13-C ) :   0.9538 B( 13-C , 14-C ) :   0.9759 B( 13-C , 15-H ) :   0.9712
B( 13-C , 16-H ) :   0.9704 B( 14-C , 17-H ) :   0.9646 B( 14-C , 18-C ) :   0.9371
B( 14-C , 19-H ) :   0.9803 B( 18-C , 20-H ) :   0.9642 B( 18-C , 21-H ) :   0.9751
B( 18-C , 22-C ) :   0.9768 B( 22-C , 23-H ) :   0.9658 B( 22-C , 24-H ) :   0.9615
B( 22-C , 25-C ) :   0.9516 B( 25-C , 26-C ) :   0.9738 B( 25-C , 27-H ) :   0.9680
B( 25-C , 28-H ) :   0.9479 B( 26-C , 32-F ) :   1.1016 B( 26-C , 33-O ) :   1.9786

Dispersion correction           -0.061043418
FINAL SINGLE POINT ENERGY      -606.750676856612

DIPOLE MOMENT
-------------
                                X             Y             Z
Electronic contribution:     -5.48172       2.49039      10.84665
Nuclear contribution   :      5.54676      -3.70047     -10.28793
                        -----------------------------------------
Total Dipole Moment    :      0.06504      -1.21007       0.55872
                        -----------------------------------------
Magnitude (a.u.)       :      1.33442
Magnitude (Debye)      :      3.39183

Rotational constants in cm-1:     0.028503     0.023389     0.015214
Rotational constants in MHz :   854.502405   701.197575   456.108322

                             ****ORCA TERMINATED NORMALLY****
TOTAL RUN TIME: 0 days 0 hours 1 minutes 10 seconds 956 msec
