                         Program Version 5.0.0 -  RELEASE  -
|  1> !B3LYP D3BJ RIJCOSX def2-TZVP def2/J TightSCF xyzfile
|  2>
|  3> *xyzfile 0 1 D2.xyz
|  4>
|  5> %MaxCore 64000
|  6>
|  7> %pal nprocs 18
|  8> end
|  9>
| 10> %scf
| 11>   MaxIter 150
| 12> end
| 13>
| 14>
| 15>                          ****END OF INPUT****

CARTESIAN COORDINATES (ANGSTROEM)
---------------------------------
  C     -0.699123    3.489451    3.755163
  H     -0.966716    4.349013    3.140491
  C     -1.080669    3.792957    5.156857
  C      0.776956    3.138391    3.617408
  H     -1.331455    2.656510    3.446323
  H      1.371398    3.888342    4.149744
  H      1.046926    3.232057    2.561331
  C      1.118917    1.731170    4.115155
  H      2.200573    1.654226    4.254882
  C      0.659466    0.635182    3.153306
  H      0.677024    1.576674    5.103150
  H      1.312288    0.638870    2.274207
  H     -0.339563    0.868049    2.772876
  C      0.639957   -0.771175    3.755619
  C     -0.341821   -0.965537    4.915046
  H      1.648266   -1.028665    4.097015
  H      0.398568   -1.482386    2.958453
  H     -0.279892   -2.005646    5.252547
  C     -1.789164   -0.639231    4.557496
  H     -0.032380   -0.352918    5.765118
  H     -2.107151   -1.270102    3.719619
  H     -1.856352    0.391636    4.197604
  C     -2.790700   -0.785275    5.702812
  H     -2.867308   -1.835651    6.001675
  H     -3.774554   -0.486577    5.334807
  C     -2.453797    0.055101    6.941445
  C     -2.078419    1.480421    6.564098
  H     -1.625584   -0.382163    7.498914
  H     -3.325274    0.087746    7.599175
  H     -0.874488    4.762737    5.427344
  H     -0.680793    3.134762    5.839000
  H     -2.057550    3.531691    5.346197
  O     -0.901252    1.858156    6.828104
  F     -2.936582    2.177309    5.964151

 Total Charge           Charge          ....    0
 Multiplicity           Mult            ....    1
 Number of Electrons    NEL             ....  104
 Basis Dimension        Dim             ....  529

ORBITAL ENERGIES
----------------

  NO   OCC          E(Eh)            E(eV)
   0   2.0000     -24.761802      -673.8029
   1   2.0000     -19.137244      -520.7509
   2   2.0000     -10.358889      -281.8797
   3   2.0000     -10.203249      -277.6445
   4   2.0000     -10.188357      -277.2393
   5   2.0000     -10.172429      -276.8059
   6   2.0000     -10.161807      -276.5168
   7   2.0000     -10.157960      -276.4121
   8   2.0000     -10.150655      -276.2134
   9   2.0000     -10.143863      -276.0285
  10   2.0000     -10.141502      -275.9643
  11   2.0000     -10.134684      -275.7788
  12   2.0000     -10.079661      -274.2815
  13   2.0000      -1.333814       -36.2949
  14   2.0000      -1.046321       -28.4718
  15   2.0000      -0.831795       -22.6343
  16   2.0000      -0.803166       -21.8552
  17   2.0000      -0.774516       -21.0757
  18   2.0000      -0.746907       -20.3244
  19   2.0000      -0.703993       -19.1566
  20   2.0000      -0.682328       -18.5671
  21   2.0000      -0.659549       -17.9472
  22   2.0000      -0.621154       -16.9025
  23   2.0000      -0.607855       -16.5406
  24   2.0000      -0.564013       -15.3476
  25   2.0000      -0.562093       -15.2953
  26   2.0000      -0.556590       -15.1456
  27   2.0000      -0.536244       -14.5920
  28   2.0000      -0.515227       -14.0200
  29   2.0000      -0.481475       -13.1016
  30   2.0000      -0.476678       -12.9711
  31   2.0000      -0.457254       -12.4425
  32   2.0000      -0.451138       -12.2761
  33   2.0000      -0.430957       -11.7269
  34   2.0000      -0.421693       -11.4748
  35   2.0000      -0.416610       -11.3365
  36   2.0000      -0.407410       -11.0862
  37   2.0000      -0.400871       -10.9082
  38   2.0000      -0.387324       -10.5396
  39   2.0000      -0.375345       -10.2137
  40   2.0000      -0.371208       -10.1011
  41   2.0000      -0.366520        -9.9735
  42   2.0000      -0.351228        -9.5574
  43   2.0000      -0.343524        -9.3478
  44   2.0000      -0.336918        -9.1680
  45   2.0000      -0.326517        -8.8850
  46   2.0000      -0.321033        -8.7357
  47   2.0000      -0.311410        -8.4739
  48   2.0000      -0.305045        -8.3007
  49   2.0000      -0.295769        -8.0483
  50   2.0000      -0.293017        -7.9734
  51   2.0000      -0.257420        -7.0048
  52   0.0000      -0.044414        -1.2086
  53   0.0000       0.025225         0.6864
  54   0.0000       0.047306         1.2873
  55   0.0000       0.048987         1.3330
  56   0.0000       0.058857         1.6016

MULLIKEN ATOMIC CHARGES
-----------------------
   0 C :   -0.162431
   1 H :    0.072454
   2 C :   -0.384821
   3 C :   -0.085095
   4 H :    0.062903
   5 H :    0.077140
   6 H :    0.065610
   7 C :   -0.218941
   8 H :    0.076522
   9 C :   -0.213631
  10 H :    0.126122
  11 H :    0.086585
  12 H :    0.099065
  13 C :   -0.110926
  14 C :   -0.237537
  15 H :    0.082349
  16 H :    0.082201
  17 H :    0.084028
  18 C :   -0.188749
  19 H :    0.128578
  20 H :    0.091987
  21 H :    0.096169
  22 C :   -0.180055
  23 H :    0.100460
  24 H :    0.106413
  25 C :   -0.187731
  26 C :    0.397866
  27 H :    0.134236
  28 H :    0.123670
  29 H :    0.090148
  30 H :    0.171007
  31 H :    0.080482
  32 O :   -0.351315
  33 F :   -0.114762
Sum of atomic charges:   -0.0000000

LOEWDIN ATOMIC CHARGES
----------------------
   0 C :   -0.300696
   1 H :    0.128068
   2 C :   -0.327210
   3 C :   -0.260111
   4 H :    0.123640
   5 H :    0.133040
   6 H :    0.129356
   7 C :   -0.259667
   8 H :    0.130538
   9 C :   -0.265880
  10 H :    0.138115
  11 H :    0.132352
  12 H :    0.129945
  13 C :   -0.261922
  14 C :   -0.264034
  15 H :    0.134238
  16 H :    0.132158
  17 H :    0.132810
  18 C :   -0.263273
  19 H :    0.137005
  20 H :    0.137689
  21 H :    0.134517
  22 C :   -0.255868
  23 H :    0.139116
  24 H :    0.138363
  25 C :   -0.223931
  26 C :   -0.470231
  27 H :    0.153359
  28 H :    0.149266
  29 H :    0.098304
  30 H :    0.103242
  31 H :    0.101076
  32 O :    0.077358
  33 F :    0.339269

  Mayer bond orders larger than 0.100000
B(  0-C ,  1-H ) :   0.9691 B(  0-C ,  2-C ) :   0.9346 B(  0-C ,  3-C ) :   0.9684
B(  0-C ,  4-H ) :   0.9916 B(  2-C , 29-H ) :   0.9651 B(  2-C , 30-H ) :   0.9653
B(  2-C , 31-H ) :   0.9835 B(  3-C ,  5-H ) :   0.9640 B(  3-C ,  6-H ) :   0.9651
B(  3-C ,  7-C ) :   0.9739 B(  7-C ,  8-H ) :   0.9604 B(  7-C ,  9-C ) :   0.9554
B(  7-C , 10-H ) :   0.9836 B(  9-C , 11-H ) :   0.9633 B(  9-C , 12-H ) :   0.9830
B(  9-C , 13-C ) :   0.9564 B( 13-C , 14-C ) :   0.9760 B( 13-C , 15-H ) :   0.9701
B( 13-C , 16-H ) :   0.9717 B( 14-C , 17-H ) :   0.9630 B( 14-C , 18-C ) :   0.9331
B( 14-C , 19-H ) :   0.9760 B( 18-C , 20-H ) :   0.9650 B( 18-C , 21-H ) :   0.9779
B( 18-C , 22-C ) :   0.9600 B( 22-C , 23-H ) :   0.9632 B( 22-C , 24-H ) :   0.9729
B( 22-C , 25-C ) :   0.9381 B( 25-C , 26-C ) :   0.9840 B( 25-C , 27-H ) :   0.9757
B( 25-C , 28-H ) :   0.9468 B( 26-C , 32-O ) :   1.9482 B( 26-C , 33-F ) :   1.1075

Dispersion correction           -0.061191718
FINAL SINGLE POINT ENERGY      -606.749056911866

DIPOLE MOMENT
-------------
                                X             Y             Z
Electronic contribution:     -8.94736       3.01789       9.47275
Nuclear contribution   :      8.07181      -4.09641      -9.21610
                        -----------------------------------------
Total Dipole Moment    :     -0.87556      -1.07852       0.25665
                        -----------------------------------------
Magnitude (a.u.)       :      1.41269
Magnitude (Debye)      :      3.59076

Rotational constants in cm-1:     0.028400     0.023377     0.015073
Rotational constants in MHz :   851.414727   700.831775   451.871218

                             ****ORCA TERMINATED NORMALLY****
TOTAL RUN TIME: 0 days 0 hours 1 minutes 12 seconds 634 msec
