                         Program Version 5.0.0 -  RELEASE  -
|  1> !wB97X-D3 RIJCOSX def2-SVPD def2/J TightSCF CPCM(Water)
|  2> *xyz -1 1
|  3> C         -0.15102        0.25496       -4.09426
|  4> C         -0.72184       -0.99951       -3.43931
|  5> H         -1.08340       -1.69755       -4.20566
|  6> H         -1.58106       -0.72385       -2.82049
|  7> C          0.28725       -1.71177       -2.52740
|  8> H          1.13178       -2.06738       -3.15940
|  9> H         -0.20414       -2.63733       -2.17048
| 10> O          0.71050       -0.92751       -1.48177
| 11> H         -0.89787        0.70479       -4.71455
| 12> H          0.69695       -0.00870       -4.69119
| 13> H          0.14812        0.94842       -3.33628
| 14> *
| 15> %MaxCore 64000
| 16>
| 17> %pal nprocs 18
| 18> end
| 19>
| 20> %scf
| 21>   MaxIter 150
| 22> end
| 23>
| 24>
| 25>                          ****END OF INPUT****

CARTESIAN COORDINATES (ANGSTROEM)
---------------------------------
  C     -0.151020    0.254960   -4.094260
  C     -0.721840   -0.999510   -3.439310
  H     -1.083400   -1.697550   -4.205660
  H     -1.581060   -0.723850   -2.820490
  C      0.287250   -1.711770   -2.527400
  H      1.131780   -2.067380   -3.159400
  H     -0.204140   -2.637330   -2.170480
  O      0.710500   -0.927510   -1.481770
  H     -0.897870    0.704790   -4.714550
  H      0.696950   -0.008700   -4.691190
  H      0.148120    0.948420   -3.336280

 Total Charge           Charge          ....   -1
 Multiplicity           Mult            ....    1
 Number of Electrons    NEL             ....   34
 Basis Dimension        Dim             ....  139

ORBITAL ENERGIES
----------------

  NO   OCC          E(Eh)            E(eV)
   0   2.0000     -19.118717      -520.2467
   1   2.0000     -10.283991      -279.8416
   2   2.0000     -10.255616      -279.0695
   3   2.0000     -10.254100      -279.0282
   4   2.0000      -0.987298       -26.8658
   5   2.0000      -0.851400       -23.1678
   6   2.0000      -0.736635       -20.0449
   7   2.0000      -0.639092       -17.3906
   8   2.0000      -0.534467       -14.5436
   9   2.0000      -0.527376       -14.3506
  10   2.0000      -0.482584       -13.1318
  11   2.0000      -0.450038       -12.2462
  12   2.0000      -0.422115       -11.4863
  13   2.0000      -0.412147       -11.2151
  14   2.0000      -0.399276       -10.8648
  15   2.0000      -0.270661        -7.3651
  16   2.0000      -0.268856        -7.3159
  17   0.0000       0.103836         2.8255
  18   0.0000       0.127156         3.4601
  19   0.0000       0.135469         3.6863
  20   0.0000       0.146085         3.9752
  21   0.0000       0.174609         4.7514

MULLIKEN ATOMIC CHARGES
-----------------------
   0 C :    0.599814
   1 C :   -0.431626
   2 H :   -0.072524
   3 H :   -0.088186
   4 C :    0.411295
   5 H :   -0.119074
   6 H :   -0.162336
   7 O :   -0.964872
   8 H :   -0.047973
   9 H :   -0.055149
  10 H :   -0.069369
Sum of atomic charges:   -1.0000000

LOEWDIN ATOMIC CHARGES
----------------------
   0 C :    0.095979
   1 C :   -0.108226
   2 H :    0.011341
   3 H :    0.007852
   4 C :   -0.229496
   5 H :   -0.009826
   6 H :   -0.017917
   7 O :   -0.664362
   8 H :   -0.025858
   9 H :   -0.021857
  10 H :   -0.037629

  Mayer bond orders larger than 0.100000
B(  0-C ,  1-C ) :   1.2578 B(  0-C ,  8-H ) :   0.8177 B(  0-C ,  9-H ) :   0.8277
B(  0-C , 10-H ) :   0.8417 B(  1-C ,  2-H ) :   0.9788 B(  1-C ,  3-H ) :   0.9520
B(  1-C ,  4-C ) :   1.0868 B(  1-C ,  6-H ) :   0.1161 B(  1-C ,  8-H ) :   0.1764
B(  1-C ,  9-H ) :   0.1689 B(  1-C , 10-H ) :   0.1889 B(  3-H ,  4-C ) :   0.1148
B(  4-C ,  5-H ) :   0.9369 B(  4-C ,  6-H ) :   0.9297 B(  4-C ,  7-O ) :   1.2727

Dispersion correction           -0.001939192
FINAL SINGLE POINT ENERGY      -193.668319175221

DIPOLE MOMENT
-------------
                                X             Y             Z
Electronic contribution:      0.64749      -0.37958       1.93153
Nuclear contribution   :     -1.95025       0.39850      -4.64834
                        -----------------------------------------
Total Dipole Moment    :     -1.30276       0.01892      -2.71681
                        -----------------------------------------
Magnitude (a.u.)       :      3.01307
Magnitude (Debye)      :      7.65861

Rotational constants in cm-1:     0.507767     0.175836     0.148827
Rotational constants in MHz : 15222.471408  5271.439482  4461.706759

                             ****ORCA TERMINATED NORMALLY****
TOTAL RUN TIME: 0 days 0 hours 0 minutes 7 seconds 376 msec
