                         Program Version 5.0.0 -  RELEASE  -
|  1> !wB97X-D3 RIJCOSX def2-SVPD def2/J TightSCF CPCM(Water)
|  2> *xyz 1 1
|  3> C          3.48828        1.60092       -1.52204
|  4> C          4.34297        1.31342       -2.75683
|  5> N          2.81029        0.42878       -1.01420
|  6> H          5.13203        0.60499       -2.48447
|  7> C          3.53590        0.74925       -3.92460
|  8> H          4.84125        2.24214       -3.05408
|  9> H          2.71455        2.33145       -1.76030
| 10> H          4.09099        2.06315       -0.73338
| 11> C          3.29098       -0.41802       -0.12908
| 12> N          2.51754       -1.43202        0.23936
| 13> N          4.53549       -0.28441        0.39580
| 14> H          5.04363        0.57189        0.22290
| 15> H          4.72335       -0.73327        1.28180
| 16> H          1.93479        0.10230       -1.40379
| 17> H          1.67464       -1.50562       -0.31610
| 18> H          2.92850       -2.21850        0.72549
| 19> H          4.18704        0.56990       -4.75451
| 20> H          2.78096        1.45217       -4.20898
| 21> H          3.07436       -0.16949       -3.62832
| 22> *
| 23> %MaxCore 64000
| 24>
| 25> %pal nprocs 18
| 26> end
| 27>
| 28> %scf
| 29>   MaxIter 150
| 30> end
| 31>
| 32>
| 33>                          ****END OF INPUT****

CARTESIAN COORDINATES (ANGSTROEM)
---------------------------------
  C      3.488280    1.600920   -1.522040
  C      4.342970    1.313420   -2.756830
  N      2.810290    0.428780   -1.014200
  H      5.132030    0.604990   -2.484470
  C      3.535900    0.749250   -3.924600
  H      4.841250    2.242140   -3.054080
  H      2.714550    2.331450   -1.760300
  H      4.090990    2.063150   -0.733380
  C      3.290980   -0.418020   -0.129080
  N      2.517540   -1.432020    0.239360
  N      4.535490   -0.284410    0.395800
  H      5.043630    0.571890    0.222900
  H      4.723350   -0.733270    1.281800
  H      1.934790    0.102300   -1.403790
  H      1.674640   -1.505620   -0.316100
  H      2.928500   -2.218500    0.725490
  H      4.187040    0.569900   -4.754510
  H      2.780960    1.452170   -4.208980
  H      3.074360   -0.169490   -3.628320

 Total Charge           Charge          ....    1
 Multiplicity           Mult            ....    1
 Number of Electrons    NEL             ....   56
 Basis Dimension        Dim             ....  236

ORBITAL ENERGIES
----------------

  NO   OCC          E(Eh)            E(eV)
   0   2.0000     -14.494696      -394.4207
   1   2.0000     -14.484516      -394.1437
   2   2.0000     -14.484299      -394.1378
   3   2.0000     -10.455439      -284.5070
   4   2.0000     -10.340090      -281.3682
   5   2.0000     -10.292096      -280.0622
   6   2.0000     -10.272565      -279.5307
   7   2.0000      -1.158434       -31.5226
   8   2.0000      -1.045009       -28.4362
   9   2.0000      -1.026455       -27.9313
  10   2.0000      -0.904001       -24.5991
  11   2.0000      -0.822310       -22.3762
  12   2.0000      -0.761189       -20.7130
  13   2.0000      -0.722217       -19.6525
  14   2.0000      -0.708811       -19.2877
  15   2.0000      -0.673904       -18.3379
  16   2.0000      -0.618640       -16.8341
  17   2.0000      -0.606392       -16.5008
  18   2.0000      -0.595939       -16.2163
  19   2.0000      -0.578261       -15.7353
  20   2.0000      -0.549069       -14.9409
  21   2.0000      -0.534568       -14.5463
  22   2.0000      -0.504911       -13.7393
  23   2.0000      -0.459868       -12.5136
  24   2.0000      -0.445972       -12.1355
  25   2.0000      -0.436662       -11.8822
  26   2.0000      -0.401559       -10.9270
  27   2.0000      -0.376883       -10.2555
  28   0.0000       0.077386         2.1058
  29   0.0000       0.086757         2.3608
  30   0.0000       0.112327         3.0566
  31   0.0000       0.115833         3.1520
  32   0.0000       0.126753         3.4491

MULLIKEN ATOMIC CHARGES
-----------------------
   0 C :    0.696226
   1 C :   -0.421323
   2 N :   -0.604024
   3 H :    0.015571
   4 C :    0.594875
   5 H :   -0.045341
   6 H :   -0.178196
   7 H :   -0.010983
   8 C :    1.233184
   9 N :   -0.091964
  10 N :   -0.054735
  11 H :    0.010587
  12 H :   -0.070910
  13 H :   -0.105393
  14 H :    0.087418
  15 H :   -0.000881
  16 H :   -0.031999
  17 H :    0.038625
  18 H :   -0.060739
Sum of atomic charges:    1.0000000

LOEWDIN ATOMIC CHARGES
----------------------
   0 C :    0.076028
   1 C :   -0.057672
   2 N :    0.045640
   3 H :    0.022415
   4 C :    0.120448
   5 H :    0.030977
   6 H :    0.042274
   7 H :    0.033315
   8 C :   -0.026617
   9 N :    0.263065
  10 N :    0.277443
  11 H :    0.013428
  12 H :    0.042051
  13 H :    0.068377
  14 H :    0.042289
  15 H :    0.052322
  16 H :   -0.013566
  17 H :   -0.010953
  18 H :   -0.021263

  Mayer bond orders larger than 0.100000
B(  0-C ,  1-C ) :   1.0966 B(  0-C ,  2-N ) :   0.8515 B(  0-C ,  3-H ) :   0.1063
B(  0-C ,  6-H ) :   0.8618 B(  0-C ,  7-H ) :   0.8864 B(  0-C , 13-H ) :  -0.2153
B(  1-C ,  3-H ) :   0.9422 B(  1-C ,  4-C ) :   1.2896 B(  1-C ,  5-H ) :   1.0036
B(  1-C ,  6-H ) :   0.1190 B(  1-C , 16-H ) :   0.1960 B(  1-C , 17-H ) :   0.1812
B(  1-C , 18-H ) :   0.1811 B(  2-N ,  6-H ) :   0.1986 B(  2-N ,  7-H ) :   0.1115
B(  2-N ,  8-C ) :   0.9901 B(  2-N ,  9-N ) :   0.2695 B(  2-N , 10-N ) :   0.1952
B(  2-N , 13-H ) :   1.3333 B(  4-C , 16-H ) :   0.8275 B(  4-C , 17-H ) :   0.8020
B(  4-C , 18-H ) :   0.8525 B(  8-C ,  9-N ) :   0.9514 B(  8-C , 10-N ) :   0.9580
B(  8-C , 13-H ) :  -0.2282 B(  9-N , 10-N ) :   0.1174 B(  9-N , 14-H ) :   1.0262
B(  9-N , 15-H ) :   1.1629 B( 10-N , 11-H ) :   1.0056 B( 10-N , 12-H ) :   1.2300
B( 11-H , 12-H ) :  -0.1534 B( 14-H , 15-H ) :  -0.1302

Dispersion correction           -0.005309187
FINAL SINGLE POINT ENERGY      -323.511791702031

DIPOLE MOMENT
-------------
                                X             Y             Z
Electronic contribution:     -1.49105      -3.07993       6.74659
Nuclear contribution   :      1.03951       2.07316      -5.00363
                        -----------------------------------------
Total Dipole Moment    :     -0.45154      -1.00677       1.74296
                        -----------------------------------------
Magnitude (a.u.)       :      2.06286
Magnitude (Debye)      :      5.24337

Rotational constants in cm-1:     0.160664     0.048801     0.043832
Rotational constants in MHz :  4816.589604  1463.007061  1314.037102

                             ****ORCA TERMINATED NORMALLY****
TOTAL RUN TIME: 0 days 0 hours 0 minutes 18 seconds 145 msec
