                         Program Version 5.0.0 -  RELEASE  -
|  1> !wB97X-D3 RIJCOSX def2-SVPD def2/J TightSCF CPCM(Water)
|  2> *xyz 0 1
|  3> C         -0.15102        0.25496       -4.09426
|  4> C         -0.72184       -0.99951       -3.43931
|  5> H         -1.08340       -1.69755       -4.20566
|  6> H         -1.58106       -0.72385       -2.82049
|  7> C          0.28725       -1.71177       -2.52740
|  8> H          1.13178       -2.06738       -3.15940
|  9> H         -0.20414       -2.63733       -2.17048
| 10> F          0.71050       -0.92751       -1.48177
| 11> H         -0.89787        0.70479       -4.71455
| 12> H          0.69695       -0.00870       -4.69119
| 13> H          0.14812        0.94842       -3.33628
| 14> *
| 15> %MaxCore 64000
| 16>
| 17> %pal nprocs 18
| 18> end
| 19>
| 20> %scf
| 21>   MaxIter 150
| 22> end
| 23>
| 24>
| 25>                          ****END OF INPUT****

CARTESIAN COORDINATES (ANGSTROEM)
---------------------------------
  C     -0.151020    0.254960   -4.094260
  C     -0.721840   -0.999510   -3.439310
  H     -1.083400   -1.697550   -4.205660
  H     -1.581060   -0.723850   -2.820490
  C      0.287250   -1.711770   -2.527400
  H      1.131780   -2.067380   -3.159400
  H     -0.204140   -2.637330   -2.170480
  F      0.710500   -0.927510   -1.481770
  H     -0.897870    0.704790   -4.714550
  H      0.696950   -0.008700   -4.691190
  H      0.148120    0.948420   -3.336280

 Total Charge           Charge          ....    0
 Multiplicity           Mult            ....    1
 Number of Electrons    NEL             ....   34
 Basis Dimension        Dim             ....  139

ORBITAL ENERGIES
----------------

  NO   OCC          E(Eh)            E(eV)
   0   2.0000     -24.796987      -674.7603
   1   2.0000     -10.361954      -281.9631
   2   2.0000     -10.287408      -279.9346
   3   2.0000     -10.268650      -279.4242
   4   2.0000      -1.305122       -35.5142
   5   2.0000      -0.893974       -24.3263
   6   2.0000      -0.793050       -21.5800
   7   2.0000      -0.697942       -18.9920
   8   2.0000      -0.614892       -16.7321
   9   2.0000      -0.596882       -16.2420
  10   2.0000      -0.572468       -15.5776
  11   2.0000      -0.532230       -14.4827
  12   2.0000      -0.499430       -13.5902
  13   2.0000      -0.470426       -12.8009
  14   2.0000      -0.441308       -12.0086
  15   2.0000      -0.417607       -11.3637
  16   2.0000      -0.417031       -11.3480
  17   0.0000       0.098996         2.6938
  18   0.0000       0.125379         3.4117
  19   0.0000       0.132195         3.5972
  20   0.0000       0.149058         4.0561
  21   0.0000       0.176317         4.7978

MULLIKEN ATOMIC CHARGES
-----------------------
   0 C :    0.533517
   1 C :   -0.578615
   2 H :   -0.013139
   3 H :   -0.032801
   4 C :    0.646475
   5 H :    0.018730
   6 H :   -0.016249
   7 F :   -0.481202
   8 H :   -0.025665
   9 H :   -0.029411
  10 H :   -0.021639
Sum of atomic charges:    0.0000000

LOEWDIN ATOMIC CHARGES
----------------------
   0 C :    0.114053
   1 C :   -0.067533
   2 H :    0.035036
   3 H :    0.024945
   4 C :    0.101912
   5 H :    0.042924
   6 H :    0.035881
   7 F :   -0.239264
   8 H :   -0.015806
   9 H :   -0.014040
  10 H :   -0.018109

  Mayer bond orders larger than 0.100000
B(  0-C ,  1-C ) :   1.2702 B(  0-C ,  8-H ) :   0.8386 B(  0-C ,  9-H ) :   0.8444
B(  0-C , 10-H ) :   0.8451 B(  1-C ,  2-H ) :   0.9888 B(  1-C ,  3-H ) :   0.9810
B(  1-C ,  4-C ) :   1.1769 B(  1-C ,  6-H ) :   0.1049 B(  1-C ,  8-H ) :   0.1691
B(  1-C ,  9-H ) :   0.1613 B(  1-C , 10-H ) :   0.1708 B(  4-C ,  5-H ) :   0.9306
B(  4-C ,  6-H ) :   0.9297 B(  4-C ,  7-F ) :   0.6949

Dispersion correction           -0.001918117
FINAL SINGLE POINT ENERGY      -218.170891381376

DIPOLE MOMENT
-------------
                                X             Y             Z
Electronic contribution:      2.40354      -0.95663       5.59983
Nuclear contribution   :     -2.76068       0.49992      -6.33880
                        -----------------------------------------
Total Dipole Moment    :     -0.35714      -0.45672      -0.73897
                        -----------------------------------------
Magnitude (a.u.)       :      0.93927
Magnitude (Debye)      :      2.38742

Rotational constants in cm-1:     0.493380     0.165620     0.140427
Rotational constants in MHz : 14791.174622  4965.163858  4209.902284

                             ****ORCA TERMINATED NORMALLY****
TOTAL RUN TIME: 0 days 0 hours 0 minutes 6 seconds 921 msec
