                         Program Version 5.0.0 -  RELEASE  -
|  1> !wB97X-D3 RIJCOSX def2-SVPD def2/J TightSCF CPCM(Water)
|  2> *xyz 0 1
|  3> C          3.48828        1.60092       -1.52204
|  4> C          4.34297        1.31342       -2.75683
|  5> C          2.81029        0.42878       -1.01420
|  6> H          5.13203        0.60499       -2.48447
|  7> C          3.53590        0.74925       -3.92460
|  8> H          4.84125        2.24214       -3.05408
|  9> H          2.71455        2.33145       -1.76030
| 10> H          4.09099        2.06315       -0.73338
| 11> C          3.29098       -0.41802       -0.12908
| 12> N          2.51754       -1.43202        0.23936
| 13> N          4.53549       -0.28441        0.39580
| 14> H          5.04363        0.57189        0.22290
| 15> H          4.72335       -0.73327        1.28180
| 16> H          1.93479        0.10230       -1.40379
| 17> H          1.67464       -1.50562       -0.31610
| 18> H          2.92850       -2.21850        0.72549
| 19> H          4.18704        0.56990       -4.75451
| 20> H          2.78096        1.45217       -4.20898
| 21> H          3.07436       -0.16949       -3.62832
| 22> *
| 23> %MaxCore 64000
| 24>
| 25> %pal nprocs 18
| 26> end
| 27>
| 28> %scf
| 29>   MaxIter 150
| 30> end
| 31>
| 32>
| 33>                          ****END OF INPUT****

CARTESIAN COORDINATES (ANGSTROEM)
---------------------------------
  C      3.488280    1.600920   -1.522040
  C      4.342970    1.313420   -2.756830
  C      2.810290    0.428780   -1.014200
  H      5.132030    0.604990   -2.484470
  C      3.535900    0.749250   -3.924600
  H      4.841250    2.242140   -3.054080
  H      2.714550    2.331450   -1.760300
  H      4.090990    2.063150   -0.733380
  C      3.290980   -0.418020   -0.129080
  N      2.517540   -1.432020    0.239360
  N      4.535490   -0.284410    0.395800
  H      5.043630    0.571890    0.222900
  H      4.723350   -0.733270    1.281800
  H      1.934790    0.102300   -1.403790
  H      1.674640   -1.505620   -0.316100
  H      2.928500   -2.218500    0.725490
  H      4.187040    0.569900   -4.754510
  H      2.780960    1.452170   -4.208980
  H      3.074360   -0.169490   -3.628320

 Total Charge           Charge          ....    0
 Multiplicity           Mult            ....    1
 Number of Electrons    NEL             ....   56
 Basis Dimension        Dim             ....  236

ORBITAL ENERGIES
----------------

  NO   OCC          E(Eh)            E(eV)
   0   2.0000     -14.432070      -392.7166
   1   2.0000     -14.427374      -392.5888
   2   2.0000     -10.333358      -281.1850
   3   2.0000     -10.271013      -279.4885
   4   2.0000     -10.267580      -279.3951
   5   2.0000     -10.261306      -279.2243
   6   2.0000     -10.214108      -277.9400
   7   2.0000      -1.066191       -29.0125
   8   2.0000      -0.972535       -26.4640
   9   2.0000      -0.901917       -24.5424
  10   2.0000      -0.833789       -22.6885
  11   2.0000      -0.767236       -20.8775
  12   2.0000      -0.697101       -18.9691
  13   2.0000      -0.674725       -18.3602
  14   2.0000      -0.635955       -17.3052
  15   2.0000      -0.605953       -16.4888
  16   2.0000      -0.558923       -15.2091
  17   2.0000      -0.546254       -14.8643
  18   2.0000      -0.542235       -14.7550
  19   2.0000      -0.508293       -13.8313
  20   2.0000      -0.495408       -13.4807
  21   2.0000      -0.474775       -12.9193
  22   2.0000      -0.459794       -12.5116
  23   2.0000      -0.428145       -11.6504
  24   2.0000      -0.411703       -11.2030
  25   2.0000      -0.409575       -11.1451
  26   2.0000      -0.359176        -9.7737
  27   2.0000      -0.253458        -6.8969
  28   0.0000       0.094816         2.5801
  29   0.0000       0.117199         3.1891
  30   0.0000       0.121209         3.2983
  31   0.0000       0.127242         3.4624
  32   0.0000       0.149010         4.0548

MULLIKEN ATOMIC CHARGES
-----------------------
   0 C :    0.226124
   1 C :   -0.338345
   2 C :   -0.221543
   3 H :   -0.068918
   4 C :    0.640329
   5 H :   -0.052440
   6 H :   -0.016980
   7 H :   -0.034684
   8 C :    0.486468
   9 N :   -0.083977
  10 N :   -0.095022
  11 H :    0.029901
  12 H :   -0.156918
  13 H :   -0.241601
  14 H :    0.135554
  15 H :   -0.111831
  16 H :   -0.025986
  17 H :    0.019783
  18 H :   -0.089914
Sum of atomic charges:   -0.0000000

LOEWDIN ATOMIC CHARGES
----------------------
   0 C :   -0.069622
   1 C :   -0.081561
   2 C :   -0.058587
   3 H :    0.015727
   4 C :    0.111751
   5 H :    0.015194
   6 H :    0.015958
   7 H :    0.010762
   8 C :   -0.234023
   9 N :    0.171705
  10 N :    0.202078
  11 H :   -0.011805
  12 H :    0.003416
  13 H :   -0.049021
  14 H :    0.010218
  15 H :    0.010971
  16 H :   -0.020127
  17 H :   -0.015472
  18 H :   -0.027565

  Mayer bond orders larger than 0.100000
B(  0-C ,  1-C ) :   1.0987 B(  0-C ,  2-C ) :   1.1860 B(  0-C ,  3-H ) :   0.1366
B(  0-C ,  5-H ) :   0.1097 B(  0-C ,  6-H ) :   0.8121 B(  0-C ,  7-H ) :   0.8563
B(  0-C , 13-H ) :   0.2275 B(  1-C ,  3-H ) :   0.9715 B(  1-C ,  4-C ) :   1.2998
B(  1-C ,  5-H ) :   0.9389 B(  1-C , 16-H ) :   0.2120 B(  1-C , 17-H ) :   0.1998
B(  1-C , 18-H ) :   0.2118 B(  2-C ,  6-H ) :   0.1999 B(  2-C ,  7-H ) :   0.2515
B(  2-C ,  8-C ) :   1.7939 B(  2-C ,  9-N ) :   0.2960 B(  2-C , 10-N ) :   0.1773
B(  2-C , 11-H ) :  -0.1125 B(  2-C , 13-H ) :   0.8579 B(  4-C , 16-H ) :   0.7807
B(  4-C , 17-H ) :   0.7951 B(  4-C , 18-H ) :   0.8263 B(  8-C ,  9-N ) :   0.9332
B(  8-C , 10-N ) :   0.9605 B(  8-C , 13-H ) :   0.2425 B(  9-N , 14-H ) :   0.9795
B(  9-N , 15-H ) :   1.1732 B( 10-N , 11-H ) :   0.9669 B( 10-N , 12-H ) :   1.2376
B( 11-H , 12-H ) :  -0.1333 B( 14-H , 15-H ) :  -0.1277

Dispersion correction           -0.005285915
FINAL SINGLE POINT ENERGY      -306.959847935517

DIPOLE MOMENT
-------------
                                X             Y             Z
Electronic contribution:     -0.55971      -2.79848       5.71302
Nuclear contribution   :      0.88816       2.11069      -4.95634
                        -----------------------------------------
Total Dipole Moment    :      0.32845      -0.68779       0.75668
                        -----------------------------------------
Magnitude (a.u.)       :      1.07401
Magnitude (Debye)      :      2.72992

Rotational constants in cm-1:     0.162296     0.048922     0.043870
Rotational constants in MHz :  4865.524396  1466.649652  1315.198467

                             ****ORCA TERMINATED NORMALLY****
TOTAL RUN TIME: 0 days 0 hours 0 minutes 18 seconds 128 msec
