                         Program Version 5.0.0 -  RELEASE  -
|  1> !wB97X-D3 RIJCOSX def2-SVPD def2/J TightSCF CPCM(Water)
|  2> *xyz 0 1
|  3> C          3.48828        1.60092       -1.52204
|  4> C          4.34297        1.31342       -2.75683
|  5> N          2.81029        0.42878       -1.01420
|  6> H          5.13203        0.60499       -2.48447
|  7> C          3.53590        0.74925       -3.92460
|  8> H          4.84125        2.24214       -3.05408
|  9> H          2.71455        2.33145       -1.76030
| 10> H          4.09099        2.06315       -0.73338
| 11> C          3.29098       -0.41802       -0.12908
| 12> C          2.51754       -1.43202        0.23936
| 13> N          4.53549       -0.28441        0.39580
| 14> H          5.04363        0.57189        0.22290
| 15> H          4.72335       -0.73327        1.28180
| 16> H          1.93479        0.10230       -1.40379
| 17> H          1.67464       -1.50562       -0.31610
| 18> H          2.92850       -2.21850        0.72549
| 19> H          4.18704        0.56990       -4.75451
| 20> H          2.78096        1.45217       -4.20898
| 21> H          3.07436       -0.16949       -3.62832
| 22> *
| 23> %MaxCore 64000
| 24>
| 25> %pal nprocs 18
| 26> end
| 27>
| 28> %scf
| 29>   MaxIter 150
| 30> end
| 31>
| 32>
| 33>                          ****END OF INPUT****

CARTESIAN COORDINATES (ANGSTROEM)
---------------------------------
  C      3.488280    1.600920   -1.522040
  C      4.342970    1.313420   -2.756830
  N      2.810290    0.428780   -1.014200
  H      5.132030    0.604990   -2.484470
  C      3.535900    0.749250   -3.924600
  H      4.841250    2.242140   -3.054080
  H      2.714550    2.331450   -1.760300
  H      4.090990    2.063150   -0.733380
  C      3.290980   -0.418020   -0.129080
  C      2.517540   -1.432020    0.239360
  N      4.535490   -0.284410    0.395800
  H      5.043630    0.571890    0.222900
  H      4.723350   -0.733270    1.281800
  H      1.934790    0.102300   -1.403790
  H      1.674640   -1.505620   -0.316100
  H      2.928500   -2.218500    0.725490
  H      4.187040    0.569900   -4.754510
  H      2.780960    1.452170   -4.208980
  H      3.074360   -0.169490   -3.628320

 Total Charge           Charge          ....    0
 Multiplicity           Mult            ....    1
 Number of Electrons    NEL             ....   56
 Basis Dimension        Dim             ....  236

ORBITAL ENERGIES
----------------

  NO   OCC          E(Eh)            E(eV)
   0   2.0000     -14.437071      -392.8527
   1   2.0000     -14.435575      -392.8120
   2   2.0000     -10.345012      -281.5021
   3   2.0000     -10.318556      -280.7822
   4   2.0000     -10.280463      -279.7456
   5   2.0000     -10.266925      -279.3772
   6   2.0000     -10.206738      -277.7395
   7   2.0000      -1.081267       -29.4228
   8   2.0000      -0.990073       -26.9413
   9   2.0000      -0.895653       -24.3720
  10   2.0000      -0.836089       -22.7511
  11   2.0000      -0.775023       -21.0895
  12   2.0000      -0.710166       -19.3246
  13   2.0000      -0.688542       -18.7362
  14   2.0000      -0.635042       -17.2804
  15   2.0000      -0.601266       -16.3613
  16   2.0000      -0.574802       -15.6412
  17   2.0000      -0.550674       -14.9846
  18   2.0000      -0.535477       -14.5711
  19   2.0000      -0.507315       -13.8047
  20   2.0000      -0.487027       -13.2527
  21   2.0000      -0.485125       -13.2009
  22   2.0000      -0.480090       -13.0639
  23   2.0000      -0.439844       -11.9688
  24   2.0000      -0.434788       -11.8312
  25   2.0000      -0.425477       -11.5778
  26   2.0000      -0.351459        -9.5637
  27   2.0000      -0.260812        -7.0970
  28   0.0000       0.092229         2.5097
  29   0.0000       0.114918         3.1271
  30   0.0000       0.117796         3.2054
  31   0.0000       0.128456         3.4955
  32   0.0000       0.142887         3.8881

MULLIKEN ATOMIC CHARGES
-----------------------
   0 C :    0.727519
   1 C :   -0.407145
   2 N :   -0.419973
   3 H :   -0.006853
   4 C :    0.623203
   5 H :   -0.082057
   6 H :   -0.244874
   7 H :   -0.055100
   8 C :    0.405002
   9 C :    0.438493
  10 N :    0.024783
  11 H :   -0.109389
  12 H :   -0.069705
  13 H :   -0.172493
  14 H :   -0.181025
  15 H :   -0.388047
  16 H :   -0.042730
  17 H :    0.037415
  18 H :   -0.077022
Sum of atomic charges:    0.0000000

LOEWDIN ATOMIC CHARGES
----------------------
   0 C :    0.053796
   1 C :   -0.068671
   2 N :   -0.016663
   3 H :    0.016934
   4 C :    0.115066
   5 H :    0.023349
   6 H :    0.028675
   7 H :    0.021091
   8 C :   -0.242945
   9 C :    0.098339
  10 N :    0.204670
  11 H :   -0.017409
  12 H :    0.014800
  13 H :    0.042287
  14 H :   -0.110762
  15 H :   -0.107716
  16 H :   -0.017148
  17 H :   -0.013870
  18 H :   -0.023824

  Mayer bond orders larger than 0.100000
B(  0-C ,  1-C ) :   1.0940 B(  0-C ,  2-N ) :   0.8831 B(  0-C ,  3-H ) :   0.1072
B(  0-C ,  6-H ) :   0.8413 B(  0-C ,  7-H ) :   0.8865 B(  0-C , 13-H ) :  -0.2342
B(  1-C ,  3-H ) :   0.9421 B(  1-C ,  4-C ) :   1.2800 B(  1-C ,  5-H ) :   1.0086
B(  1-C ,  6-H ) :   0.1260 B(  1-C , 16-H ) :   0.2003 B(  1-C , 17-H ) :   0.1866
B(  1-C , 18-H ) :   0.1926 B(  2-N ,  6-H ) :   0.2077 B(  2-N ,  7-H ) :   0.1236
B(  2-N ,  8-C ) :   1.1016 B(  2-N ,  9-C ) :   0.2439 B(  2-N , 10-N ) :   0.1110
B(  2-N , 13-H ) :   1.2706 B(  4-C , 16-H ) :   0.8201 B(  4-C , 17-H ) :   0.7929
B(  4-C , 18-H ) :   0.8492 B(  8-C ,  9-C ) :   1.7978 B(  8-C , 10-N ) :   0.9412
B(  8-C , 13-H ) :  -0.1809 B(  8-C , 14-H ) :   0.2475 B(  8-C , 15-H ) :   0.2360
B(  9-C , 10-N ) :   0.1796 B(  9-C , 14-H ) :   0.7920 B(  9-C , 15-H ) :   0.7305
B( 10-N , 11-H ) :   1.0105 B( 10-N , 12-H ) :   1.1799 B( 11-H , 12-H ) :  -0.1420
B( 14-H , 15-H ) :   0.1012

Dispersion correction           -0.005352652
FINAL SINGLE POINT ENERGY      -306.948895222463

DIPOLE MOMENT
-------------
                                X             Y             Z
Electronic contribution:     -0.06886      -0.39102       4.12021
Nuclear contribution   :      0.82404       1.70307      -4.68174
                        -----------------------------------------
Total Dipole Moment    :      0.75517       1.31206      -0.56153
                        -----------------------------------------
Magnitude (a.u.)       :      1.61465
Magnitude (Debye)      :      4.10411

Rotational constants in cm-1:     0.164049     0.050262     0.045260
Rotational constants in MHz :  4918.051182  1506.829450  1356.872102

                             ****ORCA TERMINATED NORMALLY****
TOTAL RUN TIME: 0 days 0 hours 0 minutes 18 seconds 789 msec
