                         Program Version 5.0.0 -  RELEASE  -
|  1> !wB97X-D3 RIJCOSX def2-SVPD def2/J TightSCF CPCM(Water)
|  2> *xyz 0 1
|  3> C          3.48828        1.60092       -1.52204
|  4> C          4.34297        1.31342       -2.75683
|  5> N          2.81029        0.42878       -1.01420
|  6> H          5.13203        0.60499       -2.48447
|  7> C          3.53590        0.74925       -3.92460
|  8> H          4.84125        2.24214       -3.05408
|  9> H          2.71455        2.33145       -1.76030
| 10> H          4.09099        2.06315       -0.73338
| 11> C          3.29098       -0.41802       -0.12908
| 12> N          2.51754       -1.43202        0.23936
| 13> C          4.53549       -0.28441        0.39580
| 14> H          5.04363        0.57189        0.22290
| 15> H          4.72335       -0.73327        1.28180
| 16> H          1.93479        0.10230       -1.40379
| 17> H          1.67464       -1.50562       -0.31610
| 18> H          2.92850       -2.21850        0.72549
| 19> H          4.18704        0.56990       -4.75451
| 20> H          2.78096        1.45217       -4.20898
| 21> H          3.07436       -0.16949       -3.62832
| 22> *
| 23> %MaxCore 64000
| 24>
| 25> %pal nprocs 18
| 26> end
| 27>
| 28> %scf
| 29>   MaxIter 150
| 30> end
| 31>
| 32>
| 33>                          ****END OF INPUT****

CARTESIAN COORDINATES (ANGSTROEM)
---------------------------------
  C      3.488280    1.600920   -1.522040
  C      4.342970    1.313420   -2.756830
  N      2.810290    0.428780   -1.014200
  H      5.132030    0.604990   -2.484470
  C      3.535900    0.749250   -3.924600
  H      4.841250    2.242140   -3.054080
  H      2.714550    2.331450   -1.760300
  H      4.090990    2.063150   -0.733380
  C      3.290980   -0.418020   -0.129080
  N      2.517540   -1.432020    0.239360
  C      4.535490   -0.284410    0.395800
  H      5.043630    0.571890    0.222900
  H      4.723350   -0.733270    1.281800
  H      1.934790    0.102300   -1.403790
  H      1.674640   -1.505620   -0.316100
  H      2.928500   -2.218500    0.725490
  H      4.187040    0.569900   -4.754510
  H      2.780960    1.452170   -4.208980
  H      3.074360   -0.169490   -3.628320

 Total Charge           Charge          ....    0
 Multiplicity           Mult            ....    1
 Number of Electrons    NEL             ....   56
 Basis Dimension        Dim             ....  236

ORBITAL ENERGIES
----------------

  NO   OCC          E(Eh)            E(eV)
   0   2.0000     -14.441762      -392.9803
   1   2.0000     -14.435682      -392.8149
   2   2.0000     -10.347271      -281.5635
   3   2.0000     -10.317477      -280.7528
   4   2.0000     -10.279980      -279.7325
   5   2.0000     -10.266515      -279.3661
   6   2.0000     -10.208574      -277.7894
   7   2.0000      -1.089306       -29.6415
   8   2.0000      -0.995301       -27.0835
   9   2.0000      -0.885768       -24.1030
  10   2.0000      -0.823076       -22.3970
  11   2.0000      -0.798274       -21.7222
  12   2.0000      -0.711015       -19.3477
  13   2.0000      -0.657472       -17.8907
  14   2.0000      -0.645548       -17.5663
  15   2.0000      -0.628744       -17.1090
  16   2.0000      -0.570778       -15.5317
  17   2.0000      -0.550092       -14.9688
  18   2.0000      -0.535179       -14.5630
  19   2.0000      -0.504049       -13.7159
  20   2.0000      -0.497763       -13.5448
  21   2.0000      -0.478223       -13.0131
  22   2.0000      -0.473641       -12.8884
  23   2.0000      -0.440941       -11.9986
  24   2.0000      -0.433123       -11.7859
  25   2.0000      -0.424596       -11.5538
  26   2.0000      -0.343952        -9.3594
  27   2.0000      -0.264830        -7.2064
  28   0.0000       0.092304         2.5117
  29   0.0000       0.114649         3.1198
  30   0.0000       0.119255         3.2451
  31   0.0000       0.123788         3.3685
  32   0.0000       0.141738         3.8569

MULLIKEN ATOMIC CHARGES
-----------------------
   0 C :    0.710448
   1 C :   -0.373175
   2 N :   -0.594967
   3 H :   -0.041286
   4 C :    0.610289
   5 H :   -0.077453
   6 H :   -0.240965
   7 H :    0.049749
   8 C :    0.490833
   9 N :   -0.004623
  10 C :    0.462005
  11 H :   -0.159313
  12 H :   -0.510597
  13 H :   -0.199718
  14 H :   -0.032983
  15 H :   -0.005475
  16 H :   -0.042443
  17 H :    0.032868
  18 H :   -0.073194
Sum of atomic charges:    0.0000000

LOEWDIN ATOMIC CHARGES
----------------------
   0 C :    0.057096
   1 C :   -0.065043
   2 N :   -0.013207
   3 H :    0.012712
   4 C :    0.114351
   5 H :    0.024229
   6 H :    0.029270
   7 H :    0.019916
   8 C :   -0.245045
   9 N :    0.190083
  10 C :    0.115816
  11 H :   -0.138682
  12 H :   -0.120058
  13 H :    0.041060
  14 H :    0.009090
  15 H :    0.024932
  16 H :   -0.017402
  17 H :   -0.014405
  18 H :   -0.024713

  Mayer bond orders larger than 0.100000
B(  0-C ,  1-C ) :   1.0761 B(  0-C ,  2-N ) :   0.8462 B(  0-C ,  3-H ) :   0.1218
B(  0-C ,  6-H ) :   0.8962 B(  0-C ,  7-H ) :   0.8518 B(  0-C , 13-H ) :  -0.2153
B(  1-C ,  3-H ) :   0.9511 B(  1-C ,  4-C ) :   1.2798 B(  1-C ,  5-H ) :   1.0142
B(  1-C ,  6-H ) :   0.1128 B(  1-C , 16-H ) :   0.1988 B(  1-C , 17-H ) :   0.1843
B(  1-C , 18-H ) :   0.1869 B(  2-N ,  6-H ) :   0.1708 B(  2-N ,  7-H ) :   0.1021
B(  2-N ,  8-C ) :   0.8859 B(  2-N ,  9-N ) :   0.1707 B(  2-N , 10-C ) :   0.3617
B(  2-N , 13-H ) :   1.3898 B(  4-C , 16-H ) :   0.8229 B(  4-C , 17-H ) :   0.7956
B(  4-C , 18-H ) :   0.8522 B(  6-H ,  7-H ) :  -0.1200 B(  8-C ,  9-N ) :   0.9430
B(  8-C , 10-C ) :   1.7812 B(  8-C , 11-H ) :   0.3076 B(  8-C , 12-H ) :   0.2480
B(  8-C , 13-H ) :  -0.2480 B(  9-N , 10-C ) :   0.2417 B(  9-N , 14-H ) :   1.0240
B(  9-N , 15-H ) :   1.1526 B( 10-C , 11-H ) :   0.6714 B( 10-C , 12-H ) :   0.7370
B( 11-H , 12-H ) :   0.1228 B( 14-H , 15-H ) :  -0.1241

Dispersion correction           -0.005315348
FINAL SINGLE POINT ENERGY      -306.950153741130

DIPOLE MOMENT
-------------
                                X             Y             Z
Electronic contribution:     -2.75598      -2.00406       3.81355
Nuclear contribution   :      1.26608       1.95446      -4.64747
                        -----------------------------------------
Total Dipole Moment    :     -1.48990      -0.04960      -0.83392
                        -----------------------------------------
Magnitude (a.u.)       :      1.70812
Magnitude (Debye)      :      4.34170

Rotational constants in cm-1:     0.166109     0.049557     0.044716
Rotational constants in MHz :  4979.835529  1485.675017  1340.540851

                             ****ORCA TERMINATED NORMALLY****
TOTAL RUN TIME: 0 days 0 hours 0 minutes 18 seconds 758 msec
