                         Program Version 5.0.0 -  RELEASE  -
|  1> !TPSS D3BJ RIJCOSX def2-SVPD def2/J TightSCF
|  2> *xyz -1 1
|  3> C         -0.81136       -2.90878       -4.60763
|  4> C         -1.91658       -2.48508       -3.64367
|  5> H         -2.55452       -1.71243       -4.09199
|  6> C         -1.36353       -1.98134       -2.29361
|  7> H         -2.55345       -3.35567       -3.45881
|  8> O         -0.35039       -2.74969       -1.79601
|  9> H         -2.22622       -1.90839       -1.60204
| 10> H         -1.05135       -0.91567       -2.44333
| 11> H         -1.24783       -3.24801       -5.52377
| 12> H         -0.24047       -3.70079       -4.16978
| 13> H         -0.17107       -2.07453       -4.80501
| 14> *
| 15>
| 16> %MaxCore 64000
| 17> %pal nprocs 4
| 18> end
| 19>
| 20> %scf
| 21>   MaxIter 150
| 22> end
| 23>
| 24>
| 25>                          ****END OF INPUT****

CARTESIAN COORDINATES (ANGSTROEM)
---------------------------------
  C     -0.811360   -2.908780   -4.607630
  C     -1.916580   -2.485080   -3.643670
  H     -2.554520   -1.712430   -4.091990
  C     -1.363530   -1.981340   -2.293610
  H     -2.553450   -3.355670   -3.458810
  O     -0.350390   -2.749690   -1.796010
  H     -2.226220   -1.908390   -1.602040
  H     -1.051350   -0.915670   -2.443330
  H     -1.247830   -3.248010   -5.523770
  H     -0.240470   -3.700790   -4.169780
  H     -0.171070   -2.074530   -4.805010

 Total Charge           Charge          ....   -1
 Multiplicity           Mult            ....    1
 Number of Electrons    NEL             ....   34
 Basis Dimension        Dim             ....  139

ORBITAL ENERGIES
----------------

  NO   OCC          E(Eh)            E(eV)
   0   2.0000     -18.577829      -505.5284
   1   2.0000      -9.818551      -267.1763
   2   2.0000      -9.815907      -267.1044
   3   2.0000      -9.809109      -266.9194
   4   2.0000      -0.613958       -16.7067
   5   2.0000      -0.517947       -14.0941
   6   2.0000      -0.410417       -11.1680
   7   2.0000      -0.311260        -8.4698
   8   2.0000      -0.233697        -6.3592
   9   2.0000      -0.222574        -6.0566
  10   2.0000      -0.174061        -4.7364
  11   2.0000      -0.151354        -4.1186
  12   2.0000      -0.123049        -3.3483
  13   2.0000      -0.113525        -3.0892
  14   2.0000      -0.074342        -2.0230
  15   2.0000       0.061710         1.6792
  16   2.0000       0.065744         1.7890
  17   0.0000       0.157765         4.2930
  18   0.0000       0.182243         4.9591
  19   0.0000       0.198934         5.4133
  20   0.0000       0.219911         5.9841
  21   0.0000       0.240887         6.5549

MULLIKEN ATOMIC CHARGES
-----------------------
   0 C :    0.546415
   1 C :   -0.596424
   2 H :   -0.050028
   3 C :    0.429758
   4 H :   -0.025997
   5 O :   -0.882289
   6 H :   -0.170344
   7 H :   -0.108151
   8 H :   -0.090971
   9 H :    0.004114
  10 H :   -0.056084
Sum of atomic charges:   -1.0000000

LOEWDIN ATOMIC CHARGES
----------------------
   0 C :    0.088268
   1 C :   -0.107783
   2 H :   -0.019585
   3 C :   -0.209609
   4 H :   -0.009342
   5 O :   -0.531232
   6 H :   -0.043623
   7 H :   -0.037094
   8 H :   -0.055404
   9 H :   -0.039375
  10 H :   -0.035222

  Mayer bond orders larger than 0.100000
B(  0-C ,  1-C ) :   1.2649 B(  0-C ,  8-H ) :   0.8152 B(  0-C ,  9-H ) :   0.8290
B(  0-C , 10-H ) :   0.8467 B(  1-C ,  2-H ) :   1.0245 B(  1-C ,  3-C ) :   1.0449
B(  1-C ,  4-H ) :   0.9765 B(  1-C ,  5-O ) :   0.1754 B(  1-C ,  6-H ) :   0.1567
B(  1-C ,  7-H ) :   0.1574 B(  1-C ,  8-H ) :   0.2011 B(  1-C ,  9-H ) :   0.2037
B(  1-C , 10-H ) :   0.2043 B(  2-H ,  3-C ) :   0.1069 B(  3-C ,  4-H ) :   0.1028
B(  3-C ,  5-O ) :   1.1184 B(  3-C ,  6-H ) :   0.9646 B(  3-C ,  7-H ) :   0.9558
B(  6-H ,  7-H ) :   0.1023

Dispersion correction           -0.008110929
FINAL SINGLE POINT ENERGY      -193.647920782756

DIPOLE MOMENT
-------------
                                X             Y             Z
Electronic contribution:      1.35705      -0.59486       2.60678
Nuclear contribution   :     -2.20255       0.75707      -4.26861
                        -----------------------------------------
Total Dipole Moment    :     -0.84550       0.16221      -1.66183
                        -----------------------------------------
Magnitude (a.u.)       :      1.87160
Magnitude (Debye)      :      4.75722

Rotational constants in cm-1:     0.480704     0.187939     0.150770
Rotational constants in MHz : 14411.155440  5634.276828  4519.982802

                             ****ORCA TERMINATED NORMALLY****
TOTAL RUN TIME: 0 days 0 hours 0 minutes 6 seconds 716 msec
