                         Program Version 5.0.0 -  RELEASE  -
|  1> !TPSS D3BJ RIJCOSX def2-SVPD def2/J TightSCF
|  2> *xyz 1 1
|  3> C          1.64703       -2.34528       -5.02041
|  4> C          0.21763       -1.81402       -4.92439
|  5> C          2.20996       -2.81239       -3.66571
|  6> H          2.30838       -1.58870       -5.45713
|  7> H          1.67429       -3.20348       -5.69739
|  8> C          2.48901       -1.66851       -2.73754
|  9> N          3.59631       -0.94761       -2.95225
| 10> N          1.66394       -1.41369       -1.77781
| 11> H          0.81164       -1.96318       -1.70275
| 12> H          1.84550       -0.63508       -1.15875
| 13> H          4.20535       -1.17600       -3.73383
| 14> H          3.81723       -0.12585       -2.40604
| 15> H          3.14311       -3.36280       -3.81152
| 16> H          1.48768       -3.45893       -3.16521
| 17> H         -0.11459       -1.50684       -5.89401
| 18> H          0.19193       -0.97796       -4.25713
| 19> H         -0.42543       -2.58523       -4.55479
| 20> *
| 21>
| 22> %MaxCore 64000
| 23> %pal nprocs 4
| 24> end
| 25>
| 26> %scf
| 27>   MaxIter 150
| 28> end
| 29>
| 30>
| 31>                          ****END OF INPUT****

CARTESIAN COORDINATES (ANGSTROEM)
---------------------------------
  C      1.647030   -2.345280   -5.020410
  C      0.217630   -1.814020   -4.924390
  C      2.209960   -2.812390   -3.665710
  H      2.308380   -1.588700   -5.457130
  H      1.674290   -3.203480   -5.697390
  C      2.489010   -1.668510   -2.737540
  N      3.596310   -0.947610   -2.952250
  N      1.663940   -1.413690   -1.777810
  H      0.811640   -1.963180   -1.702750
  H      1.845500   -0.635080   -1.158750
  H      4.205350   -1.176000   -3.733830
  H      3.817230   -0.125850   -2.406040
  H      3.143110   -3.362800   -3.811520
  H      1.487680   -3.458930   -3.165210
  H     -0.114590   -1.506840   -5.894010
  H      0.191930   -0.977960   -4.257130
  H     -0.425430   -2.585230   -4.554790

 Total Charge           Charge          ....    1
 Multiplicity           Mult            ....    1
 Number of Electrons    NEL             ....   48
 Basis Dimension        Dim             ....  208

ORBITAL ENERGIES
----------------

  NO   OCC          E(Eh)            E(eV)
   0   2.0000     -14.366461      -390.9313
   1   2.0000     -14.357722      -390.6935
   2   2.0000     -10.308369      -280.5050
   3   2.0000     -10.194447      -277.4050
   4   2.0000     -10.162774      -276.5431
   5   2.0000     -10.129799      -275.6458
   6   2.0000      -1.128178       -30.6993
   7   2.0000      -1.038443       -28.2575
   8   2.0000      -0.908918       -24.7329
   9   2.0000      -0.828084       -22.5333
  10   2.0000      -0.779823       -21.2201
  11   2.0000      -0.736813       -20.0497
  12   2.0000      -0.720212       -19.5980
  13   2.0000      -0.686449       -18.6792
  14   2.0000      -0.660079       -17.9617
  15   2.0000      -0.607619       -16.5342
  16   2.0000      -0.583094       -15.8668
  17   2.0000      -0.558466       -15.1966
  18   2.0000      -0.531929       -14.4745
  19   2.0000      -0.522959       -14.2304
  20   2.0000      -0.469185       -12.7672
  21   2.0000      -0.465593       -12.6694
  22   2.0000      -0.460478       -12.5302
  23   2.0000      -0.450235       -12.2515
  24   0.0000      -0.234489        -6.3808
  25   0.0000      -0.170862        -4.6494
  26   0.0000      -0.130772        -3.5585
  27   0.0000      -0.126674        -3.4470
  28   0.0000      -0.100068        -2.7230

MULLIKEN ATOMIC CHARGES
-----------------------
   0 C :   -0.317888
   1 C :    0.670142
   2 C :   -0.003537
   3 H :   -0.005862
   4 H :   -0.022914
   5 C :    0.824588
   6 N :   -0.037330
   7 N :   -0.003715
   8 H :    0.089622
   9 H :   -0.084631
  10 H :    0.051470
  11 H :   -0.118077
  12 H :   -0.013409
  13 H :    0.065574
  14 H :   -0.050020
  15 H :   -0.092507
  16 H :    0.048494
Sum of atomic charges:    1.0000000

LOEWDIN ATOMIC CHARGES
----------------------
   0 C :   -0.034121
   1 C :    0.151413
   2 C :    0.053156
   3 H :    0.022777
   4 H :    0.036197
   5 C :   -0.050566
   6 N :    0.286053
   7 N :    0.291622
   8 H :    0.060374
   9 H :    0.053511
  10 H :    0.051236
  11 H :    0.041201
  12 H :    0.043413
  13 H :    0.033135
  14 H :   -0.002871
  15 H :   -0.027558
  16 H :   -0.008972

  Mayer bond orders larger than 0.100000
B(  0-C ,  1-C ) :   1.3430 B(  0-C ,  2-C ) :   1.1710 B(  0-C ,  3-H ) :   0.9093
B(  0-C ,  4-H ) :   0.9729 B(  0-C , 13-H ) :   0.1086 B(  0-C , 14-H ) :   0.2000
B(  0-C , 15-H ) :   0.2112 B(  0-C , 16-H ) :   0.1890 B(  1-C , 14-H ) :   0.8034
B(  1-C , 15-H ) :   0.8309 B(  1-C , 16-H ) :   0.7886 B(  2-C ,  3-H ) :   0.1138
B(  2-C ,  5-C ) :   1.0651 B(  2-C ,  6-N ) :   0.1162 B(  2-C ,  7-N ) :   0.1094
B(  2-C , 12-H ) :   0.9207 B(  2-C , 13-H ) :   0.8495 B(  5-C ,  6-N ) :   1.0292
B(  5-C ,  7-N ) :   1.0550 B(  5-C ,  9-H ) :  -0.1791 B(  5-C , 11-H ) :  -0.1664
B(  5-C , 13-H ) :   0.1043 B(  6-N ,  7-N ) :   0.1946 B(  6-N , 10-H ) :   1.0942
B(  6-N , 11-H ) :   1.3037 B(  7-N ,  8-H ) :   1.0612 B(  7-N ,  9-H ) :   1.3147
B(  8-H ,  9-H ) :  -0.1622 B( 10-H , 11-H ) :  -0.1685

Dispersion correction           -0.016892646
FINAL SINGLE POINT ENERGY      -268.227318271050

DIPOLE MOMENT
-------------
                                X             Y             Z
Electronic contribution:      3.26858       1.28825       4.36870
Nuclear contribution   :     -2.54148      -0.64126      -3.14660
                        -----------------------------------------
Total Dipole Moment    :      0.72710       0.64699       1.22210
                        -----------------------------------------
Magnitude (a.u.)       :      1.56230
Magnitude (Debye)      :      3.97106

Rotational constants in cm-1:     0.179759     0.078784     0.067518
Rotational constants in MHz :  5389.046501  2361.884510  2024.132984

                             ****ORCA TERMINATED NORMALLY****
TOTAL RUN TIME: 0 days 0 hours 0 minutes 12 seconds 406 msec
