                         Program Version 5.0.0 -  RELEASE  -
|  1> !TPSS D3BJ RIJCOSX def2-SVPD def2/J TightSCF
|  2> *xyz 0 1
|  3> C         -0.81136       -2.90878       -4.60763
|  4> C         -1.91658       -2.48508       -3.64367
|  5> H         -2.55452       -1.71243       -4.09199
|  6> C         -1.36353       -1.98134       -2.29361
|  7> H         -2.55345       -3.35567       -3.45881
|  8> F         -0.35039       -2.74969       -1.79601
|  9> H         -2.22622       -1.90839       -1.60204
| 10> H         -1.05135       -0.91567       -2.44333
| 11> H         -1.24783       -3.24801       -5.52377
| 12> H         -0.24047       -3.70079       -4.16978
| 13> H         -0.17107       -2.07453       -4.80501
| 14> *
| 15>
| 16> %MaxCore 64000
| 17> %pal nprocs 4
| 18> end
| 19>
| 20> %scf
| 21>   MaxIter 150
| 22> end
| 23>
| 24>
| 25>                          ****END OF INPUT****

CARTESIAN COORDINATES (ANGSTROEM)
---------------------------------
  C     -0.811360   -2.908780   -4.607630
  C     -1.916580   -2.485080   -3.643670
  H     -2.554520   -1.712430   -4.091990
  C     -1.363530   -1.981340   -2.293610
  H     -2.553450   -3.355670   -3.458810
  F     -0.350390   -2.749690   -1.796010
  H     -2.226220   -1.908390   -1.602040
  H     -1.051350   -0.915670   -2.443330
  H     -1.247830   -3.248010   -5.523770
  H     -0.240470   -3.700790   -4.169780
  H     -0.171070   -2.074530   -4.805010

 Total Charge           Charge          ....    0
 Multiplicity           Mult            ....    1
 Number of Electrons    NEL             ....   34
 Basis Dimension        Dim             ....  139

ORBITAL ENERGIES
----------------

  NO   OCC          E(Eh)            E(eV)
   0   2.0000     -24.418495      -664.4610
   1   2.0000     -10.078536      -274.2509
   2   2.0000     -10.007273      -272.3117
   3   2.0000      -9.988735      -271.8073
   4   2.0000      -1.110203       -30.2102
   5   2.0000      -0.724547       -19.7159
   6   2.0000      -0.631754       -17.1909
   7   2.0000      -0.542670       -14.7668
   8   2.0000      -0.462185       -12.5767
   9   2.0000      -0.446185       -12.1413
  10   2.0000      -0.426883       -11.6161
  11   2.0000      -0.393486       -10.7073
  12   2.0000      -0.354007        -9.6330
  13   2.0000      -0.332596        -9.0504
  14   2.0000      -0.320872        -8.7314
  15   2.0000      -0.286370        -7.7925
  16   2.0000      -0.283674        -7.7192
  17   0.0000       0.010010         0.2724
  18   0.0000       0.035584         0.9683
  19   0.0000       0.046629         1.2688
  20   0.0000       0.057223         1.5571
  21   0.0000       0.076109         2.0710

MULLIKEN ATOMIC CHARGES
-----------------------
   0 C :    0.561095
   1 C :   -0.545856
   2 H :   -0.045186
   3 C :    0.698084
   4 H :   -0.032441
   5 F :   -0.452144
   6 H :   -0.066126
   7 H :   -0.008024
   8 H :   -0.066801
   9 H :    0.003510
  10 H :   -0.046113
Sum of atomic charges:   -0.0000000

LOEWDIN ATOMIC CHARGES
----------------------
   0 C :    0.128192
   1 C :   -0.058118
   2 H :    0.022571
   3 C :    0.101155
   4 H :    0.014937
   5 F :   -0.200521
   6 H :    0.023111
   7 H :    0.031647
   8 H :   -0.022915
   9 H :   -0.021270
  10 H :   -0.018790

  Mayer bond orders larger than 0.100000
B(  0-C ,  1-C ) :   1.3152 B(  0-C ,  8-H ) :   0.8313 B(  0-C ,  9-H ) :   0.8320
B(  0-C , 10-H ) :   0.8379 B(  1-C ,  2-H ) :   0.9718 B(  1-C ,  3-C ) :   1.1883
B(  1-C ,  4-H ) :   0.9524 B(  1-C ,  6-H ) :   0.1159 B(  1-C ,  7-H ) :   0.1197
B(  1-C ,  8-H ) :   0.1863 B(  1-C ,  9-H ) :   0.1712 B(  1-C , 10-H ) :   0.1797
B(  3-C ,  5-F ) :   0.7106 B(  3-C ,  6-H ) :   0.9202 B(  3-C ,  7-H ) :   0.8999

Dispersion correction           -0.007642692
FINAL SINGLE POINT ENERGY      -218.256992943917

DIPOLE MOMENT
-------------
                                X             Y             Z
Electronic contribution:      2.61457      -0.71711       5.48967
Nuclear contribution   :     -3.10989       1.02097      -5.82098
                        -----------------------------------------
Total Dipole Moment    :     -0.49533       0.30386      -0.33131
                        -----------------------------------------
Magnitude (a.u.)       :      0.66892
Magnitude (Debye)      :      1.70025

Rotational constants in cm-1:     0.466172     0.177379     0.142652
Rotational constants in MHz : 13975.492374  5317.681709  4276.599690

                             ****ORCA TERMINATED NORMALLY****
TOTAL RUN TIME: 0 days 0 hours 0 minutes 5 seconds 651 msec
