                         Program Version 5.0.0 -  RELEASE  -
|  1> !TPSS D3BJ RIJCOSX def2-SVPD def2/J TightSCF
|  2> *xyz 0 1
|  3> C          1.64703       -2.34528       -5.02041
|  4> C          0.21763       -1.81402       -4.92439
|  5> C          2.20996       -2.81239       -3.66571
|  6> H          2.30838       -1.58870       -5.45713
|  7> H          1.67429       -3.20348       -5.69739
|  8> C          2.48901       -1.66851       -2.73754
|  9> C          3.59631       -0.94761       -2.95225
| 10> N          1.66394       -1.41369       -1.77781
| 11> H          0.81164       -1.96318       -1.70275
| 12> H          1.84550       -0.63508       -1.15875
| 13> H          4.20535       -1.17600       -3.73383
| 14> H          3.81723       -0.12585       -2.40604
| 15> H          3.14311       -3.36280       -3.81152
| 16> H          1.48768       -3.45893       -3.16521
| 17> H         -0.11459       -1.50684       -5.89401
| 18> H          0.19193       -0.97796       -4.25713
| 19> H         -0.42543       -2.58523       -4.55479
| 20> *
| 21>
| 22> %MaxCore 64000
| 23> %pal nprocs 4
| 24> end
| 25>
| 26> %scf
| 27>   MaxIter 150
| 28> end
| 29>
| 30>
| 31>                          ****END OF INPUT****

CARTESIAN COORDINATES (ANGSTROEM)
---------------------------------
  C      1.647030   -2.345280   -5.020410
  C      0.217630   -1.814020   -4.924390
  C      2.209960   -2.812390   -3.665710
  H      2.308380   -1.588700   -5.457130
  H      1.674290   -3.203480   -5.697390
  C      2.489010   -1.668510   -2.737540
  C      3.596310   -0.947610   -2.952250
  N      1.663940   -1.413690   -1.777810
  H      0.811640   -1.963180   -1.702750
  H      1.845500   -0.635080   -1.158750
  H      4.205350   -1.176000   -3.733830
  H      3.817230   -0.125850   -2.406040
  H      3.143110   -3.362800   -3.811520
  H      1.487680   -3.458930   -3.165210
  H     -0.114590   -1.506840   -5.894010
  H      0.191930   -0.977960   -4.257130
  H     -0.425430   -2.585230   -4.554790

 Total Charge           Charge          ....    0
 Multiplicity           Mult            ....    1
 Number of Electrons    NEL             ....   48
 Basis Dimension        Dim             ....  208

ORBITAL ENERGIES
----------------

  NO   OCC          E(Eh)            E(eV)
   0   2.0000     -14.125135      -384.3645
   1   2.0000     -10.012537      -272.4550
   2   2.0000      -9.998624      -272.0764
   3   2.0000      -9.995762      -271.9985
   4   2.0000      -9.984740      -271.6986
   5   2.0000      -9.930255      -270.2160
   6   2.0000      -0.867581       -23.6081
   7   2.0000      -0.728634       -19.8271
   8   2.0000      -0.668066       -18.1790
   9   2.0000      -0.619953       -16.8698
  10   2.0000      -0.554898       -15.0995
  11   2.0000      -0.513254       -13.9664
  12   2.0000      -0.485980       -13.2242
  13   2.0000      -0.439904       -11.9704
  14   2.0000      -0.410341       -11.1659
  15   2.0000      -0.389367       -10.5952
  16   2.0000      -0.364945        -9.9307
  17   2.0000      -0.350444        -9.5361
  18   2.0000      -0.332878        -9.0581
  19   2.0000      -0.320825        -8.7301
  20   2.0000      -0.302988        -8.2447
  21   2.0000      -0.289695        -7.8830
  22   2.0000      -0.288493        -7.8503
  23   2.0000      -0.153523        -4.1776
  24   0.0000       0.003561         0.0969
  25   0.0000       0.019572         0.5326
  26   0.0000       0.033884         0.9220
  27   0.0000       0.039944         1.0869
  28   0.0000       0.052392         1.4257

MULLIKEN ATOMIC CHARGES
-----------------------
   0 C :   -0.388095
   1 C :    0.635899
   2 C :    0.246330
   3 H :   -0.009145
   4 H :   -0.066552
   5 C :   -0.033505
   6 C :    0.338837
   7 N :    0.121087
   8 H :   -0.038227
   9 H :   -0.140482
  10 H :   -0.094703
  11 H :   -0.447869
  12 H :    0.032134
  13 H :   -0.042505
  14 H :   -0.076721
  15 H :   -0.075019
  16 H :    0.038535
Sum of atomic charges:    0.0000000

LOEWDIN ATOMIC CHARGES
----------------------
   0 C :   -0.054646
   1 C :    0.129720
   2 C :    0.012987
   3 H :    0.016379
   4 H :    0.011605
   5 C :   -0.264822
   6 C :    0.178170
   7 N :    0.174755
   8 H :    0.007808
   9 H :    0.014888
  10 H :   -0.084275
  11 H :   -0.096266
  12 H :    0.022922
  13 H :    0.007518
  14 H :   -0.024046
  15 H :   -0.028964
  16 H :   -0.023733

  Mayer bond orders larger than 0.100000
B(  0-C ,  1-C ) :   1.3210 B(  0-C ,  2-C ) :   1.1718 B(  0-C ,  3-H ) :   0.9452
B(  0-C ,  4-H ) :   0.9801 B(  0-C , 13-H ) :   0.1394 B(  0-C , 14-H ) :   0.2095
B(  0-C , 15-H ) :   0.2159 B(  0-C , 16-H ) :   0.1977 B(  1-C , 14-H ) :   0.7956
B(  1-C , 15-H ) :   0.8479 B(  1-C , 16-H ) :   0.7909 B(  2-C ,  3-H ) :   0.1373
B(  2-C ,  5-C ) :   1.0367 B(  2-C ,  6-C ) :   0.1808 B(  2-C ,  7-N ) :   0.1337
B(  2-C , 12-H ) :   0.8535 B(  2-C , 13-H ) :   0.7622 B(  5-C ,  6-C ) :   1.6813
B(  5-C ,  7-N ) :   1.1520 B(  5-C , 11-H ) :   0.1691 B(  5-C , 12-H ) :   0.1171
B(  5-C , 13-H ) :   0.1727 B(  6-C ,  7-N ) :   0.2983 B(  6-C , 10-H ) :   0.8587
B(  6-C , 11-H ) :   0.8066 B(  7-N ,  8-H ) :   1.0570 B(  7-N ,  9-H ) :   1.2653
B(  8-H ,  9-H ) :  -0.1418

Dispersion correction           -0.017453864
FINAL SINGLE POINT ENERGY      -251.762811268078

DIPOLE MOMENT
-------------
                                X             Y             Z
Electronic contribution:      1.45274       0.29841       3.31395
Nuclear contribution   :     -2.15663      -0.43764      -3.01766
                        -----------------------------------------
Total Dipole Moment    :     -0.70389      -0.13922       0.29629
                        -----------------------------------------
Magnitude (a.u.)       :      0.77629
Magnitude (Debye)      :      1.97318

Rotational constants in cm-1:     0.184410     0.080989     0.069427
Rotational constants in MHz :  5528.462717  2427.993314  2081.376031

                             ****ORCA TERMINATED NORMALLY****
TOTAL RUN TIME: 0 days 0 hours 0 minutes 13 seconds 951 msec
