                         Program Version 5.0.0 -  RELEASE  -
|  1> !TPSS D3BJ RIJCOSX def2-SVPD def2/J TightSCF
|  2> *xyz 0 1
|  3> C          1.64703       -2.34528       -5.02041
|  4> C          0.21763       -1.81402       -4.92439
|  5> C          2.20996       -2.81239       -3.66571
|  6> H          2.30838       -1.58870       -5.45713
|  7> H          1.67429       -3.20348       -5.69739
|  8> C          2.48901       -1.66851       -2.73754
|  9> N          3.59631       -0.94761       -2.95225
| 10> C          1.66394       -1.41369       -1.77781
| 11> H          0.81164       -1.96318       -1.70275
| 12> H          1.84550       -0.63508       -1.15875
| 13> H          4.20535       -1.17600       -3.73383
| 14> H          3.81723       -0.12585       -2.40604
| 15> H          3.14311       -3.36280       -3.81152
| 16> H          1.48768       -3.45893       -3.16521
| 17> H         -0.11459       -1.50684       -5.89401
| 18> H          0.19193       -0.97796       -4.25713
| 19> H         -0.42543       -2.58523       -4.55479
| 20> *
| 21>
| 22> %MaxCore 64000
| 23> %pal nprocs 4
| 24> end
| 25>
| 26> %scf
| 27>   MaxIter 150
| 28> end
| 29>
| 30>
| 31>                          ****END OF INPUT****

CARTESIAN COORDINATES (ANGSTROEM)
---------------------------------
  C      1.647030   -2.345280   -5.020410
  C      0.217630   -1.814020   -4.924390
  C      2.209960   -2.812390   -3.665710
  H      2.308380   -1.588700   -5.457130
  H      1.674290   -3.203480   -5.697390
  C      2.489010   -1.668510   -2.737540
  N      3.596310   -0.947610   -2.952250
  C      1.663940   -1.413690   -1.777810
  H      0.811640   -1.963180   -1.702750
  H      1.845500   -0.635080   -1.158750
  H      4.205350   -1.176000   -3.733830
  H      3.817230   -0.125850   -2.406040
  H      3.143110   -3.362800   -3.811520
  H      1.487680   -3.458930   -3.165210
  H     -0.114590   -1.506840   -5.894010
  H      0.191930   -0.977960   -4.257130
  H     -0.425430   -2.585230   -4.554790

 Total Charge           Charge          ....    0
 Multiplicity           Mult            ....    1
 Number of Electrons    NEL             ....   48
 Basis Dimension        Dim             ....  208

ORBITAL ENERGIES
----------------

  NO   OCC          E(Eh)            E(eV)
   0   2.0000     -14.118585      -384.1862
   1   2.0000     -10.010153      -272.3901
   2   2.0000      -9.997028      -272.0330
   3   2.0000      -9.996925      -272.0302
   4   2.0000      -9.979445      -271.5545
   5   2.0000      -9.933585      -270.3066
   6   2.0000      -0.849718       -23.1220
   7   2.0000      -0.727881       -19.8066
   8   2.0000      -0.674459       -18.3530
   9   2.0000      -0.624504       -16.9936
  10   2.0000      -0.544023       -14.8036
  11   2.0000      -0.514714       -14.0061
  12   2.0000      -0.477057       -12.9814
  13   2.0000      -0.432242       -11.7619
  14   2.0000      -0.406101       -11.0506
  15   2.0000      -0.399800       -10.8791
  16   2.0000      -0.358276        -9.7492
  17   2.0000      -0.352579        -9.5942
  18   2.0000      -0.334273        -9.0960
  19   2.0000      -0.323058        -8.7908
  20   2.0000      -0.301691        -8.2094
  21   2.0000      -0.285482        -7.7684
  22   2.0000      -0.280937        -7.6447
  23   2.0000      -0.164445        -4.4748
  24   0.0000       0.004997         0.1360
  25   0.0000       0.022396         0.6094
  26   0.0000       0.034123         0.9285
  27   0.0000       0.041185         1.1207
  28   0.0000       0.056813         1.5460

MULLIKEN ATOMIC CHARGES
-----------------------
   0 C :   -0.306061
   1 C :    0.651050
   2 C :    0.163638
   3 H :   -0.039902
   4 H :   -0.053613
   5 C :    0.047340
   6 N :    0.053063
   7 C :    0.302179
   8 H :   -0.027317
   9 H :   -0.398512
  10 H :   -0.104025
  11 H :   -0.179949
  12 H :   -0.095742
  13 H :    0.103964
  14 H :   -0.074369
  15 H :   -0.067361
  16 H :    0.025618
Sum of atomic charges:    0.0000000

LOEWDIN ATOMIC CHARGES
----------------------
   0 C :   -0.059245
   1 C :    0.133220
   2 C :    0.011488
   3 H :    0.009952
   4 H :    0.011033
   5 C :   -0.261539
   6 N :    0.176572
   7 C :    0.172990
   8 H :   -0.071991
   9 H :   -0.080279
  10 H :   -0.002912
  11 H :    0.000398
  12 H :    0.015144
  13 H :    0.017960
  14 H :   -0.025276
  15 H :   -0.027804
  16 H :   -0.019712

  Mayer bond orders larger than 0.100000
B(  0-C ,  1-C ) :   1.3142 B(  0-C ,  2-C ) :   1.1444 B(  0-C ,  3-H ) :   0.9135
B(  0-C ,  4-H ) :   0.9421 B(  0-C , 13-H ) :   0.1149 B(  0-C , 14-H ) :   0.2114
B(  0-C , 15-H ) :   0.2187 B(  0-C , 16-H ) :   0.1974 B(  1-C , 14-H ) :   0.7929
B(  1-C , 15-H ) :   0.8484 B(  1-C , 16-H ) :   0.7894 B(  2-C ,  3-H ) :   0.1422
B(  2-C ,  4-H ) :   0.1143 B(  2-C ,  5-C ) :   1.0732 B(  2-C ,  6-N ) :   0.1383
B(  2-C ,  7-C ) :   0.1699 B(  2-C , 12-H ) :   0.9167 B(  2-C , 13-H ) :   0.8046
B(  5-C ,  6-N ) :   1.1473 B(  5-C ,  7-C ) :   1.6809 B(  5-C ,  8-H ) :   0.1388
B(  5-C ,  9-H ) :   0.2748 B(  5-C , 12-H ) :   0.1387 B(  5-C , 13-H ) :   0.1203
B(  6-N ,  7-C ) :   0.2655 B(  6-N , 10-H ) :   1.1566 B(  6-N , 11-H ) :   1.2736
B(  7-C ,  8-H ) :   0.9320 B(  7-C ,  9-H ) :   0.6713 B( 10-H , 11-H ) :  -0.1429

Dispersion correction           -0.017477393
FINAL SINGLE POINT ENERGY      -251.766545534986

DIPOLE MOMENT
-------------
                                X             Y             Z
Electronic contribution:      3.12895       0.71470       2.32064
Nuclear contribution   :     -2.61370      -0.54788      -2.73987
                        -----------------------------------------
Total Dipole Moment    :      0.51525       0.16682      -0.41923
                        -----------------------------------------
Magnitude (a.u.)       :      0.68488
Magnitude (Debye)      :      1.74083

Rotational constants in cm-1:     0.186678     0.079942     0.069329
Rotational constants in MHz :  5596.476267  2396.611465  2078.426257

                             ****ORCA TERMINATED NORMALLY****
TOTAL RUN TIME: 0 days 0 hours 0 minutes 13 seconds 141 msec
