                         Program Version 5.0.0 -  RELEASE  -
|  1> !M062X D3Zero RIJCOSX def2-SVPD def2/J TightSCF
|  2> *xyz -1 1
|  3> C          3.93993        0.32036       -4.36773
|  4> C          5.10585        0.66802       -5.30546
|  5> O          4.80913        1.15019       -6.41436
|  6> O          6.26737        0.56500       -4.81948
|  7> H          3.01376        0.44480       -4.88890
|  8> H          3.96058        0.96928       -3.51722
|  9> H          4.03331       -0.69517       -4.04388
| 10> *
| 11>
| 12> %MaxCore 64000
| 13>
| 14> %pal nprocs 4
| 15> end
| 16>
| 17> %scf
| 18>   MaxIter 150
| 19> end
| 20>
| 21>
| 22>                          ****END OF INPUT****

CARTESIAN COORDINATES (ANGSTROEM)
---------------------------------
  C      3.939930    0.320360   -4.367730
  C      5.105850    0.668020   -5.305460
  O      4.809130    1.150190   -6.414360
  O      6.267370    0.565000   -4.819480
  H      3.013760    0.444800   -4.888900
  H      3.960580    0.969280   -3.517220
  H      4.033310   -0.695170   -4.043880

 Total Charge           Charge          ....   -1
 Multiplicity           Mult            ....    1
 Number of Electrons    NEL             ....   32
 Basis Dimension        Dim             ....  110

ORBITAL ENERGIES
----------------

  NO   OCC          E(Eh)            E(eV)
   0   2.0000     -19.371362      -527.1216
   1   2.0000     -19.366623      -526.9926
   2   2.0000     -10.436980      -284.0047
   3   2.0000     -10.360234      -281.9163
   4   2.0000      -0.926742       -25.2179
   5   2.0000      -0.827430       -22.5155
   6   2.0000      -0.626623       -17.0513
   7   2.0000      -0.378585       -10.3018
   8   2.0000      -0.327421        -8.9096
   9   2.0000      -0.314310        -8.5528
  10   2.0000      -0.303749        -8.2654
  11   2.0000      -0.257648        -7.0110
  12   2.0000      -0.236269        -6.4292
  13   2.0000      -0.109365        -2.9760
  14   2.0000      -0.107097        -2.9143
  15   2.0000      -0.100687        -2.7398
  16   0.0000       0.191409         5.2085
  17   0.0000       0.223170         6.0728
  18   0.0000       0.251621         6.8470
  19   0.0000       0.258797         7.0422
  20   0.0000       0.284218         7.7340

MULLIKEN ATOMIC CHARGES
-----------------------
   0 C :    0.450051
   1 C :    0.153958
   2 O :   -0.685023
   3 O :   -0.740114
   4 H :   -0.075499
   5 H :   -0.052678
   6 H :   -0.050695
Sum of atomic charges:   -1.0000000

LOEWDIN ATOMIC CHARGES
----------------------
   0 C :    0.143077
   1 C :   -0.322140
   2 O :   -0.342056
   3 O :   -0.360212
   4 H :   -0.044209
   5 H :   -0.035033
   6 H :   -0.039428

  Mayer bond orders larger than 0.100000
B(  0-C ,  1-C ) :   1.1927 B(  0-C ,  4-H ) :   0.8810 B(  0-C ,  5-H ) :   0.8373
B(  0-C ,  6-H ) :   0.8183 B(  1-C ,  2-O ) :   1.4480 B(  1-C ,  3-O ) :   1.3974
B(  1-C ,  4-H ) :   0.2352 B(  1-C ,  5-H ) :   0.1502 B(  1-C ,  6-H ) :   0.1672

Dispersion correction           -0.000017179
FINAL SINGLE POINT ENERGY      -228.267578464165

DIPOLE MOMENT
-------------
                                X             Y             Z
Electronic contribution:      2.70809       0.85972      -2.22783
Nuclear contribution   :     -3.81330      -1.22874       3.01208
                        -----------------------------------------
Total Dipole Moment    :     -1.10521      -0.36902       0.78425
                        -----------------------------------------
Magnitude (a.u.)       :      1.40453
Magnitude (Debye)      :      3.57004

Rotational constants in cm-1:     0.390282     0.335702     0.186718
Rotational constants in MHz : 11700.346989 10064.094211  5597.661196

                             ****ORCA TERMINATED NORMALLY****
TOTAL RUN TIME: 0 days 0 hours 0 minutes 8 seconds 311 msec
