                         Program Version 5.0.0 -  RELEASE  -
|  1> !M062X D3Zero RIJCOSX def2-SVPD def2/J TightSCF
|  2> *xyz 1 1
|  3> C          3.90595        2.81985       -3.75292
|  4> N          5.29562        3.13151       -4.10533
|  5> C          5.70862        3.46889       -5.32419
|  6> N          6.90470        3.03895       -5.71708
|  7> N          4.98188        4.29357       -6.09746
|  8> H          5.00055        4.10131       -7.08776
|  9> H          4.08469        4.59690       -5.73965
| 10> H          5.96336        2.52611       -3.64239
| 11> H          7.04716        2.06686       -5.47360
| 12> H          7.19815        3.30799       -6.64523
| 13> H          3.24866        3.48801       -4.26909
| 14> H          3.77188        2.93227       -2.69732
| 15> H          3.68381        1.81198       -4.03533
| 16> *
| 17>
| 18> %MaxCore 64000
| 19>
| 20> %pal nprocs 4
| 21> end
| 22>
| 23> %scf
| 24>   MaxIter 150
| 25> end
| 26>
| 27>
| 28>                          ****END OF INPUT****

CARTESIAN COORDINATES (ANGSTROEM)
---------------------------------
  C      3.905950    2.819850   -3.752920
  N      5.295620    3.131510   -4.105330
  C      5.708620    3.468890   -5.324190
  N      6.904700    3.038950   -5.717080
  N      4.981880    4.293570   -6.097460
  H      5.000550    4.101310   -7.087760
  H      4.084690    4.596900   -5.739650
  H      5.963360    2.526110   -3.642390
  H      7.047160    2.066860   -5.473600
  H      7.198150    3.307990   -6.645230
  H      3.248660    3.488010   -4.269090
  H      3.771880    2.932270   -2.697320
  H      3.683810    1.811980   -4.035330

 Total Charge           Charge          ....    1
 Multiplicity           Mult            ....    1
 Number of Electrons    NEL             ....   40
 Basis Dimension        Dim             ....  164

ORBITAL ENERGIES
----------------

  NO   OCC          E(Eh)            E(eV)
   0   2.0000     -14.998036      -408.1173
   1   2.0000     -14.995153      -408.0388
   2   2.0000     -14.994678      -408.0259
   3   2.0000     -10.900985      -296.6309
   4   2.0000     -10.763415      -292.8874
   5   2.0000      -1.331124       -36.2217
   6   2.0000      -1.208676       -32.8897
   7   2.0000      -1.200017       -32.6541
   8   2.0000      -0.997517       -27.1438
   9   2.0000      -0.908228       -24.7141
  10   2.0000      -0.863315       -23.4920
  11   2.0000      -0.836346       -22.7581
  12   2.0000      -0.782129       -21.2828
  13   2.0000      -0.763898       -20.7867
  14   2.0000      -0.720446       -19.6043
  15   2.0000      -0.714750       -19.4493
  16   2.0000      -0.660149       -17.9636
  17   2.0000      -0.650147       -17.6914
  18   2.0000      -0.561293       -15.2736
  19   2.0000      -0.531020       -14.4498
  20   0.0000      -0.162406        -4.4193
  21   0.0000      -0.139851        -3.8055
  22   0.0000      -0.099171        -2.6986
  23   0.0000      -0.093325        -2.5395
  24   0.0000      -0.064143        -1.7454

MULLIKEN ATOMIC CHARGES
-----------------------
   0 C :    1.115063
   1 N :   -0.547347
   2 C :    0.876605
   3 N :   -0.039950
   4 N :    0.031582
   5 H :    0.000735
   6 H :   -0.017153
   7 H :   -0.159838
   8 H :    0.035200
   9 H :    0.026707
  10 H :   -0.145523
  11 H :   -0.129487
  12 H :   -0.046594
Sum of atomic charges:    1.0000000

LOEWDIN ATOMIC CHARGES
----------------------
   0 C :    0.272950
   1 N :    0.017619
   2 C :   -0.042326
   3 N :    0.265823
   4 N :    0.277761
   5 H :    0.040819
   6 H :    0.020797
   7 H :    0.052664
   8 H :    0.041352
   9 H :    0.039760
  10 H :   -0.011762
  11 H :    0.013692
  12 H :    0.010850

  Mayer bond orders larger than 0.100000
B(  0-C ,  1-N ) :   0.8774 B(  0-C , 10-H ) :   0.8418 B(  0-C , 11-H ) :   0.8157
B(  0-C , 12-H ) :   0.8167 B(  1-N ,  2-C ) :   1.1752 B(  1-N ,  3-N ) :   0.1677
B(  1-N ,  7-H ) :   1.1841 B(  1-N , 10-H ) :   0.1337 B(  1-N , 11-H ) :   0.1945
B(  1-N , 12-H ) :   0.1204 B(  2-C ,  3-N ) :   1.0112 B(  2-C ,  4-N ) :   1.0131
B(  2-C ,  7-H ) :  -0.1487 B(  3-N ,  4-N ) :   0.1083 B(  3-N ,  8-H ) :   1.0395
B(  3-N ,  9-H ) :   0.9696 B(  4-N ,  5-H ) :   1.1117 B(  4-N ,  6-H ) :   0.9944
B(  5-H ,  6-H ) :  -0.1294

Dispersion correction           -0.000165663
FINAL SINGLE POINT ENERGY      -244.784533045791

DIPOLE MOMENT
-------------
                                X             Y             Z
Electronic contribution:      2.48976       1.07259      -1.19049
Nuclear contribution   :     -2.62204      -1.73043       0.52001
                        -----------------------------------------
Total Dipole Moment    :     -0.13227      -0.65784      -0.67048
                        -----------------------------------------
Magnitude (a.u.)       :      0.94858
Magnitude (Debye)      :      2.41110

Rotational constants in cm-1:     0.299316     0.133886     0.097604
Rotational constants in MHz :  8973.254382  4013.798371  2926.103660

                             ****ORCA TERMINATED NORMALLY****
TOTAL RUN TIME: 0 days 0 hours 0 minutes 17 seconds 95 msec
