                         Program Version 5.0.0 -  RELEASE  -
|  1> !M062X D3Zero RIJCOSX def2-SVPD def2/J TightSCF xyzfile
|  2>
|  3> *xyzfile 0 1 B.xyz
|  4>
|  5> %MaxCore 64000
|  6>
|  7> %pal nprocs 4
|  8> end
|  9>
| 10> %scf
| 11>   MaxIter 150
| 12> end
| 13>
| 14>
| 15>                          ****END OF INPUT****

CARTESIAN COORDINATES (ANGSTROEM)
---------------------------------
  C      3.905947    2.819855   -3.752920
  N      5.295615    3.131515   -4.105334
  C      3.803511    1.374716   -3.260807
  C      3.939934    0.320362   -4.367729
  H      4.105043   -0.655085   -3.907733
  H      3.022801    0.280517   -4.957117
  C      5.105846    0.668022   -5.305463
  C      5.708619    3.468885   -5.324190
  N      6.904696    3.038954   -5.717084
  N      4.981884    4.293570   -6.097457
  H      5.000546    4.101311   -7.087761
  H      4.084693    4.596899   -5.739652
  H      5.963358    2.526112   -3.642391
  H      7.047164    2.066861   -5.473604
  H      7.198145    3.307994   -6.645225
  H      3.282025    2.949187   -4.640259
  H      3.565254    3.514574   -2.982523
  H      4.574833    1.215157   -2.500443
  H      2.843514    1.260845   -2.751465
  O      4.809132    1.150187   -6.414361
  O      6.267366    0.564999   -4.819481

 Total Charge           Charge          ....    0
 Multiplicity           Mult            ....    1
 Number of Electrons    NEL             ....   78
 Basis Dimension        Dim             ....  294

ORBITAL ENERGIES
----------------

  NO   OCC          E(Eh)            E(eV)
   0   2.0000     -19.555825      -532.1411
   1   2.0000     -19.553777      -532.0853
   2   2.0000     -14.829109      -403.5206
   3   2.0000     -14.820620      -403.2896
   4   2.0000     -14.798403      -402.6850
   5   2.0000     -10.725263      -291.8492
   6   2.0000     -10.615322      -288.8576
   7   2.0000     -10.614952      -288.8475
   8   2.0000     -10.563869      -287.4575
   9   2.0000     -10.529509      -286.5225
  10   2.0000      -1.156166       -31.4609
  11   2.0000      -1.114067       -30.3153
  12   2.0000      -1.039780       -28.2939
  13   2.0000      -1.021554       -27.7979
  14   2.0000      -1.013713       -27.5845
  15   2.0000      -0.887292       -24.1444
  16   2.0000      -0.800376       -21.7793
  17   2.0000      -0.738707       -20.1012
  18   2.0000      -0.705334       -19.1931
  19   2.0000      -0.687276       -18.7017
  20   2.0000      -0.651674       -17.7330
  21   2.0000      -0.611760       -16.6468
  22   2.0000      -0.588714       -16.0197
  23   2.0000      -0.573190       -15.5973
  24   2.0000      -0.550592       -14.9824
  25   2.0000      -0.549206       -14.9447
  26   2.0000      -0.504244       -13.7212
  27   2.0000      -0.500359       -13.6155
  28   2.0000      -0.482867       -13.1395
  29   2.0000      -0.460729       -12.5371
  30   2.0000      -0.454926       -12.3792
  31   2.0000      -0.447604       -12.1799
  32   2.0000      -0.408348       -11.1117
  33   2.0000      -0.401172       -10.9164
  34   2.0000      -0.383740       -10.4421
  35   2.0000      -0.355226        -9.6662
  36   2.0000      -0.298678        -8.1274
  37   2.0000      -0.290566        -7.9067
  38   2.0000      -0.282111        -7.6766
  39   0.0000       0.012889         0.3507
  40   0.0000       0.015756         0.4287
  41   0.0000       0.038452         1.0463
  42   0.0000       0.049807         1.3553
  43   0.0000       0.069285         1.8854

MULLIKEN ATOMIC CHARGES
-----------------------
   0 C :    0.809142
   1 N :   -0.433261
   2 C :    0.061655
   3 C :    0.372599
   4 H :   -0.101065
   5 H :   -0.001384
   6 C :    0.451111
   7 C :    0.905715
   8 N :    0.102222
   9 N :   -0.118757
  10 H :   -0.003785
  11 H :    0.022372
  12 H :   -0.122916
  13 H :   -0.103046
  14 H :    0.031245
  15 H :    0.013980
  16 H :   -0.360508
  17 H :    0.060165
  18 H :   -0.185968
  19 O :   -0.641409
  20 O :   -0.758106
Sum of atomic charges:   -0.0000000

LOEWDIN ATOMIC CHARGES
----------------------
   0 C :    0.078086
   1 N :    0.055589
   2 C :   -0.008037
   3 C :    0.042310
   4 H :    0.026404
   5 H :    0.021361
   6 C :   -0.246746
   7 C :   -0.069694
   8 N :    0.279924
   9 N :    0.259517
  10 H :    0.027404
  11 H :    0.009619
  12 H :    0.025101
  13 H :   -0.057612
  14 H :    0.029212
  15 H :    0.024504
  16 H :    0.019957
  17 H :    0.028623
  18 H :    0.022799
  19 O :   -0.275921
  20 O :   -0.292400

  Mayer bond orders larger than 0.100000
B(  0-C ,  1-N ) :   0.8333 B(  0-C ,  2-C ) :   1.1613 B(  0-C , 12-H ) :  -0.1044
B(  0-C , 15-H ) :   0.7164 B(  0-C , 16-H ) :   0.9168 B(  0-C , 18-H ) :   0.1709
B(  1-N ,  2-C ) :   0.1440 B(  1-N ,  7-C ) :   1.0899 B(  1-N ,  8-N ) :   0.1483
B(  1-N , 12-H ) :   1.1418 B(  1-N , 15-H ) :   0.1228 B(  2-C ,  3-C ) :   1.1932
B(  2-C ,  4-H ) :   0.1665 B(  2-C ,  5-H ) :   0.1269 B(  2-C , 15-H ) :   0.1011
B(  2-C , 17-H ) :   0.8313 B(  2-C , 18-H ) :   0.9638 B(  3-C ,  4-H ) :   0.8236
B(  3-C ,  5-H ) :   0.8318 B(  3-C ,  6-C ) :   0.9919 B(  4-H ,  6-C ) :   0.1270
B(  5-H ,  6-C ) :   0.2542 B(  6-C , 19-O ) :   1.4996 B(  6-C , 20-O ) :   1.2693
B(  7-C ,  8-N ) :   1.0003 B(  7-C ,  9-N ) :   0.8453 B(  7-C , 12-H ) :  -0.2166
B(  8-N ,  9-N ) :   0.1310 B(  8-N , 13-H ) :   0.9626 B(  8-N , 14-H ) :   0.9257
B(  9-N , 10-H ) :   1.1268 B(  9-N , 11-H ) :   0.9375 B( 10-H , 11-H ) :  -0.1264
B( 13-H , 20-O ) :   0.1685 B( 15-H , 16-H ) :  -0.1515 B( 17-H , 18-H ) :  -0.1166

Dispersion correction           -0.000695265
FINAL SINGLE POINT ENERGY      -511.322534845522

DIPOLE MOMENT
-------------
                                X             Y             Z
Electronic contribution:      4.15034       0.43536      -3.40690
Nuclear contribution   :     -4.94498       2.03334       3.78956
                        -----------------------------------------
Total Dipole Moment    :     -0.79464       2.46871       0.38266
                        -----------------------------------------
Magnitude (a.u.)       :      2.62153
Magnitude (Debye)      :      6.66339

Rotational constants in cm-1:     0.062533     0.042832     0.033687
Rotational constants in MHz :  1874.701390  1284.063603  1009.911042

                             ****ORCA TERMINATED NORMALLY****
TOTAL RUN TIME: 0 days 0 hours 1 minutes 16 seconds 670 msec
