                         Program Version 5.0.0 -  RELEASE  -
|  1> !M062X D3Zero RIJCOSX def2-SVPD def2/J TightSCF
|  2> *xyz 0 1
|  3> C          3.93993        0.32036       -4.36773
|  4> C          5.10585        0.66802       -5.30546
|  5> F          4.80913        1.15019       -6.41436
|  6> O          6.26737        0.56500       -4.81948
|  7> H          3.01376        0.44480       -4.88890
|  8> H          3.96058        0.96928       -3.51722
|  9> H          4.03331       -0.69517       -4.04388
| 10> *
| 11>
| 12> %MaxCore 64000
| 13>
| 14> %pal nprocs 4
| 15> end
| 16>
| 17> %scf
| 18>   MaxIter 150
| 19> end
| 20>
| 21>
| 22>                          ****END OF INPUT****

CARTESIAN COORDINATES (ANGSTROEM)
---------------------------------
  C      3.939930    0.320360   -4.367730
  C      5.105850    0.668020   -5.305460
  F      4.809130    1.150190   -6.414360
  O      6.267370    0.565000   -4.819480
  H      3.013760    0.444800   -4.888900
  H      3.960580    0.969280   -3.517220
  H      4.033310   -0.695170   -4.043880

 Total Charge           Charge          ....    0
 Multiplicity           Mult            ....    1
 Number of Electrons    NEL             ....   32
 Basis Dimension        Dim             ....  110

ORBITAL ENERGIES
----------------

  NO   OCC          E(Eh)            E(eV)
   0   2.0000     -25.336944      -689.4533
   1   2.0000     -19.650785      -534.7250
   2   2.0000     -10.746202      -292.4190
   3   2.0000     -10.579054      -287.8707
   4   2.0000      -1.457983       -39.6737
   5   2.0000      -1.142136       -31.0791
   6   2.0000      -0.863404       -23.4944
   7   2.0000      -0.763172       -20.7670
   8   2.0000      -0.652955       -17.7678
   9   2.0000      -0.648476       -17.6459
  10   2.0000      -0.588624       -16.0173
  11   2.0000      -0.516631       -14.0582
  12   2.0000      -0.503422       -13.6988
  13   2.0000      -0.481308       -13.0971
  14   2.0000      -0.422966       -11.5095
  15   2.0000      -0.374059       -10.1787
  16   0.0000       0.007916         0.2154
  17   0.0000       0.028025         0.7626
  18   0.0000       0.065653         1.7865
  19   0.0000       0.098990         2.6937
  20   0.0000       0.102387         2.7861

MULLIKEN ATOMIC CHARGES
-----------------------
   0 C :    0.307866
   1 C :    0.484522
   2 F :   -0.364917
   3 O :   -0.537095
   4 H :    0.002910
   5 H :    0.057848
   6 H :    0.048866
Sum of atomic charges:   -0.0000000

LOEWDIN ATOMIC CHARGES
----------------------
   0 C :    0.217408
   1 C :   -0.011840
   2 F :   -0.045468
   3 O :   -0.155234
   4 H :   -0.013424
   5 H :    0.005504
   6 H :    0.003054

  Mayer bond orders larger than 0.100000
B(  0-C ,  1-C ) :   1.2566 B(  0-C ,  4-H ) :   0.8945 B(  0-C ,  5-H ) :   0.8346
B(  0-C ,  6-H ) :   0.8186 B(  1-C ,  2-F ) :   0.7593 B(  1-C ,  3-O ) :   1.7566
B(  1-C ,  4-H ) :   0.1460 B(  1-C ,  5-H ) :   0.1187 B(  1-C ,  6-H ) :   0.1405

Dispersion correction           -0.000020901
FINAL SINGLE POINT ENERGY      -252.795848374553

DIPOLE MOMENT
-------------
                                X             Y             Z
Electronic contribution:      2.38793       1.61783      -4.15223
Nuclear contribution   :     -3.58567      -1.71656       4.24175
                        -----------------------------------------
Total Dipole Moment    :     -1.19774      -0.09873       0.08952
                        -----------------------------------------
Magnitude (a.u.)       :      1.20513
Magnitude (Debye)      :      3.06319

Rotational constants in cm-1:     0.365806     0.323297     0.177262
Rotational constants in MHz : 10966.600844  9692.195205  5314.176777

                             ****ORCA TERMINATED NORMALLY****
TOTAL RUN TIME: 0 days 0 hours 0 minutes 8 seconds 260 msec
