                         Program Version 5.0.0 -  RELEASE  -
|  1> !M062X D3Zero RIJCOSX def2-SVPD def2/J TightSCF
|  2> *xyz 0 1
|  3> C          3.90595        2.81985       -3.75292
|  4> C          5.29562        3.13151       -4.10533
|  5> C          5.70862        3.46889       -5.32419
|  6> N          6.90470        3.03895       -5.71708
|  7> N          4.98188        4.29357       -6.09746
|  8> H          5.00055        4.10131       -7.08776
|  9> H          4.08469        4.59690       -5.73965
| 10> H          5.96336        2.52611       -3.64239
| 11> H          7.04716        2.06686       -5.47360
| 12> H          7.19815        3.30799       -6.64523
| 13> H          3.24866        3.48801       -4.26909
| 14> H          3.77188        2.93227       -2.69732
| 15> H          3.68381        1.81198       -4.03533
| 16> *
| 17>
| 18> %MaxCore 64000
| 19>
| 20> %pal nprocs 4
| 21> end
| 22>
| 23> %scf
| 24>   MaxIter 150
| 25> end
| 26>
| 27>
| 28>                          ****END OF INPUT****

CARTESIAN COORDINATES (ANGSTROEM)
---------------------------------
  C      3.905950    2.819850   -3.752920
  C      5.295620    3.131510   -4.105330
  C      5.708620    3.468890   -5.324190
  N      6.904700    3.038950   -5.717080
  N      4.981880    4.293570   -6.097460
  H      5.000550    4.101310   -7.087760
  H      4.084690    4.596900   -5.739650
  H      5.963360    2.526110   -3.642390
  H      7.047160    2.066860   -5.473600
  H      7.198150    3.307990   -6.645230
  H      3.248660    3.488010   -4.269090
  H      3.771880    2.932270   -2.697320
  H      3.683810    1.811980   -4.035330

 Total Charge           Charge          ....    0
 Multiplicity           Mult            ....    1
 Number of Electrons    NEL             ....   40
 Basis Dimension        Dim             ....  164

ORBITAL ENERGIES
----------------

  NO   OCC          E(Eh)            E(eV)
   0   2.0000     -14.764426      -401.7605
   1   2.0000     -14.762508      -401.7083
   2   2.0000     -10.595177      -288.3094
   3   2.0000     -10.519856      -286.2598
   4   2.0000     -10.479426      -285.1597
   5   2.0000      -1.065619       -28.9970
   6   2.0000      -0.969230       -26.3741
   7   2.0000      -0.844575       -22.9820
   8   2.0000      -0.740044       -20.1376
   9   2.0000      -0.658102       -17.9079
  10   2.0000      -0.612001       -16.6534
  11   2.0000      -0.580414       -15.7939
  12   2.0000      -0.547874       -14.9084
  13   2.0000      -0.499231       -13.5848
  14   2.0000      -0.471847       -12.8396
  15   2.0000      -0.448158       -12.1950
  16   2.0000      -0.419847       -11.4246
  17   2.0000      -0.397067       -10.8048
  18   2.0000      -0.340292        -9.2598
  19   2.0000      -0.220838        -6.0093
  20   0.0000       0.033007         0.8982
  21   0.0000       0.062287         1.6949
  22   0.0000       0.073267         1.9937
  23   0.0000       0.085754         2.3335
  24   0.0000       0.104368         2.8400

MULLIKEN ATOMIC CHARGES
-----------------------
   0 C :    0.796811
   1 C :   -0.438832
   2 C :    0.242835
   3 N :   -0.006688
   4 N :    0.000154
   5 H :   -0.066571
   6 H :   -0.023088
   7 H :   -0.182307
   8 H :    0.017880
   9 H :   -0.071957
  10 H :   -0.231432
  11 H :    0.028336
  12 H :   -0.065142
Sum of atomic charges:    0.0000000

LOEWDIN ATOMIC CHARGES
----------------------
   0 C :    0.096132
   1 C :   -0.050643
   2 C :   -0.246839
   3 N :    0.176836
   4 N :    0.187195
   5 H :   -0.009491
   6 H :   -0.011225
   7 H :   -0.055426
   8 H :    0.005468
   9 H :   -0.009390
  10 H :   -0.042691
  11 H :   -0.021689
  12 H :   -0.018237

  Mayer bond orders larger than 0.100000
B(  0-C ,  1-C ) :   1.1341 B(  0-C ,  7-H ) :   0.1899 B(  0-C , 10-H ) :   0.7484
B(  0-C , 11-H ) :   0.6966 B(  0-C , 12-H ) :   0.8426 B(  1-C ,  2-C ) :   2.0077
B(  1-C ,  3-N ) :   0.2874 B(  1-C ,  4-N ) :   0.1231 B(  1-C ,  7-H ) :   0.6638
B(  1-C , 10-H ) :   0.3049 B(  1-C , 11-H ) :   0.2312 B(  2-C ,  3-N ) :   0.9589
B(  2-C ,  4-N ) :   1.0068 B(  2-C ,  7-H ) :   0.3363 B(  3-N ,  8-H ) :   1.0180
B(  3-N ,  9-H ) :   0.9361 B(  4-N ,  5-H ) :   1.0759 B(  4-N ,  6-H ) :   0.9786
B(  5-H ,  6-H ) :  -0.1035 B( 10-H , 11-H ) :   0.1124

Dispersion correction           -0.000164785
FINAL SINGLE POINT ENERGY      -228.326551694674

DIPOLE MOMENT
-------------
                                X             Y             Z
Electronic contribution:      2.50866       1.34057      -1.80074
Nuclear contribution   :     -2.63304      -1.77161       0.70501
                        -----------------------------------------
Total Dipole Moment    :     -0.12438      -0.43104      -1.09573
                        -----------------------------------------
Magnitude (a.u.)       :      1.18401
Magnitude (Debye)      :      3.00953

Rotational constants in cm-1:     0.303572     0.135185     0.098519
Rotational constants in MHz :  9100.846149  4052.756012  2953.539431

                             ****ORCA TERMINATED NORMALLY****
TOTAL RUN TIME: 0 days 0 hours 0 minutes 16 seconds 789 msec
