                         Program Version 5.0.0 -  RELEASE  -
|  1> !M062X D3Zero RIJCOSX def2-SVPD def2/J TightSCF
|  2> *xyz 0 1
|  3> C          3.93993        0.32036       -4.36773
|  4> C          5.10585        0.66802       -5.30546
|  5> O          4.80913        1.15019       -6.41436
|  6> F          6.26737        0.56500       -4.81948
|  7> H          3.01376        0.44480       -4.88890
|  8> H          3.96058        0.96928       -3.51722
|  9> H          4.03331       -0.69517       -4.04388
| 10> *
| 11>
| 12> %MaxCore 64000
| 13>
| 14> %pal nprocs 4
| 15> end
| 16>
| 17> %scf
| 18>   MaxIter 150
| 19> end
| 20>
| 21>
| 22>                          ****END OF INPUT****

CARTESIAN COORDINATES (ANGSTROEM)
---------------------------------
  C      3.939930    0.320360   -4.367730
  C      5.105850    0.668020   -5.305460
  O      4.809130    1.150190   -6.414360
  F      6.267370    0.565000   -4.819480
  H      3.013760    0.444800   -4.888900
  H      3.960580    0.969280   -3.517220
  H      4.033310   -0.695170   -4.043880

 Total Charge           Charge          ....    0
 Multiplicity           Mult            ....    1
 Number of Electrons    NEL             ....   32
 Basis Dimension        Dim             ....  110

ORBITAL ENERGIES
----------------

  NO   OCC          E(Eh)            E(eV)
   0   2.0000     -25.330021      -689.2649
   1   2.0000     -19.654073      -534.8145
   2   2.0000     -10.744300      -292.3673
   3   2.0000     -10.578666      -287.8601
   4   2.0000      -1.443611       -39.2827
   5   2.0000      -1.154406       -31.4130
   6   2.0000      -0.862328       -23.4651
   7   2.0000      -0.754926       -20.5426
   8   2.0000      -0.644977       -17.5507
   9   2.0000      -0.640466       -17.4280
  10   2.0000      -0.590142       -16.0586
  11   2.0000      -0.515616       -14.0306
  12   2.0000      -0.505107       -13.7447
  13   2.0000      -0.484032       -13.1712
  14   2.0000      -0.432809       -11.7773
  15   2.0000      -0.376207       -10.2371
  16   0.0000       0.012927         0.3518
  17   0.0000       0.029154         0.7933
  18   0.0000       0.065902         1.7933
  19   0.0000       0.096383         2.6227
  20   0.0000       0.103411         2.8140

MULLIKEN ATOMIC CHARGES
-----------------------
   0 C :    0.322773
   1 C :    0.484694
   2 O :   -0.489481
   3 F :   -0.405556
   4 H :   -0.018591
   5 H :    0.056047
   6 H :    0.050113
Sum of atomic charges:   -0.0000000

LOEWDIN ATOMIC CHARGES
----------------------
   0 C :    0.217106
   1 C :   -0.012874
   2 O :   -0.142159
   3 F :   -0.057588
   4 H :   -0.000838
   5 H :    0.000685
   6 H :   -0.004332

  Mayer bond orders larger than 0.100000
B(  0-C ,  1-C ) :   1.2372 B(  0-C ,  4-H ) :   0.9100 B(  0-C ,  5-H ) :   0.8283
B(  0-C ,  6-H ) :   0.8184 B(  1-C ,  2-O ) :   1.8127 B(  1-C ,  3-F ) :   0.6964
B(  1-C ,  4-H ) :   0.1952 B(  1-C ,  5-H ) :   0.1115 B(  1-C ,  6-H ) :   0.1216

Dispersion correction           -0.000020868
FINAL SINGLE POINT ENERGY      -252.801783948880

DIPOLE MOMENT
-------------
                                X             Y             Z
Electronic contribution:      4.74875       0.67015      -1.56914
Nuclear contribution   :     -5.09247      -1.11188       2.59376
                        -----------------------------------------
Total Dipole Moment    :     -0.34372      -0.44174       1.02462
                        -----------------------------------------
Magnitude (a.u.)       :      1.16753
Magnitude (Debye)      :      2.96762

Rotational constants in cm-1:     0.367940     0.321271     0.177147
Rotational constants in MHz : 11030.570495  9631.458923  5310.737691

                             ****ORCA TERMINATED NORMALLY****
TOTAL RUN TIME: 0 days 0 hours 0 minutes 8 seconds 153 msec
