                         Program Version 5.0.0 -  RELEASE  -
|  1> !M062X D3Zero RIJCOSX def2-SVPD def2/J TightSCF
|  2> *xyz 0 1
|  3> C          3.90595        2.81985       -3.75292
|  4> N          5.29562        3.13151       -4.10533
|  5> C          5.70862        3.46889       -5.32419
|  6> C          6.90470        3.03895       -5.71708
|  7> N          4.98188        4.29357       -6.09746
|  8> H          5.00055        4.10131       -7.08776
|  9> H          4.08469        4.59690       -5.73965
| 10> H          5.96336        2.52611       -3.64239
| 11> H          7.04716        2.06686       -5.47360
| 12> H          7.19815        3.30799       -6.64523
| 13> H          3.24866        3.48801       -4.26909
| 14> H          3.77188        2.93227       -2.69732
| 15> H          3.68381        1.81198       -4.03533
| 16> *
| 17>
| 18> %MaxCore 64000
| 19>
| 20> %pal nprocs 4
| 21> end
| 22>
| 23> %scf
| 24>   MaxIter 150
| 25> end
| 26>
| 27>
| 28>                          ****END OF INPUT****

CARTESIAN COORDINATES (ANGSTROEM)
---------------------------------
  C      3.905950    2.819850   -3.752920
  N      5.295620    3.131510   -4.105330
  C      5.708620    3.468890   -5.324190
  C      6.904700    3.038950   -5.717080
  N      4.981880    4.293570   -6.097460
  H      5.000550    4.101310   -7.087760
  H      4.084690    4.596900   -5.739650
  H      5.963360    2.526110   -3.642390
  H      7.047160    2.066860   -5.473600
  H      7.198150    3.307990   -6.645230
  H      3.248660    3.488010   -4.269090
  H      3.771880    2.932270   -2.697320
  H      3.683810    1.811980   -4.035330

 Total Charge           Charge          ....    0
 Multiplicity           Mult            ....    1
 Number of Electrons    NEL             ....   40
 Basis Dimension        Dim             ....  164

ORBITAL ENERGIES
----------------

  NO   OCC          E(Eh)            E(eV)
   0   2.0000     -14.766398      -401.8141
   1   2.0000     -14.766099      -401.8060
   2   2.0000     -10.601850      -288.4910
   3   2.0000     -10.585776      -288.0536
   4   2.0000     -10.465852      -284.7903
   5   2.0000      -1.071650       -29.1611
   6   2.0000      -0.980586       -26.6831
   7   2.0000      -0.835570       -22.7370
   8   2.0000      -0.756910       -20.5966
   9   2.0000      -0.674938       -18.3660
  10   2.0000      -0.609073       -16.5737
  11   2.0000      -0.565002       -15.3745
  12   2.0000      -0.551890       -15.0177
  13   2.0000      -0.523712       -14.2509
  14   2.0000      -0.473537       -12.8856
  15   2.0000      -0.459668       -12.5082
  16   2.0000      -0.451131       -12.2759
  17   2.0000      -0.412514       -11.2251
  18   2.0000      -0.324278        -8.8240
  19   2.0000      -0.229239        -6.2379
  20   0.0000       0.028684         0.7805
  21   0.0000       0.062244         1.6937
  22   0.0000       0.070459         1.9173
  23   0.0000       0.087214         2.3732
  24   0.0000       0.103008         2.8030

MULLIKEN ATOMIC CHARGES
-----------------------
   0 C :    1.099856
   1 N :   -0.585840
   2 C :    0.186301
   3 C :    0.508289
   4 N :    0.061086
   5 H :   -0.039069
   6 H :   -0.107388
   7 H :   -0.148100
   8 H :   -0.237492
   9 H :   -0.287215
  10 H :   -0.195271
  11 H :   -0.182737
  12 H :   -0.072420
Sum of atomic charges:    0.0000000

LOEWDIN ATOMIC CHARGES
----------------------
   0 C :    0.216063
   1 N :   -0.049824
   2 C :   -0.247640
   3 C :    0.147769
   4 N :    0.193855
   5 H :    0.006351
   6 H :   -0.023726
   7 H :    0.023335
   8 H :   -0.101671
   9 H :   -0.103091
  10 H :   -0.031717
  11 H :   -0.014587
  12 H :   -0.015118

  Mayer bond orders larger than 0.100000
B(  0-C ,  1-N ) :   0.8927 B(  0-C , 10-H ) :   0.8348 B(  0-C , 11-H ) :   0.8030
B(  0-C , 12-H ) :   0.8095 B(  1-N ,  2-C ) :   1.1334 B(  1-N ,  3-C ) :   0.2016
B(  1-N ,  7-H ) :   1.1425 B(  1-N , 10-H ) :   0.1407 B(  1-N , 11-H ) :   0.1989
B(  1-N , 12-H ) :   0.1068 B(  2-C ,  3-C ) :   1.8755 B(  2-C ,  4-N ) :   0.9742
B(  2-C ,  7-H ) :  -0.1123 B(  2-C ,  8-H ) :   0.2373 B(  2-C ,  9-H ) :   0.3498
B(  3-C ,  4-N ) :   0.2075 B(  3-C ,  8-H ) :   0.8337 B(  3-C ,  9-H ) :   0.5639
B(  4-N ,  5-H ) :   1.0892 B(  4-N ,  6-H ) :   0.9780 B(  5-H ,  6-H ) :  -0.1249
B(  8-H ,  9-H ) :   0.1794

Dispersion correction           -0.000161841
FINAL SINGLE POINT ENERGY      -228.313638825165

DIPOLE MOMENT
-------------
                                X             Y             Z
Electronic contribution:      0.95685       1.44299      -0.29227
Nuclear contribution   :     -2.30713      -1.79036       0.37856
                        -----------------------------------------
Total Dipole Moment    :     -1.35028      -0.34737       0.08629
                        -----------------------------------------
Magnitude (a.u.)       :      1.39692
Magnitude (Debye)      :      3.55068

Rotational constants in cm-1:     0.307513     0.139026     0.101190
Rotational constants in MHz :  9218.994719  4167.905268  3033.592538

                             ****ORCA TERMINATED NORMALLY****
TOTAL RUN TIME: 0 days 0 hours 0 minutes 17 seconds 941 msec
