                         Program Version 5.0.0 -  RELEASE  -
|  1> !M062X D3Zero RIJCOSX def2-SVPD def2/J TightSCF
|  2> *xyz 0 1
|  3> C          3.90595        2.81985       -3.75292
|  4> N          5.29562        3.13151       -4.10533
|  5> C          5.70862        3.46889       -5.32419
|  6> N          6.90470        3.03895       -5.71708
|  7> C          4.98188        4.29357       -6.09746
|  8> H          5.00055        4.10131       -7.08776
|  9> H          4.08469        4.59690       -5.73965
| 10> H          5.96336        2.52611       -3.64239
| 11> H          7.04716        2.06686       -5.47360
| 12> H          7.19815        3.30799       -6.64523
| 13> H          3.24866        3.48801       -4.26909
| 14> H          3.77188        2.93227       -2.69732
| 15> H          3.68381        1.81198       -4.03533
| 16> *
| 17>
| 18> %MaxCore 64000
| 19>
| 20> %pal nprocs 4
| 21> end
| 22>
| 23> %scf
| 24>   MaxIter 150
| 25> end
| 26>
| 27>
| 28>                          ****END OF INPUT****

CARTESIAN COORDINATES (ANGSTROEM)
---------------------------------
  C      3.905950    2.819850   -3.752920
  N      5.295620    3.131510   -4.105330
  C      5.708620    3.468890   -5.324190
  N      6.904700    3.038950   -5.717080
  C      4.981880    4.293570   -6.097460
  H      5.000550    4.101310   -7.087760
  H      4.084690    4.596900   -5.739650
  H      5.963360    2.526110   -3.642390
  H      7.047160    2.066860   -5.473600
  H      7.198150    3.307990   -6.645230
  H      3.248660    3.488010   -4.269090
  H      3.771880    2.932270   -2.697320
  H      3.683810    1.811980   -4.035330

 Total Charge           Charge          ....    0
 Multiplicity           Mult            ....    1
 Number of Electrons    NEL             ....   40
 Basis Dimension        Dim             ....  164

ORBITAL ENERGIES
----------------

  NO   OCC          E(Eh)            E(eV)
   0   2.0000     -14.767551      -401.8455
   1   2.0000     -14.765801      -401.7979
   2   2.0000     -10.601059      -288.4695
   3   2.0000     -10.579543      -287.8840
   4   2.0000     -10.470377      -284.9134
   5   2.0000      -1.076826       -29.3019
   6   2.0000      -0.982385       -26.7320
   7   2.0000      -0.810967       -22.0675
   8   2.0000      -0.782493       -21.2927
   9   2.0000      -0.644106       -17.5270
  10   2.0000      -0.616253       -16.7691
  11   2.0000      -0.596649       -16.2356
  12   2.0000      -0.526188       -14.3183
  13   2.0000      -0.516968       -14.0674
  14   2.0000      -0.485517       -13.2116
  15   2.0000      -0.454400       -12.3649
  16   2.0000      -0.443021       -12.0552
  17   2.0000      -0.415902       -11.3173
  18   2.0000      -0.325398        -8.8545
  19   2.0000      -0.229423        -6.2429
  20   0.0000       0.031726         0.8633
  21   0.0000       0.061038         1.6609
  22   0.0000       0.073114         1.9895
  23   0.0000       0.084913         2.3106
  24   0.0000       0.103270         2.8101

MULLIKEN ATOMIC CHARGES
-----------------------
   0 C :    1.156334
   1 N :   -0.472749
   2 C :    0.088771
   3 N :   -0.063144
   4 C :    0.492540
   5 H :   -0.314738
   6 H :   -0.186130
   7 H :   -0.264200
   8 H :   -0.009888
   9 H :    0.034598
  10 H :   -0.182404
  11 H :   -0.173878
  12 H :   -0.105111
Sum of atomic charges:    0.0000000

LOEWDIN ATOMIC CHARGES
----------------------
   0 C :    0.225096
   1 N :   -0.050893
   2 C :   -0.259360
   3 N :    0.179517
   4 C :    0.167771
   5 H :   -0.103323
   6 H :   -0.115067
   7 H :    0.012370
   8 H :   -0.005764
   9 H :    0.005070
  10 H :   -0.026018
  11 H :   -0.014616
  12 H :   -0.014783

  Mayer bond orders larger than 0.100000
B(  0-C ,  1-N ) :   0.8688 B(  0-C , 10-H ) :   0.8390 B(  0-C , 11-H ) :   0.7898
B(  0-C , 12-H ) :   0.7988 B(  1-N ,  2-C ) :   1.1270 B(  1-N ,  3-N ) :   0.1320
B(  1-N ,  4-C ) :   0.1900 B(  1-N ,  7-H ) :   1.1143 B(  1-N , 10-H ) :   0.1238
B(  1-N , 11-H ) :   0.1883 B(  1-N , 12-H ) :   0.1415 B(  2-C ,  3-N ) :   1.0097
B(  2-C ,  4-C ) :   1.9506 B(  2-C ,  5-H ) :   0.2103 B(  2-C ,  6-H ) :   0.2904
B(  3-N ,  4-C ) :   0.1279 B(  3-N ,  8-H ) :   0.9693 B(  3-N ,  9-H ) :   0.9590
B(  4-C ,  5-H ) :   0.8233 B(  4-C ,  6-H ) :   0.5259 B(  5-H ,  6-H ) :   0.2556

Dispersion correction           -0.000162898
FINAL SINGLE POINT ENERGY      -228.317264154755

DIPOLE MOMENT
-------------
                                X             Y             Z
Electronic contribution:      2.77675       0.27999      -0.00481
Nuclear contribution   :     -2.69659      -1.53624       0.30152
                        -----------------------------------------
Total Dipole Moment    :      0.08016      -1.25626       0.29671
                        -----------------------------------------
Magnitude (a.u.)       :      1.29331
Magnitude (Debye)      :      3.28733

Rotational constants in cm-1:     0.320409     0.134796     0.100241
Rotational constants in MHz :  9605.632807  4041.079317  3005.150506

                             ****ORCA TERMINATED NORMALLY****
TOTAL RUN TIME: 0 days 0 hours 0 minutes 18 seconds 307 msec
