                         Program Version 5.0.0 -  RELEASE  -
|  1> !M062X D3Zero RIJCOSX def2-SVPD def2/J TightSCF xyzfile
|  2>
|  3> *xyzfile 0 1 D2.xyz
|  4>
|  5> %MaxCore 64000
|  6>
|  7> %pal nprocs 4
|  8> end
|  9>
| 10> %scf
| 11>   MaxIter 150
| 12> end
| 13>
| 14>
| 15>                          ****END OF INPUT****

CARTESIAN COORDINATES (ANGSTROEM)
---------------------------------
  C      3.905947    2.819855   -3.752920
  N      5.295615    3.131515   -4.105334
  C      3.803511    1.374716   -3.260807
  C      3.939934    0.320362   -4.367729
  H      4.105043   -0.655085   -3.907733
  H      3.022801    0.280517   -4.957117
  C      5.105846    0.668022   -5.305463
  C      5.708619    3.468885   -5.324190
  C      6.904696    3.038954   -5.717084
  N      4.981884    4.293570   -6.097457
  H      5.000546    4.101311   -7.087761
  H      4.084693    4.596899   -5.739652
  H      5.963358    2.526112   -3.642391
  H      7.047164    2.066861   -5.473604
  H      7.198145    3.307994   -6.645225
  H      3.282025    2.949187   -4.640259
  H      3.565254    3.514574   -2.982523
  H      4.574833    1.215157   -2.500443
  H      2.843514    1.260845   -2.751465
  F      4.809132    1.150187   -6.414361
  O      6.267366    0.564999   -4.819481

 Total Charge           Charge          ....    0
 Multiplicity           Mult            ....    1
 Number of Electrons    NEL             ....   78
 Basis Dimension        Dim             ....  294

ORBITAL ENERGIES
----------------

  NO   OCC          E(Eh)            E(eV)
   0   2.0000     -25.339399      -689.5201
   1   2.0000     -19.651428      -534.7425
   2   2.0000     -14.764069      -401.7507
   3   2.0000     -14.761786      -401.6886
   4   2.0000     -10.748385      -292.4784
   5   2.0000     -10.601404      -288.4789
   6   2.0000     -10.592535      -288.2375
   7   2.0000     -10.591840      -288.2186
   8   2.0000     -10.583342      -287.9874
   9   2.0000     -10.447800      -284.2991
  10   2.0000      -1.459560       -39.7166
  11   2.0000      -1.150097       -31.2957
  12   2.0000      -1.071204       -29.1489
  13   2.0000      -0.983804       -26.7707
  14   2.0000      -0.912804       -24.8387
  15   2.0000      -0.834200       -22.6997
  16   2.0000      -0.790693       -21.5158
  17   2.0000      -0.758579       -20.6420
  18   2.0000      -0.705205       -19.1896
  19   2.0000      -0.674958       -18.3666
  20   2.0000      -0.658636       -17.9224
  21   2.0000      -0.641361       -17.4523
  22   2.0000      -0.616458       -16.7747
  23   2.0000      -0.590886       -16.0788
  24   2.0000      -0.571634       -15.5549
  25   2.0000      -0.558459       -15.1964
  26   2.0000      -0.541014       -14.7217
  27   2.0000      -0.516517       -14.0551
  28   2.0000      -0.489389       -13.3170
  29   2.0000      -0.477355       -12.9895
  30   2.0000      -0.468894       -12.7593
  31   2.0000      -0.460129       -12.5208
  32   2.0000      -0.434880       -11.8337
  33   2.0000      -0.431045       -11.7293
  34   2.0000      -0.413950       -11.2642
  35   2.0000      -0.405461       -11.0332
  36   2.0000      -0.358928        -9.7669
  37   2.0000      -0.322858        -8.7854
  38   2.0000      -0.219135        -5.9630
  39   0.0000      -0.001362        -0.0371
  40   0.0000       0.022617         0.6154
  41   0.0000       0.043982         1.1968
  42   0.0000       0.047985         1.3057
  43   0.0000       0.061909         1.6846

MULLIKEN ATOMIC CHARGES
-----------------------
   0 C :    0.772461
   1 N :   -0.371585
   2 C :    0.105271
   3 C :    0.229451
   4 H :   -0.067070
   5 H :    0.019354
   6 C :    0.815273
   7 C :    0.029493
   8 C :    0.849370
   9 N :   -0.008578
  10 H :   -0.002902
  11 H :   -0.012901
  12 H :   -0.095881
  13 H :   -0.519243
  14 H :   -0.220018
  15 H :   -0.007671
  16 H :   -0.345962
  17 H :    0.061699
  18 H :   -0.162406
  19 F :   -0.416211
  20 O :   -0.651944
Sum of atomic charges:    0.0000000

LOEWDIN ATOMIC CHARGES
----------------------
   0 C :    0.061017
   1 N :    0.000432
   2 C :   -0.004518
   3 C :    0.067709
   4 H :    0.039405
   5 H :    0.027675
   6 C :    0.026349
   7 C :   -0.257663
   8 C :    0.174794
   9 N :    0.199048
  10 H :    0.005154
  11 H :   -0.018817
  12 H :    0.013721
  13 H :   -0.153360
  14 H :   -0.089386
  15 H :    0.016037
  16 H :    0.016840
  17 H :    0.033665
  18 H :    0.026043
  19 F :   -0.028393
  20 O :   -0.155753

  Mayer bond orders larger than 0.100000
B(  0-C ,  1-N ) :   0.8448 B(  0-C ,  2-C ) :   1.1600 B(  0-C , 12-H ) :  -0.1011
B(  0-C , 15-H ) :   0.7089 B(  0-C , 16-H ) :   0.9058 B(  0-C , 18-H ) :   0.1701
B(  1-N ,  2-C ) :   0.1234 B(  1-N ,  7-C ) :   1.0998 B(  1-N ,  8-C ) :   0.1817
B(  1-N , 12-H ) :   1.0569 B(  1-N , 15-H ) :   0.1486 B(  2-C ,  3-C ) :   1.2071
B(  2-C ,  4-H ) :   0.1680 B(  2-C ,  5-H ) :   0.1190 B(  2-C , 17-H ) :   0.8297
B(  2-C , 18-H ) :   0.9575 B(  3-C ,  4-H ) :   0.8304 B(  3-C ,  5-H ) :   0.8726
B(  3-C ,  6-C ) :   1.0928 B(  4-H ,  6-C ) :   0.1199 B(  5-H ,  6-C ) :   0.1247
B(  6-C , 19-F ) :   0.6023 B(  6-C , 20-O ) :   1.6542 B(  7-C ,  8-C ) :   1.9214
B(  7-C ,  9-N ) :   0.8548 B(  7-C , 11-H ) :   0.1607 B(  7-C , 12-H ) :  -0.1542
B(  7-C , 13-H ) :   0.1934 B(  7-C , 14-H ) :   0.4965 B(  8-C ,  9-N ) :   0.2695
B(  8-C , 13-H ) :   0.5293 B(  8-C , 14-H ) :   0.2827 B(  9-N , 10-H ) :   1.0500
B(  9-N , 11-H ) :   0.8521 B( 10-H , 11-H ) :  -0.1341 B( 13-H , 14-H ) :   0.1480
B( 13-H , 20-O ) :   0.1883 B( 15-H , 16-H ) :  -0.1612 B( 17-H , 18-H ) :  -0.1161

Dispersion correction           -0.000700124
FINAL SINGLE POINT ENERGY      -519.180744691485

DIPOLE MOMENT
-------------
                                X             Y             Z
Electronic contribution:      2.05934      -3.78168      -5.15464
Nuclear contribution   :     -4.40347       3.21582       5.36161
                        -----------------------------------------
Total Dipole Moment    :     -2.34414      -0.56587       0.20697
                        -----------------------------------------
Magnitude (a.u.)       :      2.42033
Magnitude (Debye)      :      6.15200

Rotational constants in cm-1:     0.061226     0.043199     0.033926
Rotational constants in MHz :  1835.503528  1295.087558  1017.061512

                             ****ORCA TERMINATED NORMALLY****
TOTAL RUN TIME: 0 days 0 hours 1 minutes 19 seconds 567 msec
