                         Program Version 5.0.0 -  RELEASE  -
|  1> !M062X D3Zero RIJCOSX def2-SVPD def2/J TightSCF xyzfile
|  2>
|  3> *xyzfile 0 1 D3.xyz
|  4>
|  5> %MaxCore 64000
|  6>
|  7> %pal nprocs 4
|  8> end
|  9>
| 10> %scf
| 11>   MaxIter 150
| 12> end
| 13>
| 14>
| 15>                          ****END OF INPUT****

CARTESIAN COORDINATES (ANGSTROEM)
---------------------------------
  C      3.905947    2.819855   -3.752920
  N      5.295615    3.131515   -4.105334
  C      3.803511    1.374716   -3.260807
  C      3.939934    0.320362   -4.367729
  H      4.105043   -0.655085   -3.907733
  H      3.022801    0.280517   -4.957117
  C      5.105846    0.668022   -5.305463
  C      5.708619    3.468885   -5.324190
  N      6.904696    3.038954   -5.717084
  C      4.981884    4.293570   -6.097457
  H      5.000546    4.101311   -7.087761
  H      4.084693    4.596899   -5.739652
  H      5.963358    2.526112   -3.642391
  H      7.047164    2.066861   -5.473604
  H      7.198145    3.307994   -6.645225
  H      3.282025    2.949187   -4.640259
  H      3.565254    3.514574   -2.982523
  H      4.574833    1.215157   -2.500443
  H      2.843514    1.260845   -2.751465
  F      4.809132    1.150187   -6.414361
  O      6.267366    0.564999   -4.819481

 Total Charge           Charge          ....    0
 Multiplicity           Mult            ....    1
 Number of Electrons    NEL             ....   78
 Basis Dimension        Dim             ....  294

ORBITAL ENERGIES
----------------

  NO   OCC          E(Eh)            E(eV)
   0   2.0000     -25.350222      -689.8146
   1   2.0000     -19.669316      -535.2293
   2   2.0000     -14.766053      -401.8047
   3   2.0000     -14.743331      -401.1864
   4   2.0000     -10.764101      -292.9061
   5   2.0000     -10.598036      -288.3872
   6   2.0000     -10.597690      -288.3778
   7   2.0000     -10.594762      -288.2981
   8   2.0000     -10.584509      -288.0191
   9   2.0000     -10.464674      -284.7582
  10   2.0000      -1.470254       -40.0076
  11   2.0000      -1.168393       -31.7936
  12   2.0000      -1.072695       -29.1895
  13   2.0000      -0.982335       -26.7307
  14   2.0000      -0.911803       -24.8114
  15   2.0000      -0.829263       -22.5654
  16   2.0000      -0.792662       -21.5694
  17   2.0000      -0.772804       -21.0291
  18   2.0000      -0.719330       -19.5740
  19   2.0000      -0.669563       -18.2197
  20   2.0000      -0.651888       -17.7388
  21   2.0000      -0.646293       -17.5865
  22   2.0000      -0.625329       -17.0161
  23   2.0000      -0.591299       -16.0901
  24   2.0000      -0.581412       -15.8210
  25   2.0000      -0.557640       -15.1741
  26   2.0000      -0.547888       -14.9088
  27   2.0000      -0.510834       -13.9005
  28   2.0000      -0.501047       -13.6342
  29   2.0000      -0.480038       -13.0625
  30   2.0000      -0.462934       -12.5971
  31   2.0000      -0.459993       -12.5170
  32   2.0000      -0.444149       -12.0859
  33   2.0000      -0.437396       -11.9022
  34   2.0000      -0.423710       -11.5297
  35   2.0000      -0.401230       -10.9180
  36   2.0000      -0.389833       -10.6079
  37   2.0000      -0.316833        -8.6215
  38   2.0000      -0.224750        -6.1158
  39   0.0000      -0.013901        -0.3783
  40   0.0000       0.023903         0.6504
  41   0.0000       0.047075         1.2810
  42   0.0000       0.055759         1.5173
  43   0.0000       0.059393         1.6162

MULLIKEN ATOMIC CHARGES
-----------------------
   0 C :    0.787114
   1 N :   -0.308989
   2 C :    0.163548
   3 C :    0.267575
   4 H :   -0.069218
   5 H :    0.018058
   6 C :    0.837073
   7 C :    0.086122
   8 N :    0.126731
   9 C :    0.447994
  10 H :   -0.395492
  11 H :   -0.162898
  12 H :   -0.205664
  13 H :   -0.135897
  14 H :    0.061797
  15 H :    0.022122
  16 H :   -0.422547
  17 H :    0.048838
  18 H :   -0.155532
  19 F :   -0.400225
  20 O :   -0.610509
Sum of atomic charges:   -0.0000000

LOEWDIN ATOMIC CHARGES
----------------------
   0 C :    0.074228
   1 N :    0.000964
   2 C :   -0.003149
   3 C :    0.070354
   4 H :    0.040196
   5 H :    0.030673
   6 C :    0.032628
   7 C :   -0.267771
   8 N :    0.212423
   9 C :    0.163563
  10 H :   -0.102116
  11 H :   -0.112179
  12 H :    0.005752
  13 H :   -0.081317
  14 H :    0.012642
  15 H :    0.021168
  16 H :    0.021792
  17 H :    0.031576
  18 H :    0.027991
  19 F :   -0.019595
  20 O :   -0.159823

  Mayer bond orders larger than 0.100000
B(  0-C ,  1-N ) :   0.8758 B(  0-C ,  2-C ) :   1.1287 B(  0-C , 15-H ) :   0.7430
B(  0-C , 16-H ) :   0.9443 B(  0-C , 18-H ) :   0.1787 B(  1-N ,  2-C ) :   0.1412
B(  1-N ,  7-C ) :   1.1793 B(  1-N ,  9-C ) :   0.2148 B(  1-N , 12-H ) :   0.9971
B(  1-N , 15-H ) :   0.1599 B(  2-C ,  3-C ) :   1.1938 B(  2-C ,  4-H ) :   0.1699
B(  2-C ,  5-H ) :   0.1172 B(  2-C , 17-H ) :   0.8296 B(  2-C , 18-H ) :   0.9410
B(  3-C ,  4-H ) :   0.8239 B(  3-C ,  5-H ) :   0.8606 B(  3-C ,  6-C ) :   1.1012
B(  4-H ,  6-C ) :   0.1265 B(  5-H ,  6-C ) :   0.1461 B(  6-C , 19-F ) :   0.6329
B(  6-C , 20-O ) :   1.5943 B(  7-C ,  8-N ) :   0.9771 B(  7-C ,  9-C ) :   2.0012
B(  7-C , 10-H ) :   0.2196 B(  7-C , 11-H ) :   0.3560 B(  7-C , 12-H ) :  -0.1641
B(  7-C , 13-H ) :   0.1238 B(  7-C , 14-H ) :   0.1081 B(  8-N ,  9-C ) :   0.1150
B(  8-N , 13-H ) :   0.8549 B(  8-N , 14-H ) :   0.8926 B(  9-C , 10-H ) :   0.8136
B(  9-C , 11-H ) :   0.5396 B( 10-H , 11-H ) :   0.1451 B( 15-H , 16-H ) :  -0.1628
B( 17-H , 18-H ) :  -0.1157

Dispersion correction           -0.000698077
FINAL SINGLE POINT ENERGY      -519.199663708317

DIPOLE MOMENT
-------------
                                X             Y             Z
Electronic contribution:      3.54272      -4.85553      -4.86004
Nuclear contribution   :     -4.64021       3.37029       5.31478
                        -----------------------------------------
Total Dipole Moment    :     -1.09749      -1.48524       0.45474
                        -----------------------------------------
Magnitude (a.u.)       :      1.90190
Magnitude (Debye)      :      4.83424

Rotational constants in cm-1:     0.061077     0.043622     0.034103
Rotational constants in MHz :  1831.041375  1307.759852  1022.388536

                             ****ORCA TERMINATED NORMALLY****
TOTAL RUN TIME: 0 days 0 hours 1 minutes 19 seconds 871 msec
