                         Program Version 5.0.0 -  RELEASE  -
|  1> !TPSS D3BJ RIJCOSX def2-SVPD def2/J TightSCF
|  2> *xyz -1 1
|  3> C          2.49556        1.81615       -2.13636
|  4> C          1.87218        0.42790       -2.07750
|  5> H          2.61427       -0.36583       -2.19889
|  6> H          1.38995        0.27309       -1.11236
|  7> S          0.57902        0.14047       -3.29794
|  8> O          0.22886       -1.24687       -3.12787
|  9> O         -0.43927        1.11897       -3.01455
| 10> O          1.24788        0.40347       -4.59565
| 11> H          2.96535        1.95613       -3.08747
| 12> H          3.22581        1.91242       -1.36024
| 13> H          1.73350        2.55528       -2.00274
| 14> *
| 15>
| 16> %MaxCore 64000
| 17>
| 18> %pal nprocs 4
| 19> end
| 20>
| 21> %scf
| 22>   MaxIter 150
| 23> end
| 24>
| 25>
| 26>                          ****END OF INPUT****

CARTESIAN COORDINATES (ANGSTROEM)
---------------------------------
  C      2.495560    1.816150   -2.136360
  C      1.872180    0.427900   -2.077500
  H      2.614270   -0.365830   -2.198890
  H      1.389950    0.273090   -1.112360
  S      0.579020    0.140470   -3.297940
  O      0.228860   -1.246870   -3.127870
  O     -0.439270    1.118970   -3.014550
  O      1.247880    0.403470   -4.595650
  H      2.965350    1.956130   -3.087470
  H      3.225810    1.912420   -1.360240
  H      1.733500    2.555280   -2.002740

 Total Charge           Charge          ....   -1
 Multiplicity           Mult            ....    1
 Number of Electrons    NEL             ....   58
 Basis Dimension        Dim             ....  176

ORBITAL ENERGIES
----------------

  NO   OCC          E(Eh)            E(eV)
   0   2.0000     -88.364841     -2404.5296
   1   2.0000     -18.680763      -508.3294
   2   2.0000     -18.680612      -508.3253
   3   2.0000     -18.666844      -507.9506
   4   2.0000      -9.858453      -268.2622
   5   2.0000      -9.856198      -268.2008
   6   2.0000      -7.724969      -210.2071
   7   2.0000      -5.711041      -155.4053
   8   2.0000      -5.710818      -155.3993
   9   2.0000      -5.709962      -155.3760
  10   2.0000      -0.855377       -23.2760
  11   2.0000      -0.725430       -19.7399
  12   2.0000      -0.699281       -19.0284
  13   2.0000      -0.568144       -15.4600
  14   2.0000      -0.448767       -12.2116
  15   2.0000      -0.329523        -8.9668
  16   2.0000      -0.274323        -7.4647
  17   2.0000      -0.269322        -7.3286
  18   2.0000      -0.232036        -6.3140
  19   2.0000      -0.217843        -5.9278
  20   2.0000      -0.212358        -5.7786
  21   2.0000      -0.190416        -5.1815
  22   2.0000      -0.174799        -4.7565
  23   2.0000      -0.107073        -2.9136
  24   2.0000      -0.106526        -2.8987
  25   2.0000      -0.075534        -2.0554
  26   2.0000      -0.067883        -1.8472
  27   2.0000      -0.057871        -1.5748
  28   2.0000      -0.022723        -0.6183
  29   0.0000       0.134620         3.6632
  30   0.0000       0.160829         4.3764
  31   0.0000       0.169107         4.6016
  32   0.0000       0.173580         4.7233
  33   0.0000       0.195859         5.3296

MULLIKEN ATOMIC CHARGES
-----------------------
   0 C :    0.683689
   1 C :   -0.372918
   2 H :   -0.052222
   3 H :   -0.017091
   4 S :    1.270927
   5 O :   -0.774893
   6 O :   -0.773586
   7 O :   -0.816066
   8 H :   -0.035993
   9 H :   -0.081601
  10 H :   -0.030244
Sum of atomic charges:   -1.0000000

LOEWDIN ATOMIC CHARGES
----------------------
   0 C :    0.107408
   1 C :   -0.135582
   2 H :   -0.001104
   3 H :   -0.006035
   4 S :    0.836354
   5 O :   -0.565809
   6 O :   -0.562528
   7 O :   -0.584159
   8 H :   -0.025525
   9 H :   -0.039531
  10 H :   -0.023487

  Mayer bond orders larger than 0.100000
B(  0-C ,  1-C ) :   1.2743 B(  0-C ,  8-H ) :   0.8423 B(  0-C ,  9-H ) :   0.7647
B(  0-C , 10-H ) :   0.8255 B(  1-C ,  2-H ) :   1.0177 B(  1-C ,  3-H ) :   0.9828
B(  1-C ,  4-S ) :   0.9001 B(  1-C ,  8-H ) :   0.1895 B(  1-C ,  9-H ) :   0.2088
B(  1-C , 10-H ) :   0.1965 B(  4-S ,  5-O ) :   1.3544 B(  4-S ,  6-O ) :   1.3275
B(  4-S ,  7-O ) :   1.2996

Dispersion correction           -0.012152819
FINAL SINGLE POINT ENERGY      -702.850701921693

DIPOLE MOMENT
-------------
                                X             Y             Z
Electronic contribution:     -5.69207      -3.59130      -4.09882
Nuclear contribution   :      6.89220       4.11756       5.35566
                        -----------------------------------------
Total Dipole Moment    :      1.20013       0.52626       1.25684
                        -----------------------------------------
Magnitude (a.u.)       :      1.81573
Magnitude (Debye)      :      4.61523

Rotational constants in cm-1:     0.162183     0.084017     0.082390
Rotational constants in MHz :  4862.117324  2518.774315  2469.980309

                             ****ORCA TERMINATED NORMALLY****
TOTAL RUN TIME: 0 days 0 hours 0 minutes 10 seconds 401 msec
