                         Program Version 5.0.0 -  RELEASE  -
|  1> !TPSS D3BJ RIJCOSX def2-SVPD def2/J TightSCF
|  2> *xyz 1 1
|  3> C          3.38093        2.08304       -3.35013
|  4> N          4.53592        1.18245       -3.42852
|  5> C          2.49556        1.81615       -2.13636
|  6> C          4.67196        0.12227       -4.22060
|  7> N          5.86602       -0.50785       -4.22428
|  8> N          3.69888       -0.31284       -4.98699
|  9> H          2.73141       -0.05009       -4.84900
| 10> H          3.89005       -1.05517       -5.64373
| 11> H          5.25193        1.30346       -2.72101
| 12> H          6.69516       -0.06232       -3.85160
| 13> H          5.97538       -1.39688       -4.69141
| 14> H          2.80646        1.98651       -4.26848
| 15> H          3.77871        3.09828       -3.30738
| 16> H          2.11090        0.81901       -2.18783
| 17> H          1.68276        2.51198       -2.12786
| 18> H          3.07216        1.93031       -1.24227
| 19> *
| 20>
| 21> %MaxCore 64000
| 22>
| 23> %pal nprocs 4
| 24> end
| 25>
| 26> %scf
| 27>   MaxIter 150
| 28> end
| 29>
| 30>
| 31>                          ****END OF INPUT****

CARTESIAN COORDINATES (ANGSTROEM)
---------------------------------
  C      3.380930    2.083040   -3.350130
  N      4.535920    1.182450   -3.428520
  C      2.495560    1.816150   -2.136360
  C      4.671960    0.122270   -4.220600
  N      5.866020   -0.507850   -4.224280
  N      3.698880   -0.312840   -4.986990
  H      2.731410   -0.050090   -4.849000
  H      3.890050   -1.055170   -5.643730
  H      5.251930    1.303460   -2.721010
  H      6.695160   -0.062320   -3.851600
  H      5.975380   -1.396880   -4.691410
  H      2.806460    1.986510   -4.268480
  H      3.778710    3.098280   -3.307380
  H      2.110900    0.819010   -2.187830
  H      1.682760    2.511980   -2.127860
  H      3.072160    1.930310   -1.242270

 Total Charge           Charge          ....    1
 Multiplicity           Mult            ....    1
 Number of Electrons    NEL             ....   48
 Basis Dimension        Dim             ....  200

ORBITAL ENERGIES
----------------

  NO   OCC          E(Eh)            E(eV)
   0   2.0000     -14.343622      -390.3098
   1   2.0000     -14.337594      -390.1458
   2   2.0000     -14.336028      -390.1032
   3   2.0000     -10.324260      -280.9374
   4   2.0000     -10.207517      -277.7607
   5   2.0000     -10.138999      -275.8962
   6   2.0000      -1.136652       -30.9299
   7   2.0000      -1.034034       -28.1375
   8   2.0000      -1.019792       -27.7499
   9   2.0000      -0.868859       -23.6429
  10   2.0000      -0.787360       -21.4252
  11   2.0000      -0.750461       -20.4211
  12   2.0000      -0.738358       -20.0918
  13   2.0000      -0.694887       -18.9088
  14   2.0000      -0.652860       -17.7652
  15   2.0000      -0.649235       -17.6666
  16   2.0000      -0.600765       -16.3476
  17   2.0000      -0.586015       -15.9463
  18   2.0000      -0.563971       -15.3464
  19   2.0000      -0.518293       -14.1035
  20   2.0000      -0.493891       -13.4395
  21   2.0000      -0.479423       -13.0458
  22   2.0000      -0.438850       -11.9417
  23   2.0000      -0.411222       -11.1899
  24   0.0000      -0.194416        -5.2903
  25   0.0000      -0.165465        -4.5025
  26   0.0000      -0.133648        -3.6367
  27   0.0000      -0.124678        -3.3927
  28   0.0000      -0.107954        -2.9376

MULLIKEN ATOMIC CHARGES
-----------------------
   0 C :    0.327871
   1 N :   -0.478014
   2 C :    0.582835
   3 C :    1.530605
   4 N :   -0.124590
   5 N :   -0.069170
   6 H :   -0.056144
   7 H :   -0.066839
   8 H :   -0.247605
   9 H :   -0.060633
  10 H :   -0.015366
  11 H :   -0.098138
  12 H :   -0.183859
  13 H :   -0.065431
  14 H :    0.048790
  15 H :   -0.024311
Sum of atomic charges:    1.0000000

LOEWDIN ATOMIC CHARGES
----------------------
   0 C :    0.056228
   1 N :    0.040960
   2 C :    0.169066
   3 C :   -0.036151
   4 N :    0.260490
   5 N :    0.279557
   6 H :    0.032858
   7 H :    0.041173
   8 H :    0.058934
   9 H :    0.035275
  10 H :    0.032061
  11 H :    0.017834
  12 H :    0.037036
  13 H :   -0.016251
  14 H :    0.000325
  15 H :   -0.009395

  Mayer bond orders larger than 0.100000
B(  0-C ,  1-N ) :   0.8943 B(  0-C ,  2-C ) :   1.2671 B(  0-C ,  8-H ) :  -0.2083
B(  0-C , 11-H ) :   0.8855 B(  0-C , 12-H ) :   0.9171 B(  0-C , 13-H ) :   0.1875
B(  0-C , 14-H ) :   0.1633 B(  0-C , 15-H ) :   0.1964 B(  1-N ,  3-C ) :   0.9375
B(  1-N ,  4-N ) :   0.2761 B(  1-N ,  5-N ) :   0.2640 B(  1-N ,  8-H ) :   1.3669
B(  1-N , 11-H ) :   0.1388 B(  1-N , 12-H ) :   0.1619 B(  2-C , 13-H ) :   0.8466
B(  2-C , 14-H ) :   0.8048 B(  2-C , 15-H ) :   0.8240 B(  3-C ,  4-N ) :   0.7418
B(  3-C ,  5-N ) :   0.8968 B(  3-C ,  6-H ) :  -0.1787 B(  3-C ,  7-H ) :  -0.1537
B(  3-C ,  8-H ) :  -0.2608 B(  3-C ,  9-H ) :  -0.1814 B(  3-C , 10-H ) :  -0.1078
B(  4-N ,  5-N ) :   0.2012 B(  4-N ,  9-H ) :   1.2092 B(  4-N , 10-H ) :   1.1761
B(  5-N ,  6-H ) :   1.1783 B(  5-N ,  7-H ) :   1.2382 B(  6-H ,  7-H ) :  -0.1882
B(  9-H , 10-H ) :  -0.1666

Dispersion correction           -0.014912475
FINAL SINGLE POINT ENERGY      -284.269118721197

DIPOLE MOMENT
-------------
                                X             Y             Z
Electronic contribution:      3.55608      -2.64103      -2.81401
Nuclear contribution   :     -2.93277       1.85779       2.25966
                        -----------------------------------------
Total Dipole Moment    :      0.62332      -0.78324      -0.55435
                        -----------------------------------------
Magnitude (a.u.)       :      1.14424
Magnitude (Debye)      :      2.90843

Rotational constants in cm-1:     0.245511     0.068839     0.059711
Rotational constants in MHz :  7360.233487  2063.743353  1790.088408

                             ****ORCA TERMINATED NORMALLY****
TOTAL RUN TIME: 0 days 0 hours 0 minutes 11 seconds 702 msec
