                         Program Version 5.0.0 -  RELEASE  -
|  1> !TPSS D3BJ RIJCOSX def2-SVPD def2/J TightSCF
|  2> *xyz 0 1
|  3> C          2.49556        1.81615       -2.13636
|  4> C          1.87218        0.42790       -2.07750
|  5> H          2.61427       -0.36583       -2.19889
|  6> H          1.38995        0.27309       -1.11236
|  7> S          0.57902        0.14047       -3.29794
|  8> F          0.22886       -1.24687       -3.12787
|  9> O         -0.43927        1.11897       -3.01455
| 10> O          1.24788        0.40347       -4.59565
| 11> H          2.96535        1.95613       -3.08747
| 12> H          3.22581        1.91242       -1.36024
| 13> H          1.73350        2.55528       -2.00274
| 14> *
| 15>
| 16> %MaxCore 64000
| 17>
| 18> %pal nprocs 4
| 19> end
| 20>
| 21> %scf
| 22>   MaxIter 150
| 23> end
| 24>
| 25>
| 26>                          ****END OF INPUT****

CARTESIAN COORDINATES (ANGSTROEM)
---------------------------------
  C      2.495560    1.816150   -2.136360
  C      1.872180    0.427900   -2.077500
  H      2.614270   -0.365830   -2.198890
  H      1.389950    0.273090   -1.112360
  S      0.579020    0.140470   -3.297940
  F      0.228860   -1.246870   -3.127870
  O     -0.439270    1.118970   -3.014550
  O      1.247880    0.403470   -4.595650
  H      2.965350    1.956130   -3.087470
  H      3.225810    1.912420   -1.360240
  H      1.733500    2.555280   -2.002740

 Total Charge           Charge          ....    0
 Multiplicity           Mult            ....    1
 Number of Electrons    NEL             ....   58
 Basis Dimension        Dim             ....  176

ORBITAL ENERGIES
----------------

  NO   OCC          E(Eh)            E(eV)
   0   2.0000     -88.621235     -2411.5064
   1   2.0000     -24.543139      -667.8528
   2   2.0000     -18.913682      -514.6675
   3   2.0000     -18.899476      -514.2809
   4   2.0000     -10.061043      -273.7749
   5   2.0000     -10.021174      -272.6900
   6   2.0000      -7.982562      -217.2166
   7   2.0000      -5.972895      -162.5307
   8   2.0000      -5.966294      -162.3511
   9   2.0000      -5.964377      -162.2989
  10   2.0000      -1.294769       -35.2325
  11   2.0000      -1.035228       -28.1700
  12   2.0000      -0.933760       -25.4089
  13   2.0000      -0.759546       -20.6683
  14   2.0000      -0.679018       -18.4770
  15   2.0000      -0.621107       -16.9012
  16   2.0000      -0.534534       -14.5454
  17   2.0000      -0.530574       -14.4376
  18   2.0000      -0.505508       -13.7556
  19   2.0000      -0.452604       -12.3160
  20   2.0000      -0.438437       -11.9305
  21   2.0000      -0.399937       -10.8828
  22   2.0000      -0.390768       -10.6333
  23   2.0000      -0.372481       -10.1357
  24   2.0000      -0.352425        -9.5900
  25   2.0000      -0.343380        -9.3438
  26   2.0000      -0.294872        -8.0239
  27   2.0000      -0.281298        -7.6545
  28   2.0000      -0.263369        -7.1666
  29   0.0000      -0.022233        -0.6050
  30   0.0000       0.003929         0.1069
  31   0.0000       0.021326         0.5803
  32   0.0000       0.029410         0.8003
  33   0.0000       0.031882         0.8676

MULLIKEN ATOMIC CHARGES
-----------------------
   0 C :    0.679408
   1 C :   -0.404923
   2 H :    0.003004
   3 H :    0.040266
   4 S :    1.465128
   5 F :   -0.393430
   6 O :   -0.639984
   7 O :   -0.678362
   8 H :   -0.015121
   9 H :   -0.045208
  10 H :   -0.010777
Sum of atomic charges:    0.0000000

LOEWDIN ATOMIC CHARGES
----------------------
   0 C :    0.153673
   1 C :   -0.098501
   2 H :    0.017865
   3 H :    0.013196
   4 S :    1.101780
   5 F :   -0.250491
   6 O :   -0.449142
   7 O :   -0.469672
   8 H :   -0.006872
   9 H :   -0.006498
  10 H :   -0.005338

  Mayer bond orders larger than 0.100000
B(  0-C ,  1-C ) :   1.3511 B(  0-C ,  8-H ) :   0.8388 B(  0-C ,  9-H ) :   0.7686
B(  0-C , 10-H ) :   0.8219 B(  1-C ,  2-H ) :   0.9907 B(  1-C ,  3-H ) :   0.9568
B(  1-C ,  4-S ) :   0.9446 B(  1-C ,  8-H ) :   0.1828 B(  1-C ,  9-H ) :   0.1945
B(  1-C , 10-H ) :   0.1885 B(  4-S ,  5-F ) :   0.6910 B(  4-S ,  6-O ) :   1.5253
B(  4-S ,  7-O ) :   1.4950

Dispersion correction           -0.011625322
FINAL SINGLE POINT ENERGY      -727.339556577628

DIPOLE MOMENT
-------------
                                X             Y             Z
Electronic contribution:     -6.81320      -6.35987      -4.11169
Nuclear contribution   :      7.60530       5.82028       5.38743
                        -----------------------------------------
Total Dipole Moment    :      0.79210      -0.53959       1.27575
                        -----------------------------------------
Magnitude (a.u.)       :      1.59565
Magnitude (Debye)      :      4.05583

Rotational constants in cm-1:     0.157861     0.081452     0.078859
Rotational constants in MHz :  4732.562506  2441.865430  2364.129821

                             ****ORCA TERMINATED NORMALLY****
TOTAL RUN TIME: 0 days 0 hours 0 minutes 10 seconds 73 msec
