                         Program Version 5.0.0 -  RELEASE  -
|  1> !TPSS D3BJ RIJCOSX def2-SVPD def2/J TightSCF
|  2> *xyz 0 1
|  3> C          3.38093        2.08304       -3.35013
|  4> C          4.53592        1.18245       -3.42852
|  5> C          2.49556        1.81615       -2.13636
|  6> C          4.67196        0.12227       -4.22060
|  7> N          5.86602       -0.50785       -4.22428
|  8> N          3.69888       -0.31284       -4.98699
|  9> H          2.73141       -0.05009       -4.84900
| 10> H          3.89005       -1.05517       -5.64373
| 11> H          5.25193        1.30346       -2.72101
| 12> H          6.69516       -0.06232       -3.85160
| 13> H          5.97538       -1.39688       -4.69141
| 14> H          2.80646        1.98651       -4.26848
| 15> H          3.77871        3.09828       -3.30738
| 16> H          2.11090        0.81901       -2.18783
| 17> H          1.68276        2.51198       -2.12786
| 18> H          3.07216        1.93031       -1.24227
| 19> *
| 20>
| 21> %MaxCore 64000
| 22>
| 23> %pal nprocs 4
| 24> end
| 25>
| 26> %scf
| 27>   MaxIter 150
| 28> end
| 29>
| 30>
| 31>                          ****END OF INPUT****

CARTESIAN COORDINATES (ANGSTROEM)
---------------------------------
  C      3.380930    2.083040   -3.350130
  C      4.535920    1.182450   -3.428520
  C      2.495560    1.816150   -2.136360
  C      4.671960    0.122270   -4.220600
  N      5.866020   -0.507850   -4.224280
  N      3.698880   -0.312840   -4.986990
  H      2.731410   -0.050090   -4.849000
  H      3.890050   -1.055170   -5.643730
  H      5.251930    1.303460   -2.721010
  H      6.695160   -0.062320   -3.851600
  H      5.975380   -1.396880   -4.691410
  H      2.806460    1.986510   -4.268480
  H      3.778710    3.098280   -3.307380
  H      2.110900    0.819010   -2.187830
  H      1.682760    2.511980   -2.127860
  H      3.072160    1.930310   -1.242270

 Total Charge           Charge          ....    0
 Multiplicity           Mult            ....    1
 Number of Electrons    NEL             ....   48
 Basis Dimension        Dim             ....  200

ORBITAL ENERGIES
----------------

  NO   OCC          E(Eh)            E(eV)
   0   2.0000     -14.122196      -384.2845
   1   2.0000     -14.114944      -384.0872
   2   2.0000     -10.036144      -273.0974
   3   2.0000      -9.974523      -271.4206
   4   2.0000      -9.967492      -271.2293
   5   2.0000      -9.920816      -269.9591
   6   2.0000      -0.886795       -24.1309
   7   2.0000      -0.800743       -21.7893
   8   2.0000      -0.705461       -19.1966
   9   2.0000      -0.633069       -17.2267
  10   2.0000      -0.562459       -15.3053
  11   2.0000      -0.527538       -14.3551
  12   2.0000      -0.497830       -13.5467
  13   2.0000      -0.460192       -12.5225
  14   2.0000      -0.437749       -11.9117
  15   2.0000      -0.399483       -10.8705
  16   2.0000      -0.373246       -10.1565
  17   2.0000      -0.350317        -9.5326
  18   2.0000      -0.336836        -9.1658
  19   2.0000      -0.310679        -8.4540
  20   2.0000      -0.289755        -7.8846
  21   2.0000      -0.284272        -7.7354
  22   2.0000      -0.224212        -6.1011
  23   2.0000      -0.127871        -3.4795
  24   0.0000       0.000998         0.0272
  25   0.0000       0.025200         0.6857
  26   0.0000       0.040727         1.1083
  27   0.0000       0.049082         1.3356
  28   0.0000       0.065506         1.7825

MULLIKEN ATOMIC CHARGES
-----------------------
   0 C :   -0.139337
   1 C :   -0.423014
   2 C :    0.552148
   3 C :    1.098592
   4 N :   -0.065548
   5 N :   -0.011349
   6 H :   -0.083199
   7 H :   -0.218311
   8 H :   -0.259093
   9 H :   -0.077690
  10 H :   -0.129594
  11 H :   -0.107707
  12 H :   -0.051851
  13 H :   -0.073920
  14 H :    0.010166
  15 H :   -0.020293
Sum of atomic charges:   -0.0000000

LOEWDIN ATOMIC CHARGES
----------------------
   0 C :   -0.088254
   1 C :   -0.031694
   2 C :    0.122675
   3 C :   -0.221775
   4 N :    0.179150
   5 N :    0.195426
   6 H :    0.001368
   7 H :   -0.008732
   8 H :   -0.050853
   9 H :    0.001633
  10 H :   -0.019321
  11 H :   -0.005166
  12 H :    0.007732
  13 H :   -0.027594
  14 H :   -0.031255
  15 H :   -0.023340

  Mayer bond orders larger than 0.100000
B(  0-C ,  1-C ) :   1.1566 B(  0-C ,  2-C ) :   1.2170 B(  0-C ,  8-H ) :   0.2297
B(  0-C , 11-H ) :   0.8967 B(  0-C , 12-H ) :   0.8805 B(  0-C , 13-H ) :   0.1874
B(  0-C , 14-H ) :   0.1651 B(  0-C , 15-H ) :   0.2034 B(  1-C ,  3-C ) :   1.5351
B(  1-C ,  4-N ) :   0.4835 B(  1-C ,  5-N ) :   0.2896 B(  1-C ,  8-H ) :   0.9133
B(  1-C , 11-H ) :   0.2557 B(  1-C , 12-H ) :   0.1359 B(  2-C , 13-H ) :   0.8728
B(  2-C , 14-H ) :   0.8210 B(  2-C , 15-H ) :   0.8228 B(  3-C ,  4-N ) :   0.6460
B(  3-C ,  5-N ) :   0.9443 B(  3-C ,  7-H ) :  -0.1884 B(  3-C ,  8-H ) :   0.1014
B(  3-C ,  9-H ) :  -0.1482 B(  3-C , 11-H ) :  -0.1083 B(  4-N ,  5-N ) :   0.1308
B(  4-N ,  9-H ) :   1.2184 B(  4-N , 10-H ) :   1.1805 B(  5-N ,  6-H ) :   1.1557
B(  5-N ,  7-H ) :   1.3420 B(  6-H ,  7-H ) :  -0.1774 B(  9-H , 10-H ) :  -0.1554

Dispersion correction           -0.015532277
FINAL SINGLE POINT ENERGY      -267.792433227720

DIPOLE MOMENT
-------------
                                X             Y             Z
Electronic contribution:      3.01096      -2.79152      -2.89486
Nuclear contribution   :     -2.84307       1.95814       2.32378
                        -----------------------------------------
Total Dipole Moment    :      0.16789      -0.83338      -0.57108
                        -----------------------------------------
Magnitude (a.u.)       :      1.02413
Magnitude (Debye)      :      2.60314

Rotational constants in cm-1:     0.248902     0.068887     0.059904
Rotational constants in MHz :  7461.898926  2065.183281  1795.882140

                             ****ORCA TERMINATED NORMALLY****
TOTAL RUN TIME: 0 days 0 hours 0 minutes 13 seconds 52 msec
