                         Program Version 5.0.0 -  RELEASE  -
|  1> !TPSS D3BJ RIJCOSX def2-SVPD def2/J TightSCF
|  2> *xyz 0 1
|  3> C          2.49556        1.81615       -2.13636
|  4> C          1.87218        0.42790       -2.07750
|  5> H          2.61427       -0.36583       -2.19889
|  6> H          1.38995        0.27309       -1.11236
|  7> S          0.57902        0.14047       -3.29794
|  8> O          0.22886       -1.24687       -3.12787
|  9> F         -0.43927        1.11897       -3.01455
| 10> O          1.24788        0.40347       -4.59565
| 11> H          2.96535        1.95613       -3.08747
| 12> H          3.22581        1.91242       -1.36024
| 13> H          1.73350        2.55528       -2.00274
| 14> *
| 15>
| 16> %MaxCore 64000
| 17>
| 18> %pal nprocs 4
| 19> end
| 20>
| 21> %scf
| 22>   MaxIter 150
| 23> end
| 24>
| 25>
| 26>                          ****END OF INPUT****

CARTESIAN COORDINATES (ANGSTROEM)
---------------------------------
  C      2.495560    1.816150   -2.136360
  C      1.872180    0.427900   -2.077500
  H      2.614270   -0.365830   -2.198890
  H      1.389950    0.273090   -1.112360
  S      0.579020    0.140470   -3.297940
  O      0.228860   -1.246870   -3.127870
  F     -0.439270    1.118970   -3.014550
  O      1.247880    0.403470   -4.595650
  H      2.965350    1.956130   -3.087470
  H      3.225810    1.912420   -1.360240
  H      1.733500    2.555280   -2.002740

 Total Charge           Charge          ....    0
 Multiplicity           Mult            ....    1
 Number of Electrons    NEL             ....   58
 Basis Dimension        Dim             ....  176

ORBITAL ENERGIES
----------------

  NO   OCC          E(Eh)            E(eV)
   0   2.0000     -88.621514     -2411.5140
   1   2.0000     -24.543307      -667.8573
   2   2.0000     -18.914070      -514.6780
   3   2.0000     -18.900172      -514.2998
   4   2.0000     -10.061064      -273.7755
   5   2.0000     -10.023576      -272.7554
   6   2.0000      -7.982807      -217.2232
   7   2.0000      -5.973217      -162.5395
   8   2.0000      -5.966485      -162.3563
   9   2.0000      -5.964616      -162.3055
  10   2.0000      -1.295424       -35.2503
  11   2.0000      -1.034766       -28.1574
  12   2.0000      -0.934865       -25.4390
  13   2.0000      -0.762196       -20.7404
  14   2.0000      -0.675428       -18.3793
  15   2.0000      -0.625357       -17.0168
  16   2.0000      -0.543928       -14.8010
  17   2.0000      -0.529684       -14.4134
  18   2.0000      -0.499643       -13.5960
  19   2.0000      -0.452410       -12.3107
  20   2.0000      -0.435720       -11.8565
  21   2.0000      -0.409967       -11.1558
  22   2.0000      -0.393023       -10.6947
  23   2.0000      -0.371461       -10.1080
  24   2.0000      -0.360545        -9.8109
  25   2.0000      -0.339215        -9.2305
  26   2.0000      -0.294158        -8.0045
  27   2.0000      -0.281488        -7.6597
  28   2.0000      -0.265355        -7.2207
  29   0.0000      -0.025726        -0.7000
  30   0.0000       0.009162         0.2493
  31   0.0000       0.020927         0.5695
  32   0.0000       0.025567         0.6957
  33   0.0000       0.029164         0.7936

MULLIKEN ATOMIC CHARGES
-----------------------
   0 C :    0.704699
   1 C :   -0.380514
   2 H :   -0.001807
   3 H :    0.027946
   4 S :    1.436627
   5 O :   -0.634033
   6 F :   -0.383342
   7 O :   -0.679976
   8 H :   -0.010657
   9 H :   -0.047352
  10 H :   -0.031592
Sum of atomic charges:   -0.0000000

LOEWDIN ATOMIC CHARGES
----------------------
   0 C :    0.138387
   1 C :   -0.087187
   2 H :    0.032661
   3 H :    0.013575
   4 S :    1.099777
   5 O :   -0.449771
   6 F :   -0.248385
   7 O :   -0.467460
   8 H :   -0.009377
   9 H :   -0.009226
  10 H :   -0.012994

  Mayer bond orders larger than 0.100000
B(  0-C ,  1-C ) :   1.3060 B(  0-C ,  8-H ) :   0.8467 B(  0-C ,  9-H ) :   0.7617
B(  0-C , 10-H ) :   0.8209 B(  1-C ,  2-H ) :   1.0075 B(  1-C ,  3-H ) :   0.9701
B(  1-C ,  4-S ) :   0.9721 B(  1-C ,  8-H ) :   0.1838 B(  1-C ,  9-H ) :   0.1953
B(  1-C , 10-H ) :   0.1851 B(  4-S ,  5-O ) :   1.5598 B(  4-S ,  6-F ) :   0.6788
B(  4-S ,  7-O ) :   1.5091

Dispersion correction           -0.011564906
FINAL SINGLE POINT ENERGY      -727.339474347420

DIPOLE MOMENT
-------------
                                X             Y             Z
Electronic contribution:     -7.91452      -2.43551      -3.92036
Nuclear contribution   :      8.30151       3.35500       5.26935
                        -----------------------------------------
Total Dipole Moment    :      0.38699       0.91950       1.34900
                        -----------------------------------------
Magnitude (a.u.)       :      1.67780
Magnitude (Debye)      :      4.26464

Rotational constants in cm-1:     0.152913     0.083043     0.080351
Rotational constants in MHz :  4584.227971  2489.580280  2408.872860

                             ****ORCA TERMINATED NORMALLY****
TOTAL RUN TIME: 0 days 0 hours 0 minutes 9 seconds 388 msec
