                         Program Version 5.0.0 -  RELEASE  -
|  1> !TPSS D3BJ RIJCOSX def2-SVPD def2/J TightSCF
|  2> *xyz 0 1
|  3> C          3.38093        2.08304       -3.35013
|  4> N          4.53592        1.18245       -3.42852
|  5> C          2.49556        1.81615       -2.13636
|  6> C          4.67196        0.12227       -4.22060
|  7> C          5.86602       -0.50785       -4.22428
|  8> N          3.69888       -0.31284       -4.98699
|  9> H          2.73141       -0.05009       -4.84900
| 10> H          3.89005       -1.05517       -5.64373
| 11> H          5.25193        1.30346       -2.72101
| 12> H          6.69516       -0.06232       -3.85160
| 13> H          5.97538       -1.39688       -4.69141
| 14> H          2.80646        1.98651       -4.26848
| 15> H          3.77871        3.09828       -3.30738
| 16> H          2.11090        0.81901       -2.18783
| 17> H          1.68276        2.51198       -2.12786
| 18> H          3.07216        1.93031       -1.24227
| 19> *
| 20>
| 21> %MaxCore 64000
| 22>
| 23> %pal nprocs 4
| 24> end
| 25>
| 26> %scf
| 27>   MaxIter 150
| 28> end
| 29>
| 30>
| 31>                          ****END OF INPUT****

CARTESIAN COORDINATES (ANGSTROEM)
---------------------------------
  C      3.380930    2.083040   -3.350130
  N      4.535920    1.182450   -3.428520
  C      2.495560    1.816150   -2.136360
  C      4.671960    0.122270   -4.220600
  C      5.866020   -0.507850   -4.224280
  N      3.698880   -0.312840   -4.986990
  H      2.731410   -0.050090   -4.849000
  H      3.890050   -1.055170   -5.643730
  H      5.251930    1.303460   -2.721010
  H      6.695160   -0.062320   -3.851600
  H      5.975380   -1.396880   -4.691410
  H      2.806460    1.986510   -4.268480
  H      3.778710    3.098280   -3.307380
  H      2.110900    0.819010   -2.187830
  H      1.682760    2.511980   -2.127860
  H      3.072160    1.930310   -1.242270

 Total Charge           Charge          ....    0
 Multiplicity           Mult            ....    1
 Number of Electrons    NEL             ....   48
 Basis Dimension        Dim             ....  200

ORBITAL ENERGIES
----------------

  NO   OCC          E(Eh)            E(eV)
   0   2.0000     -14.120941      -384.2503
   1   2.0000     -14.116062      -384.1176
   2   2.0000     -10.040734      -273.2223
   3   2.0000     -10.038666      -273.1660
   4   2.0000      -9.996009      -272.0052
   5   2.0000      -9.909353      -269.6472
   6   2.0000      -0.892808       -24.2945
   7   2.0000      -0.817485       -22.2449
   8   2.0000      -0.708242       -19.2722
   9   2.0000      -0.635803       -17.3011
  10   2.0000      -0.572782       -15.5862
  11   2.0000      -0.552020       -15.0212
  12   2.0000      -0.496750       -13.5173
  13   2.0000      -0.453416       -12.3381
  14   2.0000      -0.438759       -11.9392
  15   2.0000      -0.404839       -11.0162
  16   2.0000      -0.386014       -10.5040
  17   2.0000      -0.361170        -9.8279
  18   2.0000      -0.347001        -9.4424
  19   2.0000      -0.331549        -9.0219
  20   2.0000      -0.326405        -8.8819
  21   2.0000      -0.312641        -8.5074
  22   2.0000      -0.214754        -5.8438
  23   2.0000      -0.126090        -3.4311
  24   0.0000      -0.001114        -0.0303
  25   0.0000       0.028429         0.7736
  26   0.0000       0.034028         0.9259
  27   0.0000       0.042865         1.1664
  28   0.0000       0.056885         1.5479

MULLIKEN ATOMIC CHARGES
-----------------------
   0 C :    0.309814
   1 N :   -0.359311
   2 C :    0.578053
   3 C :    0.813075
   4 C :    0.326064
   5 N :    0.060024
   6 H :   -0.173649
   7 H :   -0.093663
   8 H :   -0.290167
   9 H :   -0.358038
  10 H :   -0.331110
  11 H :   -0.128012
  12 H :   -0.243539
  13 H :   -0.084682
  14 H :    0.024770
  15 H :   -0.049629
Sum of atomic charges:   -0.0000000

LOEWDIN ATOMIC CHARGES
----------------------
   0 C :    0.023913
   1 N :   -0.014072
   2 C :    0.138136
   3 C :   -0.238132
   4 C :    0.144709
   5 N :    0.193927
   6 H :   -0.014859
   7 H :    0.010218
   8 H :    0.034490
   9 H :   -0.108929
  10 H :   -0.112755
  11 H :    0.002950
  12 H :    0.010976
  13 H :   -0.024282
  14 H :   -0.023348
  15 H :   -0.022943

  Mayer bond orders larger than 0.100000
B(  0-C ,  1-N ) :   0.9087 B(  0-C ,  2-C ) :   1.2389 B(  0-C ,  8-H ) :  -0.2151
B(  0-C , 11-H ) :   0.8988 B(  0-C , 12-H ) :   0.9239 B(  0-C , 13-H ) :   0.2044
B(  0-C , 14-H ) :   0.1776 B(  0-C , 15-H ) :   0.2088 B(  1-N ,  3-C ) :   0.9764
B(  1-N ,  4-C ) :   0.2387 B(  1-N ,  5-N ) :   0.2071 B(  1-N ,  8-H ) :   1.3078
B(  1-N , 11-H ) :   0.1533 B(  1-N , 12-H ) :   0.1684 B(  2-C , 13-H ) :   0.8560
B(  2-C , 14-H ) :   0.8014 B(  2-C , 15-H ) :   0.8240 B(  3-C ,  4-C ) :   1.3165
B(  3-C ,  5-N ) :   0.9994 B(  3-C ,  6-H ) :  -0.1159 B(  3-C ,  8-H ) :  -0.2339
B(  3-C , 10-H ) :   0.1814 B(  4-C ,  5-N ) :   0.2189 B(  4-C ,  9-H ) :   0.9431
B(  4-C , 10-H ) :   0.7989 B(  5-N ,  6-H ) :   1.2005 B(  5-N ,  7-H ) :   1.2073
B(  6-H ,  7-H ) :  -0.1776

Dispersion correction           -0.015374749
FINAL SINGLE POINT ENERGY      -267.783814452869

DIPOLE MOMENT
-------------
                                X             Y             Z
Electronic contribution:      1.53839      -1.11807      -2.05141
Nuclear contribution   :     -2.56090       1.59955       2.15496
                        -----------------------------------------
Total Dipole Moment    :     -1.02251       0.48148       0.10356
                        -----------------------------------------
Magnitude (a.u.)       :      1.13494
Magnitude (Debye)      :      2.88478

Rotational constants in cm-1:     0.249834     0.071381     0.061833
Rotational constants in MHz :  7489.842787  2139.945635  1853.706310

                             ****ORCA TERMINATED NORMALLY****
TOTAL RUN TIME: 0 days 0 hours 0 minutes 12 seconds 916 msec
