                         Program Version 5.0.0 -  RELEASE  -
|  1> !TPSS D3BJ RIJCOSX def2-SVPD def2/J TightSCF
|  2> *xyz 0 1
|  3> C          2.49556        1.81615       -2.13636
|  4> C          1.87218        0.42790       -2.07750
|  5> H          2.61427       -0.36583       -2.19889
|  6> H          1.38995        0.27309       -1.11236
|  7> S          0.57902        0.14047       -3.29794
|  8> O          0.22886       -1.24687       -3.12787
|  9> O         -0.43927        1.11897       -3.01455
| 10> F          1.24788        0.40347       -4.59565
| 11> H          2.96535        1.95613       -3.08747
| 12> H          3.22581        1.91242       -1.36024
| 13> H          1.73350        2.55528       -2.00274
| 14> *
| 15>
| 16> %MaxCore 64000
| 17>
| 18> %pal nprocs 4
| 19> end
| 20>
| 21> %scf
| 22>   MaxIter 150
| 23> end
| 24>
| 25>
| 26>                          ****END OF INPUT****

CARTESIAN COORDINATES (ANGSTROEM)
---------------------------------
  C      2.495560    1.816150   -2.136360
  C      1.872180    0.427900   -2.077500
  H      2.614270   -0.365830   -2.198890
  H      1.389950    0.273090   -1.112360
  S      0.579020    0.140470   -3.297940
  O      0.228860   -1.246870   -3.127870
  O     -0.439270    1.118970   -3.014550
  F      1.247880    0.403470   -4.595650
  H      2.965350    1.956130   -3.087470
  H      3.225810    1.912420   -1.360240
  H      1.733500    2.555280   -2.002740

 Total Charge           Charge          ....    0
 Multiplicity           Mult            ....    1
 Number of Electrons    NEL             ....   58
 Basis Dimension        Dim             ....  176

ORBITAL ENERGIES
----------------

  NO   OCC          E(Eh)            E(eV)
   0   2.0000     -88.619172     -2411.4503
   1   2.0000     -24.522111      -667.2806
   2   2.0000     -18.913832      -514.6715
   3   2.0000     -18.913563      -514.6642
   4   2.0000     -10.059812      -273.7414
   5   2.0000     -10.023978      -272.7663
   6   2.0000      -7.980481      -217.1599
   7   2.0000      -5.970562      -162.4672
   8   2.0000      -5.964483      -162.3018
   9   2.0000      -5.962486      -162.2475
  10   2.0000      -1.259637       -34.2765
  11   2.0000      -1.044859       -28.4321
  12   2.0000      -0.955697       -26.0058
  13   2.0000      -0.761425       -20.7194
  14   2.0000      -0.662677       -18.0324
  15   2.0000      -0.618402       -16.8276
  16   2.0000      -0.529379       -14.4051
  17   2.0000      -0.505889       -13.7659
  18   2.0000      -0.495927       -13.4949
  19   2.0000      -0.452922       -12.3246
  20   2.0000      -0.431671       -11.7464
  21   2.0000      -0.412021       -11.2117
  22   2.0000      -0.396657       -10.7936
  23   2.0000      -0.371448       -10.1076
  24   2.0000      -0.364908        -9.9296
  25   2.0000      -0.342800        -9.3281
  26   2.0000      -0.301370        -8.2007
  27   2.0000      -0.292260        -7.9528
  28   2.0000      -0.280343        -7.6285
  29   0.0000      -0.023544        -0.6407
  30   0.0000       0.012247         0.3333
  31   0.0000       0.022903         0.6232
  32   0.0000       0.027238         0.7412
  33   0.0000       0.032092         0.8733

MULLIKEN ATOMIC CHARGES
-----------------------
   0 C :    0.699965
   1 C :   -0.381008
   2 H :   -0.008371
   3 H :    0.036273
   4 S :    1.447721
   5 O :   -0.646343
   6 O :   -0.654767
   7 F :   -0.404432
   8 H :   -0.035721
   9 H :   -0.048744
  10 H :   -0.004574
Sum of atomic charges:    0.0000000

LOEWDIN ATOMIC CHARGES
----------------------
   0 C :    0.138131
   1 C :   -0.086548
   2 H :    0.019760
   3 H :    0.027762
   4 S :    1.097539
   5 O :   -0.450202
   6 O :   -0.447825
   7 F :   -0.266681
   8 H :   -0.013990
   9 H :   -0.009235
  10 H :   -0.008711

  Mayer bond orders larger than 0.100000
B(  0-C ,  1-C ) :   1.3049 B(  0-C ,  8-H ) :   0.8378 B(  0-C ,  9-H ) :   0.7633
B(  0-C , 10-H ) :   0.8303 B(  1-C ,  2-H ) :   1.0094 B(  1-C ,  3-H ) :   0.9718
B(  1-C ,  4-S ) :   0.9719 B(  1-C ,  8-H ) :   0.1769 B(  1-C ,  9-H ) :   0.1968
B(  1-C , 10-H ) :   0.1892 B(  4-S ,  5-O ) :   1.5553 B(  4-S ,  6-O ) :   1.5335
B(  4-S ,  7-F ) :   0.6363 B(  5-O ,  6-O ) :   0.1020

Dispersion correction           -0.011561717
FINAL SINGLE POINT ENERGY      -727.357938769804

DIPOLE MOMENT
-------------
                                X             Y             Z
Electronic contribution:     -5.10656      -3.61566      -6.55924
Nuclear contribution   :      6.54345       4.10057       6.91691
                        -----------------------------------------
Total Dipole Moment    :      1.43688       0.48491       0.35767
                        -----------------------------------------
Magnitude (a.u.)       :      1.55811
Magnitude (Debye)      :      3.96040

Rotational constants in cm-1:     0.152835     0.082826     0.080611
Rotational constants in MHz :  4581.878371  2483.049050  2416.647141

                             ****ORCA TERMINATED NORMALLY****
TOTAL RUN TIME: 0 days 0 hours 0 minutes 9 seconds 495 msec
