                         Program Version 5.0.0 -  RELEASE  -
|  1> !TPSS D3BJ RIJCOSX def2-SVPD def2/J TightSCF
|  2> *xyz 0 1
|  3> C          3.38093        2.08304       -3.35013
|  4> N          4.53592        1.18245       -3.42852
|  5> C          2.49556        1.81615       -2.13636
|  6> C          4.67196        0.12227       -4.22060
|  7> N          5.86602       -0.50785       -4.22428
|  8> C          3.69888       -0.31284       -4.98699
|  9> H          2.73141       -0.05009       -4.84900
| 10> H          3.89005       -1.05517       -5.64373
| 11> H          5.25193        1.30346       -2.72101
| 12> H          6.69516       -0.06232       -3.85160
| 13> H          5.97538       -1.39688       -4.69141
| 14> H          2.80646        1.98651       -4.26848
| 15> H          3.77871        3.09828       -3.30738
| 16> H          2.11090        0.81901       -2.18783
| 17> H          1.68276        2.51198       -2.12786
| 18> H          3.07216        1.93031       -1.24227
| 19> *
| 20>
| 21> %MaxCore 64000
| 22>
| 23> %pal nprocs 4
| 24> end
| 25>
| 26> %scf
| 27>   MaxIter 150
| 28> end
| 29>
| 30>
| 31>                          ****END OF INPUT****

CARTESIAN COORDINATES (ANGSTROEM)
---------------------------------
  C      3.380930    2.083040   -3.350130
  N      4.535920    1.182450   -3.428520
  C      2.495560    1.816150   -2.136360
  C      4.671960    0.122270   -4.220600
  N      5.866020   -0.507850   -4.224280
  C      3.698880   -0.312840   -4.986990
  H      2.731410   -0.050090   -4.849000
  H      3.890050   -1.055170   -5.643730
  H      5.251930    1.303460   -2.721010
  H      6.695160   -0.062320   -3.851600
  H      5.975380   -1.396880   -4.691410
  H      2.806460    1.986510   -4.268480
  H      3.778710    3.098280   -3.307380
  H      2.110900    0.819010   -2.187830
  H      1.682760    2.511980   -2.127860
  H      3.072160    1.930310   -1.242270

 Total Charge           Charge          ....    0
 Multiplicity           Mult            ....    1
 Number of Electrons    NEL             ....   48
 Basis Dimension        Dim             ....  200

ORBITAL ENERGIES
----------------

  NO   OCC          E(Eh)            E(eV)
   0   2.0000     -14.116614      -384.1326
   1   2.0000     -14.114755      -384.0820
   2   2.0000     -10.036633      -273.1107
   3   2.0000     -10.033088      -273.0142
   4   2.0000      -9.988992      -271.8143
   5   2.0000      -9.913581      -269.7623
   6   2.0000      -0.886843       -24.1322
   7   2.0000      -0.808817       -22.0090
   8   2.0000      -0.694582       -18.9005
   9   2.0000      -0.649077       -17.6623
  10   2.0000      -0.584400       -15.9023
  11   2.0000      -0.515183       -14.0188
  12   2.0000      -0.496627       -13.5139
  13   2.0000      -0.469575       -12.7778
  14   2.0000      -0.416885       -11.3440
  15   2.0000      -0.406990       -11.0748
  16   2.0000      -0.377087       -10.2611
  17   2.0000      -0.360302        -9.8043
  18   2.0000      -0.340408        -9.2630
  19   2.0000      -0.337934        -9.1957
  20   2.0000      -0.317946        -8.6518
  21   2.0000      -0.309659        -8.4263
  22   2.0000      -0.207467        -5.6455
  23   2.0000      -0.137944        -3.7536
  24   0.0000       0.004793         0.1304
  25   0.0000       0.025493         0.6937
  26   0.0000       0.039451         1.0735
  27   0.0000       0.045426         1.2361
  28   0.0000       0.062719         1.7067

MULLIKEN ATOMIC CHARGES
-----------------------
   0 C :    0.289456
   1 N :   -0.421043
   2 C :    0.555768
   3 C :    1.042380
   4 N :   -0.015573
   5 C :    0.033084
   6 H :   -0.179763
   7 H :   -0.369810
   8 H :   -0.363068
   9 H :   -0.186046
  10 H :   -0.032527
  11 H :   -0.019495
  12 H :   -0.232622
  13 H :   -0.075962
  14 H :    0.014891
  15 H :   -0.039670
Sum of atomic charges:    0.0000000

LOEWDIN ATOMIC CHARGES
----------------------
   0 C :    0.033620
   1 N :   -0.023658
   2 C :    0.141809
   3 C :   -0.237085
   4 N :    0.181659
   5 C :    0.153514
   6 H :   -0.103667
   7 H :   -0.100379
   8 H :    0.018600
   9 H :   -0.016081
  10 H :   -0.000289
  11 H :    0.009839
  12 H :    0.011568
  13 H :   -0.020592
  14 H :   -0.022569
  15 H :   -0.026290

  Mayer bond orders larger than 0.100000
B(  0-C ,  1-N ) :   0.8809 B(  0-C ,  2-C ) :   1.2417 B(  0-C ,  5-C ) :   0.1092
B(  0-C ,  8-H ) :  -0.1977 B(  0-C , 11-H ) :   0.8805 B(  0-C , 12-H ) :   0.9334
B(  0-C , 13-H ) :   0.1915 B(  0-C , 14-H ) :   0.1800 B(  0-C , 15-H ) :   0.1893
B(  1-N ,  3-C ) :   0.8462 B(  1-N ,  4-N ) :   0.1955 B(  1-N ,  5-C ) :   0.3708
B(  1-N ,  8-H ) :   1.4127 B(  1-N , 11-H ) :   0.1228 B(  1-N , 12-H ) :   0.1641
B(  2-C , 13-H ) :   0.8661 B(  2-C , 14-H ) :   0.8061 B(  2-C , 15-H ) :   0.8368
B(  3-C ,  4-N ) :   0.8467 B(  3-C ,  5-C ) :   1.4044 B(  3-C ,  7-H ) :   0.1575
B(  3-C ,  8-H ) :  -0.2908 B(  3-C ,  9-H ) :  -0.1312 B(  4-N ,  5-C ) :   0.3053
B(  4-N ,  9-H ) :   1.2466 B(  4-N , 10-H ) :   1.1477 B(  5-C ,  6-H ) :   0.7709
B(  5-C ,  7-H ) :   0.9356 B(  9-H , 10-H ) :  -0.1610

Dispersion correction           -0.015461312
FINAL SINGLE POINT ENERGY      -267.788189202010

DIPOLE MOMENT
-------------
                                X             Y             Z
Electronic contribution:      3.65445      -1.33274      -1.36856
Nuclear contribution   :     -3.02065       1.64092       1.99316
                        -----------------------------------------
Total Dipole Moment    :      0.63380       0.30818       0.62460
                        -----------------------------------------
Magnitude (a.u.)       :      0.94170
Magnitude (Debye)      :      2.39361

Rotational constants in cm-1:     0.259304     0.069422     0.060943
Rotational constants in MHz :  7773.747720  2081.225169  1827.013389

                             ****ORCA TERMINATED NORMALLY****
TOTAL RUN TIME: 0 days 0 hours 0 minutes 12 seconds 528 msec
