                         Program Version 5.0.0 -  RELEASE  -
|  1> !TPSS D3BJ RIJCOSX def2-SVPD def2/J TightSCF xyzfile
|  2>
|  3> *xyzfile 0 1 D1.xyz
|  4>
|  5> %MaxCore 64000
|  6>
|  7> %pal nprocs 4
|  8> end
|  9>
| 10> %scf
| 11>   MaxIter 150
| 12> end
| 13>
| 14>
| 15>                          ****END OF INPUT****

CARTESIAN COORDINATES (ANGSTROEM)
---------------------------------
  C      3.380928    2.083045   -3.350127
  C      4.535924    1.182447   -3.428518
  C      2.495557    1.816150   -2.136364
  C      1.872181    0.427903   -2.077497
  H      2.614270   -0.365825   -2.198894
  H      1.389953    0.273087   -1.112360
  S      0.579024    0.140472   -3.297943
  C      4.671956    0.122273   -4.220598
  N      5.866023   -0.507849   -4.224284
  N      3.698881   -0.312844   -4.986988
  H      2.731405   -0.050091   -4.849000
  H      3.890046   -1.055172   -5.643730
  H      5.251933    1.303459   -2.721014
  H      6.695165   -0.062322   -3.851596
  H      5.975383   -1.396884   -4.691414
  F      0.228860   -1.246868   -3.127871
  O     -0.439269    1.118966   -3.014550
  O      1.247881    0.403474   -4.595647
  H      1.697003    2.561969   -2.141109
  H      3.080787    1.987436   -1.225838
  H      2.806463    1.986511   -4.268484
  H      3.778714    3.098282   -3.307383

 Total Charge           Charge          ....    0
 Multiplicity           Mult            ....    1
 Number of Electrons    NEL             ....   96
 Basis Dimension        Dim             ....  324

ORBITAL ENERGIES
----------------

  NO   OCC          E(Eh)            E(eV)
   0   2.0000     -88.631336     -2411.7813
   1   2.0000     -24.549738      -668.0323
   2   2.0000     -18.921000      -514.8666
   3   2.0000     -18.916620      -514.7474
   4   2.0000     -14.112948      -384.0328
   5   2.0000     -14.095964      -383.5707
   6   2.0000     -10.053171      -273.5607
   7   2.0000     -10.033947      -273.0376
   8   2.0000     -10.011568      -272.4286
   9   2.0000      -9.979035      -271.5433
  10   2.0000      -9.921180      -269.9690
  11   2.0000      -7.991973      -217.4726
  12   2.0000      -5.982347      -162.7879
  13   2.0000      -5.976097      -162.6179
  14   2.0000      -5.973478      -162.5466
  15   2.0000      -1.301210       -35.4077
  16   2.0000      -1.046553       -28.4782
  17   2.0000      -0.951994       -25.9051
  18   2.0000      -0.878108       -23.8945
  19   2.0000      -0.791900       -21.5487
  20   2.0000      -0.761640       -20.7253
  21   2.0000      -0.703125       -19.1330
  22   2.0000      -0.666495       -18.1362
  23   2.0000      -0.624305       -16.9882
  24   2.0000      -0.574025       -15.6200
  25   2.0000      -0.544589       -14.8190
  26   2.0000      -0.535361       -14.5679
  27   2.0000      -0.525271       -14.2934
  28   2.0000      -0.504979       -13.7412
  29   2.0000      -0.489317       -13.3150
  30   2.0000      -0.468607       -12.7514
  31   2.0000      -0.447943       -12.1891
  32   2.0000      -0.441690       -12.0190
  33   2.0000      -0.424462       -11.5502
  34   2.0000      -0.409679       -11.1479
  35   2.0000      -0.395979       -10.7751
  36   2.0000      -0.368946       -10.0395
  37   2.0000      -0.360876        -9.8199
  38   2.0000      -0.352029        -9.5792
  39   2.0000      -0.340878        -9.2758
  40   2.0000      -0.318735        -8.6732
  41   2.0000      -0.312272        -8.4974
  42   2.0000      -0.299172        -8.1409
  43   2.0000      -0.297097        -8.0844
  44   2.0000      -0.278131        -7.5683
  45   2.0000      -0.275191        -7.4883
  46   2.0000      -0.215417        -5.8618
  47   2.0000      -0.129074        -3.5123
  48   0.0000      -0.026173        -0.7122
  49   0.0000       0.004344         0.1182
  50   0.0000       0.012654         0.3443
  51   0.0000       0.020054         0.5457
  52   0.0000       0.028597         0.7782

MULLIKEN ATOMIC CHARGES
-----------------------
   0 C :    0.362439
   1 C :   -0.242571
   2 C :    0.124004
   3 C :    0.021281
   4 H :    0.122516
   5 H :   -0.049649
   6 S :    1.532722
   7 C :    1.004385
   8 N :   -0.083871
   9 N :    0.426324
  10 H :   -0.291590
  11 H :   -0.261912
  12 H :   -0.312935
  13 H :   -0.103813
  14 H :   -0.124457
  15 F :   -0.409462
  16 O :   -0.686876
  17 O :   -0.839221
  18 H :    0.026480
  19 H :    0.014970
  20 H :   -0.097603
  21 H :   -0.131161
Sum of atomic charges:   -0.0000000

LOEWDIN ATOMIC CHARGES
----------------------
   0 C :   -0.028396
   1 C :   -0.023930
   2 C :   -0.011088
   3 C :   -0.038445
   4 H :    0.013786
   5 H :    0.013685
   6 S :    1.150532
   7 C :   -0.214066
   8 N :    0.180742
   9 N :    0.230199
  10 H :   -0.142328
  11 H :   -0.004127
  12 H :   -0.054539
  13 H :   -0.000746
  14 H :   -0.018880
  15 F :   -0.241398
  16 O :   -0.432410
  17 O :   -0.443654
  18 H :    0.021971
  19 H :    0.034087
  20 H :   -0.005931
  21 H :    0.014936

  Mayer bond orders larger than 0.100000
B(  0-C ,  1-C ) :   1.0752 B(  0-C ,  2-C ) :   1.1428 B(  0-C , 12-H ) :   0.2123
B(  0-C , 18-H ) :   0.1669 B(  0-C , 19-H ) :   0.1690 B(  0-C , 20-H ) :   0.8211
B(  0-C , 21-H ) :   0.7989 B(  1-C ,  2-C ) :   0.1209 B(  1-C ,  7-C ) :   1.5220
B(  1-C ,  8-N ) :   0.4259 B(  1-C ,  9-N ) :   0.2186 B(  1-C , 10-H ) :  -0.1197
B(  1-C , 12-H ) :   0.8691 B(  1-C , 20-H ) :   0.2768 B(  1-C , 21-H ) :   0.1120
B(  2-C ,  3-C ) :   1.3177 B(  2-C ,  4-H ) :   0.1497 B(  2-C ,  5-H ) :   0.1729
B(  2-C , 18-H ) :   0.8076 B(  2-C , 19-H ) :   0.7744 B(  2-C , 20-H ) :   0.1546
B(  3-C ,  4-H ) :   0.9180 B(  3-C ,  5-H ) :   0.7884 B(  3-C ,  6-S ) :   0.9180
B(  3-C , 17-O ) :   0.1641 B(  3-C , 18-H ) :   0.1483 B(  3-C , 19-H ) :   0.1206
B(  6-S , 15-F ) :   0.6427 B(  6-S , 16-O ) :   1.5213 B(  6-S , 17-O ) :   1.3817
B(  7-C ,  8-N ) :   0.6760 B(  7-C ,  9-N ) :   1.0138 B(  7-C , 10-H ) :  -0.1090
B(  7-C , 11-H ) :  -0.2255 B(  7-C , 12-H ) :   0.1161 B(  7-C , 13-H ) :  -0.1865
B(  7-C , 20-H ) :  -0.1355 B(  8-N ,  9-N ) :   0.1227 B(  8-N , 12-H ) :   0.1156
B(  8-N , 13-H ) :   1.2547 B(  8-N , 14-H ) :   1.1835 B(  9-N , 10-H ) :   1.0836
B(  9-N , 11-H ) :   1.2842 B( 10-H , 11-H ) :  -0.2063 B( 13-H , 14-H ) :  -0.1581

Dispersion correction           -0.031812200
FINAL SINGLE POINT ENERGY      -954.645970794361

DIPOLE MOMENT
-------------
                                X             Y             Z
Electronic contribution:    -15.26644      -6.65303      -1.17565
Nuclear contribution   :     15.92508       5.34175       1.81950
                        -----------------------------------------
Total Dipole Moment    :      0.65864      -1.31127       0.64384
                        -----------------------------------------
Magnitude (a.u.)       :      1.60243
Magnitude (Debye)      :      4.07305

Rotational constants in cm-1:     0.058561     0.020662     0.017762
Rotational constants in MHz :  1755.621534   619.433801   532.501507

                             ****ORCA TERMINATED NORMALLY****
TOTAL RUN TIME: 0 days 0 hours 0 minutes 39 seconds 668 msec
