                         Program Version 5.0.0 -  RELEASE  -
|  1> !TPSS D3BJ RIJCOSX def2-SVPD def2/J TightSCF xyzfile
|  2>
|  3> *xyzfile 0 1 D4.xyz
|  4>
|  5> %MaxCore 64000
|  6>
|  7> %pal nprocs 4
|  8> end
|  9>
| 10> %scf
| 11>   MaxIter 150
| 12> end
| 13>
| 14>
| 15>                          ****END OF INPUT****

CARTESIAN COORDINATES (ANGSTROEM)
---------------------------------
  C      3.380928    2.083045   -3.350127
  C      4.535924    1.182447   -3.428518
  C      2.495557    1.816150   -2.136364
  C      1.872181    0.427903   -2.077497
  H      2.614270   -0.365825   -2.198894
  H      1.389953    0.273087   -1.112360
  S      0.579024    0.140472   -3.297943
  C      4.671956    0.122273   -4.220598
  N      5.866023   -0.507849   -4.224284
  N      3.698881   -0.312844   -4.986988
  H      2.731405   -0.050091   -4.849000
  H      3.890046   -1.055172   -5.643730
  H      5.251933    1.303459   -2.721014
  H      6.695165   -0.062322   -3.851596
  H      5.975383   -1.396884   -4.691414
  O      0.228860   -1.246868   -3.127871
  F     -0.439269    1.118966   -3.014550
  O      1.247881    0.403474   -4.595647
  H      1.697003    2.561969   -2.141109
  H      3.080787    1.987436   -1.225838
  H      2.806463    1.986511   -4.268484
  H      3.778714    3.098282   -3.307383

 Total Charge           Charge          ....    0
 Multiplicity           Mult            ....    1
 Number of Electrons    NEL             ....   96
 Basis Dimension        Dim             ....  324

ORBITAL ENERGIES
----------------

  NO   OCC          E(Eh)            E(eV)
   0   2.0000     -88.631656     -2411.7900
   1   2.0000     -24.549452      -668.0246
   2   2.0000     -18.921274      -514.8740
   3   2.0000     -18.915907      -514.7280
   4   2.0000     -14.112624      -384.0240
   5   2.0000     -14.095718      -383.5640
   6   2.0000     -10.052594      -273.5450
   7   2.0000     -10.034404      -273.0500
   8   2.0000     -10.013132      -272.4712
   9   2.0000      -9.980809      -271.5916
  10   2.0000      -9.921726      -269.9839
  11   2.0000      -7.992158      -217.4777
  12   2.0000      -5.982563      -162.7938
  13   2.0000      -5.976335      -162.6243
  14   2.0000      -5.973608      -162.5501
  15   2.0000      -1.300931       -35.4001
  16   2.0000      -1.046109       -28.4661
  17   2.0000      -0.952026       -25.9059
  18   2.0000      -0.877696       -23.8833
  19   2.0000      -0.791411       -21.5354
  20   2.0000      -0.763837       -20.7850
  21   2.0000      -0.700855       -19.0712
  22   2.0000      -0.666412       -18.1340
  23   2.0000      -0.626104       -17.0372
  24   2.0000      -0.573152       -15.5963
  25   2.0000      -0.547609       -14.9012
  26   2.0000      -0.537197       -14.6179
  27   2.0000      -0.527544       -14.3552
  28   2.0000      -0.500891       -13.6299
  29   2.0000      -0.487043       -13.2531
  30   2.0000      -0.468064       -12.7367
  31   2.0000      -0.445233       -12.1154
  32   2.0000      -0.437991       -11.9183
  33   2.0000      -0.430700       -11.7199
  34   2.0000      -0.411699       -11.2029
  35   2.0000      -0.397390       -10.8135
  36   2.0000      -0.371482       -10.1085
  37   2.0000      -0.362035        -9.8515
  38   2.0000      -0.355092        -9.6625
  39   2.0000      -0.339088        -9.2271
  40   2.0000      -0.319238        -8.6869
  41   2.0000      -0.311123        -8.4661
  42   2.0000      -0.299995        -8.1633
  43   2.0000      -0.297157        -8.0861
  44   2.0000      -0.284695        -7.7470
  45   2.0000      -0.270819        -7.3694
  46   2.0000      -0.214583        -5.8391
  47   2.0000      -0.129429        -3.5220
  48   0.0000      -0.027643        -0.7522
  49   0.0000       0.009582         0.2607
  50   0.0000       0.011674         0.3177
  51   0.0000       0.018755         0.5104
  52   0.0000       0.027495         0.7482

MULLIKEN ATOMIC CHARGES
-----------------------
   0 C :    0.371292
   1 C :   -0.259310
   2 C :    0.166095
   3 C :    0.040099
   4 H :    0.116233
   5 H :   -0.052753
   6 S :    1.549605
   7 C :    1.013951
   8 N :   -0.085914
   9 N :    0.422413
  10 H :   -0.287607
  11 H :   -0.254213
  12 H :   -0.316324
  13 H :   -0.104385
  14 H :   -0.122117
  15 O :   -0.649984
  16 F :   -0.458837
  17 O :   -0.863560
  18 H :    0.009595
  19 H :   -0.005681
  20 H :   -0.092801
  21 H :   -0.135796
Sum of atomic charges:    0.0000000

LOEWDIN ATOMIC CHARGES
----------------------
   0 C :   -0.032931
   1 C :   -0.023629
   2 C :   -0.027671
   3 C :   -0.029458
   4 H :    0.027855
   5 H :    0.014005
   6 S :    1.148670
   7 C :   -0.210563
   8 N :    0.182338
   9 N :    0.234526
  10 H :   -0.133764
  11 H :   -0.000783
  12 H :   -0.054688
  13 H :   -0.000460
  14 H :   -0.017224
  15 O :   -0.436633
  16 F :   -0.237262
  17 O :   -0.449828
  18 H :    0.013756
  19 H :    0.030211
  20 H :   -0.009804
  21 H :    0.013333

  Mayer bond orders larger than 0.100000
B(  0-C ,  1-C ) :   1.0848 B(  0-C ,  2-C ) :   1.1455 B(  0-C , 12-H ) :   0.2217
B(  0-C , 18-H ) :   0.1697 B(  0-C , 19-H ) :   0.1665 B(  0-C , 20-H ) :   0.8120
B(  0-C , 21-H ) :   0.7954 B(  1-C ,  2-C ) :   0.1312 B(  1-C ,  7-C ) :   1.5092
B(  1-C ,  8-N ) :   0.4267 B(  1-C ,  9-N ) :   0.2167 B(  1-C , 10-H ) :  -0.1172
B(  1-C , 12-H ) :   0.8715 B(  1-C , 20-H ) :   0.2865 B(  1-C , 21-H ) :   0.1143
B(  2-C ,  3-C ) :   1.2602 B(  2-C ,  4-H ) :   0.1390 B(  2-C ,  5-H ) :   0.1575
B(  2-C , 18-H ) :   0.7923 B(  2-C , 19-H ) :   0.7849 B(  2-C , 20-H ) :   0.1550
B(  2-C , 21-H ) :   0.1016 B(  3-C ,  4-H ) :   0.9468 B(  3-C ,  5-H ) :   0.8018
B(  3-C ,  6-S ) :   0.9492 B(  3-C , 17-O ) :   0.1445 B(  3-C , 18-H ) :   0.1386
B(  3-C , 19-H ) :   0.1168 B(  6-S , 15-O ) :   1.5334 B(  6-S , 16-F ) :   0.6050
B(  6-S , 17-O ) :   1.3746 B(  7-C ,  8-N ) :   0.6733 B(  7-C ,  9-N ) :   1.0211
B(  7-C , 10-H ) :  -0.1032 B(  7-C , 11-H ) :  -0.2256 B(  7-C , 12-H ) :   0.1122
B(  7-C , 13-H ) :  -0.1880 B(  7-C , 20-H ) :  -0.1348 B(  8-N ,  9-N ) :   0.1235
B(  8-N , 12-H ) :   0.1169 B(  8-N , 13-H ) :   1.2556 B(  8-N , 14-H ) :   1.1827
B(  9-N , 10-H ) :   1.0783 B(  9-N , 11-H ) :   1.2787 B( 10-H , 11-H ) :  -0.2058
B( 10-H , 17-O ) :   0.1030 B( 13-H , 14-H ) :  -0.1585

Dispersion correction           -0.031774200
FINAL SINGLE POINT ENERGY      -954.646169606962

DIPOLE MOMENT
-------------
                                X             Y             Z
Electronic contribution:    -16.35372      -2.68526      -1.01276
Nuclear contribution   :     16.65743       2.74852       1.69529
                        -----------------------------------------
Total Dipole Moment    :      0.30371       0.06325       0.68252
                        -----------------------------------------
Magnitude (a.u.)       :      0.74972
Magnitude (Debye)      :      1.90563

Rotational constants in cm-1:     0.059907     0.020458     0.017675
Rotational constants in MHz :  1795.978106   613.328205   529.885290

                             ****ORCA TERMINATED NORMALLY****
TOTAL RUN TIME: 0 days 0 hours 0 minutes 39 seconds 396 msec
