                         Program Version 5.0.0 -  RELEASE  -
|  1> !TPSS D3BJ RIJCOSX def2-SVPD def2/J TightSCF xyzfile
|  2>
|  3> *xyzfile 0 1 D6.xyz
|  4>
|  5> %MaxCore 64000
|  6>
|  7> %pal nprocs 4
|  8> end
|  9>
| 10> %scf
| 11>   MaxIter 150
| 12> end
| 13>
| 14>
| 15>                          ****END OF INPUT****

CARTESIAN COORDINATES (ANGSTROEM)
---------------------------------
  C      3.380928    2.083045   -3.350127
  N      4.535924    1.182447   -3.428518
  C      2.495557    1.816150   -2.136364
  C      1.872181    0.427903   -2.077497
  H      2.614270   -0.365825   -2.198894
  H      1.389953    0.273087   -1.112360
  S      0.579024    0.140472   -3.297943
  C      4.671956    0.122273   -4.220598
  N      5.866023   -0.507849   -4.224284
  C      3.698881   -0.312844   -4.986988
  H      2.731405   -0.050091   -4.849000
  H      3.890046   -1.055172   -5.643730
  H      5.251933    1.303459   -2.721014
  H      6.695165   -0.062322   -3.851596
  H      5.975383   -1.396884   -4.691414
  O      0.228860   -1.246868   -3.127871
  F     -0.439269    1.118966   -3.014550
  O      1.247881    0.403474   -4.595647
  H      1.697003    2.561969   -2.141109
  H      3.080787    1.987436   -1.225838
  H      2.806463    1.986511   -4.268484
  H      3.778714    3.098282   -3.307383

 Total Charge           Charge          ....    0
 Multiplicity           Mult            ....    1
 Number of Electrons    NEL             ....   96
 Basis Dimension        Dim             ....  324

ORBITAL ENERGIES
----------------

  NO   OCC          E(Eh)            E(eV)
   0   2.0000     -88.621822     -2411.5224
   1   2.0000     -24.541822      -667.8169
   2   2.0000     -18.912838      -514.6445
   3   2.0000     -18.900804      -514.3170
   4   2.0000     -14.120114      -384.2278
   5   2.0000     -14.110404      -383.9636
   6   2.0000     -10.057184      -273.6699
   7   2.0000     -10.040708      -273.2215
   8   2.0000     -10.032624      -273.0016
   9   2.0000     -10.029787      -272.9244
  10   2.0000      -9.893296      -269.2103
  11   2.0000      -7.982306      -217.2096
  12   2.0000      -5.972756      -162.5270
  13   2.0000      -5.966216      -162.3490
  14   2.0000      -5.964043      -162.2899
  15   2.0000      -1.293653       -35.2021
  16   2.0000      -1.035347       -28.1732
  17   2.0000      -0.939207       -25.5571
  18   2.0000      -0.886980       -24.1360
  19   2.0000      -0.810974       -22.0677
  20   2.0000      -0.762552       -20.7501
  21   2.0000      -0.690468       -18.7886
  22   2.0000      -0.658325       -17.9139
  23   2.0000      -0.636413       -17.3177
  24   2.0000      -0.590879       -16.0786
  25   2.0000      -0.543308       -14.7842
  26   2.0000      -0.531793       -14.4708
  27   2.0000      -0.517251       -14.0751
  28   2.0000      -0.505459       -13.7542
  29   2.0000      -0.486697       -13.2437
  30   2.0000      -0.469674       -12.7805
  31   2.0000      -0.451425       -12.2839
  32   2.0000      -0.443337       -12.0638
  33   2.0000      -0.420692       -11.4476
  34   2.0000      -0.407022       -11.0756
  35   2.0000      -0.404238       -10.9999
  36   2.0000      -0.372752       -10.1431
  37   2.0000      -0.358430        -9.7534
  38   2.0000      -0.355409        -9.6712
  39   2.0000      -0.347088        -9.4448
  40   2.0000      -0.337775        -9.1913
  41   2.0000      -0.325721        -8.8633
  42   2.0000      -0.309752        -8.4288
  43   2.0000      -0.284712        -7.7474
  44   2.0000      -0.267831        -7.2881
  45   2.0000      -0.257682        -7.0119
  46   2.0000      -0.209379        -5.6975
  47   2.0000      -0.131543        -3.5795
  48   0.0000      -0.021935        -0.5969
  49   0.0000      -0.002142        -0.0583
  50   0.0000       0.012583         0.3424
  51   0.0000       0.021415         0.5827
  52   0.0000       0.023042         0.6270

MULLIKEN ATOMIC CHARGES
-----------------------
   0 C :    0.913828
   1 N :   -0.571220
   2 C :    0.100987
   3 C :    0.119271
   4 H :    0.120540
   5 H :   -0.100712
   6 S :    1.518230
   7 C :    1.078706
   8 N :   -0.023883
   9 C :    0.514993
  10 H :   -0.589200
  11 H :   -0.340819
  12 H :   -0.306014
  13 H :   -0.156967
  14 H :   -0.023981
  15 O :   -0.645614
  16 F :   -0.458328
  17 O :   -0.877873
  18 H :   -0.005206
  19 H :   -0.024824
  20 H :    0.059235
  21 H :   -0.301151
Sum of atomic charges:    0.0000000

LOEWDIN ATOMIC CHARGES
----------------------
   0 C :    0.088552
   1 N :   -0.014297
   2 C :   -0.016474
   3 C :   -0.027378
   4 H :    0.028745
   5 H :    0.013446
   6 S :    1.140888
   7 C :   -0.229731
   8 N :    0.179488
   9 C :    0.195322
  10 H :   -0.201117
  11 H :   -0.084482
  12 H :    0.017490
  13 H :   -0.019853
  14 H :   -0.000496
  15 O :   -0.436637
  16 F :   -0.245779
  17 O :   -0.456766
  18 H :    0.019820
  19 H :    0.025498
  20 H :    0.004656
  21 H :    0.019105

  Mayer bond orders larger than 0.100000
B(  0-C ,  1-N ) :   0.8768 B(  0-C ,  2-C ) :   1.0881 B(  0-C , 12-H ) :  -0.1792
B(  0-C , 18-H ) :   0.1448 B(  0-C , 19-H ) :   0.1144 B(  0-C , 20-H ) :   0.7094
B(  0-C , 21-H ) :   0.8826 B(  1-N ,  2-C ) :   0.1173 B(  1-N ,  7-C ) :   0.7886
B(  1-N ,  8-N ) :   0.2171 B(  1-N ,  9-C ) :   0.2984 B(  1-N , 12-H ) :   1.4460
B(  1-N , 20-H ) :   0.1725 B(  1-N , 21-H ) :   0.1559 B(  2-C ,  3-C ) :   1.2358
B(  2-C ,  4-H ) :   0.1320 B(  2-C ,  5-H ) :   0.1656 B(  2-C , 18-H ) :   0.8427
B(  2-C , 19-H ) :   0.8258 B(  2-C , 20-H ) :   0.1335 B(  3-C ,  4-H ) :   0.9441
B(  3-C ,  5-H ) :   0.7913 B(  3-C ,  6-S ) :   0.9648 B(  3-C , 17-O ) :   0.1452
B(  3-C , 18-H ) :   0.1276 B(  3-C , 19-H ) :   0.1086 B(  6-S , 15-O ) :   1.5202
B(  6-S , 16-F ) :   0.5981 B(  6-S , 17-O ) :   1.4241 B(  7-C ,  8-N ) :   0.8303
B(  7-C ,  9-C ) :   1.6184 B(  7-C , 10-H ) :  -0.1922 B(  7-C , 11-H ) :   0.3500
B(  7-C , 12-H ) :  -0.3095 B(  7-C , 20-H ) :  -0.1037 B(  8-N ,  9-C ) :   0.3842
B(  8-N , 11-H ) :   0.1076 B(  8-N , 13-H ) :   1.2055 B(  8-N , 14-H ) :   1.1496
B(  9-C , 10-H ) :   0.1982 B(  9-C , 11-H ) :   0.8153 B( 10-H , 11-H ) :  -0.1190
B( 10-H , 17-O ) :   0.1281 B( 10-H , 20-H ) :   0.1168 B( 13-H , 14-H ) :  -0.1635
B( 20-H , 21-H ) :  -0.1560

Dispersion correction           -0.031760789
FINAL SINGLE POINT ENERGY      -954.615320300560

DIPOLE MOMENT
-------------
                                X             Y             Z
Electronic contribution:    -15.78022      -1.46885       0.17110
Nuclear contribution   :     16.57580       2.60270       1.54331
                        -----------------------------------------
Total Dipole Moment    :      0.79558       1.13385       1.71441
                        -----------------------------------------
Magnitude (a.u.)       :      2.20404
Magnitude (Debye)      :      5.60222

Rotational constants in cm-1:     0.060402     0.020377     0.017632
Rotational constants in MHz :  1810.792194   610.900365   528.582827

                             ****ORCA TERMINATED NORMALLY****
TOTAL RUN TIME: 0 days 0 hours 0 minutes 37 seconds 116 msec
