                         Program Version 5.0.0 -  RELEASE  -
|  1> !TPSS D3BJ RIJCOSX def2-SVPD def2/J TightSCF xyzfile
|  2>
|  3> *xyzfile 0 1 D7.xyz
|  4>
|  5> %MaxCore 64000
|  6>
|  7> %pal nprocs 4
|  8> end
|  9>
| 10> %scf
| 11>   MaxIter 150
| 12> end
| 13>
| 14>
| 15>                          ****END OF INPUT****

CARTESIAN COORDINATES (ANGSTROEM)
---------------------------------
  C      3.380928    2.083045   -3.350127
  C      4.535924    1.182447   -3.428518
  C      2.495557    1.816150   -2.136364
  C      1.872181    0.427903   -2.077497
  H      2.614270   -0.365825   -2.198894
  H      1.389953    0.273087   -1.112360
  S      0.579024    0.140472   -3.297943
  C      4.671956    0.122273   -4.220598
  N      5.866023   -0.507849   -4.224284
  N      3.698881   -0.312844   -4.986988
  H      2.731405   -0.050091   -4.849000
  H      3.890046   -1.055172   -5.643730
  H      5.251933    1.303459   -2.721014
  H      6.695165   -0.062322   -3.851596
  H      5.975383   -1.396884   -4.691414
  O      0.228860   -1.246868   -3.127871
  O     -0.439269    1.118966   -3.014550
  F      1.247881    0.403474   -4.595647
  H      1.697003    2.561969   -2.141109
  H      3.080787    1.987436   -1.225838
  H      2.806463    1.986511   -4.268484
  H      3.778714    3.098282   -3.307383

 Total Charge           Charge          ....    0
 Multiplicity           Mult            ....    1
 Number of Electrons    NEL             ....   96
 Basis Dimension        Dim             ....  324

ORBITAL ENERGIES
----------------

  NO   OCC          E(Eh)            E(eV)
   0   2.0000     -88.621521     -2411.5142
   1   2.0000     -24.538849      -667.7360
   2   2.0000     -18.916055      -514.7320
   3   2.0000     -18.915562      -514.7186
   4   2.0000     -14.125401      -384.3717
   5   2.0000     -14.124105      -384.3364
   6   2.0000     -10.049597      -273.4634
   7   2.0000     -10.049212      -273.4530
   8   2.0000     -10.012778      -272.4615
   9   2.0000      -9.994852      -271.9737
  10   2.0000      -9.935608      -270.3616
  11   2.0000      -7.982534      -217.2158
  12   2.0000      -5.973077      -162.5357
  13   2.0000      -5.966444      -162.3552
  14   2.0000      -5.964090      -162.2911
  15   2.0000      -1.278801       -34.7979
  16   2.0000      -1.048235       -28.5239
  17   2.0000      -0.957284       -26.0490
  18   2.0000      -0.896811       -24.4035
  19   2.0000      -0.810943       -22.0669
  20   2.0000      -0.764266       -20.7967
  21   2.0000      -0.704729       -19.1767
  22   2.0000      -0.671595       -18.2750
  23   2.0000      -0.631074       -17.1724
  24   2.0000      -0.590002       -16.0548
  25   2.0000      -0.544536       -14.8176
  26   2.0000      -0.533819       -14.5260
  27   2.0000      -0.519677       -14.1411
  28   2.0000      -0.506472       -13.7818
  29   2.0000      -0.498085       -13.5536
  30   2.0000      -0.469773       -12.7832
  31   2.0000      -0.449426       -12.2295
  32   2.0000      -0.435348       -11.8464
  33   2.0000      -0.431382       -11.7385
  34   2.0000      -0.416748       -11.3403
  35   2.0000      -0.409780       -11.1507
  36   2.0000      -0.373605       -10.1663
  37   2.0000      -0.368590       -10.0298
  38   2.0000      -0.363150        -9.8818
  39   2.0000      -0.344921        -9.3858
  40   2.0000      -0.327392        -8.9088
  41   2.0000      -0.314527        -8.5587
  42   2.0000      -0.304302        -8.2805
  43   2.0000      -0.299974        -8.1627
  44   2.0000      -0.288301        -7.8451
  45   2.0000      -0.280960        -7.6453
  46   2.0000      -0.233229        -6.3465
  47   2.0000      -0.143313        -3.8997
  48   0.0000      -0.021955        -0.5974
  49   0.0000       0.001251         0.0340
  50   0.0000       0.013968         0.3801
  51   0.0000       0.025174         0.6850
  52   0.0000       0.028751         0.7824

MULLIKEN ATOMIC CHARGES
-----------------------
   0 C :    0.356750
   1 C :   -0.227976
   2 C :    0.162397
   3 C :    0.088799
   4 H :    0.101204
   5 H :   -0.053992
   6 S :    1.411130
   7 C :    1.033577
   8 N :   -0.088423
   9 N :    0.402007
  10 H :   -0.261841
  11 H :   -0.247021
  12 H :   -0.300180
  13 H :   -0.103322
  14 H :   -0.118471
  15 O :   -0.668780
  16 O :   -0.698422
  17 F :   -0.534075
  18 H :    0.035676
  19 H :    0.011865
  20 H :   -0.166497
  21 H :   -0.134405
Sum of atomic charges:   -0.0000000

LOEWDIN ATOMIC CHARGES
----------------------
   0 C :   -0.032998
   1 C :   -0.020434
   2 C :   -0.024903
   3 C :   -0.030198
   4 H :    0.015434
   5 H :    0.027636
   6 S :    1.109283
   7 C :   -0.210598
   8 N :    0.185399
   9 N :    0.229160
  10 H :   -0.096807
  11 H :    0.002564
  12 H :   -0.049099
  13 H :    0.003075
  14 H :   -0.015243
  15 O :   -0.442271
  16 O :   -0.435995
  17 F :   -0.274184
  18 H :    0.019343
  19 H :    0.031371
  20 H :   -0.007546
  21 H :    0.017011

  Mayer bond orders larger than 0.100000
B(  0-C ,  1-C ) :   1.0854 B(  0-C ,  2-C ) :   1.1533 B(  0-C , 12-H ) :   0.2150
B(  0-C , 18-H ) :   0.1604 B(  0-C , 19-H ) :   0.1741 B(  0-C , 20-H ) :   0.8114
B(  0-C , 21-H ) :   0.8110 B(  1-C ,  7-C ) :   1.5309 B(  1-C ,  8-N ) :   0.4280
B(  1-C ,  9-N ) :   0.2230 B(  1-C , 10-H ) :  -0.1198 B(  1-C , 12-H ) :   0.8629
B(  1-C , 20-H ) :   0.2735 B(  1-C , 21-H ) :   0.1115 B(  2-C ,  3-C ) :   1.2830
B(  2-C ,  4-H ) :   0.1486 B(  2-C ,  5-H ) :   0.1637 B(  2-C , 18-H ) :   0.8091
B(  2-C , 19-H ) :   0.7644 B(  2-C , 20-H ) :   0.1487 B(  3-C ,  4-H ) :   0.9384
B(  3-C ,  5-H ) :   0.7839 B(  3-C ,  6-S ) :   0.9783 B(  3-C , 17-F ) :   0.1089
B(  3-C , 18-H ) :   0.1567 B(  3-C , 19-H ) :   0.1265 B(  6-S , 15-O ) :   1.5290
B(  6-S , 16-O ) :   1.5140 B(  6-S , 17-F ) :   0.6360 B(  7-C ,  8-N ) :   0.6675
B(  7-C ,  9-N ) :   0.9956 B(  7-C , 11-H ) :  -0.2391 B(  7-C , 12-H ) :   0.1186
B(  7-C , 13-H ) :  -0.1910 B(  7-C , 20-H ) :  -0.1434 B(  8-N ,  9-N ) :   0.1243
B(  8-N , 12-H ) :   0.1088 B(  8-N , 13-H ) :   1.2532 B(  8-N , 14-H ) :   1.1823
B(  9-N , 10-H ) :   1.0877 B(  9-N , 11-H ) :   1.2981 B( 10-H , 11-H ) :  -0.1876
B( 13-H , 14-H ) :  -0.1591 B( 15-O , 16-O ) :   0.1004

Dispersion correction           -0.031482339
FINAL SINGLE POINT ENERGY      -954.651671243596

DIPOLE MOMENT
-------------
                                X             Y             Z
Electronic contribution:    -13.22341      -3.85058      -3.64760
Nuclear contribution   :     14.80811       3.53278       3.42836
                        -----------------------------------------
Total Dipole Moment    :      1.58470      -0.31779      -0.21924
                        -----------------------------------------
Magnitude (a.u.)       :      1.63106
Magnitude (Debye)      :      4.14582

Rotational constants in cm-1:     0.059173     0.020923     0.018056
Rotational constants in MHz :  1773.956621   627.264018   541.303397

                             ****ORCA TERMINATED NORMALLY****
TOTAL RUN TIME: 0 days 0 hours 0 minutes 40 seconds 314 msec
