                         Program Version 5.0.0 -  RELEASE  -
|  1> !TPSS D3BJ RIJCOSX def2-SVPD def2/J TightSCF xyzfile
|  2>
|  3> *xyzfile 0 1 D8.xyz
|  4>
|  5> %MaxCore 64000
|  6>
|  7> %pal nprocs 4
|  8> end
|  9>
| 10> %scf
| 11>   MaxIter 150
| 12> end
| 13>
| 14>
| 15>                          ****END OF INPUT****

CARTESIAN COORDINATES (ANGSTROEM)
---------------------------------
  C      3.380928    2.083045   -3.350127
  N      4.535924    1.182447   -3.428518
  C      2.495557    1.816150   -2.136364
  C      1.872181    0.427903   -2.077497
  H      2.614270   -0.365825   -2.198894
  H      1.389953    0.273087   -1.112360
  S      0.579024    0.140472   -3.297943
  C      4.671956    0.122273   -4.220598
  C      5.866023   -0.507849   -4.224284
  N      3.698881   -0.312844   -4.986988
  H      2.731405   -0.050091   -4.849000
  H      3.890046   -1.055172   -5.643730
  H      5.251933    1.303459   -2.721014
  H      6.695165   -0.062322   -3.851596
  H      5.975383   -1.396884   -4.691414
  O      0.228860   -1.246868   -3.127871
  O     -0.439269    1.118966   -3.014550
  F      1.247881    0.403474   -4.595647
  H      1.697003    2.561969   -2.141109
  H      3.080787    1.987436   -1.225838
  H      2.806463    1.986511   -4.268484
  H      3.778714    3.098282   -3.307383

 Total Charge           Charge          ....    0
 Multiplicity           Mult            ....    1
 Number of Electrons    NEL             ....   96
 Basis Dimension        Dim             ....  324

ORBITAL ENERGIES
----------------

  NO   OCC          E(Eh)            E(eV)
   0   2.0000     -88.634359     -2411.8635
   1   2.0000     -24.549994      -668.0393
   2   2.0000     -18.927972      -515.0563
   3   2.0000     -18.927042      -515.0310
   4   2.0000     -14.131048      -384.5254
   5   2.0000     -14.120830      -384.2473
   6   2.0000     -10.067294      -273.9450
   7   2.0000     -10.059672      -273.7376
   8   2.0000     -10.047568      -273.4082
   9   2.0000     -10.039271      -273.1825
  10   2.0000      -9.917819      -269.8776
  11   2.0000      -7.995254      -217.5619
  12   2.0000      -5.985742      -162.8803
  13   2.0000      -5.979102      -162.6996
  14   2.0000      -5.976978      -162.6418
  15   2.0000      -1.290192       -35.1079
  16   2.0000      -1.059956       -28.8429
  17   2.0000      -0.968891       -26.3649
  18   2.0000      -0.904873       -24.6229
  19   2.0000      -0.830200       -22.5909
  20   2.0000      -0.775446       -21.1010
  21   2.0000      -0.711787       -19.3687
  22   2.0000      -0.668609       -18.1938
  23   2.0000      -0.644760       -17.5448
  24   2.0000      -0.590356       -16.0644
  25   2.0000      -0.564393       -15.3579
  26   2.0000      -0.554885       -15.0992
  27   2.0000      -0.537562       -14.6278
  28   2.0000      -0.513431       -13.9712
  29   2.0000      -0.491132       -13.3644
  30   2.0000      -0.471724       -12.8363
  31   2.0000      -0.456742       -12.4286
  32   2.0000      -0.449052       -12.2193
  33   2.0000      -0.441026       -12.0009
  34   2.0000      -0.427085       -11.6216
  35   2.0000      -0.417324       -11.3560
  36   2.0000      -0.386952       -10.5295
  37   2.0000      -0.371589       -10.1114
  38   2.0000      -0.365089        -9.9346
  39   2.0000      -0.357302        -9.7227
  40   2.0000      -0.348869        -9.4932
  41   2.0000      -0.341103        -9.2819
  42   2.0000      -0.323533        -8.8038
  43   2.0000      -0.313166        -8.5217
  44   2.0000      -0.303109        -8.2480
  45   2.0000      -0.293072        -7.9749
  46   2.0000      -0.226758        -6.1704
  47   2.0000      -0.135918        -3.6985
  48   0.0000      -0.032005        -0.8709
  49   0.0000      -0.004694        -0.1277
  50   0.0000       0.007780         0.2117
  51   0.0000       0.015375         0.4184
  52   0.0000       0.019624         0.5340

MULLIKEN ATOMIC CHARGES
-----------------------
   0 C :    0.890586
   1 N :   -0.382262
   2 C :    0.119587
   3 C :    0.113041
   4 H :    0.156645
   5 H :   -0.112005
   6 S :    1.405389
   7 C :    0.624728
   8 C :    0.281915
   9 N :    0.544313
  10 H :   -0.380195
  11 H :   -0.167931
  12 H :   -0.249020
  13 H :   -0.331117
  14 H :   -0.233617
  15 O :   -0.660187
  16 O :   -0.693826
  17 F :   -0.540983
  18 H :    0.047324
  19 H :   -0.005650
  20 H :   -0.104226
  21 H :   -0.322511
Sum of atomic charges:    0.0000000

LOEWDIN ATOMIC CHARGES
----------------------
   0 C :    0.078833
   1 N :   -0.002986
   2 C :   -0.016350
   3 C :   -0.028779
   4 H :    0.019891
   5 H :    0.029939
   6 S :    1.111437
   7 C :   -0.237129
   8 C :    0.149543
   9 N :    0.228040
  10 H :   -0.107184
  11 H :    0.019914
  12 H :    0.037385
  13 H :   -0.107408
  14 H :   -0.108143
  15 O :   -0.433747
  16 O :   -0.433906
  17 F :   -0.275454
  18 H :    0.024488
  19 H :    0.030314
  20 H :    0.000344
  21 H :    0.020958

  Mayer bond orders larger than 0.100000
B(  0-C ,  1-N ) :   0.9301 B(  0-C ,  2-C ) :   1.1008 B(  0-C , 12-H ) :  -0.1982
B(  0-C , 18-H ) :   0.1456 B(  0-C , 19-H ) :   0.1409 B(  0-C , 20-H ) :   0.7609
B(  0-C , 21-H ) :   0.8639 B(  1-N ,  7-C ) :   0.9680 B(  1-N ,  8-C ) :   0.2215
B(  1-N ,  9-N ) :   0.1507 B(  1-N , 12-H ) :   1.2593 B(  1-N , 20-H ) :   0.2251
B(  1-N , 21-H ) :   0.1662 B(  2-C ,  3-C ) :   1.2552 B(  2-C ,  4-H ) :   0.1425
B(  2-C ,  5-H ) :   0.1633 B(  2-C , 18-H ) :   0.8391 B(  2-C , 19-H ) :   0.7970
B(  2-C , 20-H ) :   0.1330 B(  3-C ,  4-H ) :   0.9044 B(  3-C ,  5-H ) :   0.7989
B(  3-C ,  6-S ) :   0.9856 B(  3-C , 17-F ) :   0.1034 B(  3-C , 18-H ) :   0.1372
B(  3-C , 19-H ) :   0.1152 B(  5-H ,  6-S ) :   0.1019 B(  6-S , 15-O ) :   1.5351
B(  6-S , 16-O ) :   1.5131 B(  6-S , 17-F ) :   0.6410 B(  7-C ,  8-C ) :   1.3608
B(  7-C ,  9-N ) :   1.0553 B(  7-C , 11-H ) :  -0.1275 B(  7-C , 12-H ) :  -0.2117
B(  7-C , 13-H ) :   0.1084 B(  7-C , 14-H ) :   0.1863 B(  8-C ,  9-N ) :   0.1723
B(  8-C , 13-H ) :   0.8131 B(  8-C , 14-H ) :   0.8120 B(  9-N , 10-H ) :   0.9442
B(  9-N , 11-H ) :   1.1966 B(  9-N , 20-H ) :   0.1166 B( 10-H , 11-H ) :  -0.1980
B( 13-H , 14-H ) :   0.1601 B( 15-O , 16-O ) :   0.1019 B( 20-H , 21-H ) :  -0.1387

Dispersion correction           -0.031197629
FINAL SINGLE POINT ENERGY      -954.637493929209

DIPOLE MOMENT
-------------
                                X             Y             Z
Electronic contribution:    -14.64693      -2.44884      -2.89397
Nuclear contribution   :     14.93782       3.36795       3.35075
                        -----------------------------------------
Total Dipole Moment    :      0.29089       0.91911       0.45678
                        -----------------------------------------
Magnitude (a.u.)       :      1.06679
Magnitude (Debye)      :      2.71156

Rotational constants in cm-1:     0.059219     0.021387     0.018380
Rotational constants in MHz :  1775.354399   641.172207   551.019443

                             ****ORCA TERMINATED NORMALLY****
TOTAL RUN TIME: 0 days 0 hours 0 minutes 40 seconds 947 msec
