                         Program Version 5.0.0 -  RELEASE  -
|  1> !TPSS D3BJ RIJCOSX def2-SVPD def2/J TightSCF xyzfile
|  2>
|  3> *xyzfile 0 1 D9.xyz
|  4>
|  5> %MaxCore 64000
|  6>
|  7> %pal nprocs 4
|  8> end
|  9>
| 10> %scf
| 11>   MaxIter 150
| 12> end
| 13>
| 14>
| 15>                          ****END OF INPUT****

CARTESIAN COORDINATES (ANGSTROEM)
---------------------------------
  C      3.380928    2.083045   -3.350127
  N      4.535924    1.182447   -3.428518
  C      2.495557    1.816150   -2.136364
  C      1.872181    0.427903   -2.077497
  H      2.614270   -0.365825   -2.198894
  H      1.389953    0.273087   -1.112360
  S      0.579024    0.140472   -3.297943
  C      4.671956    0.122273   -4.220598
  N      5.866023   -0.507849   -4.224284
  C      3.698881   -0.312844   -4.986988
  H      2.731405   -0.050091   -4.849000
  H      3.890046   -1.055172   -5.643730
  H      5.251933    1.303459   -2.721014
  H      6.695165   -0.062322   -3.851596
  H      5.975383   -1.396884   -4.691414
  O      0.228860   -1.246868   -3.127871
  O     -0.439269    1.118966   -3.014550
  F      1.247881    0.403474   -4.595647
  H      1.697003    2.561969   -2.141109
  H      3.080787    1.987436   -1.225838
  H      2.806463    1.986511   -4.268484
  H      3.778714    3.098282   -3.307383

 Total Charge           Charge          ....    0
 Multiplicity           Mult            ....    1
 Number of Electrons    NEL             ....   96
 Basis Dimension        Dim             ....  324

ORBITAL ENERGIES
----------------

  NO   OCC          E(Eh)            E(eV)
   0   2.0000     -88.617099     -2411.3939
   1   2.0000     -24.519948      -667.2217
   2   2.0000     -18.911144      -514.5984
   3   2.0000     -18.909603      -514.5565
   4   2.0000     -14.133287      -384.5863
   5   2.0000     -14.124930      -384.3589
   6   2.0000     -10.054005      -273.5834
   7   2.0000     -10.053687      -273.5747
   8   2.0000     -10.048524      -273.4342
   9   2.0000     -10.031986      -272.9842
  10   2.0000      -9.917614      -269.8720
  11   2.0000      -7.977568      -217.0807
  12   2.0000      -5.967813      -162.3924
  13   2.0000      -5.961558      -162.2222
  14   2.0000      -5.959575      -162.1683
  15   2.0000      -1.261764       -34.3343
  16   2.0000      -1.041965       -28.3533
  17   2.0000      -0.951947       -25.9038
  18   2.0000      -0.901611       -24.5341
  19   2.0000      -0.824218       -22.4281
  20   2.0000      -0.762545       -20.7499
  21   2.0000      -0.690351       -18.7854
  22   2.0000      -0.670171       -18.2363
  23   2.0000      -0.637253       -17.3405
  24   2.0000      -0.599147       -16.3036
  25   2.0000      -0.537598       -14.6288
  26   2.0000      -0.528958       -14.3937
  27   2.0000      -0.512569       -13.9477
  28   2.0000      -0.505257       -13.7487
  29   2.0000      -0.493100       -13.4179
  30   2.0000      -0.473995       -12.8981
  31   2.0000      -0.452562       -12.3148
  32   2.0000      -0.436848       -11.8872
  33   2.0000      -0.424337       -11.5468
  34   2.0000      -0.422230       -11.4895
  35   2.0000      -0.402324       -10.9478
  36   2.0000      -0.377157       -10.2630
  37   2.0000      -0.369130       -10.0445
  38   2.0000      -0.356040        -9.6883
  39   2.0000      -0.350100        -9.5267
  40   2.0000      -0.344542        -9.3755
  41   2.0000      -0.332558        -9.0494
  42   2.0000      -0.317192        -8.6312
  43   2.0000      -0.296966        -8.0808
  44   2.0000      -0.287729        -7.8295
  45   2.0000      -0.276138        -7.5141
  46   2.0000      -0.222136        -6.0446
  47   2.0000      -0.150251        -4.0886
  48   0.0000      -0.015042        -0.4093
  49   0.0000      -0.005094        -0.1386
  50   0.0000       0.012109         0.3295
  51   0.0000       0.021514         0.5854
  52   0.0000       0.029412         0.8003

MULLIKEN ATOMIC CHARGES
-----------------------
   0 C :    0.893998
   1 N :   -0.555021
   2 C :    0.096282
   3 C :    0.164049
   4 H :    0.112827
   5 H :   -0.112165
   6 S :    1.428838
   7 C :    1.102491
   8 N :   -0.020358
   9 C :    0.559865
  10 H :   -0.607180
  11 H :   -0.356146
  12 H :   -0.306406
  13 H :   -0.151973
  14 H :   -0.020320
  15 O :   -0.671168
  16 O :   -0.712649
  17 F :   -0.580838
  18 H :    0.027814
  19 H :   -0.005521
  20 H :    0.013349
  21 H :   -0.299768
Sum of atomic charges:   -0.0000000

LOEWDIN ATOMIC CHARGES
----------------------
   0 C :    0.087691
   1 N :   -0.011937
   2 C :   -0.014534
   3 C :   -0.028801
   4 H :    0.016592
   5 H :    0.026979
   6 S :    1.108958
   7 C :   -0.224797
   8 N :    0.186020
   9 C :    0.189293
  10 H :   -0.173739
  11 H :   -0.084271
  12 H :    0.022224
  13 H :   -0.014470
  14 H :    0.002609
  15 O :   -0.439170
  16 O :   -0.443041
  17 F :   -0.285743
  18 H :    0.024414
  19 H :    0.026502
  20 H :    0.007270
  21 H :    0.021950

  Mayer bond orders larger than 0.100000
B(  0-C ,  1-N ) :   0.8829 B(  0-C ,  2-C ) :   1.0845 B(  0-C , 12-H ) :  -0.1863
B(  0-C , 18-H ) :   0.1384 B(  0-C , 19-H ) :   0.1233 B(  0-C , 20-H ) :   0.7280
B(  0-C , 21-H ) :   0.8868 B(  1-N ,  7-C ) :   0.8074 B(  1-N ,  8-N ) :   0.2170
B(  1-N ,  9-C ) :   0.3036 B(  1-N , 12-H ) :   1.4444 B(  1-N , 20-H ) :   0.1695
B(  1-N , 21-H ) :   0.1549 B(  2-C ,  3-C ) :   1.2466 B(  2-C ,  4-H ) :   0.1413
B(  2-C ,  5-H ) :   0.1696 B(  2-C , 18-H ) :   0.8539 B(  2-C , 19-H ) :   0.8098
B(  2-C , 20-H ) :   0.1302 B(  3-C ,  4-H ) :   0.9379 B(  3-C ,  5-H ) :   0.7702
B(  3-C ,  6-S ) :   0.9831 B(  3-C , 17-F ) :   0.1176 B(  3-C , 18-H ) :   0.1437
B(  3-C , 19-H ) :   0.1178 B(  6-S , 15-O ) :   1.5210 B(  6-S , 16-O ) :   1.4912
B(  6-S , 17-F ) :   0.6611 B(  7-C ,  8-N ) :   0.8408 B(  7-C ,  9-C ) :   1.6106
B(  7-C , 10-H ) :  -0.1728 B(  7-C , 11-H ) :   0.3561 B(  7-C , 12-H ) :  -0.3155
B(  8-N ,  9-C ) :   0.3699 B(  8-N , 11-H ) :   0.1033 B(  8-N , 13-H ) :   1.2004
B(  8-N , 14-H ) :   1.1443 B(  9-C , 11-H ) :   0.8457 B( 10-H , 11-H ) :  -0.1700
B( 10-H , 17-F ) :   0.1699 B( 10-H , 20-H ) :   0.1133 B( 13-H , 14-H ) :  -0.1639
B( 20-H , 21-H ) :  -0.1626

Dispersion correction           -0.031465074
FINAL SINGLE POINT ENERGY      -954.634176903751

DIPOLE MOMENT
-------------
                                X             Y             Z
Electronic contribution:    -12.66070      -2.65818      -2.43985
Nuclear contribution   :     14.72648       3.38697       3.27638
                        -----------------------------------------
Total Dipole Moment    :      2.06578       0.72879       0.83653
                        -----------------------------------------
Magnitude (a.u.)       :      2.34486
Magnitude (Debye)      :      5.96016

Rotational constants in cm-1:     0.059651     0.020833     0.018010
Rotational constants in MHz :  1788.283887   624.555661   539.921162

                             ****ORCA TERMINATED NORMALLY****
TOTAL RUN TIME: 0 days 0 hours 0 minutes 39 seconds 146 msec
