                         Program Version 5.0.0 -  RELEASE  -
|  1> !TPSS D3BJ RIJCOSX def2-SVPD def2/J TightSCF
|  2> *xyz -1 1
|  3> C         -0.91495        0.61511        2.50554
|  4> C         -0.05915        1.50352        3.41058
|  5> H          0.36536        2.34431        2.86116
|  6> H         -0.69226        1.92021        4.19898
|  7> C          1.08303        0.74964        4.08571
|  8> O          2.22817        1.26348        4.01983
|  9> O          0.81003       -0.34541        4.63627
| 10> H         -0.30401        0.20228        1.73015
| 11> H         -1.69811        1.19946        2.06954
| 12> H         -1.34124       -0.17772        3.08397
| 13> *
| 14>
| 15> %MaxCore 64000
| 16>
| 17> %pal nprocs 4
| 18> end
| 19>
| 20> %scf
| 21>   MaxIter 150
| 22> end
| 23>
| 24>
| 25>                          ****END OF INPUT****

CARTESIAN COORDINATES (ANGSTROEM)
---------------------------------
  C     -0.914950    0.615110    2.505540
  C     -0.059150    1.503520    3.410580
  H      0.365360    2.344310    2.861160
  H     -0.692260    1.920210    4.198980
  C      1.083030    0.749640    4.085710
  O      2.228170    1.263480    4.019830
  O      0.810030   -0.345410    4.636270
  H     -0.304010    0.202280    1.730150
  H     -1.698110    1.199460    2.069540
  H     -1.341240   -0.177720    3.083970

 Total Charge           Charge          ....   -1
 Multiplicity           Mult            ....    1
 Number of Electrons    NEL             ....   40
 Basis Dimension        Dim             ....  146

ORBITAL ENERGIES
----------------

  NO   OCC          E(Eh)            E(eV)
   0   2.0000     -18.638223      -507.1718
   1   2.0000     -18.637380      -507.1489
   2   2.0000      -9.875104      -268.7152
   3   2.0000      -9.838794      -267.7272
   4   2.0000      -9.825566      -267.3672
   5   2.0000      -0.739730       -20.1291
   6   2.0000      -0.650398       -17.6982
   7   2.0000      -0.541796       -14.7430
   8   2.0000      -0.417963       -11.3734
   9   2.0000      -0.271574        -7.3899
  10   2.0000      -0.250952        -6.8288
  11   2.0000      -0.212890        -5.7930
  12   2.0000      -0.186627        -5.0784
  13   2.0000      -0.173887        -4.7317
  14   2.0000      -0.163058        -4.4370
  15   2.0000      -0.134506        -3.6601
  16   2.0000      -0.122079        -3.3219
  17   2.0000      -0.013187        -0.3588
  18   2.0000      -0.000260        -0.0071
  19   2.0000       0.015764         0.4290
  20   0.0000       0.146008         3.9731
  21   0.0000       0.180110         4.9010
  22   0.0000       0.193475         5.2647
  23   0.0000       0.203125         5.5273
  24   0.0000       0.223607         6.0847

MULLIKEN ATOMIC CHARGES
-----------------------
   0 C :    0.501146
   1 C :   -0.346338
   2 H :   -0.040851
   3 H :    0.010370
   4 C :    0.458626
   5 O :   -0.704195
   6 O :   -0.732151
   7 H :   -0.060157
   8 H :   -0.072610
   9 H :   -0.013840
Sum of atomic charges:   -1.0000000

LOEWDIN ATOMIC CHARGES
----------------------
   0 C :    0.104663
   1 C :   -0.035537
   2 H :   -0.007794
   3 H :    0.004178
   4 C :   -0.306162
   5 O :   -0.329411
   6 O :   -0.318253
   7 H :   -0.027825
   8 H :   -0.049901
   9 H :   -0.033958

  Mayer bond orders larger than 0.100000
B(  0-C ,  1-C ) :   1.2678 B(  0-C ,  7-H ) :   0.8694 B(  0-C ,  8-H ) :   0.8529
B(  0-C ,  9-H ) :   0.8385 B(  1-C ,  2-H ) :   0.9846 B(  1-C ,  3-H ) :   0.8996
B(  1-C ,  4-C ) :   1.0644 B(  1-C ,  7-H ) :   0.1633 B(  1-C ,  8-H ) :   0.1710
B(  1-C ,  9-H ) :   0.1966 B(  2-H ,  4-C ) :   0.1873 B(  4-C ,  5-O ) :   1.4237
B(  4-C ,  6-O ) :   1.4548

Dispersion correction           -0.008050693
FINAL SINGLE POINT ENERGY      -267.703749385255

DIPOLE MOMENT
-------------
                                X             Y             Z
Electronic contribution:      4.77301      -1.03161       3.38729
Nuclear contribution   :     -6.38408       1.63097      -4.40540
                        -----------------------------------------
Total Dipole Moment    :     -1.61107       0.59936      -1.01811
                        -----------------------------------------
Magnitude (a.u.)       :      1.99783
Magnitude (Debye)      :      5.07808

Rotational constants in cm-1:     0.319732     0.134414     0.104753
Rotational constants in MHz :  9585.336550  4029.633034  3140.404334

                             ****ORCA TERMINATED NORMALLY****
TOTAL RUN TIME: 0 days 0 hours 0 minutes 10 seconds 779 msec
