                         Program Version 5.0.0 -  RELEASE  -
|  1> !TPSS D3BJ RIJCOSX def2-SVPD def2/J TightSCF
|  2> *xyz 1 1
|  3> C          4.60295       -2.44010        2.63478
|  4> C          3.86085       -1.59157        3.62289
|  5> N          2.75650       -2.04616        4.16633
|  6> N          4.25433       -0.36291        3.86046
|  7> H          3.56526        0.31099        4.16898
|  8> H          5.05429       -0.01606        3.33784
|  9> H          2.43970       -2.97389        3.89740
| 10> H          2.06687       -1.41253        4.54981
| 11> C          3.74469       -2.58056        1.36188
| 12> H          5.56156       -1.97135        2.40708
| 13> H          4.81050       -3.42255        3.06310
| 14> H          4.26314       -3.18477        0.64702
| 15> H          3.56325       -1.61180        0.94535
| 16> H          2.81197       -3.04259        1.60980
| 17> *
| 18>
| 19> %MaxCore 64000
| 20>
| 21> %pal nprocs 4
| 22> end
| 23>
| 24> %scf
| 25>   MaxIter 150
| 26> end
| 27>
| 28>
| 29>                          ****END OF INPUT****

CARTESIAN COORDINATES (ANGSTROEM)
---------------------------------
  C      4.602950   -2.440100    2.634780
  C      3.860850   -1.591570    3.622890
  N      2.756500   -2.046160    4.166330
  N      4.254330   -0.362910    3.860460
  H      3.565260    0.310990    4.168980
  H      5.054290   -0.016060    3.337840
  H      2.439700   -2.973890    3.897400
  H      2.066870   -1.412530    4.549810
  C      3.744690   -2.580560    1.361880
  H      5.561560   -1.971350    2.407080
  H      4.810500   -3.422550    3.063100
  H      4.263140   -3.184770    0.647020
  H      3.563250   -1.611800    0.945350
  H      2.811970   -3.042590    1.609800

 Total Charge           Charge          ....    1
 Multiplicity           Mult            ....    1
 Number of Electrons    NEL             ....   40
 Basis Dimension        Dim             ....  172

ORBITAL ENERGIES
----------------

  NO   OCC          E(Eh)            E(eV)
   0   2.0000     -14.365015      -390.8919
   1   2.0000     -14.364179      -390.8692
   2   2.0000     -10.313246      -280.6377
   3   2.0000     -10.204044      -277.6661
   4   2.0000     -10.165879      -276.6276
   5   2.0000      -1.135189       -30.8901
   6   2.0000      -1.043518       -28.3956
   7   2.0000      -0.910069       -24.7642
   8   2.0000      -0.807368       -21.9696
   9   2.0000      -0.766889       -20.8681
  10   2.0000      -0.727917       -19.8076
  11   2.0000      -0.707825       -19.2609
  12   2.0000      -0.657252       -17.8847
  13   2.0000      -0.621674       -16.9166
  14   2.0000      -0.587104       -15.9759
  15   2.0000      -0.562174       -15.2975
  16   2.0000      -0.513927       -13.9847
  17   2.0000      -0.508383       -13.8338
  18   2.0000      -0.497292       -13.5320
  19   2.0000      -0.460447       -12.5294
  20   0.0000      -0.246097        -6.6966
  21   0.0000      -0.174044        -4.7360
  22   0.0000      -0.131653        -3.5825
  23   0.0000      -0.130108        -3.5404
  24   0.0000      -0.100475        -2.7341

MULLIKEN ATOMIC CHARGES
-----------------------
   0 C :   -0.221865
   1 C :    0.565454
   2 N :    0.077644
   3 N :   -0.009713
   4 H :   -0.066950
   5 H :    0.076519
   6 H :    0.078891
   7 H :   -0.125391
   8 C :    0.584366
   9 H :    0.015465
  10 H :    0.066841
  11 H :    0.013191
  12 H :   -0.018166
  13 H :   -0.036286
Sum of atomic charges:    1.0000000

LOEWDIN ATOMIC CHARGES
----------------------
   0 C :    0.029012
   1 C :   -0.058594
   2 N :    0.287978
   3 N :    0.286845
   4 H :    0.048669
   5 H :    0.053163
   6 H :    0.052231
   7 H :    0.050584
   8 C :    0.183724
   9 H :    0.033691
  10 H :    0.046046
  11 H :    0.006313
  12 H :   -0.002499
  13 H :   -0.017162

  Mayer bond orders larger than 0.100000
B(  0-C ,  1-C ) :   1.2138 B(  0-C ,  8-C ) :   1.2645 B(  0-C ,  9-H ) :   0.9093
B(  0-C , 10-H ) :   0.8493 B(  0-C , 11-H ) :   0.1370 B(  0-C , 12-H ) :   0.1383
B(  0-C , 13-H ) :   0.1703 B(  1-C ,  2-N ) :   1.1100 B(  1-C ,  3-N ) :   1.0623
B(  1-C ,  4-H ) :  -0.1320 B(  1-C ,  7-H ) :  -0.1348 B(  1-C ,  9-H ) :   0.1373
B(  1-C , 10-H ) :   0.1376 B(  2-N ,  3-N ) :   0.1945 B(  2-N ,  6-H ) :   1.0060
B(  2-N ,  7-H ) :   1.2770 B(  3-N ,  4-H ) :   1.2332 B(  3-N ,  5-H ) :   1.0062
B(  4-H ,  5-H ) :  -0.1328 B(  6-H ,  7-H ) :  -0.1497 B(  8-C , 11-H ) :   0.8711
B(  8-C , 12-H ) :   0.8544 B(  8-C , 13-H ) :   0.8224

Dispersion correction           -0.012633791
FINAL SINGLE POINT ENERGY      -228.923008499689

DIPOLE MOMENT
-------------
                                X             Y             Z
Electronic contribution:     -0.24305       1.79534       3.74595
Nuclear contribution   :     -0.22400      -1.16268      -3.30447
                        -----------------------------------------
Total Dipole Moment    :     -0.46705       0.63267       0.44148
                        -----------------------------------------
Magnitude (a.u.)       :      0.90183
Magnitude (Debye)      :      2.29227

Rotational constants in cm-1:     0.258103     0.130571     0.102508
Rotational constants in MHz :  7737.732062  3914.431392  3073.119154

                             ****ORCA TERMINATED NORMALLY****
TOTAL RUN TIME: 0 days 0 hours 0 minutes 13 seconds 885 msec
