                         Program Version 5.0.0 -  RELEASE  -
|  1> !TPSS D3BJ RIJCOSX def2-SVPD def2/J TightSCF
|  2> *xyz 0 1
|  3> C         -0.91495        0.61511        2.50554
|  4> C         -0.05915        1.50352        3.41058
|  5> H          0.36536        2.34431        2.86116
|  6> H         -0.69226        1.92021        4.19898
|  7> C          1.08303        0.74964        4.08571
|  8> F          2.22817        1.26348        4.01983
|  9> O          0.81003       -0.34541        4.63627
| 10> H         -0.30401        0.20228        1.73015
| 11> H         -1.69811        1.19946        2.06954
| 12> H         -1.34124       -0.17772        3.08397
| 13> *
| 14>
| 15> %MaxCore 64000
| 16>
| 17> %pal nprocs 4
| 18> end
| 19>
| 20> %scf
| 21>   MaxIter 150
| 22> end
| 23>
| 24>
| 25>                          ****END OF INPUT****

CARTESIAN COORDINATES (ANGSTROEM)
---------------------------------
  C     -0.914950    0.615110    2.505540
  C     -0.059150    1.503520    3.410580
  H      0.365360    2.344310    2.861160
  H     -0.692260    1.920210    4.198980
  C      1.083030    0.749640    4.085710
  F      2.228170    1.263480    4.019830
  O      0.810030   -0.345410    4.636270
  H     -0.304010    0.202280    1.730150
  H     -1.698110    1.199460    2.069540
  H     -1.341240   -0.177720    3.083970

 Total Charge           Charge          ....    0
 Multiplicity           Mult            ....    1
 Number of Electrons    NEL             ....   40
 Basis Dimension        Dim             ....  146

ORBITAL ENERGIES
----------------

  NO   OCC          E(Eh)            E(eV)
   0   2.0000     -24.496617      -666.5868
   1   2.0000     -18.907077      -514.4877
   2   2.0000     -10.170979      -276.7664
   3   2.0000     -10.034235      -273.0454
   4   2.0000     -10.007927      -272.3295
   5   2.0000      -1.224926       -33.3319
   6   2.0000      -0.955331       -25.9959
   7   2.0000      -0.737917       -20.0797
   8   2.0000      -0.631926       -17.1956
   9   2.0000      -0.582003       -15.8371
  10   2.0000      -0.496456       -13.5092
  11   2.0000      -0.482382       -13.1263
  12   2.0000      -0.456719       -12.4280
  13   2.0000      -0.424630       -11.5548
  14   2.0000      -0.390601       -10.6288
  15   2.0000      -0.359356        -9.7786
  16   2.0000      -0.340778        -9.2731
  17   2.0000      -0.336962        -9.1692
  18   2.0000      -0.312729        -8.5098
  19   2.0000      -0.251212        -6.8358
  20   0.0000      -0.065703        -1.7879
  21   0.0000       0.003934         0.1071
  22   0.0000       0.034299         0.9333
  23   0.0000       0.046711         1.2711
  24   0.0000       0.060982         1.6594

MULLIKEN ATOMIC CHARGES
-----------------------
   0 C :    0.524612
   1 C :   -0.402677
   2 H :   -0.005187
   3 H :    0.080436
   4 C :    0.780577
   5 F :   -0.371337
   6 O :   -0.532597
   7 H :   -0.037138
   8 H :   -0.035778
   9 H :   -0.000910
Sum of atomic charges:    0.0000000

LOEWDIN ATOMIC CHARGES
----------------------
   0 C :    0.150222
   1 C :    0.009091
   2 H :    0.016980
   3 H :    0.037497
   4 C :   -0.013092
   5 F :   -0.030904
   6 O :   -0.128392
   7 H :   -0.011832
   8 H :   -0.016465
   9 H :   -0.013106

  Mayer bond orders larger than 0.100000
B(  0-C ,  1-C ) :   1.3223 B(  0-C ,  7-H ) :   0.8640 B(  0-C ,  8-H ) :   0.8468
B(  0-C ,  9-H ) :   0.8365 B(  1-C ,  2-H ) :   0.9680 B(  1-C ,  3-H ) :   0.8758
B(  1-C ,  4-C ) :   1.0921 B(  1-C ,  7-H ) :   0.1538 B(  1-C ,  8-H ) :   0.1580
B(  1-C ,  9-H ) :   0.1765 B(  2-H ,  4-C ) :   0.1021 B(  4-C ,  5-F ) :   0.7268
B(  4-C ,  6-O ) :   1.7520

Dispersion correction           -0.007641491
FINAL SINGLE POINT ENERGY      -292.239718095058

DIPOLE MOMENT
-------------
                                X             Y             Z
Electronic contribution:      7.73753      -0.19071       4.10438
Nuclear contribution   :     -8.12386       1.06915      -4.71960
                        -----------------------------------------
Total Dipole Moment    :     -0.38633       0.87844      -0.61522
                        -----------------------------------------
Magnitude (a.u.)       :      1.13991
Magnitude (Debye)      :      2.89743

Rotational constants in cm-1:     0.309513     0.127560     0.099675
Rotational constants in MHz :  9278.979128  3824.146597  2988.174827

                             ****ORCA TERMINATED NORMALLY****
TOTAL RUN TIME: 0 days 0 hours 0 minutes 10 seconds 593 msec
