                         Program Version 5.0.0 -  RELEASE  -
|  1> !TPSS D3BJ RIJCOSX def2-SVPD def2/J TightSCF
|  2> *xyz 0 1
|  3> C          4.60295       -2.44010        2.63478
|  4> C          3.86085       -1.59157        3.62289
|  5> C          2.75650       -2.04616        4.16633
|  6> N          4.25433       -0.36291        3.86046
|  7> H          3.56526        0.31099        4.16898
|  8> H          5.05429       -0.01606        3.33784
|  9> H          2.43970       -2.97389        3.89740
| 10> H          2.06687       -1.41253        4.54981
| 11> C          3.74469       -2.58056        1.36188
| 12> H          5.56156       -1.97135        2.40708
| 13> H          4.81050       -3.42255        3.06310
| 14> H          4.26314       -3.18477        0.64702
| 15> H          3.56325       -1.61180        0.94535
| 16> H          2.81197       -3.04259        1.60980
| 17> *
| 18>
| 19> %MaxCore 64000
| 20>
| 21> %pal nprocs 4
| 22> end
| 23>
| 24> %scf
| 25>   MaxIter 150
| 26> end
| 27>
| 28>
| 29>                          ****END OF INPUT****

CARTESIAN COORDINATES (ANGSTROEM)
---------------------------------
  C      4.602950   -2.440100    2.634780
  C      3.860850   -1.591570    3.622890
  C      2.756500   -2.046160    4.166330
  N      4.254330   -0.362910    3.860460
  H      3.565260    0.310990    4.168980
  H      5.054290   -0.016060    3.337840
  H      2.439700   -2.973890    3.897400
  H      2.066870   -1.412530    4.549810
  C      3.744690   -2.580560    1.361880
  H      5.561560   -1.971350    2.407080
  H      4.810500   -3.422550    3.063100
  H      4.263140   -3.184770    0.647020
  H      3.563250   -1.611800    0.945350
  H      2.811970   -3.042590    1.609800

 Total Charge           Charge          ....    0
 Multiplicity           Mult            ....    1
 Number of Electrons    NEL             ....   40
 Basis Dimension        Dim             ....  172

ORBITAL ENERGIES
----------------

  NO   OCC          E(Eh)            E(eV)
   0   2.0000     -14.121046      -384.2532
   1   2.0000     -10.011642      -272.4306
   2   2.0000     -10.003505      -272.2092
   3   2.0000      -9.989035      -271.8155
   4   2.0000      -9.930543      -270.2238
   5   2.0000      -0.862036       -23.4572
   6   2.0000      -0.718401       -19.5487
   7   2.0000      -0.651139       -17.7184
   8   2.0000      -0.585236       -15.9251
   9   2.0000      -0.513681       -13.9780
  10   2.0000      -0.480846       -13.0845
  11   2.0000      -0.438365       -11.9285
  12   2.0000      -0.406937       -11.0733
  13   2.0000      -0.371856       -10.1187
  14   2.0000      -0.349535        -9.5113
  15   2.0000      -0.340251        -9.2587
  16   2.0000      -0.317425        -8.6376
  17   2.0000      -0.306270        -8.3340
  18   2.0000      -0.289794        -7.8857
  19   2.0000      -0.159601        -4.3430
  20   0.0000       0.005855         0.1593
  21   0.0000       0.013335         0.3629
  22   0.0000       0.039936         1.0867
  23   0.0000       0.047504         1.2927
  24   0.0000       0.056917         1.5488

MULLIKEN ATOMIC CHARGES
-----------------------
   0 C :   -0.065076
   1 C :   -0.083349
   2 C :    0.264035
   3 N :    0.085882
   4 H :   -0.103356
   5 H :   -0.056243
   6 H :   -0.059229
   7 H :   -0.390729
   8 C :    0.564023
   9 H :   -0.064725
  10 H :    0.045217
  11 H :   -0.004151
  12 H :   -0.061277
  13 H :   -0.071022
Sum of atomic charges:    0.0000000

LOEWDIN ATOMIC CHARGES
----------------------
   0 C :   -0.014425
   1 C :   -0.267540
   2 C :    0.170739
   3 N :    0.170854
   4 H :    0.007513
   5 H :   -0.002415
   6 H :   -0.080804
   7 H :   -0.085352
   8 C :    0.144925
   9 H :    0.005217
  10 H :    0.022729
  11 H :   -0.025746
  12 H :   -0.017902
  13 H :   -0.027794

  Mayer bond orders larger than 0.100000
B(  0-C ,  1-C ) :   1.1979 B(  0-C ,  2-C ) :   0.1036 B(  0-C ,  8-C ) :   1.2824
B(  0-C ,  9-H ) :   0.8316 B(  0-C , 10-H ) :   0.8345 B(  0-C , 11-H ) :   0.1546
B(  0-C , 12-H ) :   0.1688 B(  0-C , 13-H ) :   0.1772 B(  1-C ,  2-C ) :   1.7711
B(  1-C ,  3-N ) :   1.0602 B(  1-C ,  6-H ) :   0.1257 B(  1-C ,  7-H ) :   0.1248
B(  1-C ,  9-H ) :   0.1650 B(  1-C , 10-H ) :   0.1867 B(  2-C ,  3-N ) :   0.2954
B(  2-C ,  6-H ) :   0.7432 B(  2-C ,  7-H ) :   0.9197 B(  3-N ,  4-H ) :   1.1472
B(  3-N ,  5-H ) :   1.0215 B(  4-H ,  5-H ) :  -0.1158 B(  8-C , 11-H ) :   0.8269
B(  8-C , 12-H ) :   0.8563 B(  8-C , 13-H ) :   0.8730

Dispersion correction           -0.013156218
FINAL SINGLE POINT ENERGY      -212.460128487175

DIPOLE MOMENT
-------------
                                X             Y             Z
Electronic contribution:      0.79845       1.78399       2.57716
Nuclear contribution   :     -0.47010      -1.22282      -3.06417
                        -----------------------------------------
Total Dipole Moment    :      0.32835       0.56118      -0.48701
                        -----------------------------------------
Magnitude (a.u.)       :      0.81235
Magnitude (Debye)      :      2.06482

Rotational constants in cm-1:     0.271862     0.131962     0.105499
Rotational constants in MHz :  8150.219120  3956.123671  3162.785522

                             ****ORCA TERMINATED NORMALLY****
TOTAL RUN TIME: 0 days 0 hours 0 minutes 14 seconds 480 msec
