                         Program Version 5.0.0 -  RELEASE  -
|  1> !TPSS D3BJ RIJCOSX def2-SVPD def2/J TightSCF
|  2> *xyz 0 1
|  3> C         -0.91495        0.61511        2.50554
|  4> C         -0.05915        1.50352        3.41058
|  5> H          0.36536        2.34431        2.86116
|  6> H         -0.69226        1.92021        4.19898
|  7> C          1.08303        0.74964        4.08571
|  8> O          2.22817        1.26348        4.01983
|  9> F          0.81003       -0.34541        4.63627
| 10> H         -0.30401        0.20228        1.73015
| 11> H         -1.69811        1.19946        2.06954
| 12> H         -1.34124       -0.17772        3.08397
| 13> *
| 14>
| 15> %MaxCore 64000
| 16>
| 17> %pal nprocs 4
| 18> end
| 19>
| 20> %scf
| 21>   MaxIter 150
| 22> end
| 23>
| 24>
| 25>                          ****END OF INPUT****

CARTESIAN COORDINATES (ANGSTROEM)
---------------------------------
  C     -0.914950    0.615110    2.505540
  C     -0.059150    1.503520    3.410580
  H      0.365360    2.344310    2.861160
  H     -0.692260    1.920210    4.198980
  C      1.083030    0.749640    4.085710
  O      2.228170    1.263480    4.019830
  F      0.810030   -0.345410    4.636270
  H     -0.304010    0.202280    1.730150
  H     -1.698110    1.199460    2.069540
  H     -1.341240   -0.177720    3.083970

 Total Charge           Charge          ....    0
 Multiplicity           Mult            ....    1
 Number of Electrons    NEL             ....   40
 Basis Dimension        Dim             ....  146

ORBITAL ENERGIES
----------------

  NO   OCC          E(Eh)            E(eV)
   0   2.0000     -24.497784      -666.6186
   1   2.0000     -18.905911      -514.4560
   2   2.0000     -10.170460      -276.7523
   3   2.0000     -10.033772      -273.0328
   4   2.0000     -10.013097      -272.4702
   5   2.0000      -1.226460       -33.3737
   6   2.0000      -0.953420       -25.9439
   7   2.0000      -0.741977       -20.1902
   8   2.0000      -0.628234       -17.0951
   9   2.0000      -0.588523       -16.0145
  10   2.0000      -0.498945       -13.5770
  11   2.0000      -0.488137       -13.2829
  12   2.0000      -0.449645       -12.2355
  13   2.0000      -0.424776       -11.5587
  14   2.0000      -0.393026       -10.6948
  15   2.0000      -0.362721        -9.8701
  16   2.0000      -0.346042        -9.4163
  17   2.0000      -0.341221        -9.2851
  18   2.0000      -0.314587        -8.5603
  19   2.0000      -0.246221        -6.7000
  20   0.0000      -0.063527        -1.7287
  21   0.0000       0.000987         0.0268
  22   0.0000       0.036494         0.9930
  23   0.0000       0.044618         1.2141
  24   0.0000       0.061639         1.6773

MULLIKEN ATOMIC CHARGES
-----------------------
   0 C :    0.524634
   1 C :   -0.384109
   2 H :   -0.019647
   3 H :    0.069923
   4 C :    0.797230
   5 O :   -0.509403
   6 F :   -0.394375
   7 H :   -0.036131
   8 H :   -0.035181
   9 H :   -0.012939
Sum of atomic charges:   -0.0000000

LOEWDIN ATOMIC CHARGES
----------------------
   0 C :    0.142824
   1 C :    0.015229
   2 H :    0.029463
   3 H :    0.034415
   4 C :   -0.016494
   5 O :   -0.132733
   6 F :   -0.026209
   7 H :   -0.011890
   8 H :   -0.016336
   9 H :   -0.018269

  Mayer bond orders larger than 0.100000
B(  0-C ,  1-C ) :   1.2928 B(  0-C ,  7-H ) :   0.8725 B(  0-C ,  8-H ) :   0.8532
B(  0-C ,  9-H ) :   0.8327 B(  1-C ,  2-H ) :   0.9988 B(  1-C ,  3-H ) :   0.8739
B(  1-C ,  4-C ) :   1.0636 B(  1-C ,  7-H ) :   0.1464 B(  1-C ,  8-H ) :   0.1602
B(  1-C ,  9-H ) :   0.1673 B(  2-H ,  4-C ) :   0.1287 B(  4-C ,  5-O ) :   1.7425
B(  4-C ,  6-F ) :   0.7079 B(  5-O ,  6-F ) :   0.1034

Dispersion correction           -0.007585793
FINAL SINGLE POINT ENERGY      -292.238707893022

DIPOLE MOMENT
-------------
                                X             Y             Z
Electronic contribution:      5.36881      -2.84128       5.10807
Nuclear contribution   :     -6.57765       2.82334      -5.39171
                        -----------------------------------------
Total Dipole Moment    :     -1.20884      -0.01794      -0.28364
                        -----------------------------------------
Magnitude (a.u.)       :      1.24180
Magnitude (Debye)      :      3.15640

Rotational constants in cm-1:     0.294245     0.132994     0.101060
Rotational constants in MHz :  8821.228602  3987.049251  3029.696815

                             ****ORCA TERMINATED NORMALLY****
TOTAL RUN TIME: 0 days 0 hours 0 minutes 10 seconds 350 msec
