                         Program Version 5.0.0 -  RELEASE  -
|  1> !TPSS D3BJ RIJCOSX def2-SVPD def2/J TightSCF
|  2> *xyz 0 1
|  3> C          4.60295       -2.44010        2.63478
|  4> C          3.86085       -1.59157        3.62289
|  5> N          2.75650       -2.04616        4.16633
|  6> C          4.25433       -0.36291        3.86046
|  7> H          3.56526        0.31099        4.16898
|  8> H          5.05429       -0.01606        3.33784
|  9> H          2.43970       -2.97389        3.89740
| 10> H          2.06687       -1.41253        4.54981
| 11> C          3.74469       -2.58056        1.36188
| 12> H          5.56156       -1.97135        2.40708
| 13> H          4.81050       -3.42255        3.06310
| 14> H          4.26314       -3.18477        0.64702
| 15> H          3.56325       -1.61180        0.94535
| 16> H          2.81197       -3.04259        1.60980
| 17> *
| 18>
| 19> %MaxCore 64000
| 20>
| 21> %pal nprocs 4
| 22> end
| 23>
| 24> %scf
| 25>   MaxIter 150
| 26> end
| 27>
| 28>
| 29>                          ****END OF INPUT****

CARTESIAN COORDINATES (ANGSTROEM)
---------------------------------
  C      4.602950   -2.440100    2.634780
  C      3.860850   -1.591570    3.622890
  N      2.756500   -2.046160    4.166330
  C      4.254330   -0.362910    3.860460
  H      3.565260    0.310990    4.168980
  H      5.054290   -0.016060    3.337840
  H      2.439700   -2.973890    3.897400
  H      2.066870   -1.412530    4.549810
  C      3.744690   -2.580560    1.361880
  H      5.561560   -1.971350    2.407080
  H      4.810500   -3.422550    3.063100
  H      4.263140   -3.184770    0.647020
  H      3.563250   -1.611800    0.945350
  H      2.811970   -3.042590    1.609800

 Total Charge           Charge          ....    0
 Multiplicity           Mult            ....    1
 Number of Electrons    NEL             ....   40
 Basis Dimension        Dim             ....  172

ORBITAL ENERGIES
----------------

  NO   OCC          E(Eh)            E(eV)
   0   2.0000     -14.120986      -384.2516
   1   2.0000     -10.012486      -272.4536
   2   2.0000     -10.002957      -272.1943
   3   2.0000      -9.992847      -271.9192
   4   2.0000      -9.931566      -270.2517
   5   2.0000      -0.861692       -23.4478
   6   2.0000      -0.716816       -19.5056
   7   2.0000      -0.658718       -17.9246
   8   2.0000      -0.580749       -15.8030
   9   2.0000      -0.520446       -14.1620
  10   2.0000      -0.481893       -13.1130
  11   2.0000      -0.433643       -11.8000
  12   2.0000      -0.399200       -10.8628
  13   2.0000      -0.387761       -10.5515
  14   2.0000      -0.348689        -9.4883
  15   2.0000      -0.342555        -9.3214
  16   2.0000      -0.321468        -8.7476
  17   2.0000      -0.302697        -8.2368
  18   2.0000      -0.286980        -7.8091
  19   2.0000      -0.162158        -4.4125
  20   0.0000       0.003752         0.1021
  21   0.0000       0.015158         0.4125
  22   0.0000       0.043730         1.1900
  23   0.0000       0.046554         1.2668
  24   0.0000       0.054092         1.4719

MULLIKEN ATOMIC CHARGES
-----------------------
   0 C :   -0.200690
   1 C :   -0.168502
   2 N :    0.207095
   3 C :    0.275860
   4 H :   -0.330155
   5 H :   -0.031269
   6 H :   -0.069160
   7 H :   -0.190892
   8 C :    0.619930
   9 H :    0.068302
  10 H :   -0.028709
  11 H :   -0.067701
  12 H :   -0.035076
  13 H :   -0.049033
Sum of atomic charges:   -0.0000000

LOEWDIN ATOMIC CHARGES
----------------------
   0 C :   -0.015167
   1 C :   -0.272811
   2 N :    0.174427
   3 C :    0.172199
   4 H :   -0.086185
   5 H :   -0.084203
   6 H :   -0.000339
   7 H :    0.009309
   8 C :    0.144242
   9 H :    0.018023
  10 H :    0.014012
  11 H :   -0.024065
  12 H :   -0.014943
  13 H :   -0.034498

  Mayer bond orders larger than 0.100000
B(  0-C ,  1-C ) :   1.2862 B(  0-C ,  8-C ) :   1.2547 B(  0-C ,  9-H ) :   0.8943
B(  0-C , 10-H ) :   0.8521 B(  0-C , 11-H ) :   0.1901 B(  0-C , 12-H ) :   0.1496
B(  0-C , 13-H ) :   0.2035 B(  1-C ,  2-N ) :   1.1070 B(  1-C ,  3-C ) :   1.9015
B(  1-C ,  4-H ) :   0.2353 B(  1-C ,  5-H ) :   0.1454 B(  1-C ,  9-H ) :   0.1710
B(  1-C , 10-H ) :   0.1821 B(  2-N ,  3-C ) :   0.2744 B(  2-N ,  6-H ) :   1.0411
B(  2-N ,  7-H ) :   1.1904 B(  3-C ,  4-H ) :   0.8113 B(  3-C ,  5-H ) :   0.8745
B(  4-H ,  5-H ) :   0.1058 B(  6-H ,  7-H ) :  -0.1169 B(  8-C ,  9-H ) :   0.1021
B(  8-C , 11-H ) :   0.8592 B(  8-C , 12-H ) :   0.8591 B(  8-C , 13-H ) :   0.8117

Dispersion correction           -0.013135348
FINAL SINGLE POINT ENERGY      -212.460656665704

DIPOLE MOMENT
-------------
                                X             Y             Z
Electronic contribution:     -0.49212       0.32557       2.84848
Nuclear contribution   :     -0.12319      -0.83296      -3.13501
                        -----------------------------------------
Total Dipole Moment    :     -0.61531      -0.50739      -0.28653
                        -----------------------------------------
Magnitude (a.u.)       :      0.84744
Magnitude (Debye)      :      2.15401

Rotational constants in cm-1:     0.266453     0.134423     0.106086
Rotational constants in MHz :  7988.053142  4029.892766  3180.375228

                             ****ORCA TERMINATED NORMALLY****
TOTAL RUN TIME: 0 days 0 hours 0 minutes 14 seconds 115 msec
