                         Program Version 5.0.0 -  RELEASE  -
|  1> !PBE0 D3BJ RIJCOSX def2-TZVPD def2/J TightSCF
|  2> *xyz -1 1
|  3> C         -1.10433        0.25137       -2.86006
|  4> C         -0.71189        0.84252       -4.21834
|  5> H          0.15463        1.49980       -4.13091
|  6> H         -1.53813        1.45922       -4.58267
|  7> C         -0.39762       -0.20587       -5.28802
|  8> O          0.61717       -0.00535       -5.99827
|  9> O         -1.13317       -1.22138       -5.34147
| 10> H         -1.95489       -0.38644       -2.98099
| 11> H         -1.34603        1.04362       -2.18269
| 12> H         -0.28606       -0.31581       -2.46809
| 13> *
| 14>
| 15> %MaxCore 64000
| 16>
| 17> %pal nprocs 4
| 18> end
| 19>
| 20> %scf
| 21>   MaxIter 150
| 22> end
| 23>
| 24>
| 25>                          ****END OF INPUT****

CARTESIAN COORDINATES (ANGSTROEM)
---------------------------------
  C     -1.104330    0.251370   -2.860060
  C     -0.711890    0.842520   -4.218340
  H      0.154630    1.499800   -4.130910
  H     -1.538130    1.459220   -4.582670
  C     -0.397620   -0.205870   -5.288020
  O      0.617170   -0.005350   -5.998270
  O     -1.133170   -1.221380   -5.341470
  H     -1.954890   -0.386440   -2.980990
  H     -1.346030    1.043620   -2.182690
  H     -0.286060   -0.315810   -2.468090

 Total Charge           Charge          ....   -1
 Multiplicity           Mult            ....    1
 Number of Electrons    NEL             ....   40
 Basis Dimension        Dim             ....  236

ORBITAL ENERGIES
----------------

  NO   OCC          E(Eh)            E(eV)
   0   2.0000     -18.939860      -515.3798
   1   2.0000     -18.938991      -515.3562
   2   2.0000     -10.099937      -274.8333
   3   2.0000     -10.053733      -273.5760
   4   2.0000     -10.045812      -273.3604
   5   2.0000      -0.848583       -23.0911
   6   2.0000      -0.754854       -20.5406
   7   2.0000      -0.626102       -17.0371
   8   2.0000      -0.492872       -13.4117
   9   2.0000      -0.334315        -9.0972
  10   2.0000      -0.305387        -8.3100
  11   2.0000      -0.274967        -7.4822
  12   2.0000      -0.242898        -6.6096
  13   2.0000      -0.226705        -6.1690
  14   2.0000      -0.219920        -5.9843
  15   2.0000      -0.190971        -5.1966
  16   2.0000      -0.172539        -4.6950
  17   2.0000      -0.060620        -1.6496
  18   2.0000      -0.052997        -1.4421
  19   2.0000      -0.040594        -1.1046
  20   0.0000       0.139924         3.8075
  21   0.0000       0.164940         4.4882
  22   0.0000       0.176680         4.8077
  23   0.0000       0.188830         5.1383
  24   0.0000       0.209958         5.7133

MULLIKEN ATOMIC CHARGES
-----------------------
   0 C :   -0.707935
   1 C :    0.118397
   2 H :    0.113889
   3 H :    0.088454
   4 C :    0.247966
   5 O :   -0.702337
   6 O :   -0.698556
   7 H :    0.179459
   8 H :    0.172671
   9 H :    0.187991
Sum of atomic charges:   -1.0000000

LOEWDIN ATOMIC CHARGES
----------------------
   0 C :   -0.136428
   1 C :   -0.210612
   2 H :    0.087261
   3 H :    0.094420
   4 C :   -0.778344
   5 O :   -0.109873
   6 O :   -0.101000
   7 H :    0.053665
   8 H :    0.041267
   9 H :    0.059644

  Mayer bond orders larger than 0.100000
B(  0-C ,  1-C ) :   0.7547 B(  0-C ,  4-C ) :   0.1454 B(  0-C ,  7-H ) :   1.0174
B(  0-C ,  8-H ) :   0.9880 B(  0-C ,  9-H ) :   0.9831 B(  1-C ,  2-H ) :   1.0085
B(  1-C ,  3-H ) :   0.9274 B(  1-C ,  4-C ) :   0.9664 B(  4-C ,  5-O ) :   1.4860
B(  4-C ,  6-O ) :   1.5074

Dispersion correction           -0.005443942
FINAL SINGLE POINT ENERGY      -267.648305831720

DIPOLE MOMENT
-------------
                                X             Y             Z
Electronic contribution:      1.55177      -2.38603      -5.24393
Nuclear contribution   :     -2.09607       3.44215       6.87744
                        -----------------------------------------
Total Dipole Moment    :     -0.54430       1.05612       1.63351
                        -----------------------------------------
Magnitude (a.u.)       :      2.01990
Magnitude (Debye)      :      5.13418

Rotational constants in cm-1:     0.324698     0.133739     0.103466
Rotational constants in MHz :  9734.203431  4009.406827  3101.846422

                             ****ORCA TERMINATED NORMALLY****
TOTAL RUN TIME: 0 days 0 hours 0 minutes 33 seconds 958 msec
