                         Program Version 5.0.0 -  RELEASE  -
|  1> !PBE0 D3BJ RIJCOSX def2-TZVPD def2/J TightSCF
|  2> *xyz 1 1
|  3> C          2.23447       -2.98975       -2.39762
|  4> N          2.75680       -2.94555       -3.76503
|  5> C          1.98721       -2.59045       -4.81898
|  6> N          0.74322       -3.01749       -4.91352
|  7> N          2.49964       -1.84860       -5.80324
|  8> H          3.30978       -1.29282       -5.55895
|  9> H          1.80103       -1.30430       -6.28913
| 10> H          3.71612       -2.62880       -3.82953
| 11> H          0.39583       -3.62775       -4.18502
| 12> H          0.03920       -2.45438       -5.37137
| 13> C          2.19120       -1.61950       -1.71549
| 14> H          2.87278       -3.66637       -1.82801
| 15> H          1.24619       -3.44744       -2.40784
| 16> H          1.56387       -0.96046       -2.27853
| 17> H          3.18033       -1.21449       -1.66568
| 18> H          1.79916       -1.72608       -0.72562
| 19> *
| 20>
| 21> %MaxCore 64000
| 22>
| 23> %pal nprocs 4
| 24> end
| 25>
| 26> %scf
| 27>   MaxIter 150
| 28> end
| 29>
| 30>
| 31>                          ****END OF INPUT****

CARTESIAN COORDINATES (ANGSTROEM)
---------------------------------
  C      2.234470   -2.989750   -2.397620
  N      2.756800   -2.945550   -3.765030
  C      1.987210   -2.590450   -4.818980
  N      0.743220   -3.017490   -4.913520
  N      2.499640   -1.848600   -5.803240
  H      3.309780   -1.292820   -5.558950
  H      1.801030   -1.304300   -6.289130
  H      3.716120   -2.628800   -3.829530
  H      0.395830   -3.627750   -4.185020
  H      0.039200   -2.454380   -5.371370
  C      2.191200   -1.619500   -1.715490
  H      2.872780   -3.666370   -1.828010
  H      1.246190   -3.447440   -2.407840
  H      1.563870   -0.960460   -2.278530
  H      3.180330   -1.214490   -1.665680
  H      1.799160   -1.726080   -0.725620

 Total Charge           Charge          ....    1
 Multiplicity           Mult            ....    1
 Number of Electrons    NEL             ....   48
 Basis Dimension        Dim             ....  312

ORBITAL ENERGIES
----------------

  NO   OCC          E(Eh)            E(eV)
   0   2.0000     -14.613552      -397.6550
   1   2.0000     -14.609690      -397.5499
   2   2.0000     -14.609148      -397.5351
   3   2.0000     -10.560127      -287.3557
   4   2.0000     -10.431210      -283.8477
   5   2.0000     -10.360689      -281.9287
   6   2.0000      -1.249153       -33.9912
   7   2.0000      -1.133428       -30.8421
   8   2.0000      -1.128864       -30.7180
   9   2.0000      -0.952443       -25.9173
  10   2.0000      -0.864358       -23.5204
  11   2.0000      -0.824496       -22.4357
  12   2.0000      -0.802235       -21.8299
  13   2.0000      -0.758272       -20.6336
  14   2.0000      -0.716877       -19.5072
  15   2.0000      -0.700102       -19.0507
  16   2.0000      -0.664849       -18.0915
  17   2.0000      -0.636701       -17.3255
  18   2.0000      -0.616945       -16.7879
  19   2.0000      -0.583634       -15.8815
  20   2.0000      -0.548761       -14.9325
  21   2.0000      -0.529244       -14.4015
  22   2.0000      -0.502950       -13.6860
  23   2.0000      -0.464579       -12.6418
  24   0.0000      -0.191648        -5.2150
  25   0.0000      -0.156501        -4.2586
  26   0.0000      -0.125588        -3.4174
  27   0.0000      -0.112682        -3.0662
  28   0.0000      -0.092714        -2.5229

MULLIKEN ATOMIC CHARGES
-----------------------
   0 C :   -0.257536
   1 N :   -0.023522
   2 C :    0.345294
   3 N :   -0.210780
   4 N :   -0.296397
   5 H :    0.233343
   6 H :    0.232684
   7 H :    0.237690
   8 H :    0.233117
   9 H :    0.222294
  10 C :   -0.768339
  11 H :    0.169747
  12 H :    0.178328
  13 H :    0.214683
  14 H :    0.259220
  15 H :    0.230177
Sum of atomic charges:    1.0000000

LOEWDIN ATOMIC CHARGES
----------------------
   0 C :   -0.209018
   1 N :    0.085955
   2 C :   -0.442393
   3 N :    0.225973
   4 N :    0.209713
   5 H :    0.137076
   6 H :    0.136633
   7 H :    0.158833
   8 H :    0.132291
   9 H :    0.147023
  10 C :   -0.055775
  11 H :    0.130253
  12 H :    0.109534
  13 H :    0.072486
  14 H :    0.077273
  15 H :    0.084142

  Mayer bond orders larger than 0.100000
B(  0-C ,  1-N ) :   0.9273 B(  0-C , 10-C ) :   0.8585 B(  0-C , 11-H ) :   1.0105
B(  0-C , 12-H ) :   0.9100 B(  1-N ,  2-C ) :   1.3051 B(  1-N ,  7-H ) :   0.8820
B(  2-C ,  3-N ) :   1.2251 B(  2-C ,  4-N ) :   1.2539 B(  3-N ,  8-H ) :   0.9091
B(  3-N ,  9-H ) :   0.9481 B(  4-N ,  5-H ) :   0.9293 B(  4-N ,  6-H ) :   0.9075
B( 10-C , 13-H ) :   0.9918 B( 10-C , 14-H ) :   0.9560 B( 10-C , 15-H ) :   0.9916

Dispersion correction           -0.010499200
FINAL SINGLE POINT ENERGY      -284.172410147860

DIPOLE MOMENT
-------------
                                X             Y             Z
Electronic contribution:      0.18626      -1.68280      -5.18693
Nuclear contribution   :     -0.59121       2.30298       4.63196
                        -----------------------------------------
Total Dipole Moment    :     -0.40495       0.62018      -0.55497
                        -----------------------------------------
Magnitude (a.u.)       :      0.92553
Magnitude (Debye)      :      2.35250

Rotational constants in cm-1:     0.205874     0.074757     0.066901
Rotational constants in MHz :  6171.937773  2241.151057  2005.629823

                             ****ORCA TERMINATED NORMALLY****
TOTAL RUN TIME: 0 days 0 hours 1 minutes 0 seconds 536 msec
