                         Program Version 5.0.0 -  RELEASE  -
|  1> !PBE0 D3BJ RIJCOSX def2-TZVPD def2/J TightSCF xyzfile
|  2>
|  3> *xyzfile 0 1 B.xyz
|  4>
|  5> %MaxCore 64000
|  6>
|  7> %pal nprocs 4
|  8> end
|  9>
| 10> %scf
| 11>   MaxIter 150
| 12> end
| 13>
| 14>
| 15>                          ****END OF INPUT****

CARTESIAN COORDINATES (ANGSTROEM)
---------------------------------
  C      2.234473   -2.989754   -2.397622
  N      2.756799   -2.945553   -3.765029
  C     -1.104325    0.251374   -2.860056
  C     -0.711893    0.842517   -4.218344
  H      0.154626    1.499800   -4.130909
  H     -1.538134    1.459222   -4.582671
  C     -0.397624   -0.205875   -5.288018
  C      1.987208   -2.590451   -4.818975
  N      0.743221   -3.017493   -4.913524
  N      2.499636   -1.848598   -5.803241
  H      3.309780   -1.292818   -5.558947
  H      1.801025   -1.304298   -6.289129
  H      3.716116   -2.628797   -3.829533
  H      0.395828   -3.627747   -4.185024
  H      0.039201   -2.454383   -5.371367
  O      0.617165   -0.005348   -5.998273
  O     -1.133173   -1.221380   -5.341465
  C      2.191199   -1.619503   -1.715492
  H      2.872783   -3.666368   -1.828014
  H      1.246188   -3.447444   -2.407842
  C      1.298729   -0.554314   -2.359773
  H      1.872917   -1.787955   -0.681310
  H      3.216809   -1.238432   -1.654428
  C     -0.196255   -0.863365   -2.325763
  H      1.612531   -0.371346   -3.393065
  H      1.480944    0.388638   -1.834444
  H     -0.404105   -1.761825   -2.909448
  H     -0.490439   -1.087880   -1.294131
  H     -1.143842    1.066711   -2.129680
  H     -2.114401   -0.156834   -2.930323

 Total Charge           Charge          ....    0
 Multiplicity           Mult            ....    1
 Number of Electrons    NEL             ....  102
 Basis Dimension        Dim             ....  640

ORBITAL ENERGIES
----------------

  NO   OCC          E(Eh)            E(eV)
   0   2.0000     -19.122717      -520.3556
   1   2.0000     -19.121270      -520.3162
   2   2.0000     -14.453735      -393.3061
   3   2.0000     -14.421946      -392.4411
   4   2.0000     -14.421258      -392.4224
   5   2.0000     -10.385953      -282.6161
   6   2.0000     -10.296730      -280.1883
   7   2.0000     -10.277561      -279.6667
   8   2.0000     -10.246494      -278.8213
   9   2.0000     -10.226474      -278.2765
  10   2.0000     -10.212883      -277.9067
  11   2.0000     -10.203593      -277.6539
  12   2.0000     -10.189978      -277.2834
  13   2.0000      -1.077286       -29.3144
  14   2.0000      -1.035892       -28.1881
  15   2.0000      -0.970477       -26.4080
  16   2.0000      -0.951822       -25.9004
  17   2.0000      -0.936117       -25.4730
  18   2.0000      -0.843483       -22.9523
  19   2.0000      -0.800197       -21.7745
  20   2.0000      -0.748048       -20.3554
  21   2.0000      -0.702526       -19.1167
  22   2.0000      -0.674646       -18.3580
  23   2.0000      -0.640236       -17.4217
  24   2.0000      -0.629990       -17.1429
  25   2.0000      -0.596915       -16.2429
  26   2.0000      -0.574513       -15.6333
  27   2.0000      -0.548809       -14.9338
  28   2.0000      -0.526047       -14.3145
  29   2.0000      -0.516267       -14.0483
  30   2.0000      -0.497728       -13.5439
  31   2.0000      -0.486220       -13.2307
  32   2.0000      -0.480693       -13.0803
  33   2.0000      -0.462622       -12.5886
  34   2.0000      -0.450420       -12.2565
  35   2.0000      -0.441154       -12.0044
  36   2.0000      -0.426682       -11.6106
  37   2.0000      -0.421909       -11.4807
  38   2.0000      -0.404879       -11.0173
  39   2.0000      -0.393719       -10.7136
  40   2.0000      -0.380476       -10.3533
  41   2.0000      -0.370640       -10.0856
  42   2.0000      -0.357113        -9.7176
  43   2.0000      -0.339758        -9.2453
  44   2.0000      -0.327632        -8.9153
  45   2.0000      -0.321011        -8.7352
  46   2.0000      -0.316575        -8.6144
  47   2.0000      -0.307115        -8.3570
  48   2.0000      -0.244057        -6.6411
  49   2.0000      -0.232887        -6.3372
  50   2.0000      -0.226520        -6.1639
  51   0.0000      -0.019584        -0.5329
  52   0.0000      -0.017940        -0.4882
  53   0.0000       0.001208         0.0329
  54   0.0000       0.014124         0.3843
  55   0.0000       0.024048         0.6544

MULLIKEN ATOMIC CHARGES
-----------------------
   0 C :   -0.561432
   1 N :    0.024053
   2 C :   -0.237670
   3 C :   -0.161329
   4 H :    0.170198
   5 H :    0.115016
   6 C :    0.527114
   7 C :    0.021105
   8 N :   -0.159777
   9 N :   -0.261022
  10 H :    0.206575
  11 H :    0.299141
  12 H :    0.246115
  13 H :    0.244536
  14 H :    0.240676
  15 O :   -0.800616
  16 O :   -0.801654
  17 C :   -0.237935
  18 H :    0.105610
  19 H :    0.253094
  20 C :   -0.156986
  21 H :    0.159190
  22 H :    0.125020
  23 C :   -0.239102
  24 H :    0.190030
  25 H :    0.205310
  26 H :    0.098269
  27 H :    0.122974
  28 H :    0.080084
  29 H :    0.183413
Sum of atomic charges:   -0.0000000

LOEWDIN ATOMIC CHARGES
----------------------
   0 C :   -0.179791
   1 N :    0.074589
   2 C :   -0.201429
   3 C :   -0.127336
   4 H :    0.106361
   5 H :    0.117650
   6 C :   -0.683726
   7 C :   -0.458139
   8 N :    0.231837
   9 N :    0.195452
  10 H :    0.124876
  11 H :    0.072522
  12 H :    0.146432
  13 H :    0.123183
  14 H :    0.064150
  15 O :   -0.061127
  16 O :   -0.053026
  17 C :   -0.184050
  18 H :    0.120046
  19 H :    0.108418
  20 C :   -0.201189
  21 H :    0.116343
  22 H :    0.110768
  23 C :   -0.210796
  24 H :    0.103169
  25 H :    0.122118
  26 H :    0.088863
  27 H :    0.115159
  28 H :    0.107984
  29 H :    0.110690

  Mayer bond orders larger than 0.100000
B(  0-C ,  1-N ) :   0.9509 B(  0-C ,  8-N ) :   0.1441 B(  0-C , 17-C ) :   0.8601
B(  0-C , 18-H ) :   1.0337 B(  0-C , 19-H ) :   0.9068 B(  0-C , 23-C ) :   0.1433
B(  1-N ,  7-C ) :   1.2296 B(  1-N , 12-H ) :   0.8236 B(  2-C ,  3-C ) :   0.9895
B(  2-C ,  6-C ) :   0.1086 B(  2-C , 20-C ) :   0.2448 B(  2-C , 23-C ) :   1.1535
B(  2-C , 26-H ) :   0.1376 B(  2-C , 28-H ) :   0.9241 B(  2-C , 29-H ) :   0.8530
B(  3-C ,  4-H ) :   0.9514 B(  3-C ,  5-H ) :   0.8851 B(  3-C ,  6-C ) :   1.0219
B(  3-C , 20-C ) :   0.1509 B(  6-C , 15-O ) :   1.2229 B(  6-C , 16-O ) :   1.3212
B(  7-C ,  8-N ) :   1.3160 B(  7-C ,  9-N ) :   1.2575 B(  7-C , 15-O ) :   0.1199
B(  7-C , 20-C ) :   0.1310 B(  8-N , 13-H ) :   0.8416 B(  8-N , 14-H ) :   0.7618
B(  9-N , 10-H ) :   0.9063 B(  9-N , 11-H ) :   0.7703 B( 14-H , 16-O ) :   0.1299
B( 15-O , 16-O ) :   0.1180 B( 17-C , 20-C ) :   1.0604 B( 17-C , 21-H ) :   0.9491
B( 17-C , 22-H ) :   0.9484 B( 17-C , 23-C ) :   0.3173 B( 17-C , 24-H ) :   0.1102
B( 20-C , 23-C ) :   0.7529 B( 20-C , 24-H ) :   1.0424 B( 20-C , 25-H ) :   0.7793
B( 23-C , 26-H ) :   1.0735 B( 23-C , 27-H ) :   0.8609

Dispersion correction           -0.030799742
FINAL SINGLE POINT ENERGY      -629.375583818983

DIPOLE MOMENT
-------------
                                X             Y             Z
Electronic contribution:      0.57788      -2.84155     -10.24920
Nuclear contribution   :      1.76912       1.50070      12.36652
                        -----------------------------------------
Total Dipole Moment    :      2.34699      -1.34085       2.11732
                        -----------------------------------------
Magnitude (a.u.)       :      3.43355
Magnitude (Debye)      :      8.72740

Rotational constants in cm-1:     0.033272     0.023886     0.017112
Rotational constants in MHz :   997.469575   716.074432   513.001395

                             ****ORCA TERMINATED NORMALLY****
TOTAL RUN TIME: 0 days 0 hours 5 minutes 22 seconds 869 msec
