                         Program Version 5.0.0 -  RELEASE  -
|  1> !PBE0 D3BJ RIJCOSX def2-TZVPD def2/J TightSCF
|  2> *xyz 0 1
|  3> C         -1.10433        0.25137       -2.86006
|  4> C         -0.71189        0.84252       -4.21834
|  5> H          0.15463        1.49980       -4.13091
|  6> H         -1.53813        1.45922       -4.58267
|  7> C         -0.39762       -0.20587       -5.28802
|  8> F          0.61717       -0.00535       -5.99827
|  9> O         -1.13317       -1.22138       -5.34147
| 10> H         -1.95489       -0.38644       -2.98099
| 11> H         -1.34603        1.04362       -2.18269
| 12> H         -0.28606       -0.31581       -2.46809
| 13> *
| 14>
| 15> %MaxCore 64000
| 16>
| 17> %pal nprocs 4
| 18> end
| 19>
| 20> %scf
| 21>   MaxIter 150
| 22> end
| 23>
| 24>
| 25>                          ****END OF INPUT****

CARTESIAN COORDINATES (ANGSTROEM)
---------------------------------
  C     -1.104330    0.251370   -2.860060
  C     -0.711890    0.842520   -4.218340
  H      0.154630    1.499800   -4.130910
  H     -1.538130    1.459220   -4.582670
  C     -0.397620   -0.205870   -5.288020
  F      0.617170   -0.005350   -5.998270
  O     -1.133170   -1.221380   -5.341470
  H     -1.954890   -0.386440   -2.980990
  H     -1.346030    1.043620   -2.182690
  H     -0.286060   -0.315810   -2.468090

 Total Charge           Charge          ....    0
 Multiplicity           Mult            ....    1
 Number of Electrons    NEL             ....   40
 Basis Dimension        Dim             ....  236

ORBITAL ENERGIES
----------------

  NO   OCC          E(Eh)            E(eV)
   0   2.0000     -24.842687      -676.0039
   1   2.0000     -19.212215      -522.7910
   2   2.0000     -10.399338      -282.9804
   3   2.0000     -10.254560      -279.0408
   4   2.0000     -10.222393      -278.1654
   5   2.0000      -1.353474       -36.8299
   6   2.0000      -1.062967       -28.9248
   7   2.0000      -0.823208       -22.4006
   8   2.0000      -0.713697       -19.4207
   9   2.0000      -0.657828       -17.9004
  10   2.0000      -0.566813       -15.4238
  11   2.0000      -0.553603       -15.0643
  12   2.0000      -0.526764       -14.3340
  13   2.0000      -0.480326       -13.0703
  14   2.0000      -0.449266       -12.2251
  15   2.0000      -0.410395       -11.1674
  16   2.0000      -0.390467       -10.6251
  17   2.0000      -0.387898       -10.5552
  18   2.0000      -0.361752        -9.8438
  19   2.0000      -0.308081        -8.3833
  20   0.0000      -0.025853        -0.7035
  21   0.0000       0.008605         0.2341
  22   0.0000       0.034741         0.9454
  23   0.0000       0.044940         1.2229
  24   0.0000       0.054984         1.4962

MULLIKEN ATOMIC CHARGES
-----------------------
   0 C :   -0.752327
   1 C :    0.075780
   2 H :    0.163641
   3 H :    0.148207
   4 C :    0.374059
   5 F :   -0.175877
   6 O :   -0.460956
   7 H :    0.219204
   8 H :    0.183034
   9 H :    0.225234
Sum of atomic charges:    0.0000000

LOEWDIN ATOMIC CHARGES
----------------------
   0 C :   -0.089677
   1 C :   -0.156936
   2 H :    0.108922
   3 H :    0.122341
   4 C :   -0.487423
   5 F :    0.206561
   6 O :    0.081070
   7 H :    0.071643
   8 H :    0.068877
   9 H :    0.074622

  Mayer bond orders larger than 0.100000
B(  0-C ,  1-C ) :   0.8301 B(  0-C ,  4-C ) :   0.1439 B(  0-C ,  7-H ) :   0.9933
B(  0-C ,  8-H ) :   0.9909 B(  0-C ,  9-H ) :   0.9533 B(  1-C ,  2-H ) :   0.9652
B(  1-C ,  3-H ) :   0.9099 B(  1-C ,  4-C ) :   0.9442 B(  4-C ,  5-F ) :   1.0594
B(  4-C ,  6-O ) :   1.8105

Dispersion correction           -0.005163933
FINAL SINGLE POINT ENERGY      -292.203098974253

DIPOLE MOMENT
-------------
                                X             Y             Z
Electronic contribution:      3.60087      -2.36215      -7.70622
Nuclear contribution   :     -3.36368       3.36392       8.24820
                        -----------------------------------------
Total Dipole Moment    :      0.23719       1.00177       0.54198
                        -----------------------------------------
Magnitude (a.u.)       :      1.16342
Magnitude (Debye)      :      2.95717

Rotational constants in cm-1:     0.315013     0.126712     0.098430
Rotational constants in MHz :  9443.861322  3798.734540  2950.846388

                             ****ORCA TERMINATED NORMALLY****
TOTAL RUN TIME: 0 days 0 hours 0 minutes 29 seconds 150 msec
