                         Program Version 5.0.0 -  RELEASE  -
|  1> !PBE0 D3BJ RIJCOSX def2-TZVPD def2/J TightSCF
|  2> *xyz 0 1
|  3> C          2.23447       -2.98975       -2.39762
|  4> C          2.75680       -2.94555       -3.76503
|  5> C          1.98721       -2.59045       -4.81898
|  6> N          0.74322       -3.01749       -4.91352
|  7> N          2.49964       -1.84860       -5.80324
|  8> H          3.30978       -1.29282       -5.55895
|  9> H          1.80103       -1.30430       -6.28913
| 10> H          3.71612       -2.62880       -3.82953
| 11> H          0.39583       -3.62775       -4.18502
| 12> H          0.03920       -2.45438       -5.37137
| 13> C          2.19120       -1.61950       -1.71549
| 14> H          2.87278       -3.66637       -1.82801
| 15> H          1.24619       -3.44744       -2.40784
| 16> H          1.56387       -0.96046       -2.27853
| 17> H          3.18033       -1.21449       -1.66568
| 18> H          1.79916       -1.72608       -0.72562
| 19> *
| 20>
| 21> %MaxCore 64000
| 22>
| 23> %pal nprocs 4
| 24> end
| 25>
| 26> %scf
| 27>   MaxIter 150
| 28> end
| 29>
| 30>
| 31>                          ****END OF INPUT****

CARTESIAN COORDINATES (ANGSTROEM)
---------------------------------
  C      2.234470   -2.989750   -2.397620
  C      2.756800   -2.945550   -3.765030
  C      1.987210   -2.590450   -4.818980
  N      0.743220   -3.017490   -4.913520
  N      2.499640   -1.848600   -5.803240
  H      3.309780   -1.292820   -5.558950
  H      1.801030   -1.304300   -6.289130
  H      3.716120   -2.628800   -3.829530
  H      0.395830   -3.627750   -4.185020
  H      0.039200   -2.454380   -5.371370
  C      2.191200   -1.619500   -1.715490
  H      2.872780   -3.666370   -1.828010
  H      1.246190   -3.447440   -2.407840
  H      1.563870   -0.960460   -2.278530
  H      3.180330   -1.214490   -1.665680
  H      1.799160   -1.726080   -0.725620

 Total Charge           Charge          ....    0
 Multiplicity           Mult            ....    1
 Number of Electrons    NEL             ....   48
 Basis Dimension        Dim             ....  312

ORBITAL ENERGIES
----------------

  NO   OCC          E(Eh)            E(eV)
   0   2.0000     -14.390644      -391.5893
   1   2.0000     -14.386708      -391.4822
   2   2.0000     -10.269563      -279.4490
   3   2.0000     -10.198810      -277.5237
   4   2.0000     -10.187801      -277.2242
   5   2.0000     -10.148229      -276.1473
   6   2.0000      -0.999841       -27.2071
   7   2.0000      -0.906460       -24.6660
   8   2.0000      -0.798282       -21.7224
   9   2.0000      -0.714874       -19.4527
  10   2.0000      -0.639397       -17.3989
  11   2.0000      -0.597955       -16.2712
  12   2.0000      -0.559960       -15.2373
  13   2.0000      -0.524345       -14.2682
  14   2.0000      -0.485111       -13.2006
  15   2.0000      -0.465611       -12.6699
  16   2.0000      -0.427557       -11.6344
  17   2.0000      -0.408405       -11.1133
  18   2.0000      -0.386514       -10.5176
  19   2.0000      -0.373019       -10.1504
  20   2.0000      -0.340407        -9.2629
  21   2.0000      -0.332816        -9.0564
  22   2.0000      -0.289734        -7.8841
  23   2.0000      -0.172240        -4.6869
  24   0.0000      -0.000166        -0.0045
  25   0.0000       0.029102         0.7919
  26   0.0000       0.035887         0.9765
  27   0.0000       0.040023         1.0891
  28   0.0000       0.060038         1.6337

MULLIKEN ATOMIC CHARGES
-----------------------
   0 C :    0.098391
   1 C :   -0.577843
   2 C :    0.150706
   3 N :   -0.289903
   4 N :   -0.389901
   5 H :    0.223790
   6 H :    0.173765
   7 H :    0.274732
   8 H :    0.202053
   9 H :    0.138300
  10 C :   -0.866347
  11 H :    0.065068
  12 H :    0.178420
  13 H :    0.196510
  14 H :    0.233908
  15 H :    0.188352
Sum of atomic charges:   -0.0000000

LOEWDIN ATOMIC CHARGES
----------------------
   0 C :   -0.294193
   1 C :   -0.135708
   2 C :   -0.559871
   3 N :    0.128415
   4 N :    0.114842
   5 H :    0.108446
   6 H :    0.097228
   7 H :    0.059124
   8 H :    0.106137
   9 H :    0.105059
  10 C :   -0.101826
  11 H :    0.099007
  12 H :    0.086466
  13 H :    0.063772
  14 H :    0.064791
  15 H :    0.058310

  Mayer bond orders larger than 0.100000
B(  0-C ,  1-C ) :   0.8399 B(  0-C , 10-C ) :   0.6630 B(  0-C , 11-H ) :   1.0324
B(  0-C , 12-H ) :   0.9254 B(  1-C ,  2-C ) :   1.6421 B(  1-C ,  7-H ) :   0.9528
B(  1-C , 10-C ) :   0.1766 B(  2-C ,  3-N ) :   1.0698 B(  2-C ,  4-N ) :   1.1650
B(  2-C ,  7-H ) :  -0.1378 B(  2-C , 10-C ) :   0.1289 B(  3-N ,  8-H ) :   0.9320
B(  3-N ,  9-H ) :   1.0118 B(  4-N ,  5-H ) :   0.9160 B(  4-N ,  6-H ) :   0.9593
B( 10-C , 13-H ) :   1.0172 B( 10-C , 14-H ) :   0.9909 B( 10-C , 15-H ) :   0.9981

Dispersion correction           -0.010928471
FINAL SINGLE POINT ENERGY      -267.700759249408

DIPOLE MOMENT
-------------
                                X             Y             Z
Electronic contribution:     -0.31505      -1.38047      -4.99404
Nuclear contribution   :     -0.44240       2.20379       4.66256
                        -----------------------------------------
Total Dipole Moment    :     -0.75745       0.82332      -0.33147
                        -----------------------------------------
Magnitude (a.u.)       :      1.16682
Magnitude (Debye)      :      2.96582

Rotational constants in cm-1:     0.209447     0.075194     0.066975
Rotational constants in MHz :  6279.068019  2254.272519  2007.845458

                             ****ORCA TERMINATED NORMALLY****
TOTAL RUN TIME: 0 days 0 hours 0 minutes 55 seconds 541 msec
