                         Program Version 5.0.0 -  RELEASE  -
|  1> !PBE0 D3BJ RIJCOSX def2-TZVPD def2/J TightSCF
|  2> *xyz 0 1
|  3> C         -1.10433        0.25137       -2.86006
|  4> C         -0.71189        0.84252       -4.21834
|  5> H          0.15463        1.49980       -4.13091
|  6> H         -1.53813        1.45922       -4.58267
|  7> C         -0.39762       -0.20587       -5.28802
|  8> O          0.61717       -0.00535       -5.99827
|  9> F         -1.13317       -1.22138       -5.34147
| 10> H         -1.95489       -0.38644       -2.98099
| 11> H         -1.34603        1.04362       -2.18269
| 12> H         -0.28606       -0.31581       -2.46809
| 13> *
| 14>
| 15> %MaxCore 64000
| 16>
| 17> %pal nprocs 4
| 18> end
| 19>
| 20> %scf
| 21>   MaxIter 150
| 22> end
| 23>
| 24>
| 25>                          ****END OF INPUT****

CARTESIAN COORDINATES (ANGSTROEM)
---------------------------------
  C     -1.104330    0.251370   -2.860060
  C     -0.711890    0.842520   -4.218340
  H      0.154630    1.499800   -4.130910
  H     -1.538130    1.459220   -4.582670
  C     -0.397620   -0.205870   -5.288020
  O      0.617170   -0.005350   -5.998270
  F     -1.133170   -1.221380   -5.341470
  H     -1.954890   -0.386440   -2.980990
  H     -1.346030    1.043620   -2.182690
  H     -0.286060   -0.315810   -2.468090

 Total Charge           Charge          ....    0
 Multiplicity           Mult            ....    1
 Number of Electrons    NEL             ....   40
 Basis Dimension        Dim             ....  236

ORBITAL ENERGIES
----------------

  NO   OCC          E(Eh)            E(eV)
   0   2.0000     -24.843304      -676.0207
   1   2.0000     -19.211233      -522.7642
   2   2.0000     -10.398723      -282.9636
   3   2.0000     -10.253821      -279.0207
   4   2.0000     -10.228107      -278.3209
   5   2.0000      -1.353813       -36.8391
   6   2.0000      -1.062098       -28.9012
   7   2.0000      -0.827404       -22.5148
   8   2.0000      -0.708726       -19.2854
   9   2.0000      -0.665168       -18.1001
  10   2.0000      -0.568893       -15.4804
  11   2.0000      -0.560483       -15.2515
  12   2.0000      -0.516812       -14.0632
  13   2.0000      -0.482056       -13.1174
  14   2.0000      -0.449357       -12.2276
  15   2.0000      -0.415965       -11.3190
  16   2.0000      -0.398905       -10.8548
  17   2.0000      -0.391620       -10.6565
  18   2.0000      -0.362343        -9.8599
  19   2.0000      -0.303446        -8.2572
  20   0.0000      -0.023846        -0.6489
  21   0.0000       0.006122         0.1666
  22   0.0000       0.035411         0.9636
  23   0.0000       0.043096         1.1727
  24   0.0000       0.055300         1.5048

MULLIKEN ATOMIC CHARGES
-----------------------
   0 C :   -0.782897
   1 C :    0.137670
   2 H :    0.132122
   3 H :    0.157997
   4 C :    0.350165
   5 O :   -0.460282
   6 F :   -0.177456
   7 H :    0.225501
   8 H :    0.178469
   9 H :    0.238710
Sum of atomic charges:    0.0000000

LOEWDIN ATOMIC CHARGES
----------------------
   0 C :   -0.094689
   1 C :   -0.151823
   2 H :    0.118157
   3 H :    0.120911
   4 C :   -0.491127
   5 O :    0.077458
   6 F :    0.209388
   7 H :    0.068086
   8 H :    0.069202
   9 H :    0.074437

  Mayer bond orders larger than 0.100000
B(  0-C ,  1-C ) :   0.7789 B(  0-C ,  4-C ) :   0.1264 B(  0-C ,  7-H ) :   0.9763
B(  0-C ,  8-H ) :   1.0044 B(  0-C ,  9-H ) :   0.9695 B(  1-C ,  2-H ) :   0.9903
B(  1-C ,  3-H ) :   0.9048 B(  1-C ,  4-C ) :   0.9483 B(  4-C ,  5-O ) :   1.8003
B(  4-C ,  6-F ) :   1.0669

Dispersion correction           -0.005125717
FINAL SINGLE POINT ENERGY      -292.202323466227

DIPOLE MOMENT
-------------
                                X             Y             Z
Electronic contribution:      0.67996      -4.36855      -6.58654
Nuclear contribution   :     -1.45527       4.68977       7.53208
                        -----------------------------------------
Total Dipole Moment    :     -0.77530       0.32122       0.94554
                        -----------------------------------------
Magnitude (a.u.)       :      1.26425
Magnitude (Debye)      :      3.21346

Rotational constants in cm-1:     0.298240     0.132464     0.099915
Rotational constants in MHz :  8940.998095  3971.171647  2995.369122

                             ****ORCA TERMINATED NORMALLY****
TOTAL RUN TIME: 0 days 0 hours 0 minutes 30 seconds 252 msec
