                         Program Version 5.0.0 -  RELEASE  -
|  1> !PBE0 D3BJ RIJCOSX def2-TZVPD def2/J TightSCF
|  2> *xyz 0 1
|  3> C          2.23447       -2.98975       -2.39762
|  4> N          2.75680       -2.94555       -3.76503
|  5> C          1.98721       -2.59045       -4.81898
|  6> C          0.74322       -3.01749       -4.91352
|  7> N          2.49964       -1.84860       -5.80324
|  8> H          3.30978       -1.29282       -5.55895
|  9> H          1.80103       -1.30430       -6.28913
| 10> H          3.71612       -2.62880       -3.82953
| 11> H          0.39583       -3.62775       -4.18502
| 12> H          0.03920       -2.45438       -5.37137
| 13> C          2.19120       -1.61950       -1.71549
| 14> H          2.87278       -3.66637       -1.82801
| 15> H          1.24619       -3.44744       -2.40784
| 16> H          1.56387       -0.96046       -2.27853
| 17> H          3.18033       -1.21449       -1.66568
| 18> H          1.79916       -1.72608       -0.72562
| 19> *
| 20>
| 21> %MaxCore 64000
| 22>
| 23> %pal nprocs 4
| 24> end
| 25>
| 26> %scf
| 27>   MaxIter 150
| 28> end
| 29>
| 30>
| 31>                          ****END OF INPUT****

CARTESIAN COORDINATES (ANGSTROEM)
---------------------------------
  C      2.234470   -2.989750   -2.397620
  N      2.756800   -2.945550   -3.765030
  C      1.987210   -2.590450   -4.818980
  C      0.743220   -3.017490   -4.913520
  N      2.499640   -1.848600   -5.803240
  H      3.309780   -1.292820   -5.558950
  H      1.801030   -1.304300   -6.289130
  H      3.716120   -2.628800   -3.829530
  H      0.395830   -3.627750   -4.185020
  H      0.039200   -2.454380   -5.371370
  C      2.191200   -1.619500   -1.715490
  H      2.872780   -3.666370   -1.828010
  H      1.246190   -3.447440   -2.407840
  H      1.563870   -0.960460   -2.278530
  H      3.180330   -1.214490   -1.665680
  H      1.799160   -1.726080   -0.725620

 Total Charge           Charge          ....    0
 Multiplicity           Mult            ....    1
 Number of Electrons    NEL             ....   48
 Basis Dimension        Dim             ....  312

ORBITAL ENERGIES
----------------

  NO   OCC          E(Eh)            E(eV)
   0   2.0000     -14.388256      -391.5243
   1   2.0000     -14.384624      -391.4255
   2   2.0000     -10.266601      -279.3684
   3   2.0000     -10.254174      -279.0303
   4   2.0000     -10.208162      -277.7782
   5   2.0000     -10.138126      -275.8724
   6   2.0000      -0.996234       -27.1089
   7   2.0000      -0.915080       -24.9006
   8   2.0000      -0.779274       -21.2051
   9   2.0000      -0.737893       -20.0791
  10   2.0000      -0.660427       -17.9711
  11   2.0000      -0.580634       -15.7998
  12   2.0000      -0.560222       -15.2444
  13   2.0000      -0.528317       -14.3762
  14   2.0000      -0.476108       -12.9556
  15   2.0000      -0.460806       -12.5392
  16   2.0000      -0.431104       -11.7309
  17   2.0000      -0.411907       -11.2085
  18   2.0000      -0.407006       -11.0752
  19   2.0000      -0.383797       -10.4437
  20   2.0000      -0.371868       -10.1190
  21   2.0000      -0.360390        -9.8067
  22   2.0000      -0.265985        -7.2378
  23   2.0000      -0.188439        -5.1277
  24   0.0000       0.003883         0.1057
  25   0.0000       0.028801         0.7837
  26   0.0000       0.034923         0.9503
  27   0.0000       0.040554         1.1035
  28   0.0000       0.057745         1.5713

MULLIKEN ATOMIC CHARGES
-----------------------
   0 C :   -0.178986
   1 N :   -0.095301
   2 C :    0.483804
   3 C :   -1.008554
   4 N :   -0.376499
   5 H :    0.186132
   6 H :    0.187373
   7 H :    0.199113
   8 H :    0.268990
   9 H :    0.186084
  10 C :   -0.735429
  11 H :    0.126640
  12 H :    0.137152
  13 H :    0.189020
  14 H :    0.222259
  15 H :    0.208199
Sum of atomic charges:   -0.0000000

LOEWDIN ATOMIC CHARGES
----------------------
   0 C :   -0.241123
   1 N :    0.013391
   2 C :   -0.571031
   3 C :    0.009632
   4 N :    0.111690
   5 H :    0.095430
   6 H :    0.106019
   7 H :    0.127618
   8 H :    0.009904
   9 H :    0.018164
  10 C :   -0.083970
  11 H :    0.110058
  12 H :    0.101397
  13 H :    0.066305
  14 H :    0.062034
  15 H :    0.064481

  Mayer bond orders larger than 0.100000
B(  0-C ,  1-N ) :   0.8679 B(  0-C , 10-C ) :   0.7717 B(  0-C , 11-H ) :   1.0083
B(  0-C , 12-H ) :   0.9526 B(  1-N ,  2-C ) :   1.0714 B(  1-N ,  7-H ) :   0.9052
B(  2-C ,  3-C ) :   1.5013 B(  2-C ,  4-N ) :   1.0356 B(  3-C ,  8-H ) :   0.9260
B(  3-C ,  9-H ) :   1.0690 B(  4-N ,  5-H ) :   0.9567 B(  4-N ,  6-H ) :   0.9355
B( 10-C , 13-H ) :   1.0358 B( 10-C , 14-H ) :   0.9730 B( 10-C , 15-H ) :   0.9940

Dispersion correction           -0.010876225
FINAL SINGLE POINT ENERGY      -267.694941502405

DIPOLE MOMENT
-------------
                                X             Y             Z
Electronic contribution:      1.49518      -1.25987      -3.84221
Nuclear contribution   :     -0.86957       2.18853       4.41892
                        -----------------------------------------
Total Dipole Moment    :      0.62562       0.92866       0.57670
                        -----------------------------------------
Magnitude (a.u.)       :      1.25952
Magnitude (Debye)      :      3.20144

Rotational constants in cm-1:     0.214718     0.075736     0.068547
Rotational constants in MHz :  6437.075121  2270.519635  2054.974198

                             ****ORCA TERMINATED NORMALLY****
TOTAL RUN TIME: 0 days 0 hours 0 minutes 54 seconds 17 msec
