                         Program Version 5.0.0 -  RELEASE  -
|  1> !PBE0 D3BJ RIJCOSX def2-TZVPD def2/J TightSCF
|  2> *xyz 0 1
|  3> C          2.23447       -2.98975       -2.39762
|  4> N          2.75680       -2.94555       -3.76503
|  5> C          1.98721       -2.59045       -4.81898
|  6> N          0.74322       -3.01749       -4.91352
|  7> C          2.49964       -1.84860       -5.80324
|  8> H          3.30978       -1.29282       -5.55895
|  9> H          1.80103       -1.30430       -6.28913
| 10> H          3.71612       -2.62880       -3.82953
| 11> H          0.39583       -3.62775       -4.18502
| 12> H          0.03920       -2.45438       -5.37137
| 13> C          2.19120       -1.61950       -1.71549
| 14> H          2.87278       -3.66637       -1.82801
| 15> H          1.24619       -3.44744       -2.40784
| 16> H          1.56387       -0.96046       -2.27853
| 17> H          3.18033       -1.21449       -1.66568
| 18> H          1.79916       -1.72608       -0.72562
| 19> *
| 20>
| 21> %MaxCore 64000
| 22>
| 23> %pal nprocs 4
| 24> end
| 25>
| 26> %scf
| 27>   MaxIter 150
| 28> end
| 29>
| 30>
| 31>                          ****END OF INPUT****

CARTESIAN COORDINATES (ANGSTROEM)
---------------------------------
  C      2.234470   -2.989750   -2.397620
  N      2.756800   -2.945550   -3.765030
  C      1.987210   -2.590450   -4.818980
  N      0.743220   -3.017490   -4.913520
  C      2.499640   -1.848600   -5.803240
  H      3.309780   -1.292820   -5.558950
  H      1.801030   -1.304300   -6.289130
  H      3.716120   -2.628800   -3.829530
  H      0.395830   -3.627750   -4.185020
  H      0.039200   -2.454380   -5.371370
  C      2.191200   -1.619500   -1.715490
  H      2.872780   -3.666370   -1.828010
  H      1.246190   -3.447440   -2.407840
  H      1.563870   -0.960460   -2.278530
  H      3.180330   -1.214490   -1.665680
  H      1.799160   -1.726080   -0.725620

 Total Charge           Charge          ....    0
 Multiplicity           Mult            ....    1
 Number of Electrons    NEL             ....   48
 Basis Dimension        Dim             ....  312

ORBITAL ENERGIES
----------------

  NO   OCC          E(Eh)            E(eV)
   0   2.0000     -14.387555      -391.5053
   1   2.0000     -14.387211      -391.4959
   2   2.0000     -10.270086      -279.4632
   3   2.0000     -10.262217      -279.2491
   4   2.0000     -10.212032      -277.8835
   5   2.0000     -10.133354      -275.7426
   6   2.0000      -0.998274       -27.1644
   7   2.0000      -0.915263       -24.9056
   8   2.0000      -0.791574       -21.5398
   9   2.0000      -0.730894       -19.8886
  10   2.0000      -0.650358       -17.6971
  11   2.0000      -0.619404       -16.8548
  12   2.0000      -0.556141       -15.1334
  13   2.0000      -0.506857       -13.7923
  14   2.0000      -0.505073       -13.7437
  15   2.0000      -0.452616       -12.3163
  16   2.0000      -0.442859       -12.0508
  17   2.0000      -0.415790       -11.3142
  18   2.0000      -0.390666       -10.6306
  19   2.0000      -0.379550       -10.3281
  20   2.0000      -0.377911       -10.2835
  21   2.0000      -0.367554       -10.0017
  22   2.0000      -0.268388        -7.3032
  23   2.0000      -0.183441        -4.9917
  24   0.0000       0.003041         0.0827
  25   0.0000       0.027892         0.7590
  26   0.0000       0.031892         0.8678
  27   0.0000       0.038007         1.0342
  28   0.0000       0.057084         1.5533

MULLIKEN ATOMIC CHARGES
-----------------------
   0 C :   -0.241528
   1 N :   -0.086485
   2 C :    0.437976
   3 N :   -0.276008
   4 C :   -0.943246
   5 H :    0.193037
   6 H :    0.172389
   7 H :    0.215324
   8 H :    0.189542
   9 H :    0.166009
  10 C :   -0.735521
  11 H :    0.132539
  12 H :    0.144540
  13 H :    0.188344
  14 H :    0.212857
  15 H :    0.230232
Sum of atomic charges:    0.0000000

LOEWDIN ATOMIC CHARGES
----------------------
   0 C :   -0.245568
   1 N :    0.016941
   2 C :   -0.573722
   3 N :    0.126398
   4 C :   -0.008480
   5 H :    0.007005
   6 H :    0.008245
   7 H :    0.135727
   8 H :    0.095635
   9 H :    0.117125
  10 C :   -0.082420
  11 H :    0.109307
  12 H :    0.096169
  13 H :    0.067565
  14 H :    0.066098
  15 H :    0.063975

  Mayer bond orders larger than 0.100000
B(  0-C ,  1-N ) :   0.9522 B(  0-C , 10-C ) :   0.8210 B(  0-C , 11-H ) :   1.0271
B(  0-C , 12-H ) :   0.9405 B(  1-N ,  2-C ) :   1.1255 B(  1-N ,  7-H ) :   0.8535
B(  2-C ,  3-N ) :   1.0743 B(  2-C ,  4-C ) :   1.4010 B(  3-N ,  8-H ) :   0.9402
B(  3-N ,  9-H ) :   0.9608 B(  4-C ,  5-H ) :   1.1064 B(  4-C ,  6-H ) :   1.0723
B( 10-C , 13-H ) :   1.0268 B( 10-C , 14-H ) :   0.9778 B( 10-C , 15-H ) :   0.9753

Dispersion correction           -0.010843129
FINAL SINGLE POINT ENERGY      -267.689214050451

DIPOLE MOMENT
-------------
                                X             Y             Z
Electronic contribution:     -0.11997      -2.39225      -2.96035
Nuclear contribution   :     -0.49695       2.43650       4.23017
                        -----------------------------------------
Total Dipole Moment    :     -0.61693       0.04425       1.26982
                        -----------------------------------------
Magnitude (a.u.)       :      1.41245
Magnitude (Debye)      :      3.59015

Rotational constants in cm-1:     0.211102     0.077011     0.069221
Rotational constants in MHz :  6328.667765  2308.731604  2075.192956

                             ****ORCA TERMINATED NORMALLY****
TOTAL RUN TIME: 0 days 0 hours 0 minutes 53 seconds 949 msec
