                         Program Version 5.0.0 -  RELEASE  -
|  1> !PBE0 D3BJ RIJCOSX def2-TZVPD def2/J TightSCF xyzfile
|  2>
|  3> *xyzfile 0 1 D1.xyz
|  4>
|  5> %MaxCore 64000
|  6>
|  7> %pal nprocs 4
|  8> end
|  9>
| 10> %scf
| 11>   MaxIter 150
| 12> end
| 13>
| 14>
| 15>                          ****END OF INPUT****

CARTESIAN COORDINATES (ANGSTROEM)
---------------------------------
  C      2.234473   -2.989754   -2.397622
  C      2.756799   -2.945553   -3.765029
  C     -1.104325    0.251374   -2.860056
  C     -0.711893    0.842517   -4.218344
  H      0.154626    1.499800   -4.130909
  H     -1.538134    1.459222   -4.582671
  C     -0.397624   -0.205875   -5.288018
  C      1.987208   -2.590451   -4.818975
  N      0.743221   -3.017493   -4.913524
  N      2.499636   -1.848598   -5.803241
  H      3.309780   -1.292818   -5.558947
  H      1.801025   -1.304298   -6.289129
  H      3.716116   -2.628797   -3.829533
  H      0.395828   -3.627747   -4.185024
  H      0.039201   -2.454383   -5.371367
  F      0.617165   -0.005348   -5.998273
  O     -1.133173   -1.221380   -5.341465
  C      2.191199   -1.619503   -1.715492
  H      2.872783   -3.666368   -1.828014
  H      1.246188   -3.447444   -2.407842
  C      1.298729   -0.554314   -2.359773
  H      1.872917   -1.787955   -0.681310
  H      3.216809   -1.238432   -1.654428
  C     -0.196255   -0.863365   -2.325763
  H      1.612531   -0.371346   -3.393065
  H      1.480944    0.388638   -1.834444
  H     -0.404105   -1.761825   -2.909448
  H     -0.490439   -1.087880   -1.294131
  H     -1.143842    1.066711   -2.129680
  H     -2.114401   -0.156834   -2.930323

 Total Charge           Charge          ....    0
 Multiplicity           Mult            ....    1
 Number of Electrons    NEL             ....  102
 Basis Dimension        Dim             ....  640

ORBITAL ENERGIES
----------------

  NO   OCC          E(Eh)            E(eV)
   0   2.0000     -24.876585      -676.9263
   1   2.0000     -19.243401      -523.6396
   2   2.0000     -14.372420      -391.0934
   3   2.0000     -14.362818      -390.8321
   4   2.0000     -10.427674      -283.7514
   5   2.0000     -10.266893      -279.3763
   6   2.0000     -10.258240      -279.1409
   7   2.0000     -10.241568      -278.6872
   8   2.0000     -10.220799      -278.1221
   9   2.0000     -10.217085      -278.0210
  10   2.0000     -10.204995      -277.6920
  11   2.0000     -10.194403      -277.4038
  12   2.0000     -10.137609      -275.8584
  13   2.0000      -1.389808       -37.8186
  14   2.0000      -1.099792       -29.9269
  15   2.0000      -0.985947       -26.8290
  16   2.0000      -0.891462       -24.2579
  17   2.0000      -0.855137       -23.2695
  18   2.0000      -0.814689       -22.1688
  19   2.0000      -0.777674       -21.1616
  20   2.0000      -0.733548       -19.9609
  21   2.0000      -0.710886       -19.3442
  22   2.0000      -0.674378       -18.3508
  23   2.0000      -0.633568       -17.2403
  24   2.0000      -0.608020       -16.5451
  25   2.0000      -0.600214       -16.3326
  26   2.0000      -0.588032       -16.0012
  27   2.0000      -0.569242       -15.4899
  28   2.0000      -0.560392       -15.2491
  29   2.0000      -0.534663       -14.5489
  30   2.0000      -0.510584       -13.8937
  31   2.0000      -0.496455       -13.5092
  32   2.0000      -0.490534       -13.3481
  33   2.0000      -0.472317       -12.8524
  34   2.0000      -0.459153       -12.4942
  35   2.0000      -0.452726       -12.3193
  36   2.0000      -0.437307       -11.8997
  37   2.0000      -0.423592       -11.5265
  38   2.0000      -0.408861       -11.1257
  39   2.0000      -0.401343       -10.9211
  40   2.0000      -0.390578       -10.6282
  41   2.0000      -0.380809       -10.3623
  42   2.0000      -0.370967       -10.0945
  43   2.0000      -0.359796        -9.7905
  44   2.0000      -0.349939        -9.5223
  45   2.0000      -0.339773        -9.2457
  46   2.0000      -0.328859        -8.9487
  47   2.0000      -0.323372        -8.7994
  48   2.0000      -0.316919        -8.6238
  49   2.0000      -0.271252        -7.3812
  50   2.0000      -0.161636        -4.3983
  51   0.0000      -0.054706        -1.4886
  52   0.0000      -0.001441        -0.0392
  53   0.0000       0.017269         0.4699
  54   0.0000       0.021969         0.5978
  55   0.0000       0.025608         0.6968

MULLIKEN ATOMIC CHARGES
-----------------------
   0 C :   -0.069127
   1 C :   -0.754961
   2 C :   -0.241677
   3 C :   -0.158974
   4 H :    0.250330
   5 H :    0.119087
   6 C :    0.536686
   7 C :   -0.154491
   8 N :   -0.241141
   9 N :   -0.399517
  10 H :    0.220434
  11 H :    0.287508
  12 H :    0.325160
  13 H :    0.239028
  14 H :    0.227397
  15 F :   -0.264494
  16 O :   -0.571537
  17 C :   -0.436094
  18 H :    0.024285
  19 H :    0.304449
  20 C :   -0.214212
  21 H :    0.104053
  22 H :    0.171081
  23 C :   -0.201373
  24 H :    0.190219
  25 H :    0.178336
  26 H :    0.095405
  27 H :    0.140617
  28 H :    0.101017
  29 H :    0.192507
Sum of atomic charges:    0.0000000

LOEWDIN ATOMIC CHARGES
----------------------
   0 C :   -0.243367
   1 C :   -0.126510
   2 C :   -0.190346
   3 C :   -0.097921
   4 H :    0.117271
   5 H :    0.129386
   6 C :   -0.454706
   7 C :   -0.552525
   8 N :    0.151238
   9 N :    0.127474
  10 H :    0.112285
  11 H :    0.071535
  12 H :    0.059630
  13 H :    0.112351
  14 H :    0.047228
  15 F :    0.194044
  16 O :    0.077626
  17 C :   -0.198583
  18 H :    0.102859
  19 H :    0.092221
  20 C :   -0.204978
  21 H :    0.107168
  22 H :    0.111395
  23 C :   -0.205563
  24 H :    0.099060
  25 H :    0.116286
  26 H :    0.092941
  27 H :    0.120960
  28 H :    0.116970
  29 H :    0.114572

  Mayer bond orders larger than 0.100000
B(  0-C ,  1-C ) :   0.8693 B(  0-C ,  7-C ) :   0.1453 B(  0-C , 17-C ) :   0.8248
B(  0-C , 18-H ) :   1.0879 B(  0-C , 19-H ) :   0.8269 B(  0-C , 23-C ) :   0.1371
B(  1-C ,  7-C ) :   1.6655 B(  1-C , 12-H ) :   0.9641 B(  1-C , 17-C ) :   0.1836
B(  2-C ,  3-C ) :   0.9969 B(  2-C ,  6-C ) :   0.1413 B(  2-C , 20-C ) :   0.2013
B(  2-C , 23-C ) :   1.1058 B(  2-C , 26-H ) :   0.1087 B(  2-C , 28-H ) :   0.9208
B(  2-C , 29-H ) :   0.8676 B(  3-C ,  4-H ) :   0.9038 B(  3-C ,  5-H ) :   0.8857
B(  3-C ,  6-C ) :   0.9982 B(  3-C , 20-C ) :   0.1728 B(  6-C , 15-F ) :   0.8668
B(  6-C , 16-O ) :   1.6380 B(  6-C , 23-C ) :   0.1043 B(  7-C ,  8-N ) :   1.1354
B(  7-C ,  9-N ) :   1.1064 B(  7-C , 12-H ) :  -0.1186 B(  7-C , 20-C ) :   0.1265
B(  8-N , 13-H ) :   0.8266 B(  8-N , 14-H ) :   0.7649 B(  9-N , 10-H ) :   0.8816
B(  9-N , 11-H ) :   0.7524 B( 17-C , 20-C ) :   1.2114 B( 17-C , 21-H ) :   0.9228
B( 17-C , 22-H ) :   0.9268 B( 17-C , 23-C ) :   0.3556 B( 17-C , 24-H ) :   0.1403
B( 20-C , 23-C ) :   0.6800 B( 20-C , 24-H ) :   1.0295 B( 20-C , 25-H ) :   0.8219
B( 23-C , 26-H ) :   1.1260 B( 23-C , 27-H ) :   0.8345

Dispersion correction           -0.030739849
FINAL SINGLE POINT ENERGY      -637.264560695491

DIPOLE MOMENT
-------------
                                X             Y             Z
Electronic contribution:     -3.08495       2.22440     -14.52223
Nuclear contribution   :      2.31842      -0.27661      14.74721
                        -----------------------------------------
Total Dipole Moment    :     -0.76653       1.94780       0.22498
                        -----------------------------------------
Magnitude (a.u.)       :      2.10525
Magnitude (Debye)      :      5.35113

Rotational constants in cm-1:     0.032691     0.023990     0.017099
Rotational constants in MHz :   980.050971   719.190545   512.606858

                             ****ORCA TERMINATED NORMALLY****
TOTAL RUN TIME: 0 days 0 hours 5 minutes 48 seconds 788 msec
