                         Program Version 5.0.0 -  RELEASE  -
|  1> !PBE0 D3BJ RIJCOSX def2-TZVPD def2/J TightSCF xyzfile
|  2>
|  3> *xyzfile 0 1 D2.xyz
|  4>
|  5> %MaxCore 64000
|  6>
|  7> %pal nprocs 4
|  8> end
|  9>
| 10> %scf
| 11>   MaxIter 150
| 12> end
| 13>
| 14>
| 15>                          ****END OF INPUT****

CARTESIAN COORDINATES (ANGSTROEM)
---------------------------------
  C      2.234473   -2.989754   -2.397622
  N      2.756799   -2.945553   -3.765029
  C     -1.104325    0.251374   -2.860056
  C     -0.711893    0.842517   -4.218344
  H      0.154626    1.499800   -4.130909
  H     -1.538134    1.459222   -4.582671
  C     -0.397624   -0.205875   -5.288018
  C      1.987208   -2.590451   -4.818975
  C      0.743221   -3.017493   -4.913524
  N      2.499636   -1.848598   -5.803241
  H      3.309780   -1.292818   -5.558947
  H      1.801025   -1.304298   -6.289129
  H      3.716116   -2.628797   -3.829533
  H      0.395828   -3.627747   -4.185024
  H      0.039201   -2.454383   -5.371367
  F      0.617165   -0.005348   -5.998273
  O     -1.133173   -1.221380   -5.341465
  C      2.191199   -1.619503   -1.715492
  H      2.872783   -3.666368   -1.828014
  H      1.246188   -3.447444   -2.407842
  C      1.298729   -0.554314   -2.359773
  H      1.872917   -1.787955   -0.681310
  H      3.216809   -1.238432   -1.654428
  C     -0.196255   -0.863365   -2.325763
  H      1.612531   -0.371346   -3.393065
  H      1.480944    0.388638   -1.834444
  H     -0.404105   -1.761825   -2.909448
  H     -0.490439   -1.087880   -1.294131
  H     -1.143842    1.066711   -2.129680
  H     -2.114401   -0.156834   -2.930323

 Total Charge           Charge          ....    0
 Multiplicity           Mult            ....    1
 Number of Electrons    NEL             ....  102
 Basis Dimension        Dim             ....  640

ORBITAL ENERGIES
----------------

  NO   OCC          E(Eh)            E(eV)
   0   2.0000     -24.860102      -676.4778
   1   2.0000     -19.219366      -522.9855
   2   2.0000     -14.379005      -391.2726
   3   2.0000     -14.369670      -391.0186
   4   2.0000     -10.407628      -283.2060
   5   2.0000     -10.256800      -279.1017
   6   2.0000     -10.252418      -278.9825
   7   2.0000     -10.249293      -278.8974
   8   2.0000     -10.235452      -278.5208
   9   2.0000     -10.223596      -278.1982
  10   2.0000     -10.223000      -278.1820
  11   2.0000     -10.216980      -278.0182
  12   2.0000     -10.116142      -275.2742
  13   2.0000      -1.373272       -37.3686
  14   2.0000      -1.075930       -29.2775
  15   2.0000      -0.986360       -26.8402
  16   2.0000      -0.906951       -24.6794
  17   2.0000      -0.847989       -23.0750
  18   2.0000      -0.809091       -22.0165
  19   2.0000      -0.758094       -20.6288
  20   2.0000      -0.731607       -19.9080
  21   2.0000      -0.713276       -19.4092
  22   2.0000      -0.683764       -18.6062
  23   2.0000      -0.638344       -17.3702
  24   2.0000      -0.606068       -16.4919
  25   2.0000      -0.586132       -15.9495
  26   2.0000      -0.565899       -15.3989
  27   2.0000      -0.563826       -15.3425
  28   2.0000      -0.548821       -14.9342
  29   2.0000      -0.540522       -14.7084
  30   2.0000      -0.510982       -13.9045
  31   2.0000      -0.496415       -13.5081
  32   2.0000      -0.484645       -13.1879
  33   2.0000      -0.464147       -12.6301
  34   2.0000      -0.458603       -12.4792
  35   2.0000      -0.439701       -11.9649
  36   2.0000      -0.429953       -11.6996
  37   2.0000      -0.421954       -11.4819
  38   2.0000      -0.411709       -11.2032
  39   2.0000      -0.398177       -10.8350
  40   2.0000      -0.388056       -10.5595
  41   2.0000      -0.379448       -10.3253
  42   2.0000      -0.372755       -10.1432
  43   2.0000      -0.368304       -10.0221
  44   2.0000      -0.357525        -9.7287
  45   2.0000      -0.342815        -9.3285
  46   2.0000      -0.333946        -9.0871
  47   2.0000      -0.330825        -9.0022
  48   2.0000      -0.299618        -8.1530
  49   2.0000      -0.256155        -6.9703
  50   2.0000      -0.174244        -4.7414
  51   0.0000      -0.036169        -0.9842
  52   0.0000      -0.000191        -0.0052
  53   0.0000       0.015129         0.4117
  54   0.0000       0.018377         0.5001
  55   0.0000       0.029743         0.8094

MULLIKEN ATOMIC CHARGES
-----------------------
   0 C :   -0.471535
   1 N :   -0.027765
   2 C :   -0.290087
   3 C :   -0.202962
   4 H :    0.243136
   5 H :    0.134961
   6 C :    0.497291
   7 C :    0.015339
   8 C :   -1.436169
   9 N :   -0.333590
  10 H :    0.216302
  11 H :    0.226861
  12 H :    0.230683
  13 H :    0.463399
  14 H :    0.715452
  15 F :   -0.283757
  16 O :   -0.519156
  17 C :   -0.303918
  18 H :    0.080239
  19 H :    0.215487
  20 C :   -0.105360
  21 H :    0.136375
  22 H :    0.123522
  23 C :   -0.185650
  24 H :    0.146535
  25 H :    0.199846
  26 H :    0.072462
  27 H :    0.137279
  28 H :    0.097642
  29 H :    0.207139
Sum of atomic charges:    0.0000000

LOEWDIN ATOMIC CHARGES
----------------------
   0 C :   -0.191516
   1 N :    0.029096
   2 C :   -0.189627
   3 C :   -0.099841
   4 H :    0.114545
   5 H :    0.127588
   6 C :   -0.460216
   7 C :   -0.561364
   8 C :    0.017445
   9 N :    0.120646
  10 H :    0.098958
  11 H :    0.078577
  12 H :    0.128411
  13 H :    0.029727
  14 H :   -0.015048
  15 F :    0.191559
  16 O :    0.074745
  17 C :   -0.186080
  18 H :    0.113903
  19 H :    0.106109
  20 C :   -0.204599
  21 H :    0.111416
  22 H :    0.107881
  23 C :   -0.203839
  24 H :    0.098789
  25 H :    0.116743
  26 H :    0.095878
  27 H :    0.119797
  28 H :    0.114967
  29 H :    0.115353

  Mayer bond orders larger than 0.100000
B(  0-C ,  1-N ) :   0.9040 B(  0-C ,  7-C ) :   0.1204 B(  0-C , 17-C ) :   0.8794
B(  0-C , 18-H ) :   1.0419 B(  0-C , 19-H ) :   0.9150 B(  0-C , 23-C ) :   0.1533
B(  1-N ,  7-C ) :   1.1234 B(  1-N , 12-H ) :   0.8079 B(  2-C ,  3-C ) :   1.0151
B(  2-C ,  6-C ) :   0.1454 B(  2-C , 20-C ) :   0.2217 B(  2-C , 23-C ) :   1.1232
B(  2-C , 26-H ) :   0.1372 B(  2-C , 28-H ) :   0.9360 B(  2-C , 29-H ) :   0.8573
B(  3-C ,  4-H ) :   0.9172 B(  3-C ,  5-H ) :   0.8854 B(  3-C ,  6-C ) :   0.9979
B(  3-C , 20-C ) :   0.1759 B(  6-C , 15-F ) :   0.8361 B(  6-C , 16-O ) :   1.7762
B(  6-C , 23-C ) :   0.1092 B(  7-C ,  8-C ) :   1.7418 B(  7-C ,  9-N ) :   0.9782
B(  7-C , 14-H ) :  -0.1746 B(  7-C , 20-C ) :   0.1161 B(  8-C , 13-H ) :   0.8470
B(  8-C , 14-H ) :   0.4816 B(  9-N , 10-H ) :   0.8581 B(  9-N , 11-H ) :   0.8088
B( 13-H , 14-H ) :   0.2196 B( 14-H , 16-O ) :  -0.1154 B( 17-C , 20-C ) :   1.1221
B( 17-C , 21-H ) :   0.9410 B( 17-C , 22-H ) :   0.9509 B( 17-C , 23-C ) :   0.3302
B( 17-C , 24-H ) :   0.1264 B( 20-C , 23-C ) :   0.6768 B( 20-C , 24-H ) :   1.0735
B( 20-C , 25-H ) :   0.7883 B( 23-C , 26-H ) :   1.1372 B( 23-C , 27-H ) :   0.8354

Dispersion correction           -0.030791336
FINAL SINGLE POINT ENERGY      -637.243761557476

DIPOLE MOMENT
-------------
                                X             Y             Z
Electronic contribution:     -1.49898       2.15896     -13.53996
Nuclear contribution   :      2.00823      -0.28769      14.57028
                        -----------------------------------------
Total Dipole Moment    :      0.50925       1.87127       1.03031
                        -----------------------------------------
Magnitude (a.u.)       :      2.19603
Magnitude (Debye)      :      5.58187

Rotational constants in cm-1:     0.033070     0.023715     0.016943
Rotational constants in MHz :   991.423248   710.957140   507.940500

                             ****ORCA TERMINATED NORMALLY****
TOTAL RUN TIME: 0 days 0 hours 5 minutes 50 seconds 571 msec
