                         Program Version 5.0.0 -  RELEASE  -
|  1> !PBE0 D3BJ RIJCOSX def2-TZVPD def2/J TightSCF xyzfile
|  2>
|  3> *xyzfile 0 1 D3.xyz
|  4>
|  5> %MaxCore 64000
|  6>
|  7> %pal nprocs 4
|  8> end
|  9>
| 10> %scf
| 11>   MaxIter 150
| 12> end
| 13>
| 14>
| 15>                          ****END OF INPUT****

CARTESIAN COORDINATES (ANGSTROEM)
---------------------------------
  C      2.234473   -2.989754   -2.397622
  N      2.756799   -2.945553   -3.765029
  C     -1.104325    0.251374   -2.860056
  C     -0.711893    0.842517   -4.218344
  H      0.154626    1.499800   -4.130909
  H     -1.538134    1.459222   -4.582671
  C     -0.397624   -0.205875   -5.288018
  C      1.987208   -2.590451   -4.818975
  N      0.743221   -3.017493   -4.913524
  C      2.499636   -1.848598   -5.803241
  H      3.309780   -1.292818   -5.558947
  H      1.801025   -1.304298   -6.289129
  H      3.716116   -2.628797   -3.829533
  H      0.395828   -3.627747   -4.185024
  H      0.039201   -2.454383   -5.371367
  F      0.617165   -0.005348   -5.998273
  O     -1.133173   -1.221380   -5.341465
  C      2.191199   -1.619503   -1.715492
  H      2.872783   -3.666368   -1.828014
  H      1.246188   -3.447444   -2.407842
  C      1.298729   -0.554314   -2.359773
  H      1.872917   -1.787955   -0.681310
  H      3.216809   -1.238432   -1.654428
  C     -0.196255   -0.863365   -2.325763
  H      1.612531   -0.371346   -3.393065
  H      1.480944    0.388638   -1.834444
  H     -0.404105   -1.761825   -2.909448
  H     -0.490439   -1.087880   -1.294131
  H     -1.143842    1.066711   -2.129680
  H     -2.114401   -0.156834   -2.930323

 Total Charge           Charge          ....    0
 Multiplicity           Mult            ....    1
 Number of Electrons    NEL             ....  102
 Basis Dimension        Dim             ....  640

ORBITAL ENERGIES
----------------

  NO   OCC          E(Eh)            E(eV)
   0   2.0000     -24.853807      -676.3065
   1   2.0000     -19.232903      -523.3539
   2   2.0000     -14.378665      -391.2634
   3   2.0000     -14.359761      -390.7490
   4   2.0000     -10.418084      -283.4905
   5   2.0000     -10.261964      -279.2422
   6   2.0000     -10.257742      -279.1273
   7   2.0000     -10.256365      -279.0899
   8   2.0000     -10.242166      -278.7035
   9   2.0000     -10.226395      -278.2743
  10   2.0000     -10.226343      -278.2730
  11   2.0000     -10.225754      -278.2569
  12   2.0000     -10.119518      -275.3661
  13   2.0000      -1.367938       -37.2235
  14   2.0000      -1.089802       -29.6550
  15   2.0000      -0.985823       -26.8256
  16   2.0000      -0.902081       -24.5469
  17   2.0000      -0.854511       -23.2524
  18   2.0000      -0.814731       -22.1700
  19   2.0000      -0.768540       -20.9130
  20   2.0000      -0.732791       -19.9402
  21   2.0000      -0.710688       -19.3388
  22   2.0000      -0.675213       -18.3735
  23   2.0000      -0.637557       -17.3488
  24   2.0000      -0.613790       -16.7021
  25   2.0000      -0.598353       -16.2820
  26   2.0000      -0.577917       -15.7259
  27   2.0000      -0.561318       -15.2742
  28   2.0000      -0.549442       -14.9511
  29   2.0000      -0.541739       -14.7415
  30   2.0000      -0.507745       -13.8164
  31   2.0000      -0.496981       -13.5235
  32   2.0000      -0.488977       -13.3057
  33   2.0000      -0.478143       -13.0109
  34   2.0000      -0.463444       -12.6110
  35   2.0000      -0.450288       -12.2530
  36   2.0000      -0.429437       -11.6856
  37   2.0000      -0.424467       -11.5503
  38   2.0000      -0.405596       -11.0368
  39   2.0000      -0.395473       -10.7614
  40   2.0000      -0.391488       -10.6529
  41   2.0000      -0.382222       -10.4008
  42   2.0000      -0.375468       -10.2170
  43   2.0000      -0.371132       -10.0990
  44   2.0000      -0.359455        -9.7813
  45   2.0000      -0.347037        -9.4434
  46   2.0000      -0.344410        -9.3719
  47   2.0000      -0.337552        -9.1853
  48   2.0000      -0.323892        -8.8136
  49   2.0000      -0.253574        -6.9001
  50   2.0000      -0.171705        -4.6723
  51   0.0000      -0.044911        -1.2221
  52   0.0000       0.002405         0.0655
  53   0.0000       0.013965         0.3800
  54   0.0000       0.017013         0.4629
  55   0.0000       0.025549         0.6952

MULLIKEN ATOMIC CHARGES
-----------------------
   0 C :   -0.493468
   1 N :   -0.054055
   2 C :   -0.238715
   3 C :   -0.191249
   4 H :    0.244100
   5 H :    0.129477
   6 C :    0.498495
   7 C :    0.076998
   8 N :   -0.223257
   9 C :   -1.110338
  10 H :    0.238118
  11 H :    0.423276
  12 H :    0.246810
  13 H :    0.262310
  14 H :    0.196909
  15 F :   -0.212602
  16 O :   -0.590451
  17 C :   -0.347314
  18 H :    0.094732
  19 H :    0.226067
  20 C :   -0.104417
  21 H :    0.150479
  22 H :    0.129347
  23 C :   -0.238439
  24 H :    0.166788
  25 H :    0.177515
  26 H :    0.105969
  27 H :    0.138287
  28 H :    0.100077
  29 H :    0.198551
Sum of atomic charges:   -0.0000000

LOEWDIN ATOMIC CHARGES
----------------------
   0 C :   -0.196002
   1 N :    0.034385
   2 C :   -0.189924
   3 C :   -0.095842
   4 H :    0.118066
   5 H :    0.129252
   6 C :   -0.451808
   7 C :   -0.566920
   8 N :    0.146842
   9 C :   -0.005572
  10 H :    0.015419
  11 H :   -0.006045
  12 H :    0.136343
  13 H :    0.103320
  14 H :    0.054725
  15 F :    0.194398
  16 O :    0.074158
  17 C :   -0.185814
  18 H :    0.113113
  19 H :    0.101760
  20 C :   -0.201604
  21 H :    0.110359
  22 H :    0.111071
  23 C :   -0.207567
  24 H :    0.102596
  25 H :    0.118122
  26 H :    0.092214
  27 H :    0.119575
  28 H :    0.116504
  29 H :    0.114874

  Mayer bond orders larger than 0.100000
B(  0-C ,  1-N ) :   1.0014 B(  0-C ,  8-N ) :   0.1347 B(  0-C , 17-C ) :   0.8720
B(  0-C , 18-H ) :   1.0533 B(  0-C , 19-H ) :   0.9092 B(  0-C , 23-C ) :   0.1411
B(  1-N ,  7-C ) :   1.1356 B(  1-N , 12-H ) :   0.7813 B(  2-C ,  3-C ) :   1.0016
B(  2-C ,  6-C ) :   0.1324 B(  2-C , 20-C ) :   0.2171 B(  2-C , 23-C ) :   1.1114
B(  2-C , 26-H ) :   0.1096 B(  2-C , 28-H ) :   0.9271 B(  2-C , 29-H ) :   0.8614
B(  3-C ,  4-H ) :   0.9040 B(  3-C ,  5-H ) :   0.8800 B(  3-C ,  6-C ) :   1.0105
B(  3-C , 20-C ) :   0.1548 B(  6-C , 15-F ) :   0.9310 B(  6-C , 16-O ) :   1.6283
B(  6-C , 23-C ) :   0.1031 B(  7-C ,  8-N ) :   1.0140 B(  7-C ,  9-C ) :   1.4979
B(  7-C , 10-H ) :  -0.1380 B(  8-N , 13-H ) :   0.7849 B(  8-N , 14-H ) :   0.7643
B(  9-C , 10-H ) :   1.1722 B(  9-C , 11-H ) :   0.7857 B( 17-C , 20-C ) :   1.1526
B( 17-C , 21-H ) :   0.9565 B( 17-C , 22-H ) :   0.9296 B( 17-C , 23-C ) :   0.3386
B( 17-C , 24-H ) :   0.1320 B( 20-C , 23-C ) :   0.6304 B( 20-C , 24-H ) :   1.0487
B( 20-C , 25-H ) :   0.7926 B( 23-C , 26-H ) :   1.1169 B( 23-C , 27-H ) :   0.8443

Dispersion correction           -0.030689422
FINAL SINGLE POINT ENERGY      -637.248943930771

DIPOLE MOMENT
-------------
                                X             Y             Z
Electronic contribution:     -2.87225       1.34511     -12.73880
Nuclear contribution   :      2.27881      -0.10762      14.43322
                        -----------------------------------------
Total Dipole Moment    :     -0.59344       1.23749       1.69441
                        -----------------------------------------
Magnitude (a.u.)       :      2.18050
Magnitude (Debye)      :      5.54240

Rotational constants in cm-1:     0.033336     0.023673     0.017062
Rotational constants in MHz :   999.388459   709.685364   511.514310

                             ****ORCA TERMINATED NORMALLY****
TOTAL RUN TIME: 0 days 0 hours 5 minutes 43 seconds 614 msec
