                         Program Version 5.0.0 -  RELEASE  -
|  1> !PBE0 D3BJ RIJCOSX def2-TZVPD def2/J TightSCF xyzfile
|  2>
|  3> *xyzfile 0 1 D4.xyz
|  4>
|  5> %MaxCore 64000
|  6>
|  7> %pal nprocs 4
|  8> end
|  9>
| 10> %scf
| 11>   MaxIter 150
| 12> end
| 13>
| 14>
| 15>                          ****END OF INPUT****

CARTESIAN COORDINATES (ANGSTROEM)
---------------------------------
  C      2.234473   -2.989754   -2.397622
  C      2.756799   -2.945553   -3.765029
  C     -1.104325    0.251374   -2.860056
  C     -0.711893    0.842517   -4.218344
  H      0.154626    1.499800   -4.130909
  H     -1.538134    1.459222   -4.582671
  C     -0.397624   -0.205875   -5.288018
  C      1.987208   -2.590451   -4.818975
  N      0.743221   -3.017493   -4.913524
  N      2.499636   -1.848598   -5.803241
  H      3.309780   -1.292818   -5.558947
  H      1.801025   -1.304298   -6.289129
  H      3.716116   -2.628797   -3.829533
  H      0.395828   -3.627747   -4.185024
  H      0.039201   -2.454383   -5.371367
  O      0.617165   -0.005348   -5.998273
  F     -1.133173   -1.221380   -5.341465
  C      2.191199   -1.619503   -1.715492
  H      2.872783   -3.666368   -1.828014
  H      1.246188   -3.447444   -2.407842
  C      1.298729   -0.554314   -2.359773
  H      1.872917   -1.787955   -0.681310
  H      3.216809   -1.238432   -1.654428
  C     -0.196255   -0.863365   -2.325763
  H      1.612531   -0.371346   -3.393065
  H      1.480944    0.388638   -1.834444
  H     -0.404105   -1.761825   -2.909448
  H     -0.490439   -1.087880   -1.294131
  H     -1.143842    1.066711   -2.129680
  H     -2.114401   -0.156834   -2.930323

 Total Charge           Charge          ....    0
 Multiplicity           Mult            ....    1
 Number of Electrons    NEL             ....  102
 Basis Dimension        Dim             ....  640

ORBITAL ENERGIES
----------------

  NO   OCC          E(Eh)            E(eV)
   0   2.0000     -24.877214      -676.9434
   1   2.0000     -19.243016      -523.6291
   2   2.0000     -14.374695      -391.1553
   3   2.0000     -14.358157      -390.7053
   4   2.0000     -10.426820      -283.7282
   5   2.0000     -10.265783      -279.3462
   6   2.0000     -10.256704      -279.0991
   7   2.0000     -10.245131      -278.7842
   8   2.0000     -10.226284      -278.2713
   9   2.0000     -10.215411      -277.9755
  10   2.0000     -10.204346      -277.6744
  11   2.0000     -10.194479      -277.4059
  12   2.0000     -10.136060      -275.8162
  13   2.0000      -1.391220       -37.8570
  14   2.0000      -1.097514       -29.8649
  15   2.0000      -0.984145       -26.7800
  16   2.0000      -0.889355       -24.2006
  17   2.0000      -0.858882       -23.3714
  18   2.0000      -0.814796       -22.1717
  19   2.0000      -0.776721       -21.1356
  20   2.0000      -0.729743       -19.8573
  21   2.0000      -0.711157       -19.3516
  22   2.0000      -0.677609       -18.4387
  23   2.0000      -0.634746       -17.2723
  24   2.0000      -0.615967       -16.7613
  25   2.0000      -0.600355       -16.3365
  26   2.0000      -0.590809       -16.0767
  27   2.0000      -0.579063       -15.7571
  28   2.0000      -0.544837       -14.8258
  29   2.0000      -0.534047       -14.5322
  30   2.0000      -0.505169       -13.7463
  31   2.0000      -0.498684       -13.5699
  32   2.0000      -0.490624       -13.3506
  33   2.0000      -0.466989       -12.7074
  34   2.0000      -0.455995       -12.4082
  35   2.0000      -0.452405       -12.3106
  36   2.0000      -0.444375       -12.0920
  37   2.0000      -0.418240       -11.3809
  38   2.0000      -0.412615       -11.2278
  39   2.0000      -0.406493       -11.0612
  40   2.0000      -0.398273       -10.8376
  41   2.0000      -0.376648       -10.2491
  42   2.0000      -0.373727       -10.1696
  43   2.0000      -0.358950        -9.7675
  44   2.0000      -0.351082        -9.5534
  45   2.0000      -0.338121        -9.2007
  46   2.0000      -0.329564        -8.9679
  47   2.0000      -0.319932        -8.7058
  48   2.0000      -0.317660        -8.6440
  49   2.0000      -0.270720        -7.3667
  50   2.0000      -0.160175        -4.3586
  51   0.0000      -0.051574        -1.4034
  52   0.0000      -0.002973        -0.0809
  53   0.0000       0.016492         0.4488
  54   0.0000       0.022218         0.6046
  55   0.0000       0.025106         0.6832

MULLIKEN ATOMIC CHARGES
-----------------------
   0 C :   -0.068299
   1 C :   -0.726348
   2 C :   -0.276415
   3 C :   -0.090137
   4 H :    0.191022
   5 H :    0.136315
   6 C :    0.503306
   7 C :   -0.240614
   8 N :   -0.265326
   9 N :   -0.371423
  10 H :    0.210590
  11 H :    0.318267
  12 H :    0.320342
  13 H :    0.248504
  14 H :    0.268314
  15 O :   -0.572311
  16 F :   -0.276673
  17 C :   -0.432797
  18 H :    0.018286
  19 H :    0.300577
  20 C :   -0.200085
  21 H :    0.104131
  22 H :    0.171339
  23 C :   -0.201528
  24 H :    0.235529
  25 H :    0.181100
  26 H :    0.066317
  27 H :    0.146464
  28 H :    0.105657
  29 H :    0.195894
Sum of atomic charges:   -0.0000000

LOEWDIN ATOMIC CHARGES
----------------------
   0 C :   -0.245004
   1 C :   -0.125922
   2 C :   -0.197176
   3 C :   -0.092835
   4 H :    0.125641
   5 H :    0.127883
   6 C :   -0.457023
   7 C :   -0.551201
   8 N :    0.151831
   9 N :    0.128548
  10 H :    0.113031
  11 H :    0.054089
  12 H :    0.060870
  13 H :    0.111262
  14 H :    0.068285
  15 O :    0.072297
  16 F :    0.194901
  17 C :   -0.198810
  18 H :    0.102549
  19 H :    0.090555
  20 C :   -0.202910
  21 H :    0.106308
  22 H :    0.112161
  23 C :   -0.208361
  24 H :    0.102569
  25 H :    0.117156
  26 H :    0.090786
  27 H :    0.120540
  28 H :    0.117008
  29 H :    0.110974

  Mayer bond orders larger than 0.100000
B(  0-C ,  1-C ) :   0.8725 B(  0-C ,  7-C ) :   0.1341 B(  0-C , 17-C ) :   0.8196
B(  0-C , 18-H ) :   1.0915 B(  0-C , 19-H ) :   0.8238 B(  0-C , 23-C ) :   0.1307
B(  1-C ,  7-C ) :   1.6662 B(  1-C , 12-H ) :   0.9614 B(  1-C , 17-C ) :   0.1749
B(  2-C ,  3-C ) :   0.9495 B(  2-C ,  6-C ) :   0.1359 B(  2-C , 20-C ) :   0.2052
B(  2-C , 23-C ) :   1.0357 B(  2-C , 28-H ) :   0.9160 B(  2-C , 29-H ) :   0.9114
B(  3-C ,  4-H ) :   0.9336 B(  3-C ,  5-H ) :   0.8980 B(  3-C ,  6-C ) :   1.0055
B(  3-C , 20-C ) :   0.1546 B(  6-C , 15-O ) :   1.5893 B(  6-C , 16-F ) :   0.8976
B(  7-C ,  8-N ) :   1.1790 B(  7-C ,  9-N ) :   1.1388 B(  7-C , 12-H ) :  -0.1079
B(  7-C , 20-C ) :   0.1357 B(  8-N , 13-H ) :   0.8233 B(  8-N , 14-H ) :   0.7321
B(  9-N , 10-H ) :   0.8809 B(  9-N , 11-H ) :   0.7340 B( 17-C , 20-C ) :   1.2091
B( 17-C , 21-H ) :   0.9249 B( 17-C , 22-H ) :   0.9255 B( 17-C , 23-C ) :   0.3702
B( 17-C , 24-H ) :   0.1291 B( 20-C , 23-C ) :   0.6793 B( 20-C , 24-H ) :   1.0214
B( 20-C , 25-H ) :   0.8099 B( 23-C , 26-H ) :   1.1301 B( 23-C , 27-H ) :   0.8503

Dispersion correction           -0.030725295
FINAL SINGLE POINT ENERGY      -637.264344473354

DIPOLE MOMENT
-------------
                                X             Y             Z
Electronic contribution:     -5.99832       0.21500     -13.42722
Nuclear contribution   :      4.38568       1.15960      13.97148
                        -----------------------------------------
Total Dipole Moment    :     -1.61264       1.37460       0.54426
                        -----------------------------------------
Magnitude (a.u.)       :      2.18778
Magnitude (Debye)      :      5.56088

Rotational constants in cm-1:     0.032892     0.023844     0.017123
Rotational constants in MHz :   986.091711   714.821905   513.334630

                             ****ORCA TERMINATED NORMALLY****
TOTAL RUN TIME: 0 days 0 hours 5 minutes 49 seconds 316 msec
