                         Program Version 5.0.0 -  RELEASE  -
|  1> !PBE0 D3BJ RIJCOSX def2-TZVPD def2/J TightSCF xyzfile
|  2>
|  3> *xyzfile 0 1 D5.xyz
|  4>
|  5> %MaxCore 64000
|  6>
|  7> %pal nprocs 4
|  8> end
|  9>
| 10> %scf
| 11>   MaxIter 150
| 12> end
| 13>
| 14>
| 15>                          ****END OF INPUT****

CARTESIAN COORDINATES (ANGSTROEM)
---------------------------------
  C      2.234473   -2.989754   -2.397622
  N      2.756799   -2.945553   -3.765029
  C     -1.104325    0.251374   -2.860056
  C     -0.711893    0.842517   -4.218344
  H      0.154626    1.499800   -4.130909
  H     -1.538134    1.459222   -4.582671
  C     -0.397624   -0.205875   -5.288018
  C      1.987208   -2.590451   -4.818975
  C      0.743221   -3.017493   -4.913524
  N      2.499636   -1.848598   -5.803241
  H      3.309780   -1.292818   -5.558947
  H      1.801025   -1.304298   -6.289129
  H      3.716116   -2.628797   -3.829533
  H      0.395828   -3.627747   -4.185024
  H      0.039201   -2.454383   -5.371367
  O      0.617165   -0.005348   -5.998273
  F     -1.133173   -1.221380   -5.341465
  C      2.191199   -1.619503   -1.715492
  H      2.872783   -3.666368   -1.828014
  H      1.246188   -3.447444   -2.407842
  C      1.298729   -0.554314   -2.359773
  H      1.872917   -1.787955   -0.681310
  H      3.216809   -1.238432   -1.654428
  C     -0.196255   -0.863365   -2.325763
  H      1.612531   -0.371346   -3.393065
  H      1.480944    0.388638   -1.834444
  H     -0.404105   -1.761825   -2.909448
  H     -0.490439   -1.087880   -1.294131
  H     -1.143842    1.066711   -2.129680
  H     -2.114401   -0.156834   -2.930323

 Total Charge           Charge          ....    0
 Multiplicity           Mult            ....    1
 Number of Electrons    NEL             ....  102
 Basis Dimension        Dim             ....  640

ORBITAL ENERGIES
----------------

  NO   OCC          E(Eh)            E(eV)
   0   2.0000     -24.849233      -676.1820
   1   2.0000     -19.225898      -523.1633
   2   2.0000     -14.379332      -391.2815
   3   2.0000     -14.357607      -390.6903
   4   2.0000     -10.411141      -283.3015
   5   2.0000     -10.256546      -279.0948
   6   2.0000     -10.254366      -279.0355
   7   2.0000     -10.250116      -278.9198
   8   2.0000     -10.239381      -278.6277
   9   2.0000     -10.223018      -278.1825
  10   2.0000     -10.222138      -278.1585
  11   2.0000     -10.221852      -278.1507
  12   2.0000     -10.123332      -275.4699
  13   2.0000      -1.364387       -37.1269
  14   2.0000      -1.080746       -29.4086
  15   2.0000      -0.982905       -26.7462
  16   2.0000      -0.900987       -24.5171
  17   2.0000      -0.851921       -23.1820
  18   2.0000      -0.809248       -22.0208
  19   2.0000      -0.758131       -20.6298
  20   2.0000      -0.728950       -19.8357
  21   2.0000      -0.709480       -19.3059
  22   2.0000      -0.683379       -18.5957
  23   2.0000      -0.638632       -17.3781
  24   2.0000      -0.604890       -16.4599
  25   2.0000      -0.588760       -16.0210
  26   2.0000      -0.571835       -15.5604
  27   2.0000      -0.560099       -15.2411
  28   2.0000      -0.544711       -14.8223
  29   2.0000      -0.534591       -14.5470
  30   2.0000      -0.503582       -13.7032
  31   2.0000      -0.496277       -13.5044
  32   2.0000      -0.488263       -13.2863
  33   2.0000      -0.465401       -12.6642
  34   2.0000      -0.458213       -12.4686
  35   2.0000      -0.435826       -11.8594
  36   2.0000      -0.430212       -11.7067
  37   2.0000      -0.423971       -11.5369
  38   2.0000      -0.406923       -11.0729
  39   2.0000      -0.401147       -10.9158
  40   2.0000      -0.390207       -10.6181
  41   2.0000      -0.384204       -10.4547
  42   2.0000      -0.372147       -10.1266
  43   2.0000      -0.370311       -10.0767
  44   2.0000      -0.355601        -9.6764
  45   2.0000      -0.342122        -9.3096
  46   2.0000      -0.341493        -9.2925
  47   2.0000      -0.332443        -9.0462
  48   2.0000      -0.314701        -8.5635
  49   2.0000      -0.251252        -6.8369
  50   2.0000      -0.177360        -4.8262
  51   0.0000      -0.035632        -0.9696
  52   0.0000       0.002545         0.0692
  53   0.0000       0.013633         0.3710
  54   0.0000       0.020620         0.5611
  55   0.0000       0.029573         0.8047

MULLIKEN ATOMIC CHARGES
-----------------------
   0 C :   -0.477057
   1 N :   -0.020360
   2 C :   -0.322923
   3 C :   -0.128760
   4 H :    0.183328
   5 H :    0.152924
   6 C :    0.478243
   7 C :    0.017745
   8 C :   -1.367280
   9 N :   -0.311614
  10 H :    0.209500
  11 H :    0.250714
  12 H :    0.232050
  13 H :    0.499793
  14 H :    0.570547
  15 O :   -0.591515
  16 F :   -0.235433
  17 C :   -0.295255
  18 H :    0.078242
  19 H :    0.207681
  20 C :   -0.110809
  21 H :    0.134009
  22 H :    0.124452
  23 C :   -0.174785
  24 H :    0.188413
  25 H :    0.203137
  26 H :    0.052077
  27 H :    0.142870
  28 H :    0.100949
  29 H :    0.209116
Sum of atomic charges:   -0.0000000

LOEWDIN ATOMIC CHARGES
----------------------
   0 C :   -0.192077
   1 N :    0.032276
   2 C :   -0.195641
   3 C :   -0.093129
   4 H :    0.123438
   5 H :    0.126790
   6 C :   -0.457539
   7 C :   -0.556840
   8 C :    0.013330
   9 N :    0.125961
  10 H :    0.101083
  11 H :    0.061583
  12 H :    0.130152
  13 H :    0.025699
  14 H :   -0.000561
  15 O :    0.065506
  16 F :    0.187650
  17 C :   -0.185905
  18 H :    0.113826
  19 H :    0.105091
  20 C :   -0.202796
  21 H :    0.110853
  22 H :    0.108665
  23 C :   -0.207192
  24 H :    0.101959
  25 H :    0.117579
  26 H :    0.093685
  27 H :    0.119291
  28 H :    0.115172
  29 H :    0.112091

  Mayer bond orders larger than 0.100000
B(  0-C ,  1-N ) :   0.9050 B(  0-C ,  7-C ) :   0.1171 B(  0-C , 17-C ) :   0.8764
B(  0-C , 18-H ) :   1.0456 B(  0-C , 19-H ) :   0.9148 B(  0-C , 23-C ) :   0.1474
B(  1-N ,  7-C ) :   1.1314 B(  1-N , 12-H ) :   0.8045 B(  2-C ,  3-C ) :   0.9612
B(  2-C ,  6-C ) :   0.1360 B(  2-C , 20-C ) :   0.2276 B(  2-C , 23-C ) :   1.0554
B(  2-C , 26-H ) :   0.1202 B(  2-C , 28-H ) :   0.9329 B(  2-C , 29-H ) :   0.8962
B(  3-C ,  4-H ) :   0.9552 B(  3-C ,  5-H ) :   0.8902 B(  3-C ,  6-C ) :   1.0093
B(  3-C , 20-C ) :   0.1520 B(  6-C , 15-O ) :   1.5577 B(  6-C , 16-F ) :   0.9899
B(  7-C ,  8-C ) :   1.7303 B(  7-C ,  9-N ) :   1.0285 B(  7-C , 14-H ) :  -0.1161
B(  7-C , 15-O ) :   0.1068 B(  7-C , 20-C ) :   0.1173 B(  8-C , 13-H ) :   0.7938
B(  8-C , 14-H ) :   0.5675 B(  9-N , 10-H ) :   0.8553 B(  9-N , 11-H ) :   0.7907
B( 13-H , 14-H ) :   0.1820 B( 17-C , 20-C ) :   1.1192 B( 17-C , 21-H ) :   0.9430
B( 17-C , 22-H ) :   0.9488 B( 17-C , 23-C ) :   0.3412 B( 17-C , 24-H ) :   0.1164
B( 20-C , 23-C ) :   0.6661 B( 20-C , 24-H ) :   1.0561 B( 20-C , 25-H ) :   0.7810
B( 23-C , 26-H ) :   1.1397 B( 23-C , 27-H ) :   0.8458

Dispersion correction           -0.030774304
FINAL SINGLE POINT ENERGY      -637.253920957994

DIPOLE MOMENT
-------------
                                X             Y             Z
Electronic contribution:     -4.35872       0.18408     -12.41532
Nuclear contribution   :      4.07548       1.14852      13.79455
                        -----------------------------------------
Total Dipole Moment    :     -0.28323       1.33260       1.37923
                        -----------------------------------------
Magnitude (a.u.)       :      1.93864
Magnitude (Debye)      :      4.92763

Rotational constants in cm-1:     0.033274     0.023559     0.016968
Rotational constants in MHz :   997.539108   706.293545   508.690532

                             ****ORCA TERMINATED NORMALLY****
TOTAL RUN TIME: 0 days 0 hours 5 minutes 23 seconds 490 msec
