                         Program Version 5.0.0 -  RELEASE  -
|  1> !PBE0 D3BJ RIJCOSX def2-TZVPD def2/J TightSCF xyzfile
|  2>
|  3> *xyzfile 0 1 D6.xyz
|  4>
|  5> %MaxCore 64000
|  6>
|  7> %pal nprocs 4
|  8> end
|  9>
| 10> %scf
| 11>   MaxIter 150
| 12> end
| 13>
| 14>
| 15>                          ****END OF INPUT****

CARTESIAN COORDINATES (ANGSTROEM)
---------------------------------
  C      2.234473   -2.989754   -2.397622
  N      2.756799   -2.945553   -3.765029
  C     -1.104325    0.251374   -2.860056
  C     -0.711893    0.842517   -4.218344
  H      0.154626    1.499800   -4.130909
  H     -1.538134    1.459222   -4.582671
  C     -0.397624   -0.205875   -5.288018
  C      1.987208   -2.590451   -4.818975
  N      0.743221   -3.017493   -4.913524
  C      2.499636   -1.848598   -5.803241
  H      3.309780   -1.292818   -5.558947
  H      1.801025   -1.304298   -6.289129
  H      3.716116   -2.628797   -3.829533
  H      0.395828   -3.627747   -4.185024
  H      0.039201   -2.454383   -5.371367
  O      0.617165   -0.005348   -5.998273
  F     -1.133173   -1.221380   -5.341465
  C      2.191199   -1.619503   -1.715492
  H      2.872783   -3.666368   -1.828014
  H      1.246188   -3.447444   -2.407842
  C      1.298729   -0.554314   -2.359773
  H      1.872917   -1.787955   -0.681310
  H      3.216809   -1.238432   -1.654428
  C     -0.196255   -0.863365   -2.325763
  H      1.612531   -0.371346   -3.393065
  H      1.480944    0.388638   -1.834444
  H     -0.404105   -1.761825   -2.909448
  H     -0.490439   -1.087880   -1.294131
  H     -1.143842    1.066711   -2.129680
  H     -2.114401   -0.156834   -2.930323

 Total Charge           Charge          ....    0
 Multiplicity           Mult            ....    1
 Number of Electrons    NEL             ....  102
 Basis Dimension        Dim             ....  640

ORBITAL ENERGIES
----------------

  NO   OCC          E(Eh)            E(eV)
   0   2.0000     -24.863291      -676.5646
   1   2.0000     -19.222979      -523.0839
   2   2.0000     -14.377260      -391.2251
   3   2.0000     -14.372070      -391.0839
   4   2.0000     -10.407835      -283.2116
   5   2.0000     -10.257928      -279.1324
   6   2.0000     -10.256285      -279.0877
   7   2.0000     -10.254370      -279.0356
   8   2.0000     -10.243495      -278.7397
   9   2.0000     -10.230688      -278.3912
  10   2.0000     -10.225518      -278.2505
  11   2.0000     -10.223869      -278.2056
  12   2.0000     -10.111110      -275.1373
  13   2.0000      -1.377863       -37.4935
  14   2.0000      -1.076805       -29.3014
  15   2.0000      -0.987825       -26.8801
  16   2.0000      -0.906630       -24.6707
  17   2.0000      -0.856507       -23.3067
  18   2.0000      -0.814090       -22.1525
  19   2.0000      -0.766009       -20.8442
  20   2.0000      -0.732640       -19.9362
  21   2.0000      -0.705783       -19.2053
  22   2.0000      -0.683885       -18.6095
  23   2.0000      -0.637189       -17.3388
  24   2.0000      -0.622981       -16.9522
  25   2.0000      -0.600112       -16.3299
  26   2.0000      -0.583476       -15.8772
  27   2.0000      -0.577657       -15.7189
  28   2.0000      -0.546018       -14.8579
  29   2.0000      -0.527621       -14.3573
  30   2.0000      -0.507051       -13.7976
  31   2.0000      -0.496343       -13.5062
  32   2.0000      -0.486363       -13.2346
  33   2.0000      -0.476318       -12.9613
  34   2.0000      -0.460920       -12.5423
  35   2.0000      -0.451874       -12.2961
  36   2.0000      -0.429503       -11.6874
  37   2.0000      -0.423858       -11.5338
  38   2.0000      -0.402671       -10.9572
  39   2.0000      -0.397412       -10.8141
  40   2.0000      -0.394455       -10.7337
  41   2.0000      -0.384714       -10.4686
  42   2.0000      -0.379767       -10.3340
  43   2.0000      -0.372655       -10.1404
  44   2.0000      -0.350984        -9.5508
  45   2.0000      -0.345586        -9.4039
  46   2.0000      -0.344429        -9.3724
  47   2.0000      -0.337385        -9.1807
  48   2.0000      -0.300731        -8.1833
  49   2.0000      -0.257641        -7.0108
  50   2.0000      -0.167233        -4.5506
  51   0.0000      -0.035729        -0.9722
  52   0.0000      -0.001005        -0.0274
  53   0.0000       0.013265         0.3610
  54   0.0000       0.014895         0.4053
  55   0.0000       0.025599         0.6966

MULLIKEN ATOMIC CHARGES
-----------------------
   0 C :   -0.491033
   1 N :   -0.052672
   2 C :   -0.278250
   3 C :   -0.113057
   4 H :    0.179858
   5 H :    0.138577
   6 C :    0.425389
   7 C :   -0.034943
   8 N :   -0.239584
   9 C :   -1.091976
  10 H :    0.213403
  11 H :    0.530648
  12 H :    0.253424
  13 H :    0.280498
  14 H :    0.229931
  15 O :   -0.492347
  16 F :   -0.291982
  17 C :   -0.343489
  18 H :    0.092530
  19 H :    0.217994
  20 C :   -0.087975
  21 H :    0.148407
  22 H :    0.130442
  23 C :   -0.233708
  24 H :    0.193702
  25 H :    0.188962
  26 H :    0.076536
  27 H :    0.144609
  28 H :    0.103572
  29 H :    0.202533
Sum of atomic charges:   -0.0000000

LOEWDIN ATOMIC CHARGES
----------------------
   0 C :   -0.197610
   1 N :    0.033094
   2 C :   -0.197742
   3 C :   -0.093546
   4 H :    0.125372
   5 H :    0.126445
   6 C :   -0.463263
   7 C :   -0.565522
   8 N :    0.148216
   9 C :    0.000330
  10 H :    0.020041
  11 H :   -0.017120
  12 H :    0.137027
  13 H :    0.102304
  14 H :    0.076413
  15 O :    0.076522
  16 F :    0.189284
  17 C :   -0.186136
  18 H :    0.112817
  19 H :    0.100246
  20 C :   -0.199395
  21 H :    0.109628
  22 H :    0.111715
  23 C :   -0.210587
  24 H :    0.106261
  25 H :    0.119112
  26 H :    0.090031
  27 H :    0.118992
  28 H :    0.116018
  29 H :    0.111054

  Mayer bond orders larger than 0.100000
B(  0-C ,  1-N ) :   1.0052 B(  0-C ,  8-N ) :   0.1267 B(  0-C , 17-C ) :   0.8688
B(  0-C , 18-H ) :   1.0577 B(  0-C , 19-H ) :   0.9090 B(  0-C , 23-C ) :   0.1344
B(  1-N ,  7-C ) :   1.1303 B(  1-N , 12-H ) :   0.7742 B(  2-C ,  3-C ) :   0.9562
B(  2-C ,  6-C ) :   0.1210 B(  2-C , 20-C ) :   0.2212 B(  2-C , 23-C ) :   1.0439
B(  2-C , 28-H ) :   0.9224 B(  2-C , 29-H ) :   0.9052 B(  3-C ,  4-H ) :   0.9363
B(  3-C ,  5-H ) :   0.8990 B(  3-C ,  6-C ) :   1.0207 B(  3-C , 20-C ) :   0.1394
B(  6-C , 15-O ) :   1.6930 B(  6-C , 16-F ) :   0.8706 B(  7-C ,  8-N ) :   1.0449
B(  7-C ,  9-C ) :   1.5743 B(  7-C , 10-H ) :  -0.1158 B(  7-C , 14-H ) :   0.1091
B(  8-N , 13-H ) :   0.7758 B(  8-N , 14-H ) :   0.7396 B(  9-C , 10-H ) :   1.1713
B(  9-C , 11-H ) :   0.7140 B( 11-H , 15-O ) :  -0.1160 B( 17-C , 20-C ) :   1.1528
B( 17-C , 21-H ) :   0.9574 B( 17-C , 22-H ) :   0.9281 B( 17-C , 23-C ) :   0.3560
B( 17-C , 24-H ) :   0.1223 B( 20-C , 23-C ) :   0.6301 B( 20-C , 24-H ) :   1.0422
B( 20-C , 25-H ) :   0.7820 B( 23-C , 26-H ) :   1.1192 B( 23-C , 27-H ) :   0.8608

Dispersion correction           -0.030677249
FINAL SINGLE POINT ENERGY      -637.238818265238

DIPOLE MOMENT
-------------
                                X             Y             Z
Electronic contribution:     -5.69210      -0.70894     -11.70613
Nuclear contribution   :      4.34606       1.32859      13.65749
                        -----------------------------------------
Total Dipole Moment    :     -1.34603       0.61965       1.95136
                        -----------------------------------------
Magnitude (a.u.)       :      2.45022
Magnitude (Debye)      :      6.22796

Rotational constants in cm-1:     0.033551     0.023540     0.017085
Rotational constants in MHz :  1005.818710   705.725032   512.192443

                             ****ORCA TERMINATED NORMALLY****
TOTAL RUN TIME: 0 days 0 hours 6 minutes 36 seconds 328 msec
