                         Program Version 5.0.0 -  RELEASE  -
|  1> !DLPNO-CCSD(T) aug-cc-pVTZ aug-cc-pVTZ/C TightSCF TightPNO RIJCOSX def2/J
|  2> *xyz -1 1
|  3> C          4.90646       -3.10282       -5.95484
|  4> C          3.51177       -2.80621       -6.49228
|  5> H          2.73604       -3.37345       -5.97374
|  6> H          3.44490       -3.04083       -7.55528
|  7> S          3.00462       -1.09621       -6.38926
|  8> O          4.12886       -0.32965       -6.95372
|  9> O          1.78128       -1.00078       -7.13640
| 10> C          5.02498       -3.02568       -4.43762
| 11> H          5.20153       -4.10021       -6.29691
| 12> H          5.60592       -2.39782       -6.41337
| 13> O          2.85155       -0.78368       -4.95679
| 14> H          4.73604       -2.05011       -4.10644
| 15> H          6.03776       -3.21492       -4.14890
| 16> H          4.38436       -3.75784       -3.99214
| 17> *
| 18>
| 19> %MaxCore 64000
| 20>
| 21> %pal nprocs 2
| 22> end
| 23>
| 24> %scf
| 25>   MaxIter 150
| 26> end
| 27>
| 28>
| 29>                          ****END OF INPUT****

CARTESIAN COORDINATES (ANGSTROEM)
---------------------------------
  C      4.906460   -3.102820   -5.954840
  C      3.511770   -2.806210   -6.492280
  H      2.736040   -3.373450   -5.973740
  H      3.444900   -3.040830   -7.555280
  S      3.004620   -1.096210   -6.389260
  O      4.128860   -0.329650   -6.953720
  O      1.781280   -1.000780   -7.136400
  C      5.024980   -3.025680   -4.437620
  H      5.201530   -4.100210   -6.296910
  H      5.605920   -2.397820   -6.413370
  O      2.851550   -0.783680   -4.956790
  H      4.736040   -2.050110   -4.106440
  H      6.037760   -3.214920   -4.148900
  H      4.384360   -3.757840   -3.992140

 Total Charge           Charge          ....   -1
 Multiplicity           Mult            ....    1
 Number of Electrons    NEL             ....   66
 Basis Dimension        Dim             ....  487

ORBITAL ENERGIES
----------------

  NO   OCC          E(Eh)            E(eV)
   0   2.0000     -91.983596     -2503.0009
   1   2.0000     -20.336723      -553.3904
   2   2.0000     -20.324887      -553.0683
   3   2.0000     -20.324278      -553.0517
   4   2.0000     -11.095699      -301.9293
   5   2.0000     -11.095076      -301.9124
   6   2.0000     -11.075935      -301.3915
   7   2.0000      -8.947228      -243.4665
   8   2.0000      -6.633244      -180.4997
   9   2.0000      -6.632167      -180.4704
  10   2.0000      -6.632050      -180.4672
  11   2.0000      -1.272565       -34.6282
  12   2.0000      -1.128270       -30.7018
  13   2.0000      -1.106347       -30.1052
  14   2.0000      -0.937452       -25.5094
  15   2.0000      -0.824438       -22.4341
  16   2.0000      -0.698463       -19.0061
  17   2.0000      -0.595924       -16.2159
  18   2.0000      -0.514552       -14.0017
  19   2.0000      -0.492679       -13.4065
  20   2.0000      -0.468966       -12.7612
  21   2.0000      -0.452227       -12.3057
  22   2.0000      -0.447469       -12.1763
  23   2.0000      -0.423112       -11.5135
  24   2.0000      -0.376642       -10.2490
  25   2.0000      -0.360449        -9.8083
  26   2.0000      -0.350584        -9.5399
  27   2.0000      -0.322165        -8.7666
  28   2.0000      -0.320458        -8.7201
  29   2.0000      -0.278327        -7.5737
  30   2.0000      -0.266018        -7.2387
  31   2.0000      -0.250650        -6.8205
  32   2.0000      -0.229901        -6.2559
  33   0.0000       0.109070         2.9679
  34   0.0000       0.119374         3.2483
  35   0.0000       0.125976         3.4280
  36   0.0000       0.141660         3.8548
  37   0.0000       0.147447         4.0122

MULLIKEN ATOMIC CHARGES
-----------------------
   0 C :   -0.476546
   1 C :   -0.520346
   2 H :    0.242165
   3 H :    0.280552
   4 S :    2.201565
   5 O :   -1.065281
   6 O :   -1.053713
   7 C :   -1.023114
   8 H :    0.254735
   9 H :    0.281079
  10 O :   -1.061453
  11 H :    0.413790
  12 H :    0.274036
  13 H :    0.252530
Sum of atomic charges:   -1.0000000

LOEWDIN ATOMIC CHARGES
----------------------
   0 C :    0.203448
   1 C :    0.128276
   2 H :   -0.201021
   3 H :   -0.208826
   4 S :   -0.385694
   5 O :   -0.056343
   6 O :   -0.044754
   7 C :    0.568829
   8 H :   -0.164060
   9 H :   -0.177634
  10 O :   -0.045233
  11 H :   -0.229668
  12 H :   -0.196568
  13 H :   -0.190753

  Mayer bond orders larger than 0.100000
B(  0-C ,  1-C ) :   0.9197 B(  0-C ,  4-S ) :   0.1194 B(  0-C ,  7-C ) :   0.7916
B(  0-C ,  8-H ) :   0.9588 B(  0-C ,  9-H ) :   0.9510 B(  1-C ,  2-H ) :   0.9456
B(  1-C ,  3-H ) :   0.9259 B(  1-C ,  4-S ) :   0.7829 B(  4-S ,  5-O ) :   1.3129
B(  4-S ,  6-O ) :   1.3243 B(  4-S , 10-O ) :   1.3131 B(  7-C , 11-H ) :   0.8504
B(  7-C , 12-H ) :   0.9845 B(  7-C , 13-H ) :   0.9921

E(0)                                       ...   -739.971878620
E(0)                                       ...   -739.971878620
E(CORR)(strong-pairs)                      ...     -1.490567783
E(CORR)(weak-pairs)                        ...     -0.001595307
E(CORR)(corrected)                         ...     -1.492163089
E(TOT)                                     ...   -741.464041710
E(CCSD(T))                                 ...   -741.527476185
FINAL SINGLE POINT ENERGY      -741.527476185324

DIPOLE MOMENT
-------------
                                X             Y             Z
Electronic contribution:     -6.12508       7.73740      -3.67330
Nuclear contribution   :      7.19636      -9.97366       3.94889
                        -----------------------------------------
Total Dipole Moment    :      1.07129      -2.23625       0.27559
                        -----------------------------------------
Magnitude (a.u.)       :      2.49488
Magnitude (Debye)      :      6.34149

Rotational constants in cm-1:     0.137066     0.054570     0.051980
Rotational constants in MHz :  4109.139955  1635.961703  1558.315282

                             ****ORCA TERMINATED NORMALLY****
TOTAL RUN TIME: 0 days 1 hours 23 minutes 51 seconds 412 msec
