                         Program Version 5.0.0 -  RELEASE  -
|  1> !DLPNO-CCSD(T) aug-cc-pVTZ aug-cc-pVTZ/C TightSCF TightPNO RIJCOSX def2/J
|  2> *xyz 1 1
|  3> C          4.49059        1.15590       -2.46929
|  4> N          4.30539        1.22276       -3.90832
|  5> C          4.63192        2.24637       -4.67096
|  6> N          4.54169        2.14399       -5.98714
|  7> N          5.08409        3.39358       -4.11855
|  8> H          4.92067        3.57050       -3.13587
|  9> H          5.25465        4.19739       -4.70696
| 10> H          3.82453        0.44911       -4.35093
| 11> H          4.34337        1.24932       -6.41665
| 12> H          4.67671        2.95662       -6.57411
| 13> C          5.94213        0.93950       -2.03689
| 14> H          3.86431        0.32853       -2.13661
| 15> H          4.07623        2.04999       -1.98901
| 16> C          6.55996       -0.35629       -2.55909
| 17> H          5.96798        0.95257       -0.94244
| 18> H          6.54718        1.78833       -2.36885
| 19> H          6.53022       -0.35990       -3.62867
| 20> H          6.00654       -1.19175       -2.18407
| 21> H          7.57588       -0.42487       -2.23029
| 22> *
| 23>
| 24> %MaxCore 64000
| 25>
| 26> %pal nprocs 2
| 27> end
| 28>
| 29> %scf
| 30>   MaxIter 150
| 31> end
| 32>
| 33>
| 34>                          ****END OF INPUT****

CARTESIAN COORDINATES (ANGSTROEM)
---------------------------------
  C      4.490590    1.155900   -2.469290
  N      4.305390    1.222760   -3.908320
  C      4.631920    2.246370   -4.670960
  N      4.541690    2.143990   -5.987140
  N      5.084090    3.393580   -4.118550
  H      4.920670    3.570500   -3.135870
  H      5.254650    4.197390   -4.706960
  H      3.824530    0.449110   -4.350930
  H      4.343370    1.249320   -6.416650
  H      4.676710    2.956620   -6.574110
  C      5.942130    0.939500   -2.036890
  H      3.864310    0.328530   -2.136610
  H      4.076230    2.049990   -1.989010
  C      6.559960   -0.356290   -2.559090
  H      5.967980    0.952570   -0.942440
  H      6.547180    1.788330   -2.368850
  H      6.530220   -0.359900   -3.628670
  H      6.006540   -1.191750   -2.184070
  H      7.575880   -0.424870   -2.230290

 Total Charge           Charge          ....    1
 Multiplicity           Mult            ....    1
 Number of Electrons    NEL             ....   56
 Basis Dimension        Dim             ....  598

ORBITAL ENERGIES
----------------

  NO   OCC          E(Eh)            E(eV)
   0   2.0000     -15.785137      -429.5354
   1   2.0000     -15.781440      -429.4348
   2   2.0000     -15.780761      -429.4163
   3   2.0000     -11.586007      -315.2713
   4   2.0000     -11.428020      -310.9722
   5   2.0000     -11.361695      -309.1674
   6   2.0000     -11.330924      -308.3301
   7   2.0000      -1.539404       -41.8893
   8   2.0000      -1.404422       -38.2163
   9   2.0000      -1.384975       -37.6871
  10   2.0000      -1.204555       -32.7776
  11   2.0000      -1.104977       -30.0680
  12   2.0000      -1.038844       -28.2684
  13   2.0000      -0.979706       -26.6592
  14   2.0000      -0.963642       -26.2220
  15   2.0000      -0.920082       -25.0367
  16   2.0000      -0.861384       -23.4395
  17   2.0000      -0.856191       -23.2981
  18   2.0000      -0.827692       -22.5227
  19   2.0000      -0.789547       -21.4847
  20   2.0000      -0.756838       -20.5946
  21   2.0000      -0.734319       -19.9818
  22   2.0000      -0.700383       -19.0584
  23   2.0000      -0.650175       -17.6922
  24   2.0000      -0.629703       -17.1351
  25   2.0000      -0.625333       -17.0162
  26   2.0000      -0.611759       -16.6468
  27   2.0000      -0.576612       -15.6904
  28   0.0000      -0.092270        -2.5108
  29   0.0000      -0.074504        -2.0274
  30   0.0000      -0.067679        -1.8416
  31   0.0000      -0.057146        -1.5550
  32   0.0000      -0.047997        -1.3061

MULLIKEN ATOMIC CHARGES
-----------------------
   0 C :   -0.385721
   1 N :   -0.050709
   2 C :    0.698999
   3 N :   -0.488198
   4 N :   -0.313595
   5 H :    0.190698
   6 H :    0.186727
   7 H :    0.130136
   8 H :    0.143368
   9 H :    0.148610
  10 C :   -0.400337
  11 H :    0.377468
  12 H :    0.243718
  13 C :   -0.974494
  14 H :    0.354455
  15 H :    0.222033
  16 H :    0.357689
  17 H :    0.259328
  18 H :    0.299825
Sum of atomic charges:    1.0000000

LOEWDIN ATOMIC CHARGES
----------------------
   0 C :    0.238758
   1 N :    0.614142
   2 C :   -0.364764
   3 N :    0.934188
   4 N :    0.945839
   5 H :   -0.273755
   6 H :   -0.241556
   7 H :   -0.225982
   8 H :   -0.235817
   9 H :   -0.238326
  10 C :    0.294090
  11 H :   -0.123024
  12 H :   -0.134714
  13 C :    0.620631
  14 H :   -0.130506
  15 H :   -0.153005
  16 H :   -0.185056
  17 H :   -0.173653
  18 H :   -0.167490

  Mayer bond orders larger than 0.100000
B(  0-C ,  1-N ) :   0.9399 B(  0-C ,  2-C ) :  -0.1243 B(  0-C , 10-C ) :   0.8841
B(  0-C , 11-H ) :   0.8844 B(  0-C , 12-H ) :   0.9577 B(  1-N ,  2-C ) :   0.9777
B(  1-N ,  7-H ) :   1.0687 B(  2-C ,  3-N ) :   1.0130 B(  2-C ,  4-N ) :   0.9614
B(  3-N ,  4-N ) :  -0.1040 B(  3-N ,  8-H ) :   1.0869 B(  3-N ,  9-H ) :   1.0965
B(  4-N ,  5-H ) :   1.0397 B(  4-N ,  6-H ) :   0.9853 B( 10-C , 13-C ) :   0.8382
B( 10-C , 14-H ) :   0.8744 B( 10-C , 15-H ) :   0.9785 B( 13-C , 16-H ) :   0.8845
B( 13-C , 17-H ) :   0.9742 B( 13-C , 18-H ) :   0.9672

E(0)                                       ...   -321.756695081
E(0)                                       ...   -321.756695081
E(CORR)(strong-pairs)                      ...     -1.369938503
E(CORR)(weak-pairs)                        ...     -0.001605325
E(CORR)(corrected)                         ...     -1.371543828
E(TOT)                                     ...   -323.128238909
E(CCSD(T))                                 ...   -323.183184609
FINAL SINGLE POINT ENERGY      -323.183184609491

DIPOLE MOMENT
-------------
                                X             Y             Z
Electronic contribution:     -3.28411       3.81555      -4.86327
Nuclear contribution   :      2.46011      -2.82418       3.51638
                        -----------------------------------------
Total Dipole Moment    :     -0.82400       0.99137      -1.34689
                        -----------------------------------------
Magnitude (a.u.)       :      1.86438
Magnitude (Debye)      :      4.73888

Rotational constants in cm-1:     0.152406     0.050160     0.046480
Rotational constants in MHz :  4569.006375  1503.763011  1393.441650

                             ****ORCA TERMINATED NORMALLY****
TOTAL RUN TIME: 0 days 2 hours 17 minutes 41 seconds 189 msec
