                         Program Version 5.0.0 -  RELEASE  -
|  1> !DLPNO-CCSD(T) aug-cc-pVTZ aug-cc-pVTZ/C TightSCF TightPNO RIJCOSX def2/J
|  2>
|  3> *xyzfile 0 1 B.xyz
|  4>
|  5> %MaxCore 64000
|  6>
|  7> %pal nprocs 18
|  8> end
|  9>
| 10> %scf
| 11>   MaxIter 150
| 12> end
| 13>
| 14>
| 15>                          ****END OF INPUT****

CARTESIAN COORDINATES (ANGSTROEM)
---------------------------------
  C      4.490588    1.155899   -2.469290
  N      4.305394    1.222762   -3.908317
  C      4.906458   -3.102816   -5.954844
  C      3.511771   -2.806215   -6.492283
  H      2.736044   -3.373445   -5.973736
  H      3.444904   -3.040831   -7.555281
  S      3.004618   -1.096206   -6.389259
  C      4.631918    2.246365   -4.670958
  N      4.541686    2.143990   -5.987139
  N      5.084086    3.393584   -4.118545
  H      4.920675    3.570501   -3.135870
  H      5.254652    4.197390   -4.706956
  H      3.824530    0.449113   -4.350926
  H      4.343373    1.249318   -6.416646
  H      4.676712    2.956624   -6.574113
  O      4.128856   -0.329647   -6.953717
  O      1.781285   -1.000779   -7.136399
  C      5.942129    0.939500   -2.036893
  H      3.864305    0.328532   -2.136611
  H      4.076233    2.049994   -1.989010
  C      6.462677   -3.117775   -3.944671
  C      5.024977   -3.025679   -4.437625
  H      4.423321   -3.818693   -3.977648
  H      4.579350   -2.087131   -4.108727
  H      5.201533   -4.100207   -6.296905
  H      5.605922   -2.397822   -6.413368
  C      6.559957   -0.356290   -2.559086
  H      5.967976    0.952567   -0.942444
  H      6.547184    1.788331   -2.368849
  C      6.006283   -1.615917   -1.899301
  H      7.642360   -0.318000   -2.402059
  H      6.414855   -0.403433   -3.642587
  C      6.608718   -2.917014   -2.435655
  H      6.190324   -1.561115   -0.820948
  H      4.919250   -1.651245   -2.016586
  H      7.066975   -2.374258   -4.475514
  H      6.887808   -4.089747   -4.215332
  H      6.135197   -3.755573   -1.915159
  H      7.671142   -2.955503   -2.172291
  O      2.851546   -0.783683   -4.956789

 Total Charge           Charge          ....    0
 Multiplicity           Mult            ....    1
 Number of Electrons    NEL             ....  144
 Basis Dimension        Dim             .... 1315

ORBITAL ENERGIES
----------------

  NO   OCC          E(Eh)            E(eV)
   0   2.0000     -92.135552     -2507.1358
   1   2.0000     -20.489769      -557.5550
   2   2.0000     -20.488564      -557.5222
   3   2.0000     -20.475348      -557.1625
   4   2.0000     -15.640531      -425.6005
   5   2.0000     -15.603964      -424.6054
   6   2.0000     -15.603264      -424.5864
   7   2.0000     -11.423617      -310.8524
   8   2.0000     -11.292730      -307.2908
   9   2.0000     -11.243369      -305.9476
  10   2.0000     -11.226539      -305.4896
  11   2.0000     -11.220344      -305.3211
  12   2.0000     -11.219588      -305.3005
  13   2.0000     -11.214913      -305.1733
  14   2.0000     -11.208088      -304.9876
  15   2.0000     -11.207924      -304.9831
  16   2.0000     -11.198531      -304.7275
  17   2.0000      -9.099674      -247.6147
  18   2.0000      -6.785218      -184.6352
  19   2.0000      -6.785147      -184.6332
  20   2.0000      -6.784197      -184.6074
  21   2.0000      -1.430881       -38.9363
  22   2.0000      -1.378563       -37.5126
  23   2.0000      -1.280957       -34.8566
  24   2.0000      -1.280059       -34.8322
  25   2.0000      -1.243587       -33.8397
  26   2.0000      -1.227189       -33.3935
  27   2.0000      -1.104175       -30.0461
  28   2.0000      -1.074966       -29.2513
  29   2.0000      -1.040719       -28.3194
  30   2.0000      -0.991040       -26.9676
  31   2.0000      -0.944942       -25.7132
  32   2.0000      -0.905737       -24.6464
  33   2.0000      -0.870920       -23.6989
  34   2.0000      -0.838874       -22.8269
  35   2.0000      -0.817181       -22.2366
  36   2.0000      -0.806416       -21.9437
  37   2.0000      -0.771877       -21.0038
  38   2.0000      -0.754410       -20.5285
  39   2.0000      -0.749985       -20.4081
  40   2.0000      -0.715997       -19.4833
  41   2.0000      -0.693829       -18.8800
  42   2.0000      -0.679053       -18.4780
  43   2.0000      -0.656850       -17.8738
  44   2.0000      -0.649751       -17.6806
  45   2.0000      -0.636676       -17.3248
  46   2.0000      -0.629477       -17.1289
  47   2.0000      -0.623566       -16.9681
  48   2.0000      -0.609032       -16.5726
  49   2.0000      -0.603346       -16.4179
  50   2.0000      -0.591309       -16.0903
  51   2.0000      -0.572717       -15.5844
  52   2.0000      -0.571342       -15.5470
  53   2.0000      -0.556548       -15.1444
  54   2.0000      -0.542666       -14.7667
  55   2.0000      -0.531892       -14.4735
  56   2.0000      -0.511063       -13.9067
  57   2.0000      -0.504974       -13.7411
  58   2.0000      -0.496014       -13.4972
  59   2.0000      -0.482660       -13.1338
  60   2.0000      -0.477403       -12.9908
  61   2.0000      -0.475527       -12.9397
  62   2.0000      -0.468978       -12.7615
  63   2.0000      -0.461553       -12.5595
  64   2.0000      -0.450555       -12.2602
  65   2.0000      -0.445284       -12.1168
  66   2.0000      -0.440786       -11.9944
  67   2.0000      -0.431759       -11.7488
  68   2.0000      -0.421888       -11.4802
  69   2.0000      -0.415872       -11.3165
  70   2.0000      -0.396204       -10.7813
  71   2.0000      -0.390449       -10.6246
  72   0.0000       0.004820         0.1312
  73   0.0000       0.020496         0.5577
  74   0.0000       0.026695         0.7264
  75   0.0000       0.031500         0.8572
  76   0.0000       0.037585         1.0227

MULLIKEN ATOMIC CHARGES
-----------------------
   0 C :   -0.567743
   1 N :   -0.232157
   2 C :   -0.492416
   3 C :   -0.839842
   4 H :    0.131565
   5 H :    0.297310
   6 S :    2.760182
   7 C :    0.575529
   8 N :   -0.689911
   9 N :   -0.541076
  10 H :    0.120030
  11 H :    0.177993
  12 H :    0.870345
  13 H :    0.376565
  14 H :    0.091531
  15 O :   -1.106379
  16 O :   -1.147391
  17 C :   -0.461385
  18 H :    0.142421
  19 H :    0.284306
  20 C :   -0.370822
  21 C :   -0.444150
  22 H :    0.121125
  23 H :    0.600902
  24 H :    0.264263
  25 H :    0.305318
  26 C :   -0.450425
  27 H :    0.215612
  28 H :    0.202783
  29 C :   -0.299544
  30 H :    0.346708
  31 H :    0.305464
  32 C :   -0.684722
  33 H :    0.479506
  34 H :    0.008647
  35 H :    0.078066
  36 H :    0.511739
  37 H :    0.138490
  38 H :    0.101970
  39 O :   -1.180407
Sum of atomic charges:   -0.0000000

LOEWDIN ATOMIC CHARGES
----------------------
   0 C :    0.242750
   1 N :    0.629099
   2 C :    0.247889
   3 C :    0.179746
   4 H :   -0.183816
   5 H :   -0.192130
   6 S :   -0.169442
   7 C :   -0.360611
   8 N :    0.932619
   9 N :    0.920599
  10 H :   -0.289816
  11 H :   -0.258641
  12 H :   -0.576100
  13 H :   -0.585963
  14 H :   -0.243284
  15 O :    0.158637
  16 O :    0.011207
  17 C :    0.310860
  18 H :   -0.133546
  19 H :   -0.139422
  20 C :    0.284730
  21 C :    0.264175
  22 H :   -0.122648
  23 H :   -0.229368
  24 H :   -0.141303
  25 H :   -0.165785
  26 C :    0.292001
  27 H :   -0.137231
  28 H :   -0.152456
  29 C :    0.286785
  30 H :   -0.128603
  31 H :   -0.158681
  32 C :    0.302071
  33 H :   -0.134842
  34 H :   -0.162820
  35 H :   -0.152134
  36 H :   -0.134825
  37 H :   -0.139810
  38 H :   -0.141204
  39 O :    0.171313

  Mayer bond orders larger than 0.100000
B(  0-C ,  1-N ) :   1.1995 B(  0-C ,  7-C ) :  -0.1175 B(  0-C , 12-H ) :  -0.1514
B(  0-C , 17-C ) :   0.7908 B(  0-C , 18-H ) :   1.1587 B(  0-C , 19-H ) :   0.9129
B(  0-C , 26-C ) :   0.1187 B(  1-N ,  7-C ) :   1.4025 B(  1-N ,  8-N ) :   0.1586
B(  1-N , 18-H ) :   0.1131 B(  2-C ,  3-C ) :   0.9448 B(  2-C , 21-C ) :   0.9086
B(  2-C , 24-H ) :   0.9303 B(  2-C , 25-H ) :   0.9545 B(  3-C ,  4-H ) :   1.0943
B(  3-C ,  5-H ) :   0.8848 B(  3-C ,  6-S ) :   0.8158 B(  6-S , 15-O ) :   1.0188
B(  6-S , 16-O ) :   0.7446 B(  6-S , 39-O ) :   1.2898 B(  7-C ,  8-N ) :   0.7607
B(  7-C ,  9-N ) :   0.9069 B(  7-C , 12-H ) :  -0.4488 B(  7-C , 14-H ) :  -0.1372
B(  8-N ,  9-N ) :  -0.1036 B(  8-N , 12-H ) :  -0.1179 B(  8-N , 13-H ) :   0.7991
B(  8-N , 14-H ) :   1.1480 B(  9-N , 10-H ) :   1.1233 B(  9-N , 11-H ) :   0.9854
B( 15-O , 39-O ) :   0.1043 B( 16-O , 39-O ) :   0.1307 B( 17-C , 26-C ) :   0.9163
B( 17-C , 27-H ) :   0.9796 B( 17-C , 28-H ) :   1.0443 B( 20-C , 21-C ) :   0.7774
B( 20-C , 32-C ) :   0.8315 B( 20-C , 35-H ) :   1.1260 B( 20-C , 36-H ) :   0.7448
B( 21-C , 22-H ) :   1.1450 B( 21-C , 23-H ) :   0.7986 B( 23-H , 39-O ) :  -0.1427
B( 26-C , 29-C ) :   0.8558 B( 26-C , 30-H ) :   0.8859 B( 26-C , 31-H ) :   0.9924
B( 26-C , 34-H ) :   0.1049 B( 29-C , 32-C ) :   0.9019 B( 29-C , 33-H ) :   0.7676
B( 29-C , 34-H ) :   1.1939 B( 32-C , 34-H ) :   0.1098 B( 32-C , 37-H ) :   1.1079
B( 32-C , 38-H ) :   1.1360

E(0)                                       ...  -1177.859556909
E(0)                                       ...  -1177.859556909
E(CORR)(strong-pairs)                      ...     -3.405438599
E(CORR)(weak-pairs)                        ...     -0.006933596
E(CORR)(corrected)                         ...     -3.412372195
E(TOT)                                     ...  -1181.271929103
E(CCSD(T))                                 ...  -1181.417269170
FINAL SINGLE POINT ENERGY     -1181.417269170111

DIPOLE MOMENT
-------------
                                X             Y             Z
Electronic contribution:    -14.38898       8.35251     -15.22496
Nuclear contribution   :     16.79156      -5.47215      17.54258
                        -----------------------------------------
Total Dipole Moment    :      2.40258       2.88036       2.31762
                        -----------------------------------------
Magnitude (a.u.)       :      4.40911
Magnitude (Debye)      :     11.20706

Rotational constants in cm-1:     0.014207     0.012373     0.007472
Rotational constants in MHz :   425.900436   370.942493   224.006604

                             ****ORCA TERMINATED NORMALLY****
TOTAL RUN TIME: 0 days 8 hours 49 minutes 10 seconds 30 msec
