                         Program Version 5.0.0 -  RELEASE  -
|  1> !DLPNO-CCSD(T) aug-cc-pVTZ aug-cc-pVTZ/C TightSCF TightPNO RIJCOSX def2/J
|  2> *xyz 0 1
|  3> C          4.90646       -3.10282       -5.95484
|  4> C          3.51177       -2.80621       -6.49228
|  5> H          2.73604       -3.37345       -5.97374
|  6> H          3.44490       -3.04083       -7.55528
|  7> S          3.00462       -1.09621       -6.38926
|  8> F          4.12886       -0.32965       -6.95372
|  9> O          1.78128       -1.00078       -7.13640
| 10> C          5.02498       -3.02568       -4.43762
| 11> H          5.20153       -4.10021       -6.29691
| 12> H          5.60592       -2.39782       -6.41337
| 13> O          2.85155       -0.78368       -4.95679
| 14> H          4.73604       -2.05011       -4.10644
| 15> H          6.03776       -3.21492       -4.14890
| 16> H          4.38436       -3.75784       -3.99214
| 17> *
| 18>
| 19> %MaxCore 64000
| 20>
| 21> %pal nprocs 2
| 22> end
| 23>
| 24> %scf
| 25>   MaxIter 150
| 26> end
| 27>
| 28>
| 29>                          ****END OF INPUT****

CARTESIAN COORDINATES (ANGSTROEM)
---------------------------------
  C      4.906460   -3.102820   -5.954840
  C      3.511770   -2.806210   -6.492280
  H      2.736040   -3.373450   -5.973740
  H      3.444900   -3.040830   -7.555280
  S      3.004620   -1.096210   -6.389260
  F      4.128860   -0.329650   -6.953720
  O      1.781280   -1.000780   -7.136400
  C      5.024980   -3.025680   -4.437620
  H      5.201530   -4.100210   -6.296910
  H      5.605920   -2.397820   -6.413370
  O      2.851550   -0.783680   -4.956790
  H      4.736040   -2.050110   -4.106440
  H      6.037760   -3.214920   -4.148900
  H      4.384360   -3.757840   -3.992140

 Total Charge           Charge          ....    0
 Multiplicity           Mult            ....    1
 Number of Electrons    NEL             ....   66
 Basis Dimension        Dim             ....  487

ORBITAL ENERGIES
----------------

  NO   OCC          E(Eh)            E(eV)
   0   2.0000     -92.249038     -2510.2239
   1   2.0000     -26.417927      -718.8683
   2   2.0000     -20.570869      -559.7618
   3   2.0000     -20.557573      -559.4000
   4   2.0000     -11.295197      -307.3579
   5   2.0000     -11.259879      -306.3969
   6   2.0000     -11.219935      -305.3100
   7   2.0000      -9.212580      -250.6870
   8   2.0000      -6.900225      -187.7647
   9   2.0000      -6.896074      -187.6517
  10   2.0000      -6.895378      -187.6328
  11   2.0000      -1.774654       -48.2908
  12   2.0000      -1.457880       -39.6709
  13   2.0000      -1.348557       -36.6961
  14   2.0000      -1.118708       -30.4416
  15   2.0000      -1.013964       -27.5914
  16   2.0000      -0.945532       -25.7292
  17   2.0000      -0.860755       -23.4223
  18   2.0000      -0.815640       -22.1947
  19   2.0000      -0.809610       -22.0306
  20   2.0000      -0.753533       -20.5047
  21   2.0000      -0.673286       -18.3210
  22   2.0000      -0.667808       -18.1720
  23   2.0000      -0.632521       -17.2118
  24   2.0000      -0.625205       -17.0127
  25   2.0000      -0.600045       -16.3281
  26   2.0000      -0.559217       -15.2171
  27   2.0000      -0.540083       -14.6964
  28   2.0000      -0.526275       -14.3207
  29   2.0000      -0.513464       -13.9721
  30   2.0000      -0.499301       -13.5867
  31   2.0000      -0.480907       -13.0861
  32   2.0000      -0.468223       -12.7410
  33   0.0000       0.022473         0.6115
  34   0.0000       0.034446         0.9373
  35   0.0000       0.036036         0.9806
  36   0.0000       0.044921         1.2224
  37   0.0000       0.056288         1.5317

MULLIKEN ATOMIC CHARGES
-----------------------
   0 C :   -0.501819
   1 C :   -0.459549
   2 H :    0.301130
   3 H :    0.316963
   4 S :    2.153603
   5 F :   -0.521379
   6 O :   -0.908831
   7 C :   -0.988766
   8 H :    0.288932
   9 H :    0.266871
  10 O :   -0.910688
  11 H :    0.397079
  12 H :    0.296218
  13 H :    0.270236
Sum of atomic charges:    0.0000000

LOEWDIN ATOMIC CHARGES
----------------------
   0 C :    0.228762
   1 C :    0.182920
   2 H :   -0.169182
   3 H :   -0.192578
   4 S :   -0.098667
   5 F :    0.272606
   6 O :    0.037722
   7 C :    0.592224
   8 H :   -0.142312
   9 H :   -0.164602
  10 O :    0.035622
  11 H :   -0.226326
  12 H :   -0.178611
  13 H :   -0.177578

  Mayer bond orders larger than 0.100000
B(  0-C ,  1-C ) :   0.9121 B(  0-C ,  4-S ) :   0.1070 B(  0-C ,  7-C ) :   0.8208
B(  0-C ,  8-H ) :   0.9454 B(  0-C ,  9-H ) :   0.9514 B(  1-C ,  2-H ) :   0.9053
B(  1-C ,  3-H ) :   0.8980 B(  1-C ,  4-S ) :   0.8693 B(  4-S ,  5-F ) :   0.5591
B(  4-S ,  6-O ) :   1.5245 B(  4-S , 10-O ) :   1.5165 B(  7-C , 11-H ) :   0.8684
B(  7-C , 12-H ) :   0.9672 B(  7-C , 13-H ) :   0.9775

E(0)                                       ...   -764.480852509
E(0)                                       ...   -764.480852509
E(CORR)(strong-pairs)                      ...     -1.494525739
E(CORR)(weak-pairs)                        ...     -0.001564302
E(CORR)(corrected)                         ...     -1.496090041
E(TOT)                                     ...   -765.976942551
E(CCSD(T))                                 ...   -766.037670510
FINAL SINGLE POINT ENERGY      -766.037670509788

DIPOLE MOMENT
-------------
                                X             Y             Z
Electronic contribution:     -5.15871      10.08887      -5.35763
Nuclear contribution   :      6.51452     -11.35172       4.86721
                        -----------------------------------------
Total Dipole Moment    :      1.35581      -1.26285      -0.49042
                        -----------------------------------------
Magnitude (a.u.)       :      1.91665
Magnitude (Debye)      :      4.87173

Rotational constants in cm-1:     0.130386     0.053203     0.051661
Rotational constants in MHz :  3908.886819  1594.983443  1548.763987

                             ****ORCA TERMINATED NORMALLY****
TOTAL RUN TIME: 0 days 1 hours 28 minutes 51 seconds 683 msec
