                         Program Version 5.0.0 -  RELEASE  -
|  1> !DLPNO-CCSD(T) aug-cc-pVTZ aug-cc-pVTZ/C TightSCF TightPNO RIJCOSX def2/J
|  2> *xyz 0 1
|  3> C          4.49059        1.15590       -2.46929
|  4> C          4.30539        1.22276       -3.90832
|  5> C          4.63192        2.24637       -4.67096
|  6> N          4.54169        2.14399       -5.98714
|  7> N          5.08409        3.39358       -4.11855
|  8> H          4.92067        3.57050       -3.13587
|  9> H          5.25465        4.19739       -4.70696
| 10> H          3.82453        0.44911       -4.35093
| 11> H          4.34337        1.24932       -6.41665
| 12> H          4.67671        2.95662       -6.57411
| 13> C          5.94213        0.93950       -2.03689
| 14> H          3.86431        0.32853       -2.13661
| 15> H          4.07623        2.04999       -1.98901
| 16> C          6.55996       -0.35629       -2.55909
| 17> H          5.96798        0.95257       -0.94244
| 18> H          6.54718        1.78833       -2.36885
| 19> H          6.53022       -0.35990       -3.62867
| 20> H          6.00654       -1.19175       -2.18407
| 21> H          7.57588       -0.42487       -2.23029
| 22> *
| 23>
| 24> %MaxCore 64000
| 25>
| 26> %pal nprocs 2
| 27> end
| 28>
| 29> %scf
| 30>   MaxIter 150
| 31> end
| 32>
| 33>
| 34>                          ****END OF INPUT****

CARTESIAN COORDINATES (ANGSTROEM)
---------------------------------
  C      4.490590    1.155900   -2.469290
  C      4.305390    1.222760   -3.908320
  C      4.631920    2.246370   -4.670960
  N      4.541690    2.143990   -5.987140
  N      5.084090    3.393580   -4.118550
  H      4.920670    3.570500   -3.135870
  H      5.254650    4.197390   -4.706960
  H      3.824530    0.449110   -4.350930
  H      4.343370    1.249320   -6.416650
  H      4.676710    2.956620   -6.574110
  C      5.942130    0.939500   -2.036890
  H      3.864310    0.328530   -2.136610
  H      4.076230    2.049990   -1.989010
  C      6.559960   -0.356290   -2.559090
  H      5.967980    0.952570   -0.942440
  H      6.547180    1.788330   -2.368850
  H      6.530220   -0.359900   -3.628670
  H      6.006540   -1.191750   -2.184070
  H      7.575880   -0.424870   -2.230290

 Total Charge           Charge          ....    0
 Multiplicity           Mult            ....    1
 Number of Electrons    NEL             ....   56
 Basis Dimension        Dim             ....  598

ORBITAL ENERGIES
----------------

  NO   OCC          E(Eh)            E(eV)
   0   2.0000     -15.561879      -423.4602
   1   2.0000     -15.560329      -423.4181
   2   2.0000     -11.281780      -306.9928
   3   2.0000     -11.195671      -304.6497
   4   2.0000     -11.193587      -304.5930
   5   2.0000     -11.184433      -304.3439
   6   2.0000     -11.135963      -303.0250
   7   2.0000      -1.276405       -34.7328
   8   2.0000      -1.163506       -31.6606
   9   2.0000      -1.060355       -28.8537
  10   2.0000      -0.982335       -26.7307
  11   2.0000      -0.897590       -24.4247
  12   2.0000      -0.808236       -21.9932
  13   2.0000      -0.768382       -20.9087
  14   2.0000      -0.721249       -19.6262
  15   2.0000      -0.688060       -18.7231
  16   2.0000      -0.641975       -17.4690
  17   2.0000      -0.607589       -16.5333
  18   2.0000      -0.595424       -16.2023
  19   2.0000      -0.574703       -15.6385
  20   2.0000      -0.547858       -14.9080
  21   2.0000      -0.518646       -14.1131
  22   2.0000      -0.508952       -13.8493
  23   2.0000      -0.466613       -12.6972
  24   2.0000      -0.452910       -12.3243
  25   2.0000      -0.446014       -12.1367
  26   2.0000      -0.412951       -11.2370
  27   2.0000      -0.259163        -7.0522
  28   0.0000       0.023616         0.6426
  29   0.0000       0.034173         0.9299
  30   0.0000       0.038915         1.0589
  31   0.0000       0.043178         1.1749
  32   0.0000       0.050613         1.3772

MULLIKEN ATOMIC CHARGES
-----------------------
   0 C :   -0.139533
   1 C :   -0.494388
   2 C :    0.777995
   3 N :   -0.592700
   4 N :   -0.474259
   5 H :    0.079527
   6 H :    0.159981
   7 H :    0.212991
   8 H :    0.072061
   9 H :    0.070250
  10 C :   -0.490208
  11 H :    0.219307
  12 H :    0.196231
  13 C :   -1.016636
  14 H :    0.302146
  15 H :    0.231974
  16 H :    0.372445
  17 H :    0.240112
  18 H :    0.272703
Sum of atomic charges:   -0.0000000

LOEWDIN ATOMIC CHARGES
----------------------
   0 C :    0.218167
   1 C :    0.179369
   2 C :   -0.422025
   3 N :    0.849248
   4 N :    0.874112
   5 H :   -0.297802
   6 H :   -0.280996
   7 H :   -0.262788
   8 H :   -0.266903
   9 H :   -0.281208
  10 C :    0.264668
  11 H :   -0.150656
  12 H :   -0.156367
  13 C :    0.598732
  14 H :   -0.151042
  15 H :   -0.156712
  16 H :   -0.189118
  17 H :   -0.182555
  18 H :   -0.186126

  Mayer bond orders larger than 0.100000
B(  0-C ,  1-C ) :   0.6959 B(  0-C ,  2-C ) :   0.1239 B(  0-C , 10-C ) :   0.8306
B(  0-C , 11-H ) :   1.0681 B(  0-C , 12-H ) :   0.9344 B(  1-C ,  2-C ) :   1.2972
B(  1-C ,  3-N ) :  -0.2123 B(  1-C ,  4-N ) :  -0.1495 B(  1-C ,  7-H ) :   1.0281
B(  1-C , 10-C ) :   0.1600 B(  2-C ,  3-N ) :   0.7326 B(  2-C ,  4-N ) :   0.7798
B(  2-C ,  9-H ) :  -0.1144 B(  3-N ,  4-N ) :  -0.1599 B(  3-N ,  8-H ) :   1.1542
B(  3-N ,  9-H ) :   1.1736 B(  4-N ,  5-H ) :   1.1612 B(  4-N ,  6-H ) :   1.0061
B( 10-C , 13-C ) :   0.8271 B( 10-C , 14-H ) :   0.9440 B( 10-C , 15-H ) :   0.9474
B( 13-C , 16-H ) :   0.8895 B( 13-C , 17-H ) :   0.9996 B( 13-C , 18-H ) :   0.9769

E(0)                                       ...   -305.301063116
E(0)                                       ...   -305.301063116
E(CORR)(strong-pairs)                      ...     -1.353698055
E(CORR)(weak-pairs)                        ...     -0.001617434
E(CORR)(corrected)                         ...     -1.355315489
E(TOT)                                     ...   -306.656378605
E(CCSD(T))                                 ...   -306.711812279
FINAL SINGLE POINT ENERGY      -306.711812279352

DIPOLE MOMENT
-------------
                                X             Y             Z
Electronic contribution:     -2.31968       3.68089      -4.18764
Nuclear contribution   :      2.29046      -2.89565       3.47129
                        -----------------------------------------
Total Dipole Moment    :     -0.02922       0.78523      -0.71636
                        -----------------------------------------
Magnitude (a.u.)       :      1.06330
Magnitude (Debye)      :      2.70270

Rotational constants in cm-1:     0.154384     0.050352     0.046525
Rotational constants in MHz :  4628.320816  1509.522910  1394.780903

                             ****ORCA TERMINATED NORMALLY****
TOTAL RUN TIME: 0 days 2 hours 20 minutes 50 seconds 418 msec
