                         Program Version 5.0.0 -  RELEASE  -
|  1> !DLPNO-CCSD(T) aug-cc-pVTZ aug-cc-pVTZ/C TightSCF TightPNO RIJCOSX def2/J
|  2> *xyz 0 1
|  3> C          4.90646       -3.10282       -5.95484
|  4> C          3.51177       -2.80621       -6.49228
|  5> H          2.73604       -3.37345       -5.97374
|  6> H          3.44490       -3.04083       -7.55528
|  7> S          3.00462       -1.09621       -6.38926
|  8> O          4.12886       -0.32965       -6.95372
|  9> F          1.78128       -1.00078       -7.13640
| 10> C          5.02498       -3.02568       -4.43762
| 11> H          5.20153       -4.10021       -6.29691
| 12> H          5.60592       -2.39782       -6.41337
| 13> O          2.85155       -0.78368       -4.95679
| 14> H          4.73604       -2.05011       -4.10644
| 15> H          6.03776       -3.21492       -4.14890
| 16> H          4.38436       -3.75784       -3.99214
| 17> *
| 18>
| 19> %MaxCore 64000
| 20>
| 21> %pal nprocs 2
| 22> end
| 23>
| 24> %scf
| 25>   MaxIter 150
| 26> end
| 27>
| 28>
| 29>                          ****END OF INPUT****

CARTESIAN COORDINATES (ANGSTROEM)
---------------------------------
  C      4.906460   -3.102820   -5.954840
  C      3.511770   -2.806210   -6.492280
  H      2.736040   -3.373450   -5.973740
  H      3.444900   -3.040830   -7.555280
  S      3.004620   -1.096210   -6.389260
  O      4.128860   -0.329650   -6.953720
  F      1.781280   -1.000780   -7.136400
  C      5.024980   -3.025680   -4.437620
  H      5.201530   -4.100210   -6.296910
  H      5.605920   -2.397820   -6.413370
  O      2.851550   -0.783680   -4.956790
  H      4.736040   -2.050110   -4.106440
  H      6.037760   -3.214920   -4.148900
  H      4.384360   -3.757840   -3.992140

 Total Charge           Charge          ....    0
 Multiplicity           Mult            ....    1
 Number of Electrons    NEL             ....   66
 Basis Dimension        Dim             ....  487

ORBITAL ENERGIES
----------------

  NO   OCC          E(Eh)            E(eV)
   0   2.0000     -92.250440     -2510.2621
   1   2.0000     -26.437647      -719.4049
   2   2.0000     -20.558687      -559.4303
   3   2.0000     -20.558342      -559.4209
   4   2.0000     -11.296162      -307.3842
   5   2.0000     -11.253882      -306.2337
   6   2.0000     -11.213537      -305.1359
   7   2.0000      -9.214214      -250.7315
   8   2.0000      -6.901654      -187.8036
   9   2.0000      -6.897721      -187.6965
  10   2.0000      -6.896999      -187.6769
  11   2.0000      -1.808132       -49.2018
  12   2.0000      -1.442212       -39.2446
  13   2.0000      -1.333721       -36.2924
  14   2.0000      -1.113759       -30.3069
  15   2.0000      -1.021208       -27.7885
  16   2.0000      -0.956735       -26.0341
  17   2.0000      -0.865625       -23.5548
  18   2.0000      -0.834909       -22.7190
  19   2.0000      -0.814833       -22.1727
  20   2.0000      -0.763381       -20.7726
  21   2.0000      -0.674069       -18.3423
  22   2.0000      -0.663062       -18.0428
  23   2.0000      -0.626633       -17.0515
  24   2.0000      -0.614142       -16.7116
  25   2.0000      -0.591262       -16.0891
  26   2.0000      -0.551787       -15.0149
  27   2.0000      -0.528549       -14.3826
  28   2.0000      -0.519078       -14.1248
  29   2.0000      -0.506529       -13.7834
  30   2.0000      -0.489721       -13.3260
  31   2.0000      -0.469208       -12.7678
  32   2.0000      -0.468769       -12.7559
  33   0.0000       0.022635         0.6159
  34   0.0000       0.035011         0.9527
  35   0.0000       0.038002         1.0341
  36   0.0000       0.046746         1.2720
  37   0.0000       0.056956         1.5499

MULLIKEN ATOMIC CHARGES
-----------------------
   0 C :   -0.449534
   1 C :   -0.498383
   2 H :    0.289048
   3 H :    0.315766
   4 S :    2.131274
   5 O :   -0.907823
   6 F :   -0.503192
   7 C :   -1.004241
   8 H :    0.284399
   9 H :    0.292467
  10 O :   -0.913484
  11 H :    0.401406
  12 H :    0.299246
  13 H :    0.263051
Sum of atomic charges:   -0.0000000

LOEWDIN ATOMIC CHARGES
----------------------
   0 C :    0.238936
   1 C :    0.179316
   2 H :   -0.186528
   3 H :   -0.194074
   4 S :   -0.097775
   5 O :    0.024833
   6 F :    0.294727
   7 C :    0.593947
   8 H :   -0.140922
   9 H :   -0.165712
  10 O :    0.032948
  11 H :   -0.221912
  12 H :   -0.177316
  13 H :   -0.180468

  Mayer bond orders larger than 0.100000
B(  0-C ,  1-C ) :   0.9233 B(  0-C ,  4-S ) :   0.1207 B(  0-C ,  7-C ) :   0.8075
B(  0-C ,  8-H ) :   0.9317 B(  0-C ,  9-H ) :   0.9412 B(  1-C ,  2-H ) :   0.9107
B(  1-C ,  3-H ) :   0.8870 B(  1-C ,  4-S ) :   0.8459 B(  4-S ,  5-O ) :   1.5294
B(  4-S ,  6-F ) :   0.5130 B(  4-S , 10-O ) :   1.5285 B(  7-C , 11-H ) :   0.8673
B(  7-C , 12-H ) :   0.9659 B(  7-C , 13-H ) :   0.9784

E(0)                                       ...   -764.465361927
E(0)                                       ...   -764.465361927
E(CORR)(strong-pairs)                      ...     -1.495651528
E(CORR)(weak-pairs)                        ...     -0.001616832
E(CORR)(corrected)                         ...     -1.497268360
E(TOT)                                     ...   -765.962630287
E(CCSD(T))                                 ...   -766.023693982
FINAL SINGLE POINT ENERGY      -766.023693982481

DIPOLE MOMENT
-------------
                                X             Y             Z
Electronic contribution:     -9.38807       8.91883      -5.70192
Nuclear contribution   :      9.03920     -10.62996       5.06367
                        -----------------------------------------
Total Dipole Moment    :     -0.34887      -1.71113      -0.63825
                        -----------------------------------------
Magnitude (a.u.)       :      1.85931
Magnitude (Debye)      :      4.72600

Rotational constants in cm-1:     0.135071     0.052485     0.050188
Rotational constants in MHz :  4049.321380  1573.451279  1504.609887

                             ****ORCA TERMINATED NORMALLY****
TOTAL RUN TIME: 0 days 1 hours 29 minutes 18 seconds 439 msec
