                         Program Version 5.0.0 -  RELEASE  -
|  1> !DLPNO-CCSD(T) aug-cc-pVTZ aug-cc-pVTZ/C TightSCF TightPNO RIJCOSX def2/J
|  2> *xyz 0 1
|  3> C          4.49059        1.15590       -2.46929
|  4> N          4.30539        1.22276       -3.90832
|  5> C          4.63192        2.24637       -4.67096
|  6> C          4.54169        2.14399       -5.98714
|  7> N          5.08409        3.39358       -4.11855
|  8> H          4.92067        3.57050       -3.13587
|  9> H          5.25465        4.19739       -4.70696
| 10> H          3.82453        0.44911       -4.35093
| 11> H          4.34337        1.24932       -6.41665
| 12> H          4.67671        2.95662       -6.57411
| 13> C          5.94213        0.93950       -2.03689
| 14> H          3.86431        0.32853       -2.13661
| 15> H          4.07623        2.04999       -1.98901
| 16> C          6.55996       -0.35629       -2.55909
| 17> H          5.96798        0.95257       -0.94244
| 18> H          6.54718        1.78833       -2.36885
| 19> H          6.53022       -0.35990       -3.62867
| 20> H          6.00654       -1.19175       -2.18407
| 21> H          7.57588       -0.42487       -2.23029
| 22> *
| 23>
| 24> %MaxCore 64000
| 25>
| 26> %pal nprocs 2
| 27> end
| 28>
| 29> %scf
| 30>   MaxIter 150
| 31> end
| 32>
| 33>
| 34>                          ****END OF INPUT****

CARTESIAN COORDINATES (ANGSTROEM)
---------------------------------
  C      4.490590    1.155900   -2.469290
  N      4.305390    1.222760   -3.908320
  C      4.631920    2.246370   -4.670960
  C      4.541690    2.143990   -5.987140
  N      5.084090    3.393580   -4.118550
  H      4.920670    3.570500   -3.135870
  H      5.254650    4.197390   -4.706960
  H      3.824530    0.449110   -4.350930
  H      4.343370    1.249320   -6.416650
  H      4.676710    2.956620   -6.574110
  C      5.942130    0.939500   -2.036890
  H      3.864310    0.328530   -2.136610
  H      4.076230    2.049990   -1.989010
  C      6.559960   -0.356290   -2.559090
  H      5.967980    0.952570   -0.942440
  H      6.547180    1.788330   -2.368850
  H      6.530220   -0.359900   -3.628670
  H      6.006540   -1.191750   -2.184070
  H      7.575880   -0.424870   -2.230290

 Total Charge           Charge          ....    0
 Multiplicity           Mult            ....    1
 Number of Electrons    NEL             ....   56
 Basis Dimension        Dim             ....  598

ORBITAL ENERGIES
----------------

  NO   OCC          E(Eh)            E(eV)
   0   2.0000     -15.559803      -423.4038
   1   2.0000     -15.557642      -423.3449
   2   2.0000     -11.285344      -307.0898
   3   2.0000     -11.265983      -306.5630
   4   2.0000     -11.221429      -305.3506
   5   2.0000     -11.205055      -304.9051
   6   2.0000     -11.127015      -302.7815
   7   2.0000      -1.286352       -35.0034
   8   2.0000      -1.178136       -32.0587
   9   2.0000      -1.059234       -28.8232
  10   2.0000      -0.983900       -26.7733
  11   2.0000      -0.914191       -24.8764
  12   2.0000      -0.826349       -22.4861
  13   2.0000      -0.788244       -21.4492
  14   2.0000      -0.716553       -19.4984
  15   2.0000      -0.674144       -18.3444
  16   2.0000      -0.648338       -17.6422
  17   2.0000      -0.627794       -17.0831
  18   2.0000      -0.604785       -16.4570
  19   2.0000      -0.559901       -15.2357
  20   2.0000      -0.554772       -15.0961
  21   2.0000      -0.548750       -14.9322
  22   2.0000      -0.524929       -14.2840
  23   2.0000      -0.494198       -13.4478
  24   2.0000      -0.488953       -13.3051
  25   2.0000      -0.479275       -13.0417
  26   2.0000      -0.396795       -10.7973
  27   2.0000      -0.263094        -7.1592
  28   0.0000       0.026100         0.7102
  29   0.0000       0.033513         0.9119
  30   0.0000       0.037823         1.0292
  31   0.0000       0.038270         1.0414
  32   0.0000       0.051887         1.4119

MULLIKEN ATOMIC CHARGES
-----------------------
   0 C :   -0.442681
   1 N :   -0.124501
   2 C :    0.570421
   3 C :   -1.286477
   4 N :   -0.454540
   5 H :    0.146605
   6 H :    0.073656
   7 H :    0.038956
   8 H :    0.345095
   9 H :    0.471515
  10 C :   -0.394906
  11 H :    0.366327
  12 H :    0.235434
  13 C :   -1.004509
  14 H :    0.335155
  15 H :    0.226171
  16 H :    0.379573
  17 H :    0.238777
  18 H :    0.279931
Sum of atomic charges:   -0.0000000

LOEWDIN ATOMIC CHARGES
----------------------
   0 C :    0.205015
   1 N :    0.559539
   2 C :   -0.457775
   3 C :    0.532575
   4 N :    0.867386
   5 H :   -0.310554
   6 H :   -0.269855
   7 H :   -0.249210
   8 H :   -0.307672
   9 H :   -0.311544
  10 C :    0.278301
  11 H :   -0.141274
  12 H :   -0.148916
  13 C :    0.605110
  14 H :   -0.147620
  15 H :   -0.155828
  16 H :   -0.182809
  17 H :   -0.183213
  18 H :   -0.181658

  Mayer bond orders larger than 0.100000
B(  0-C ,  1-N ) :   1.0176 B(  0-C ,  2-C ) :  -0.1741 B(  0-C , 10-C ) :   0.8690
B(  0-C , 11-H ) :   0.9054 B(  0-C , 12-H ) :   0.9698 B(  1-N ,  2-C ) :   0.6978
B(  1-N ,  3-C ) :  -0.3089 B(  1-N ,  4-N ) :  -0.1159 B(  1-N ,  7-H ) :   1.1673
B(  2-C ,  3-C ) :   1.0801 B(  2-C ,  4-N ) :   0.8740 B(  2-C ,  5-H ) :  -0.1012
B(  3-C ,  4-N ) :  -0.2591 B(  3-C ,  8-H ) :   1.0612 B(  3-C ,  9-H ) :   0.8102
B(  4-N ,  5-H ) :   1.0705 B(  4-N ,  6-H ) :   1.1036 B(  8-H ,  9-H ) :   0.1008
B( 10-C , 13-C ) :   0.8181 B( 10-C , 14-H ) :   0.8889 B( 10-C , 15-H ) :   0.9791
B( 13-C , 16-H ) :   0.8658 B( 13-C , 17-H ) :   0.9903 B( 13-C , 18-H ) :   0.9829

E(0)                                       ...   -305.297081354
E(0)                                       ...   -305.297081354
E(CORR)(strong-pairs)                      ...     -1.349929061
E(CORR)(weak-pairs)                        ...     -0.001573576
E(CORR)(corrected)                         ...     -1.351502636
E(TOT)                                     ...   -306.648583990
E(CCSD(T))                                 ...   -306.703736775
FINAL SINGLE POINT ENERGY      -306.703736774701

DIPOLE MOMENT
-------------
                                X             Y             Z
Electronic contribution:     -2.44495       2.73447      -1.90377
Nuclear contribution   :      2.34222      -2.69386       3.01591
                        -----------------------------------------
Total Dipole Moment    :     -0.10273       0.04062       1.11214
                        -----------------------------------------
Magnitude (a.u.)       :      1.11761
Magnitude (Debye)      :      2.84074

Rotational constants in cm-1:     0.155143     0.051710     0.048050
Rotational constants in MHz :  4651.080391  1550.217078  1440.507386

                             ****ORCA TERMINATED NORMALLY****
TOTAL RUN TIME: 0 days 2 hours 31 minutes 39 seconds 383 msec
