                         Program Version 5.0.0 -  RELEASE  -
|  1> !DLPNO-CCSD(T) aug-cc-pVTZ aug-cc-pVTZ/C TightSCF TightPNO RIJCOSX def2/J
|  2> *xyz 0 1
|  3> C          4.90646       -3.10282       -5.95484
|  4> C          3.51177       -2.80621       -6.49228
|  5> H          2.73604       -3.37345       -5.97374
|  6> H          3.44490       -3.04083       -7.55528
|  7> S          3.00462       -1.09621       -6.38926
|  8> O          4.12886       -0.32965       -6.95372
|  9> O          1.78128       -1.00078       -7.13640
| 10> C          5.02498       -3.02568       -4.43762
| 11> H          5.20153       -4.10021       -6.29691
| 12> H          5.60592       -2.39782       -6.41337
| 13> F          2.85155       -0.78368       -4.95679
| 14> H          4.73604       -2.05011       -4.10644
| 15> H          6.03776       -3.21492       -4.14890
| 16> H          4.38436       -3.75784       -3.99214
| 17> *
| 18>
| 19> %MaxCore 64000
| 20>
| 21> %pal nprocs 2
| 22> end
| 23>
| 24> %scf
| 25>   MaxIter 150
| 26> end
| 27>
| 28>
| 29>                          ****END OF INPUT****

CARTESIAN COORDINATES (ANGSTROEM)
---------------------------------
  C      4.906460   -3.102820   -5.954840
  C      3.511770   -2.806210   -6.492280
  H      2.736040   -3.373450   -5.973740
  H      3.444900   -3.040830   -7.555280
  S      3.004620   -1.096210   -6.389260
  O      4.128860   -0.329650   -6.953720
  O      1.781280   -1.000780   -7.136400
  C      5.024980   -3.025680   -4.437620
  H      5.201530   -4.100210   -6.296910
  H      5.605920   -2.397820   -6.413370
  F      2.851550   -0.783680   -4.956790
  H      4.736040   -2.050110   -4.106440
  H      6.037760   -3.214920   -4.148900
  H      4.384360   -3.757840   -3.992140

 Total Charge           Charge          ....    0
 Multiplicity           Mult            ....    1
 Number of Electrons    NEL             ....   66
 Basis Dimension        Dim             ....  487

ORBITAL ENERGIES
----------------

  NO   OCC          E(Eh)            E(eV)
   0   2.0000     -92.248661     -2510.2137
   1   2.0000     -26.416785      -718.8373
   2   2.0000     -20.570756      -559.7587
   3   2.0000     -20.558016      -559.4121
   4   2.0000     -11.295088      -307.3550
   5   2.0000     -11.256180      -306.2962
   6   2.0000     -11.230752      -305.6043
   7   2.0000      -9.212210      -250.6770
   8   2.0000      -6.899818      -187.7536
   9   2.0000      -6.895822      -187.6449
  10   2.0000      -6.894941      -187.6209
  11   2.0000      -1.773534       -48.2603
  12   2.0000      -1.457574       -39.6626
  13   2.0000      -1.349442       -36.7202
  14   2.0000      -1.118068       -30.4242
  15   2.0000      -1.015897       -27.6440
  16   2.0000      -0.947237       -25.7756
  17   2.0000      -0.866092       -23.5676
  18   2.0000      -0.811521       -22.0826
  19   2.0000      -0.804991       -21.9049
  20   2.0000      -0.756981       -20.5985
  21   2.0000      -0.678937       -18.4748
  22   2.0000      -0.656703       -17.8698
  23   2.0000      -0.644052       -17.5255
  24   2.0000      -0.627379       -17.0718
  25   2.0000      -0.600252       -16.3337
  26   2.0000      -0.562561       -15.3081
  27   2.0000      -0.543071       -14.7777
  28   2.0000      -0.518668       -14.1137
  29   2.0000      -0.513196       -13.9648
  30   2.0000      -0.499696       -13.5974
  31   2.0000      -0.480833       -13.0841
  32   2.0000      -0.477321       -12.9886
  33   0.0000       0.023061         0.6275
  34   0.0000       0.034199         0.9306
  35   0.0000       0.035174         0.9571
  36   0.0000       0.045278         1.2321
  37   0.0000       0.057579         1.5668

MULLIKEN ATOMIC CHARGES
-----------------------
   0 C :   -0.462171
   1 C :   -0.472972
   2 H :    0.274394
   3 H :    0.335173
   4 S :    2.161800
   5 O :   -0.914170
   6 O :   -0.909837
   7 C :   -1.009632
   8 H :    0.289549
   9 H :    0.290510
  10 F :   -0.522769
  11 H :    0.375424
  12 H :    0.296874
  13 H :    0.267827
Sum of atomic charges:    0.0000000

LOEWDIN ATOMIC CHARGES
----------------------
   0 C :    0.229535
   1 C :    0.181504
   2 H :   -0.185985
   3 H :   -0.177039
   4 S :   -0.103048
   5 O :    0.026086
   6 O :    0.037140
   7 C :    0.592808
   8 H :   -0.141614
   9 H :   -0.167799
  10 F :    0.275749
  11 H :   -0.211619
  12 H :   -0.174452
  13 H :   -0.181267

  Mayer bond orders larger than 0.100000
B(  0-C ,  1-C ) :   0.9380 B(  0-C ,  4-S ) :   0.1112 B(  0-C ,  7-C ) :   0.8056
B(  0-C ,  8-H ) :   0.9343 B(  0-C ,  9-H ) :   0.9478 B(  1-C ,  2-H ) :   0.9226
B(  1-C ,  3-H ) :   0.8882 B(  1-C ,  4-S ) :   0.8388 B(  4-S ,  5-O ) :   1.5126
B(  4-S ,  6-O ) :   1.5106 B(  4-S , 10-F ) :   0.5842 B(  7-C , 11-H ) :   0.8834
B(  7-C , 12-H ) :   0.9766 B(  7-C , 13-H ) :   0.9715

E(0)                                       ...   -764.481580992
E(0)                                       ...   -764.481580992
E(CORR)(strong-pairs)                      ...     -1.494545752
E(CORR)(weak-pairs)                        ...     -0.001561982
E(CORR)(corrected)                         ...     -1.496107733
E(TOT)                                     ...   -765.977688725
E(CCSD(T))                                 ...   -766.038426879
FINAL SINGLE POINT ENERGY      -766.038426879419

DIPOLE MOMENT
-------------
                                X             Y             Z
Electronic contribution:     -7.42118       9.24389      -1.77097
Nuclear contribution   :      7.88819     -10.86344       2.71963
                        -----------------------------------------
Total Dipole Moment    :      0.46701      -1.61955       0.94865
                        -----------------------------------------
Magnitude (a.u.)       :      1.93416
Magnitude (Debye)      :      4.91625

Rotational constants in cm-1:     0.130261     0.054435     0.050898
Rotational constants in MHz :  3905.114465  1631.935083  1525.880669

                             ****ORCA TERMINATED NORMALLY****
TOTAL RUN TIME: 0 days 1 hours 28 minutes 45 seconds 883 msec
