                         Program Version 5.0.0 -  RELEASE  -
|  1> !DLPNO-CCSD(T) aug-cc-pVTZ aug-cc-pVTZ/C TightSCF TightPNO RIJCOSX def2/J
|  2> *xyz 0 1
|  3> C          4.49059        1.15590       -2.46929
|  4> N          4.30539        1.22276       -3.90832
|  5> C          4.63192        2.24637       -4.67096
|  6> N          4.54169        2.14399       -5.98714
|  7> C          5.08409        3.39358       -4.11855
|  8> H          4.92067        3.57050       -3.13587
|  9> H          5.25465        4.19739       -4.70696
| 10> H          3.82453        0.44911       -4.35093
| 11> H          4.34337        1.24932       -6.41665
| 12> H          4.67671        2.95662       -6.57411
| 13> C          5.94213        0.93950       -2.03689
| 14> H          3.86431        0.32853       -2.13661
| 15> H          4.07623        2.04999       -1.98901
| 16> C          6.55996       -0.35629       -2.55909
| 17> H          5.96798        0.95257       -0.94244
| 18> H          6.54718        1.78833       -2.36885
| 19> H          6.53022       -0.35990       -3.62867
| 20> H          6.00654       -1.19175       -2.18407
| 21> H          7.57588       -0.42487       -2.23029
| 22> *
| 23>
| 24> %MaxCore 64000
| 25>
| 26> %pal nprocs 2
| 27> end
| 28>
| 29> %scf
| 30>   MaxIter 150
| 31> end
| 32>
| 33>
| 34>                          ****END OF INPUT****

CARTESIAN COORDINATES (ANGSTROEM)
---------------------------------
  C      4.490590    1.155900   -2.469290
  N      4.305390    1.222760   -3.908320
  C      4.631920    2.246370   -4.670960
  N      4.541690    2.143990   -5.987140
  C      5.084090    3.393580   -4.118550
  H      4.920670    3.570500   -3.135870
  H      5.254650    4.197390   -4.706960
  H      3.824530    0.449110   -4.350930
  H      4.343370    1.249320   -6.416650
  H      4.676710    2.956620   -6.574110
  C      5.942130    0.939500   -2.036890
  H      3.864310    0.328530   -2.136610
  H      4.076230    2.049990   -1.989010
  C      6.559960   -0.356290   -2.559090
  H      5.967980    0.952570   -0.942440
  H      6.547180    1.788330   -2.368850
  H      6.530220   -0.359900   -3.628670
  H      6.006540   -1.191750   -2.184070
  H      7.575880   -0.424870   -2.230290

 Total Charge           Charge          ....    0
 Multiplicity           Mult            ....    1
 Number of Electrons    NEL             ....   56
 Basis Dimension        Dim             ....  598

ORBITAL ENERGIES
----------------

  NO   OCC          E(Eh)            E(eV)
   0   2.0000     -15.563769      -423.5117
   1   2.0000     -15.562530      -423.4780
   2   2.0000     -11.289200      -307.1947
   3   2.0000     -11.257852      -306.3417
   4   2.0000     -11.210787      -305.0610
   5   2.0000     -11.199995      -304.7674
   6   2.0000     -11.126884      -302.7779
   7   2.0000      -1.291742       -35.1501
   8   2.0000      -1.187043       -32.3011
   9   2.0000      -1.045129       -28.4394
  10   2.0000      -0.969033       -26.3687
  11   2.0000      -0.930586       -25.3225
  12   2.0000      -0.823197       -22.4003
  13   2.0000      -0.757687       -20.6177
  14   2.0000      -0.733865       -19.9695
  15   2.0000      -0.701662       -19.0932
  16   2.0000      -0.643085       -17.4992
  17   2.0000      -0.616035       -16.7632
  18   2.0000      -0.589617       -16.0443
  19   2.0000      -0.561506       -15.2793
  20   2.0000      -0.550190       -14.9714
  21   2.0000      -0.540638       -14.7115
  22   2.0000      -0.525016       -14.2864
  23   2.0000      -0.491005       -13.3609
  24   2.0000      -0.481624       -13.1057
  25   2.0000      -0.470983       -12.8161
  26   2.0000      -0.390589       -10.6285
  27   2.0000      -0.262750        -7.1498
  28   0.0000       0.024231         0.6594
  29   0.0000       0.033824         0.9204
  30   0.0000       0.039003         1.0613
  31   0.0000       0.040234         1.0948
  32   0.0000       0.050661         1.3786

MULLIKEN ATOMIC CHARGES
-----------------------
   0 C :   -0.436616
   1 N :   -0.112624
   2 C :    0.732491
   3 N :   -0.594603
   4 C :   -1.279658
   5 H :    0.523798
   6 H :    0.209128
   7 H :    0.066394
   8 H :    0.119554
   9 H :    0.083646
  10 C :   -0.428806
  11 H :    0.394132
  12 H :    0.259263
  13 C :   -1.004790
  14 H :    0.325413
  15 H :    0.254148
  16 H :    0.375273
  17 H :    0.237263
  18 H :    0.276595
Sum of atomic charges:   -0.0000000

LOEWDIN ATOMIC CHARGES
----------------------
   0 C :    0.207964
   1 N :    0.559104
   2 C :   -0.454529
   3 N :    0.855008
   4 C :    0.546572
   5 H :   -0.330281
   6 H :   -0.311629
   7 H :   -0.257748
   8 H :   -0.277710
   9 H :   -0.266906
  10 C :    0.279288
  11 H :   -0.142768
  12 H :   -0.147728
  13 C :    0.600587
  14 H :   -0.145555
  15 H :   -0.159721
  16 H :   -0.186206
  17 H :   -0.185463
  18 H :   -0.182279

  Mayer bond orders larger than 0.100000
B(  0-C ,  1-N ) :   1.0490 B(  0-C ,  2-C ) :  -0.1517 B(  0-C , 10-C ) :   0.8957
B(  0-C , 11-H ) :   0.8666 B(  0-C , 12-H ) :   0.9664 B(  1-N ,  2-C ) :   0.7432
B(  1-N ,  3-N ) :  -0.1721 B(  1-N ,  4-C ) :  -0.2231 B(  1-N ,  7-H ) :   1.1499
B(  2-C ,  3-N ) :   0.8251 B(  2-C ,  4-C ) :   1.1143 B(  3-N ,  4-C ) :  -0.1194
B(  3-N ,  8-H ) :   1.1002 B(  3-N ,  9-H ) :   1.1587 B(  4-C ,  5-H ) :   0.7024
B(  4-C ,  6-H ) :   1.2150 B( 10-C , 13-C ) :   0.8232 B( 10-C , 14-H ) :   0.8926
B( 10-C , 15-H ) :   0.9638 B( 13-C , 16-H ) :   0.8701 B( 13-C , 17-H ) :   0.9882
B( 13-C , 18-H ) :   0.9861

E(0)                                       ...   -305.295353319
E(0)                                       ...   -305.295353319
E(CORR)(strong-pairs)                      ...     -1.350992891
E(CORR)(weak-pairs)                        ...     -0.001616805
E(CORR)(corrected)                         ...     -1.352609696
E(TOT)                                     ...   -306.647963015
E(CCSD(T))                                 ...   -306.703432379
FINAL SINGLE POINT ENERGY      -306.703432379432

DIPOLE MOMENT
-------------
                                X             Y             Z
Electronic contribution:     -2.95661       1.48757      -3.87816
Nuclear contribution   :      2.46104      -2.42013       3.42523
                        -----------------------------------------
Total Dipole Moment    :     -0.49557      -0.93256      -0.45293
                        -----------------------------------------
Magnitude (a.u.)       :      1.14909
Magnitude (Debye)      :      2.92075

Rotational constants in cm-1:     0.157414     0.050835     0.047338
Rotational constants in MHz :  4719.163414  1524.007825  1419.164399

                             ****ORCA TERMINATED NORMALLY****
TOTAL RUN TIME: 0 days 2 hours 28 minutes 52 seconds 714 msec
