                         Program Version 5.0.0 -  RELEASE  -
|  1> !DLPNO-CCSD(T) aug-cc-pVTZ aug-cc-pVTZ/C TightSCF TightPNO RIJCOSX def2/J
|  2>
|  3> *xyzfile 0 1 D1.xyz
|  4>
|  5> %MaxCore 64000
|  6>
|  7> %pal nprocs 18
|  8> end
|  9>
| 10> %scf
| 11>   MaxIter 150
| 12> end
| 13>
| 14>
| 15>                          ****END OF INPUT****

CARTESIAN COORDINATES (ANGSTROEM)
---------------------------------
  C      4.490588    1.155899   -2.469290
  C      4.305394    1.222762   -3.908317
  C      4.906458   -3.102816   -5.954844
  C      3.511771   -2.806215   -6.492283
  H      2.736044   -3.373445   -5.973736
  H      3.444904   -3.040831   -7.555281
  S      3.004618   -1.096206   -6.389259
  C      4.631918    2.246365   -4.670958
  N      4.541686    2.143990   -5.987139
  N      5.084086    3.393584   -4.118545
  H      4.920675    3.570501   -3.135870
  H      5.254652    4.197390   -4.706956
  H      3.824530    0.449113   -4.350926
  H      4.343373    1.249318   -6.416646
  H      4.676712    2.956624   -6.574113
  F      4.128856   -0.329647   -6.953717
  O      1.781285   -1.000779   -7.136399
  C      5.942129    0.939500   -2.036893
  H      3.864305    0.328532   -2.136611
  H      4.076233    2.049994   -1.989010
  C      6.462677   -3.117775   -3.944671
  C      5.024977   -3.025679   -4.437625
  H      4.423321   -3.818693   -3.977648
  H      4.579350   -2.087131   -4.108727
  H      5.201533   -4.100207   -6.296905
  H      5.605922   -2.397822   -6.413368
  C      6.559957   -0.356290   -2.559086
  H      5.967976    0.952567   -0.942444
  H      6.547184    1.788331   -2.368849
  C      6.006283   -1.615917   -1.899301
  H      7.642360   -0.318000   -2.402059
  H      6.414855   -0.403433   -3.642587
  C      6.608718   -2.917014   -2.435655
  H      6.190324   -1.561115   -0.820948
  H      4.919250   -1.651245   -2.016586
  H      7.066975   -2.374258   -4.475514
  H      6.887808   -4.089747   -4.215332
  H      6.135197   -3.755573   -1.915159
  H      7.671142   -2.955503   -2.172291
  O      2.851546   -0.783683   -4.956789

 Total Charge           Charge          ....    0
 Multiplicity           Mult            ....    1
 Number of Electrons    NEL             ....  144
 Basis Dimension        Dim             .... 1315

ORBITAL ENERGIES
----------------

  NO   OCC          E(Eh)            E(eV)
   0   2.0000     -92.258050     -2510.4692
   1   2.0000     -26.436798      -719.3819
   2   2.0000     -20.578885      -559.9799
   3   2.0000     -20.561864      -559.5168
   4   2.0000     -15.548018      -423.0831
   5   2.0000     -15.544210      -422.9795
   6   2.0000     -11.299198      -307.4668
   7   2.0000     -11.262786      -306.4760
   8   2.0000     -11.257689      -306.3373
   9   2.0000     -11.223700      -305.4124
  10   2.0000     -11.218781      -305.2785
  11   2.0000     -11.211838      -305.0896
  12   2.0000     -11.201803      -304.8165
  13   2.0000     -11.194728      -304.6240
  14   2.0000     -11.189253      -304.4751
  15   2.0000     -11.181210      -304.2562
  16   2.0000     -11.106349      -302.2191
  17   2.0000      -9.221813      -250.9383
  18   2.0000      -6.909564      -188.0188
  19   2.0000      -6.905125      -187.8980
  20   2.0000      -6.904459      -187.8799
  21   2.0000      -1.798176       -48.9309
  22   2.0000      -1.467872       -39.9428
  23   2.0000      -1.360043       -37.0087
  24   2.0000      -1.262453       -34.3531
  25   2.0000      -1.151687       -31.3390
  26   2.0000      -1.127270       -30.6746
  27   2.0000      -1.085084       -29.5266
  28   2.0000      -1.052042       -28.6275
  29   2.0000      -1.017805       -27.6959
  30   2.0000      -0.983816       -26.7710
  31   2.0000      -0.953619       -25.9493
  32   2.0000      -0.915108       -24.9013
  33   2.0000      -0.875414       -23.8212
  34   2.0000      -0.845864       -23.0171
  35   2.0000      -0.838897       -22.8275
  36   2.0000      -0.833894       -22.6914
  37   2.0000      -0.798117       -21.7179
  38   2.0000      -0.771652       -20.9977
  39   2.0000      -0.763227       -20.7685
  40   2.0000      -0.743552       -20.2331
  41   2.0000      -0.707882       -19.2624
  42   2.0000      -0.684625       -18.6296
  43   2.0000      -0.676573       -18.4105
  44   2.0000      -0.664676       -18.0867
  45   2.0000      -0.649803       -17.6820
  46   2.0000      -0.636499       -17.3200
  47   2.0000      -0.624322       -16.9887
  48   2.0000      -0.619712       -16.8632
  49   2.0000      -0.612074       -16.6554
  50   2.0000      -0.587878       -15.9970
  51   2.0000      -0.582923       -15.8621
  52   2.0000      -0.577719       -15.7205
  53   2.0000      -0.571330       -15.5467
  54   2.0000      -0.553481       -15.0610
  55   2.0000      -0.539943       -14.6926
  56   2.0000      -0.535670       -14.5763
  57   2.0000      -0.522720       -14.2239
  58   2.0000      -0.520344       -14.1593
  59   2.0000      -0.506799       -13.7907
  60   2.0000      -0.503220       -13.6933
  61   2.0000      -0.493312       -13.4237
  62   2.0000      -0.483010       -13.1434
  63   2.0000      -0.466916       -12.7054
  64   2.0000      -0.465899       -12.6778
  65   2.0000      -0.460142       -12.5211
  66   2.0000      -0.446753       -12.1568
  67   2.0000      -0.433417       -11.7939
  68   2.0000      -0.428882       -11.6705
  69   2.0000      -0.416872       -11.3437
  70   2.0000      -0.400054       -10.8860
  71   2.0000      -0.241066        -6.5597
  72   0.0000       0.020131         0.5478
  73   0.0000       0.027854         0.7580
  74   0.0000       0.031354         0.8532
  75   0.0000       0.034124         0.9286
  76   0.0000       0.040550         1.1034

MULLIKEN ATOMIC CHARGES
-----------------------
   0 C :   -0.324035
   1 C :   -1.369011
   2 C :   -0.533930
   3 C :   -0.757721
   4 H :    0.156600
   5 H :    0.355404
   6 S :    2.600000
   7 C :    1.714738
   8 N :   -0.770162
   9 N :   -0.653830
  10 H :    0.109027
  11 H :    0.145012
  12 H :    0.729439
  13 H :    0.361092
  14 H :    0.048937
  15 F :   -0.627155
  16 O :   -1.066374
  17 C :   -0.622579
  18 H :    0.015987
  19 H :    0.175445
  20 C :   -0.385984
  21 C :   -0.457857
  22 H :    0.127287
  23 H :    0.623389
  24 H :    0.271571
  25 H :    0.270802
  26 C :   -0.394772
  27 H :    0.158424
  28 H :    0.166437
  29 C :   -0.322495
  30 H :    0.328300
  31 H :    0.317992
  32 C :   -0.668941
  33 H :    0.493858
  34 H :   -0.012610
  35 H :    0.096514
  36 H :    0.495231
  37 H :    0.131652
  38 H :    0.115089
  39 O :   -1.040770
Sum of atomic charges:   -0.0000000

LOEWDIN ATOMIC CHARGES
----------------------
   0 C :    0.242271
   1 C :    0.181964
   2 C :    0.259246
   3 C :    0.210276
   4 H :   -0.162350
   5 H :   -0.188466
   6 S :    0.054386
   7 C :   -0.401254
   8 N :    0.856170
   9 N :    0.872214
  10 H :   -0.299765
  11 H :   -0.284823
  12 H :   -0.575429
  13 H :   -0.526167
  14 H :   -0.273149
  15 F :    0.415150
  16 O :    0.061379
  17 C :    0.297093
  18 H :   -0.154231
  19 H :   -0.150956
  20 C :    0.287781
  21 C :    0.271170
  22 H :   -0.119985
  23 H :   -0.223319
  24 H :   -0.132560
  25 H :   -0.156016
  26 C :    0.286706
  27 H :   -0.146161
  28 H :   -0.150300
  29 C :    0.286245
  30 H :   -0.133318
  31 H :   -0.166428
  32 C :    0.301517
  33 H :   -0.133564
  34 H :   -0.162774
  35 H :   -0.151236
  36 H :   -0.136319
  37 H :   -0.141963
  38 H :   -0.139882
  39 O :    0.226844

  Mayer bond orders larger than 0.100000
B(  0-C ,  1-C ) :   0.9253 B(  0-C ,  7-C ) :  -0.1295 B(  0-C , 12-H ) :  -0.1469
B(  0-C , 17-C ) :   0.8577 B(  0-C , 18-H ) :   1.1921 B(  0-C , 19-H ) :   1.0382
B(  1-C ,  6-S ) :   0.1041 B(  1-C ,  7-C ) :   1.6597 B(  1-C ,  9-N ) :   0.1023
B(  1-C , 12-H ) :   0.6365 B(  1-C , 15-F ) :   0.1230 B(  1-C , 17-C ) :   0.1124
B(  1-C , 18-H ) :  -0.1026 B(  1-C , 39-O ) :   0.1084 B(  2-C ,  3-C ) :   0.9412
B(  2-C , 21-C ) :   0.9044 B(  2-C , 24-H ) :   0.9349 B(  2-C , 25-H ) :   0.9813
B(  3-C ,  4-H ) :   1.0867 B(  3-C ,  5-H ) :   0.8400 B(  3-C ,  6-S ) :   0.8584
B(  3-C , 15-F ) :   0.1137 B(  6-S , 15-F ) :   0.3998 B(  6-S , 16-O ) :   0.9613
B(  6-S , 39-O ) :   1.6123 B(  7-C ,  8-N ) :   0.3149 B(  7-C ,  9-N ) :   0.3123
B(  8-N ,  9-N ) :  -0.1256 B(  8-N , 13-H ) :   0.9134 B(  8-N , 14-H ) :   1.2066
B(  9-N , 10-H ) :   1.1472 B(  9-N , 11-H ) :   1.0338 B( 12-H , 39-O ) :  -0.2770
B( 13-H , 15-F ) :  -0.2018 B( 16-O , 39-O ) :   0.1205 B( 17-C , 26-C ) :   0.8900
B( 17-C , 27-H ) :   1.0201 B( 17-C , 28-H ) :   1.0195 B( 20-C , 21-C ) :   0.7670
B( 20-C , 32-C ) :   0.8296 B( 20-C , 35-H ) :   1.1271 B( 20-C , 36-H ) :   0.7503
B( 21-C , 22-H ) :   1.1302 B( 21-C , 23-H ) :   0.7974 B( 23-H , 39-O ) :  -0.1168
B( 26-C , 29-C ) :   0.8661 B( 26-C , 30-H ) :   0.8887 B( 26-C , 31-H ) :   1.0044
B( 26-C , 34-H ) :   0.1191 B( 29-C , 32-C ) :   0.8857 B( 29-C , 33-H ) :   0.7588
B( 29-C , 34-H ) :   1.2139 B( 32-C , 37-H ) :   1.1112 B( 32-C , 38-H ) :   1.1260

E(0)                                       ...  -1185.715997948
E(0)                                       ...  -1185.715997948
E(CORR)(strong-pairs)                      ...     -3.395235668
E(CORR)(weak-pairs)                        ...     -0.006780508
E(CORR)(corrected)                         ...     -3.402016176
E(TOT)                                     ...  -1189.118014124
E(CCSD(T))                                 ...  -1189.261327823
FINAL SINGLE POINT ENERGY     -1189.261327823335

DIPOLE MOMENT
-------------
                                X             Y             Z
Electronic contribution:    -16.19392       4.72708     -21.47160
Nuclear contribution   :     17.24138      -5.45913      20.34076
                        -----------------------------------------
Total Dipole Moment    :      1.04746      -0.73205      -1.13084
                        -----------------------------------------
Magnitude (a.u.)       :      1.70642
Magnitude (Debye)      :      4.33738

Rotational constants in cm-1:     0.014201     0.012275     0.007453
Rotational constants in MHz :   425.728191   368.008875   223.435232

                             ****ORCA TERMINATED NORMALLY****
TOTAL RUN TIME: 0 days 8 hours 45 minutes 1 seconds 626 msec
