                         Program Version 5.0.0 -  RELEASE  -
|  1> !DLPNO-CCSD(T) aug-cc-pVTZ aug-cc-pVTZ/C TightSCF TightPNO RIJCOSX def2/J
|  2>
|  3> *xyzfile 0 1 D2.xyz
|  4>
|  5> %MaxCore 64000
|  6>
|  7> %pal nprocs 18
|  8> end
|  9>
| 10> %scf
| 11>   MaxIter 150
| 12> end
| 13>
| 14>
| 15>                          ****END OF INPUT****

CARTESIAN COORDINATES (ANGSTROEM)
---------------------------------
  C      4.490588    1.155899   -2.469290
  N      4.305394    1.222762   -3.908317
  C      4.906458   -3.102816   -5.954844
  C      3.511771   -2.806215   -6.492283
  H      2.736044   -3.373445   -5.973736
  H      3.444904   -3.040831   -7.555281
  S      3.004618   -1.096206   -6.389259
  C      4.631918    2.246365   -4.670958
  C      4.541686    2.143990   -5.987139
  N      5.084086    3.393584   -4.118545
  H      4.920675    3.570501   -3.135870
  H      5.254652    4.197390   -4.706956
  H      3.824530    0.449113   -4.350926
  H      4.343373    1.249318   -6.416646
  H      4.676712    2.956624   -6.574113
  F      4.128856   -0.329647   -6.953717
  O      1.781285   -1.000779   -7.136399
  C      5.942129    0.939500   -2.036893
  H      3.864305    0.328532   -2.136611
  H      4.076233    2.049994   -1.989010
  C      6.462677   -3.117775   -3.944671
  C      5.024977   -3.025679   -4.437625
  H      4.423321   -3.818693   -3.977648
  H      4.579350   -2.087131   -4.108727
  H      5.201533   -4.100207   -6.296905
  H      5.605922   -2.397822   -6.413368
  C      6.559957   -0.356290   -2.559086
  H      5.967976    0.952567   -0.942444
  H      6.547184    1.788331   -2.368849
  C      6.006283   -1.615917   -1.899301
  H      7.642360   -0.318000   -2.402059
  H      6.414855   -0.403433   -3.642587
  C      6.608718   -2.917014   -2.435655
  H      6.190324   -1.561115   -0.820948
  H      4.919250   -1.651245   -2.016586
  H      7.066975   -2.374258   -4.475514
  H      6.887808   -4.089747   -4.215332
  H      6.135197   -3.755573   -1.915159
  H      7.671142   -2.955503   -2.172291
  O      2.851546   -0.783683   -4.956789

 Total Charge           Charge          ....    0
 Multiplicity           Mult            ....    1
 Number of Electrons    NEL             ....  144
 Basis Dimension        Dim             .... 1315

ORBITAL ENERGIES
----------------

  NO   OCC          E(Eh)            E(eV)
   0   2.0000     -92.260479     -2510.5353
   1   2.0000     -26.420950      -718.9506
   2   2.0000     -20.577921      -559.9537
   3   2.0000     -20.573395      -559.8305
   4   2.0000     -15.547509      -423.0692
   5   2.0000     -15.526226      -422.4901
   6   2.0000     -11.300634      -307.5059
   7   2.0000     -11.270809      -306.6943
   8   2.0000     -11.260588      -306.4162
   9   2.0000     -11.250081      -306.1303
  10   2.0000     -11.230959      -305.6099
  11   2.0000     -11.226035      -305.4759
  12   2.0000     -11.221572      -305.3545
  13   2.0000     -11.216015      -305.2033
  14   2.0000     -11.212475      -305.1070
  15   2.0000     -11.211836      -305.0896
  16   2.0000     -11.108914      -302.2889
  17   2.0000      -9.223828      -250.9931
  18   2.0000      -6.911389      -188.0684
  19   2.0000      -6.907360      -187.9588
  20   2.0000      -6.906718      -187.9413
  21   2.0000      -1.783251       -48.5247
  22   2.0000      -1.470272       -40.0081
  23   2.0000      -1.366663       -37.1888
  24   2.0000      -1.268339       -34.5133
  25   2.0000      -1.162645       -31.6372
  26   2.0000      -1.131087       -30.7785
  27   2.0000      -1.092622       -29.7318
  28   2.0000      -1.056183       -28.7402
  29   2.0000      -1.011839       -27.5335
  30   2.0000      -0.984513       -26.7900
  31   2.0000      -0.951120       -25.8813
  32   2.0000      -0.924974       -25.1698
  33   2.0000      -0.883643       -24.0451
  34   2.0000      -0.848974       -23.1018
  35   2.0000      -0.830425       -22.5970
  36   2.0000      -0.820438       -22.3252
  37   2.0000      -0.810231       -22.0475
  38   2.0000      -0.788958       -21.4686
  39   2.0000      -0.766041       -20.8450
  40   2.0000      -0.757177       -20.6038
  41   2.0000      -0.701852       -19.0984
  42   2.0000      -0.686160       -18.6714
  43   2.0000      -0.671075       -18.2609
  44   2.0000      -0.659746       -17.9526
  45   2.0000      -0.655086       -17.8258
  46   2.0000      -0.640814       -17.4374
  47   2.0000      -0.635768       -17.3001
  48   2.0000      -0.631307       -17.1787
  49   2.0000      -0.607396       -16.5281
  50   2.0000      -0.599142       -16.3035
  51   2.0000      -0.594530       -16.1780
  52   2.0000      -0.584929       -15.9167
  53   2.0000      -0.566190       -15.4068
  54   2.0000      -0.551810       -15.0155
  55   2.0000      -0.549696       -14.9580
  56   2.0000      -0.536722       -14.6050
  57   2.0000      -0.529733       -14.4148
  58   2.0000      -0.521124       -14.1805
  59   2.0000      -0.517242       -14.0749
  60   2.0000      -0.510752       -13.8983
  61   2.0000      -0.505934       -13.7672
  62   2.0000      -0.491829       -13.3834
  63   2.0000      -0.489424       -13.3179
  64   2.0000      -0.483640       -13.1605
  65   2.0000      -0.474786       -12.9196
  66   2.0000      -0.468811       -12.7570
  67   2.0000      -0.452134       -12.3032
  68   2.0000      -0.449900       -12.2424
  69   2.0000      -0.443006       -12.0548
  70   2.0000      -0.378472       -10.2987
  71   2.0000      -0.249005        -6.7758
  72   0.0000       0.020245         0.5509
  73   0.0000       0.027755         0.7553
  74   0.0000       0.031050         0.8449
  75   0.0000       0.031694         0.8624
  76   0.0000       0.040504         1.1022

MULLIKEN ATOMIC CHARGES
-----------------------
   0 C :   -0.598845
   1 N :   -0.114126
   2 C :   -0.515228
   3 C :   -0.775660
   4 H :    0.162633
   5 H :    0.338467
   6 S :    2.659951
   7 C :    0.488005
   8 C :   -1.565378
   9 N :   -0.636767
  10 H :    0.026806
  11 H :    0.086571
  12 H :    0.757282
  13 H :    1.029281
  14 H :    0.081765
  15 F :   -0.638732
  16 O :   -1.058676
  17 C :   -0.487260
  18 H :    0.103500
  19 H :    0.278623
  20 C :   -0.370994
  21 C :   -0.447153
  22 H :    0.137334
  23 H :    0.608590
  24 H :    0.264200
  25 H :    0.271361
  26 C :   -0.461721
  27 H :    0.235899
  28 H :    0.201822
  29 C :   -0.305418
  30 H :    0.368232
  31 H :    0.298238
  32 C :   -0.673094
  33 H :    0.462167
  34 H :   -0.000565
  35 H :    0.084781
  36 H :    0.497082
  37 H :    0.140294
  38 H :    0.109290
  39 O :   -1.042557
Sum of atomic charges:   -0.0000000

LOEWDIN ATOMIC CHARGES
----------------------
   0 C :    0.222293
   1 N :    0.575862
   2 C :    0.260642
   3 C :    0.211747
   4 H :   -0.163692
   5 H :   -0.186244
   6 S :    0.057644
   7 C :   -0.434670
   8 C :    0.531113
   9 N :    0.869663
  10 H :   -0.311373
  11 H :   -0.272542
  12 H :   -0.584030
  13 H :   -0.552427
  14 H :   -0.303950
  15 F :    0.411933
  16 O :    0.065705
  17 C :    0.308476
  18 H :   -0.146807
  19 H :   -0.144076
  20 C :    0.289156
  21 C :    0.269550
  22 H :   -0.120010
  23 H :   -0.226182
  24 H :   -0.131918
  25 H :   -0.154618
  26 C :    0.288968
  27 H :   -0.143281
  28 H :   -0.150163
  29 C :    0.285047
  30 H :   -0.130548
  31 H :   -0.160430
  32 C :    0.303417
  33 H :   -0.133383
  34 H :   -0.164570
  35 H :   -0.150482
  36 H :   -0.134683
  37 H :   -0.140818
  38 H :   -0.138743
  39 O :    0.228423

  Mayer bond orders larger than 0.100000
B(  0-C ,  1-N ) :   1.1798 B(  0-C ,  7-C ) :  -0.1236 B(  0-C , 12-H ) :  -0.1504
B(  0-C , 17-C ) :   0.7989 B(  0-C , 18-H ) :   1.2004 B(  0-C , 19-H ) :   0.9065
B(  0-C , 26-C ) :   0.1255 B(  1-N ,  7-C ) :   1.1163 B(  1-N ,  8-C ) :  -0.1094
B(  1-N ,  9-N ) :  -0.1772 B(  1-N , 12-H ) :   0.1870 B(  1-N , 18-H ) :   0.1038
B(  2-C ,  3-C ) :   0.9388 B(  2-C , 21-C ) :   0.9016 B(  2-C , 24-H ) :   0.9380
B(  2-C , 25-H ) :   0.9728 B(  3-C ,  4-H ) :   1.0795 B(  3-C ,  5-H ) :   0.8502
B(  3-C ,  6-S ) :   0.8718 B(  3-C , 15-F ) :   0.1221 B(  6-S , 15-F ) :   0.4268
B(  6-S , 16-O ) :   0.9646 B(  6-S , 39-O ) :   1.4898 B(  7-C ,  8-C ) :   1.0865
B(  7-C ,  9-N ) :   0.8090 B(  7-C , 10-H ) :  -0.1676 B(  7-C , 12-H ) :  -0.3570
B(  7-C , 14-H ) :  -0.1224 B(  8-C ,  9-N ) :  -0.3853 B(  8-C , 14-H ) :   1.5551
B(  8-C , 15-F ) :  -0.1171 B(  9-N , 10-H ) :   1.2850 B(  9-N , 11-H ) :   1.0666
B( 12-H , 39-O ) :  -0.1604 B( 13-H , 15-F ) :  -0.1392 B( 14-H , 37-H ) :  -0.1070
B( 16-O , 39-O ) :   0.1061 B( 17-C , 26-C ) :   0.9087 B( 17-C , 27-H ) :   0.9604
B( 17-C , 28-H ) :   1.0761 B( 20-C , 21-C ) :   0.7747 B( 20-C , 32-C ) :   0.8299
B( 20-C , 35-H ) :   1.1215 B( 20-C , 36-H ) :   0.7511 B( 21-C , 22-H ) :   1.1441
B( 21-C , 23-H ) :   0.8013 B( 23-H , 39-O ) :  -0.1368 B( 26-C , 29-C ) :   0.8586
B( 26-C , 30-H ) :   0.8617 B( 26-C , 31-H ) :   0.9970 B( 26-C , 34-H ) :   0.1096
B( 29-C , 32-C ) :   0.8898 B( 29-C , 33-H ) :   0.7936 B( 29-C , 34-H ) :   1.1924
B( 32-C , 34-H ) :   0.1009 B( 32-C , 37-H ) :   1.1023 B( 32-C , 38-H ) :   1.1291

E(0)                                       ...  -1185.726019113
E(0)                                       ...  -1185.726019113
E(CORR)(strong-pairs)                      ...     -3.389694082
E(CORR)(weak-pairs)                        ...     -0.006816001
E(CORR)(corrected)                         ...     -3.396510083
E(TOT)                                     ...  -1189.122529196
E(CCSD(T))                                 ...  -1189.265327779
FINAL SINGLE POINT ENERGY     -1189.265327778579

DIPOLE MOMENT
-------------
                                X             Y             Z
Electronic contribution:    -16.25260       3.83124     -19.55517
Nuclear contribution   :     17.27667      -5.32157      20.03034
                        -----------------------------------------
Total Dipole Moment    :      1.02407      -1.49032       0.47516
                        -----------------------------------------
Magnitude (a.u.)       :      1.86964
Magnitude (Debye)      :      4.75225

Rotational constants in cm-1:     0.014355     0.012269     0.007481
Rotational constants in MHz :   430.360270   367.823451   224.273399

                             ****ORCA TERMINATED NORMALLY****
TOTAL RUN TIME: 0 days 8 hours 12 minutes 16 seconds 985 msec
