                         Program Version 5.0.0 -  RELEASE  -
|  1> !DLPNO-CCSD(T) aug-cc-pVTZ aug-cc-pVTZ/C TightSCF TightPNO RIJCOSX def2/J
|  2>
|  3> *xyzfile 0 1 D4.xyz
|  4>
|  5> %MaxCore 64000
|  6>
|  7> %pal nprocs 18
|  8> end
|  9>
| 10> %scf
| 11>   MaxIter 150
| 12> end
| 13>
| 14>
| 15>                          ****END OF INPUT****

CARTESIAN COORDINATES (ANGSTROEM)
---------------------------------
  C      4.490588    1.155899   -2.469290
  C      4.305394    1.222762   -3.908317
  C      4.906458   -3.102816   -5.954844
  C      3.511771   -2.806215   -6.492283
  H      2.736044   -3.373445   -5.973736
  H      3.444904   -3.040831   -7.555281
  S      3.004618   -1.096206   -6.389259
  C      4.631918    2.246365   -4.670958
  N      4.541686    2.143990   -5.987139
  N      5.084086    3.393584   -4.118545
  H      4.920675    3.570501   -3.135870
  H      5.254652    4.197390   -4.706956
  H      3.824530    0.449113   -4.350926
  H      4.343373    1.249318   -6.416646
  H      4.676712    2.956624   -6.574113
  O      4.128856   -0.329647   -6.953717
  F      1.781285   -1.000779   -7.136399
  C      5.942129    0.939500   -2.036893
  H      3.864305    0.328532   -2.136611
  H      4.076233    2.049994   -1.989010
  C      6.462677   -3.117775   -3.944671
  C      5.024977   -3.025679   -4.437625
  H      4.423321   -3.818693   -3.977648
  H      4.579350   -2.087131   -4.108727
  H      5.201533   -4.100207   -6.296905
  H      5.605922   -2.397822   -6.413368
  C      6.559957   -0.356290   -2.559086
  H      5.967976    0.952567   -0.942444
  H      6.547184    1.788331   -2.368849
  C      6.006283   -1.615917   -1.899301
  H      7.642360   -0.318000   -2.402059
  H      6.414855   -0.403433   -3.642587
  C      6.608718   -2.917014   -2.435655
  H      6.190324   -1.561115   -0.820948
  H      4.919250   -1.651245   -2.016586
  H      7.066975   -2.374258   -4.475514
  H      6.887808   -4.089747   -4.215332
  H      6.135197   -3.755573   -1.915159
  H      7.671142   -2.955503   -2.172291
  O      2.851546   -0.783683   -4.956789

 Total Charge           Charge          ....    0
 Multiplicity           Mult            ....    1
 Number of Electrons    NEL             ....  144
 Basis Dimension        Dim             .... 1315

ORBITAL ENERGIES
----------------

  NO   OCC          E(Eh)            E(eV)
   0   2.0000     -92.266095     -2510.6881
   1   2.0000     -26.449268      -719.7212
   2   2.0000     -20.578680      -559.9744
   3   2.0000     -20.567608      -559.6731
   4   2.0000     -15.534853      -422.7248
   5   2.0000     -15.513441      -422.1422
   6   2.0000     -11.303509      -307.5841
   7   2.0000     -11.254483      -306.2501
   8   2.0000     -11.246679      -306.0377
   9   2.0000     -11.219269      -305.2918
  10   2.0000     -11.213399      -305.1321
  11   2.0000     -11.206752      -304.9512
  12   2.0000     -11.195784      -304.6528
  13   2.0000     -11.186290      -304.3944
  14   2.0000     -11.180475      -304.2362
  15   2.0000     -11.171666      -303.9965
  16   2.0000     -11.091331      -301.8105
  17   2.0000      -9.229780      -251.1551
  18   2.0000      -6.917179      -188.2260
  19   2.0000      -6.913202      -188.1178
  20   2.0000      -6.912679      -188.1036
  21   2.0000      -1.819806       -49.5194
  22   2.0000      -1.463728       -39.8301
  23   2.0000      -1.355996       -36.8985
  24   2.0000      -1.242770       -33.8175
  25   2.0000      -1.131593       -30.7922
  26   2.0000      -1.124323       -30.5944
  27   2.0000      -1.080725       -29.4080
  28   2.0000      -1.046522       -28.4773
  29   2.0000      -1.018606       -27.7177
  30   2.0000      -0.981873       -26.7181
  31   2.0000      -0.950258       -25.8578
  32   2.0000      -0.907396       -24.6915
  33   2.0000      -0.870913       -23.6987
  34   2.0000      -0.848004       -23.0754
  35   2.0000      -0.843259       -22.9462
  36   2.0000      -0.819974       -22.3126
  37   2.0000      -0.796249       -21.6670
  38   2.0000      -0.780585       -21.2408
  39   2.0000      -0.752345       -20.4723
  40   2.0000      -0.732979       -19.9454
  41   2.0000      -0.702885       -19.1265
  42   2.0000      -0.687566       -18.7096
  43   2.0000      -0.676617       -18.4117
  44   2.0000      -0.653927       -17.7943
  45   2.0000      -0.643910       -17.5217
  46   2.0000      -0.636796       -17.3281
  47   2.0000      -0.617415       -16.8007
  48   2.0000      -0.612080       -16.6555
  49   2.0000      -0.595141       -16.1946
  50   2.0000      -0.585787       -15.9401
  51   2.0000      -0.573030       -15.5929
  52   2.0000      -0.570829       -15.5330
  53   2.0000      -0.567026       -15.4296
  54   2.0000      -0.540239       -14.7007
  55   2.0000      -0.534301       -14.5391
  56   2.0000      -0.527149       -14.3444
  57   2.0000      -0.517253       -14.0752
  58   2.0000      -0.508786       -13.8448
  59   2.0000      -0.504123       -13.7179
  60   2.0000      -0.490300       -13.3417
  61   2.0000      -0.486833       -13.2474
  62   2.0000      -0.480544       -13.0763
  63   2.0000      -0.467787       -12.7291
  64   2.0000      -0.457994       -12.4626
  65   2.0000      -0.455165       -12.3857
  66   2.0000      -0.440104       -11.9758
  67   2.0000      -0.426411       -11.6032
  68   2.0000      -0.420479       -11.4418
  69   2.0000      -0.408102       -11.1050
  70   2.0000      -0.380026       -10.3410
  71   2.0000      -0.225104        -6.1254
  72   0.0000       0.017996         0.4897
  73   0.0000       0.031715         0.8630
  74   0.0000       0.033266         0.9052
  75   0.0000       0.034332         0.9342
  76   0.0000       0.042611         1.1595

MULLIKEN ATOMIC CHARGES
-----------------------
   0 C :   -0.321358
   1 C :   -1.325782
   2 C :   -0.467890
   3 C :   -0.768239
   4 H :    0.187814
   5 H :    0.329499
   6 S :    2.409434
   7 C :    1.656743
   8 N :   -0.782049
   9 N :   -0.665645
  10 H :    0.106503
  11 H :    0.142233
  12 H :    0.732969
  13 H :    0.291113
  14 H :    0.062421
  15 O :   -0.957291
  16 F :   -0.536356
  17 C :   -0.622000
  18 H :    0.004887
  19 H :    0.174561
  20 C :   -0.384667
  21 C :   -0.482941
  22 H :    0.113755
  23 H :    0.647521
  24 H :    0.263876
  25 H :    0.319203
  26 C :   -0.402486
  27 H :    0.155812
  28 H :    0.162210
  29 C :   -0.312705
  30 H :    0.317423
  31 H :    0.321257
  32 C :   -0.676610
  33 H :    0.492215
  34 H :   -0.011267
  35 H :    0.103310
  36 H :    0.498424
  37 H :    0.128385
  38 H :    0.116673
  39 O :   -1.020954
Sum of atomic charges:    0.0000000

LOEWDIN ATOMIC CHARGES
----------------------
   0 C :    0.236586
   1 C :    0.180492
   2 C :    0.270279
   3 C :    0.210222
   4 H :   -0.178691
   5 H :   -0.189696
   6 S :    0.097908
   7 C :   -0.401840
   8 N :    0.856436
   9 N :    0.869293
  10 H :   -0.302894
  11 H :   -0.286612
  12 H :   -0.569906
  13 H :   -0.597629
  14 H :   -0.276751
  15 O :    0.216094
  16 F :    0.314940
  17 C :    0.296120
  18 H :   -0.156636
  19 H :   -0.153394
  20 C :    0.289678
  21 C :    0.273038
  22 H :   -0.122275
  23 H :   -0.220091
  24 H :   -0.130823
  25 H :   -0.156540
  26 C :    0.287622
  27 H :   -0.147831
  28 H :   -0.150312
  29 C :    0.285211
  30 H :   -0.133802
  31 H :   -0.164262
  32 C :    0.300613
  33 H :   -0.134363
  34 H :   -0.163468
  35 H :   -0.149205
  36 H :   -0.136766
  37 H :   -0.143005
  38 H :   -0.140085
  39 O :    0.222347

  Mayer bond orders larger than 0.100000
B(  0-C ,  1-C ) :   0.9210 B(  0-C ,  7-C ) :  -0.1511 B(  0-C , 12-H ) :  -0.1043
B(  0-C , 17-C ) :   0.8402 B(  0-C , 18-H ) :   1.2118 B(  0-C , 19-H ) :   1.0372
B(  1-C ,  7-C ) :   1.5887 B(  1-C ,  9-N ) :   0.1237 B(  1-C , 12-H ) :   0.6420
B(  1-C , 17-C ) :   0.1207 B(  1-C , 18-H ) :  -0.1122 B(  1-C , 39-O ) :   0.1313
B(  2-C ,  3-C ) :   0.9496 B(  2-C ,  6-S ) :   0.1209 B(  2-C , 21-C ) :   0.9079
B(  2-C , 24-H ) :   0.9208 B(  2-C , 25-H ) :   0.9503 B(  3-C ,  4-H ) :   1.0422
B(  3-C ,  5-H ) :   0.8499 B(  3-C ,  6-S ) :   0.8472 B(  6-S , 15-O ) :   1.3344
B(  6-S , 39-O ) :   1.6790 B(  7-C ,  8-N ) :   0.3121 B(  7-C ,  9-N ) :   0.2896
B(  8-N ,  9-N ) :  -0.1064 B(  8-N , 13-H ) :   0.9511 B(  8-N , 14-H ) :   1.1576
B(  9-N , 10-H ) :   1.1464 B(  9-N , 11-H ) :   1.0375 B( 12-H , 39-O ) :  -0.3103
B( 17-C , 26-C ) :   0.8958 B( 17-C , 27-H ) :   1.0171 B( 17-C , 28-H ) :   1.0210
B( 20-C , 21-C ) :   0.7643 B( 20-C , 32-C ) :   0.8329 B( 20-C , 35-H ) :   1.1209
B( 20-C , 36-H ) :   0.7483 B( 21-C , 22-H ) :   1.1221 B( 21-C , 23-H ) :   0.7945
B( 23-H , 39-O ) :  -0.1249 B( 26-C , 29-C ) :   0.8595 B( 26-C , 30-H ) :   0.8941
B( 26-C , 31-H ) :   0.9947 B( 26-C , 34-H ) :   0.1199 B( 29-C , 32-C ) :   0.8846
B( 29-C , 33-H ) :   0.7596 B( 29-C , 34-H ) :   1.2160 B( 32-C , 37-H ) :   1.1161
B( 32-C , 38-H ) :   1.1240

E(0)                                       ...  -1185.710940073
E(0)                                       ...  -1185.710940073
E(CORR)(strong-pairs)                      ...     -3.396389206
E(CORR)(weak-pairs)                        ...     -0.006862800
E(CORR)(corrected)                         ...     -3.403252006
E(TOT)                                     ...  -1189.114192079
E(CCSD(T))                                 ...  -1189.257928785
FINAL SINGLE POINT ENERGY     -1189.257928785476

DIPOLE MOMENT
-------------
                                X             Y             Z
Electronic contribution:    -20.64023       3.33443     -22.07438
Nuclear contribution   :     19.99734      -4.67125      20.55522
                        -----------------------------------------
Total Dipole Moment    :     -0.64289      -1.33681      -1.51916
                        -----------------------------------------
Magnitude (a.u.)       :      2.12326
Magnitude (Debye)      :      5.39689

Rotational constants in cm-1:     0.014213     0.012058     0.007367
Rotational constants in MHz :   426.102180   361.491761   220.844824

                             ****ORCA TERMINATED NORMALLY****
TOTAL RUN TIME: 0 days 8 hours 4 minutes 15 seconds 310 msec
