                         Program Version 5.0.0 -  RELEASE  -
|  1> !DLPNO-CCSD(T) aug-cc-pVTZ aug-cc-pVTZ/C TightSCF TightPNO RIJCOSX def2/J
|  2>
|  3> *xyzfile 0 1 D5.xyz
|  4>
|  5> %MaxCore 64000
|  6>
|  7> %pal nprocs 18
|  8> end
|  9>
| 10> %scf
| 11>   MaxIter 150
| 12> end
| 13>
| 14>
| 15>                          ****END OF INPUT****

CARTESIAN COORDINATES (ANGSTROEM)
---------------------------------
  C      4.490588    1.155899   -2.469290
  N      4.305394    1.222762   -3.908317
  C      4.906458   -3.102816   -5.954844
  C      3.511771   -2.806215   -6.492283
  H      2.736044   -3.373445   -5.973736
  H      3.444904   -3.040831   -7.555281
  S      3.004618   -1.096206   -6.389259
  C      4.631918    2.246365   -4.670958
  C      4.541686    2.143990   -5.987139
  N      5.084086    3.393584   -4.118545
  H      4.920675    3.570501   -3.135870
  H      5.254652    4.197390   -4.706956
  H      3.824530    0.449113   -4.350926
  H      4.343373    1.249318   -6.416646
  H      4.676712    2.956624   -6.574113
  O      4.128856   -0.329647   -6.953717
  F      1.781285   -1.000779   -7.136399
  C      5.942129    0.939500   -2.036893
  H      3.864305    0.328532   -2.136611
  H      4.076233    2.049994   -1.989010
  C      6.462677   -3.117775   -3.944671
  C      5.024977   -3.025679   -4.437625
  H      4.423321   -3.818693   -3.977648
  H      4.579350   -2.087131   -4.108727
  H      5.201533   -4.100207   -6.296905
  H      5.605922   -2.397822   -6.413368
  C      6.559957   -0.356290   -2.559086
  H      5.967976    0.952567   -0.942444
  H      6.547184    1.788331   -2.368849
  C      6.006283   -1.615917   -1.899301
  H      7.642360   -0.318000   -2.402059
  H      6.414855   -0.403433   -3.642587
  C      6.608718   -2.917014   -2.435655
  H      6.190324   -1.561115   -0.820948
  H      4.919250   -1.651245   -2.016586
  H      7.066975   -2.374258   -4.475514
  H      6.887808   -4.089747   -4.215332
  H      6.135197   -3.755573   -1.915159
  H      7.671142   -2.955503   -2.172291
  O      2.851546   -0.783683   -4.956789

 Total Charge           Charge          ....    0
 Multiplicity           Mult            ....    1
 Number of Electrons    NEL             ....  144
 Basis Dimension        Dim             .... 1315

ORBITAL ENERGIES
----------------

  NO   OCC          E(Eh)            E(eV)
   0   2.0000     -92.265204     -2510.6638
   1   2.0000     -26.447560      -719.6747
   2   2.0000     -20.576934      -559.9268
   3   2.0000     -20.565564      -559.6174
   4   2.0000     -15.532368      -422.6572
   5   2.0000     -15.512171      -422.1076
   6   2.0000     -11.303870      -307.5939
   7   2.0000     -11.256858      -306.3147
   8   2.0000     -11.250152      -306.1322
   9   2.0000     -11.240728      -305.8758
  10   2.0000     -11.226167      -305.4795
  11   2.0000     -11.220482      -305.3248
  12   2.0000     -11.216396      -305.2137
  13   2.0000     -11.209985      -305.0392
  14   2.0000     -11.203966      -304.8754
  15   2.0000     -11.203341      -304.8584
  16   2.0000     -11.082129      -301.5600
  17   2.0000      -9.228803      -251.1285
  18   2.0000      -6.916209      -188.1996
  19   2.0000      -6.912209      -188.0908
  20   2.0000      -6.911739      -188.0780
  21   2.0000      -1.817812       -49.4652
  22   2.0000      -1.462319       -39.7917
  23   2.0000      -1.354431       -36.8559
  24   2.0000      -1.252875       -34.0925
  25   2.0000      -1.148406       -31.2497
  26   2.0000      -1.127641       -30.6847
  27   2.0000      -1.087807       -29.6007
  28   2.0000      -1.051986       -28.6260
  29   2.0000      -1.013639       -27.5825
  30   2.0000      -0.982029       -26.7224
  31   2.0000      -0.950557       -25.8660
  32   2.0000      -0.915187       -24.9035
  33   2.0000      -0.879747       -23.9391
  34   2.0000      -0.850406       -23.1407
  35   2.0000      -0.845779       -23.0148
  36   2.0000      -0.822538       -22.3824
  37   2.0000      -0.804295       -21.8860
  38   2.0000      -0.786662       -21.4062
  39   2.0000      -0.763809       -20.7843
  40   2.0000      -0.750017       -20.4090
  41   2.0000      -0.702383       -19.1128
  42   2.0000      -0.686703       -18.6861
  43   2.0000      -0.668885       -18.2013
  44   2.0000      -0.651318       -17.7233
  45   2.0000      -0.647914       -17.6306
  46   2.0000      -0.633973       -17.2513
  47   2.0000      -0.629152       -17.1201
  48   2.0000      -0.620011       -16.8714
  49   2.0000      -0.600767       -16.3477
  50   2.0000      -0.592334       -16.1182
  51   2.0000      -0.584957       -15.9175
  52   2.0000      -0.579135       -15.7591
  53   2.0000      -0.559487       -15.2244
  54   2.0000      -0.546437       -14.8693
  55   2.0000      -0.540551       -14.7091
  56   2.0000      -0.534461       -14.5434
  57   2.0000      -0.523073       -14.2335
  58   2.0000      -0.513453       -13.9718
  59   2.0000      -0.504557       -13.7297
  60   2.0000      -0.501936       -13.6584
  61   2.0000      -0.496232       -13.5032
  62   2.0000      -0.489570       -13.3219
  63   2.0000      -0.477371       -12.9899
  64   2.0000      -0.470297       -12.7974
  65   2.0000      -0.463718       -12.6184
  66   2.0000      -0.446870       -12.1599
  67   2.0000      -0.445268       -12.1164
  68   2.0000      -0.439215       -11.9516
  69   2.0000      -0.435813       -11.8591
  70   2.0000      -0.365104        -9.9350
  71   2.0000      -0.227358        -6.1867
  72   0.0000       0.017902         0.4871
  73   0.0000       0.029038         0.7902
  74   0.0000       0.031471         0.8564
  75   0.0000       0.034286         0.9330
  76   0.0000       0.041608         1.1322

MULLIKEN ATOMIC CHARGES
-----------------------
   0 C :   -0.592969
   1 N :   -0.104993
   2 C :   -0.465764
   3 C :   -0.820519
   4 H :    0.190601
   5 H :    0.333704
   6 S :    2.460833
   7 C :    0.445267
   8 C :   -1.501221
   9 N :   -0.654055
  10 H :    0.021894
  11 H :    0.082987
  12 H :    0.763536
  13 H :    0.967275
  14 H :    0.065634
  15 O :   -0.985109
  16 F :   -0.533433
  17 C :   -0.489486
  18 H :    0.101145
  19 H :    0.283155
  20 C :   -0.370701
  21 C :   -0.467790
  22 H :    0.124237
  23 H :    0.628420
  24 H :    0.264951
  25 H :    0.332735
  26 C :   -0.466531
  27 H :    0.231275
  28 H :    0.202849
  29 C :   -0.300655
  30 H :    0.365031
  31 H :    0.294321
  32 C :   -0.681059
  33 H :    0.459760
  34 H :    0.002994
  35 H :    0.092236
  36 H :    0.499043
  37 H :    0.143018
  38 H :    0.111452
  39 O :   -1.034066
Sum of atomic charges:    0.0000000

LOEWDIN ATOMIC CHARGES
----------------------
   0 C :    0.218497
   1 N :    0.575393
   2 C :    0.271243
   3 C :    0.209782
   4 H :   -0.180814
   5 H :   -0.187770
   6 S :    0.098483
   7 C :   -0.436735
   8 C :    0.528581
   9 N :    0.862465
  10 H :   -0.315555
  11 H :   -0.275560
  12 H :   -0.577445
  13 H :   -0.612567
  14 H :   -0.304010
  15 O :    0.214323
  16 F :    0.317562
  17 C :    0.307822
  18 H :   -0.149149
  19 H :   -0.145967
  20 C :    0.290915
  21 C :    0.271352
  22 H :   -0.122300
  23 H :   -0.222907
  24 H :   -0.130281
  25 H :   -0.155641
  26 C :    0.289941
  27 H :   -0.144808
  28 H :   -0.150087
  29 C :    0.284013
  30 H :   -0.130983
  31 H :   -0.158421
  32 C :    0.302484
  33 H :   -0.134185
  34 H :   -0.165261
  35 H :   -0.148549
  36 H :   -0.135148
  37 H :   -0.141843
  38 H :   -0.138981
  39 O :    0.222109

  Mayer bond orders larger than 0.100000
B(  0-C ,  1-N ) :   1.1829 B(  0-C ,  7-C ) :  -0.1140 B(  0-C , 12-H ) :  -0.1500
B(  0-C , 17-C ) :   0.7886 B(  0-C , 18-H ) :   1.2035 B(  0-C , 19-H ) :   0.9020
B(  0-C , 26-C ) :   0.1240 B(  1-N ,  7-C ) :   1.1307 B(  1-N ,  9-N ) :  -0.1957
B(  1-N , 12-H ) :   0.1960 B(  2-C ,  3-C ) :   0.9548 B(  2-C ,  6-S ) :   0.1117
B(  2-C , 21-C ) :   0.9119 B(  2-C , 24-H ) :   0.9203 B(  2-C , 25-H ) :   0.9330
B(  3-C ,  4-H ) :   1.0345 B(  3-C ,  5-H ) :   0.8498 B(  3-C ,  6-S ) :   0.8679
B(  6-S , 15-O ) :   1.4116 B(  6-S , 39-O ) :   1.5085 B(  7-C ,  8-C ) :   1.1538
B(  7-C ,  9-N ) :   0.7847 B(  7-C , 10-H ) :  -0.1655 B(  7-C , 12-H ) :  -0.3619
B(  7-C , 14-H ) :  -0.1312 B(  8-C ,  9-N ) :  -0.3586 B(  8-C , 14-H ) :   1.5821
B(  9-N , 10-H ) :   1.2837 B(  9-N , 11-H ) :   1.0754 B( 12-H , 39-O ) :  -0.1784
B( 17-C , 26-C ) :   0.9098 B( 17-C , 27-H ) :   0.9620 B( 17-C , 28-H ) :   1.0740
B( 20-C , 21-C ) :   0.7693 B( 20-C , 32-C ) :   0.8317 B( 20-C , 35-H ) :   1.1143
B( 20-C , 36-H ) :   0.7498 B( 21-C , 22-H ) :   1.1370 B( 21-C , 23-H ) :   0.7884
B( 23-H , 39-O ) :  -0.1447 B( 26-C , 29-C ) :   0.8565 B( 26-C , 30-H ) :   0.8631
B( 26-C , 31-H ) :   0.9941 B( 26-C , 34-H ) :   0.1088 B( 29-C , 32-C ) :   0.8909
B( 29-C , 33-H ) :   0.7895 B( 29-C , 34-H ) :   1.1949 B( 32-C , 37-H ) :   1.1022
B( 32-C , 38-H ) :   1.1305

E(0)                                       ...  -1185.705874222
E(0)                                       ...  -1185.705874222
E(CORR)(strong-pairs)                      ...     -3.392472871
E(CORR)(weak-pairs)                        ...     -0.006817464
E(CORR)(corrected)                         ...     -3.399290335
E(TOT)                                     ...  -1189.105164557
E(CCSD(T))                                 ...  -1189.248609794
FINAL SINGLE POINT ENERGY     -1189.248609793858

DIPOLE MOMENT
-------------
                                X             Y             Z
Electronic contribution:    -20.67810       2.45380     -20.17977
Nuclear contribution   :     20.03262      -4.53368      20.24480
                        -----------------------------------------
Total Dipole Moment    :     -0.64548      -2.07988       0.06502
                        -----------------------------------------
Magnitude (a.u.)       :      2.17871
Magnitude (Debye)      :      5.53784

Rotational constants in cm-1:     0.014367     0.012055     0.007393
Rotational constants in MHz :   430.711297   361.391195   221.649333

                             ****ORCA TERMINATED NORMALLY****
TOTAL RUN TIME: 0 days 7 hours 13 minutes 16 seconds 154 msec
