                         Program Version 5.0.0 -  RELEASE  -
|  1> !TPSS D3BJ RIJCOSX def2-SVP def2/J TightSCF
|  2> *xyz -1 1
|  3> C         -0.87096        0.24804       -2.66280
|  4> C         -0.47749        0.60819       -4.10105
|  5> H          0.20677        1.45830       -4.11875
|  6> H         -1.36844        0.92942       -4.64785
|  7> C          0.18467       -0.50664       -4.91676
|  8> O         -0.15869       -1.70109       -4.65798
|  9> O          1.05594       -0.17441       -5.74037
| 10> H         -1.54056       -0.58646       -2.67455
| 11> H         -1.35339        1.08600       -2.20455
| 12> H          0.00660       -0.00662       -2.10609
| 13> *
| 14>
| 15> %MaxCore 64000
| 16>
| 17> %pal nprocs 4
| 18> end
| 19>
| 20> %scf
| 21>   MaxIter 150
| 22> end
| 23>
| 24>
| 25>                          ****END OF INPUT****

CARTESIAN COORDINATES (ANGSTROEM)
---------------------------------
  C     -0.870960    0.248040   -2.662800
  C     -0.477490    0.608190   -4.101050
  H      0.206770    1.458300   -4.118750
  H     -1.368440    0.929420   -4.647850
  C      0.184670   -0.506640   -4.916760
  O     -0.158690   -1.701090   -4.657980
  O      1.055940   -0.174410   -5.740370
  H     -1.540560   -0.586460   -2.674550
  H     -1.353390    1.086000   -2.204550
  H      0.006600   -0.006620   -2.106090

 Total Charge           Charge          ....   -1
 Multiplicity           Mult            ....    1
 Number of Electrons    NEL             ....   40
 Basis Dimension        Dim             ....   95

ORBITAL ENERGIES
----------------

  NO   OCC          E(Eh)            E(eV)
   0   2.0000     -18.593783      -505.9625
   1   2.0000     -18.591878      -505.9107
   2   2.0000      -9.840855      -267.7833
   3   2.0000      -9.826876      -267.4029
   4   2.0000      -9.806951      -266.8607
   5   2.0000      -0.701836       -19.0979
   6   2.0000      -0.610956       -16.6250
   7   2.0000      -0.523931       -14.2569
   8   2.0000      -0.401582       -10.9276
   9   2.0000      -0.248759        -6.7691
  10   2.0000      -0.235706        -6.4139
  11   2.0000      -0.191665        -5.2155
  12   2.0000      -0.164177        -4.4675
  13   2.0000      -0.155377        -4.2280
  14   2.0000      -0.132585        -3.6078
  15   2.0000      -0.100609        -2.7377
  16   2.0000      -0.091750        -2.4967
  17   2.0000       0.027154         0.7389
  18   2.0000       0.035949         0.9782
  19   2.0000       0.054567         1.4848
  20   0.0000       0.206918         5.6305
  21   0.0000       0.247925         6.7464
  22   0.0000       0.257279         7.0009
  23   0.0000       0.271229         7.3805
  24   0.0000       0.276075         7.5124

MULLIKEN ATOMIC CHARGES
-----------------------
   0 C :    0.046827
   1 C :   -0.022080
   2 H :   -0.055143
   3 H :   -0.039733
   4 C :    0.026832
   5 O :   -0.441697
   6 O :   -0.413365
   7 H :   -0.018360
   8 H :   -0.063252
   9 H :   -0.020029
Sum of atomic charges:   -1.0000000

LOEWDIN ATOMIC CHARGES
----------------------
   0 C :   -0.055642
   1 C :   -0.091512
   2 H :   -0.008222
   3 H :    0.000979
   4 C :   -0.071543
   5 O :   -0.397187
   6 O :   -0.368255
   7 H :    0.002337
   8 H :   -0.015216
   9 H :    0.004260

  Mayer bond orders larger than 0.100000
B(  0-C ,  1-C ) :   1.0764 B(  0-C ,  7-H ) :   0.9554 B(  0-C ,  8-H ) :   0.9485
B(  0-C ,  9-H ) :   0.9727 B(  1-C ,  2-H ) :   0.9336 B(  1-C ,  3-H ) :   0.9308
B(  1-C ,  4-C ) :   0.9012 B(  4-C ,  5-O ) :   1.8155 B(  4-C ,  6-O ) :   1.8634
B(  5-O ,  6-O ) :   0.1357

Dispersion correction           -0.008004854
FINAL SINGLE POINT ENERGY      -267.661347530426

DIPOLE MOMENT
-------------
                                X             Y             Z
Electronic contribution:      2.77446      -3.13552      -4.78138
Nuclear contribution   :     -3.54611       4.15440       5.90446
                        -----------------------------------------
Total Dipole Moment    :     -0.77165       1.01889       1.12308
                        -----------------------------------------
Magnitude (a.u.)       :      1.70144
Magnitude (Debye)      :      4.32471

Rotational constants in cm-1:     0.332789     0.132085     0.101080
Rotational constants in MHz :  9976.755824  3959.803182  3030.288811

                             ****ORCA TERMINATED NORMALLY****
TOTAL RUN TIME: 0 days 0 hours 0 minutes 8 seconds 454 msec
