                         Program Version 5.0.0 -  RELEASE  -
|  1> !TPSS D3BJ RIJCOSX def2-SVP def2/J TightSCF
|  2> *xyz 1 1
|  3> C          2.48645       -2.67712       -2.56345
|  4> C          3.03764       -2.36672       -3.92351
|  5> N          2.28036       -2.45441       -4.96769
|  6> N          4.32174       -2.01793       -4.01664
|  7> H          4.87994       -1.91167       -3.17382
|  8> H          4.71015       -1.67088       -4.88356
|  9> H          1.27042       -2.41265       -4.86614
| 10> H          2.58183       -2.05528       -5.84688
| 11> C          2.49799       -1.46946       -1.61030
| 12> H          1.47259       -3.05153       -2.69437
| 13> H          3.08320       -3.49064       -2.14147
| 14> H          1.91240       -0.67831       -2.02991
| 15> H          3.50450       -1.13364       -1.47227
| 16> H          2.08509       -1.75655       -0.66585
| 17> *
| 18>
| 19> %MaxCore 64000
| 20>
| 21> %pal nprocs 4
| 22> end
| 23>
| 24> %scf
| 25>   MaxIter 150
| 26> end
| 27>
| 28>
| 29>                          ****END OF INPUT****

CARTESIAN COORDINATES (ANGSTROEM)
---------------------------------
  C      2.486450   -2.677120   -2.563450
  C      3.037640   -2.366720   -3.923510
  N      2.280360   -2.454410   -4.967690
  N      4.321740   -2.017930   -4.016640
  H      4.879940   -1.911670   -3.173820
  H      4.710150   -1.670880   -4.883560
  H      1.270420   -2.412650   -4.866140
  H      2.581830   -2.055280   -5.846880
  C      2.497990   -1.469460   -1.610300
  H      1.472590   -3.051530   -2.694370
  H      3.083200   -3.490640   -2.141470
  H      1.912400   -0.678310   -2.029910
  H      3.504500   -1.133640   -1.472270
  H      2.085090   -1.756550   -0.665850

 Total Charge           Charge          ....    1
 Multiplicity           Mult            ....    1
 Number of Electrons    NEL             ....   40
 Basis Dimension        Dim             ....  115

ORBITAL ENERGIES
----------------

  NO   OCC          E(Eh)            E(eV)
   0   2.0000     -14.365898      -390.9159
   1   2.0000     -14.361034      -390.7836
   2   2.0000     -10.312071      -280.6057
   3   2.0000     -10.198233      -277.5080
   4   2.0000     -10.160847      -276.4907
   5   2.0000      -1.132635       -30.8206
   6   2.0000      -1.041709       -28.3463
   7   2.0000      -0.905706       -24.6455
   8   2.0000      -0.809643       -22.0315
   9   2.0000      -0.763182       -20.7672
  10   2.0000      -0.727664       -19.8008
  11   2.0000      -0.702272       -19.1098
  12   2.0000      -0.659033       -17.9332
  13   2.0000      -0.608244       -16.5512
  14   2.0000      -0.582228       -15.8432
  15   2.0000      -0.566698       -15.4206
  16   2.0000      -0.510212       -13.8836
  17   2.0000      -0.501057       -13.6344
  18   2.0000      -0.492168       -13.3926
  19   2.0000      -0.457792       -12.4572
  20   0.0000      -0.236884        -6.4459
  21   0.0000      -0.156751        -4.2654
  22   0.0000      -0.117851        -3.2069
  23   0.0000      -0.113825        -3.0973
  24   0.0000      -0.086260        -2.3473

MULLIKEN ATOMIC CHARGES
-----------------------
   0 C :   -0.005557
   1 C :   -0.073648
   2 N :    0.047177
   3 N :    0.000259
   4 H :    0.182553
   5 H :    0.171266
   6 H :    0.185181
   7 H :    0.164747
   8 C :    0.014970
   9 H :    0.053397
  10 H :    0.096070
  11 H :    0.048133
  12 H :    0.036293
  13 H :    0.079159
Sum of atomic charges:    1.0000000

LOEWDIN ATOMIC CHARGES
----------------------
   0 C :   -0.023757
   1 C :    0.130151
   2 N :    0.121151
   3 N :    0.100179
   4 H :    0.118601
   5 H :    0.108797
   6 H :    0.123393
   7 H :    0.109884
   8 C :   -0.010639
   9 H :    0.047316
  10 H :    0.064934
  11 H :    0.034055
  12 H :    0.025149
  13 H :    0.050787

  Mayer bond orders larger than 0.100000
B(  0-C ,  1-C ) :   1.0240 B(  0-C ,  8-C ) :   1.0732 B(  0-C ,  9-H ) :   0.9245
B(  0-C , 10-H ) :   0.9165 B(  1-C ,  2-N ) :   1.5270 B(  1-C ,  3-N ) :   1.4915
B(  2-N ,  6-H ) :   0.9184 B(  2-N ,  7-H ) :   0.9319 B(  3-N ,  4-H ) :   0.9228
B(  3-N ,  5-H ) :   0.9310 B(  8-C , 11-H ) :   0.9693 B(  8-C , 12-H ) :   0.9703
B(  8-C , 13-H ) :   0.9599

Dispersion correction           -0.012449758
FINAL SINGLE POINT ENERGY      -228.909633783747

DIPOLE MOMENT
-------------
                                X             Y             Z
Electronic contribution:      1.08649      -1.05710      -3.97144
Nuclear contribution   :     -0.84604       1.34287       2.92710
                        -----------------------------------------
Total Dipole Moment    :      0.24045       0.28577      -1.04434
                        -----------------------------------------
Magnitude (a.u.)       :      1.10911
Magnitude (Debye)      :      2.81914

Rotational constants in cm-1:     0.265816     0.126189     0.097583
Rotational constants in MHz :  7968.948902  3783.040103  2925.457702

                             ****ORCA TERMINATED NORMALLY****
TOTAL RUN TIME: 0 days 0 hours 0 minutes 9 seconds 795 msec
