                         Program Version 5.0.0 -  RELEASE  -
|  1> !TPSS D3BJ RIJCOSX def2-SVP def2/J TightSCF
|  2> *xyz 0 1
|  3> C         -0.87096        0.24804       -2.66280
|  4> C         -0.47749        0.60819       -4.10105
|  5> H          0.20677        1.45830       -4.11875
|  6> H         -1.36844        0.92942       -4.64785
|  7> C          0.18467       -0.50664       -4.91676
|  8> F         -0.15869       -1.70109       -4.65798
|  9> O          1.05594       -0.17441       -5.74037
| 10> H         -1.54056       -0.58646       -2.67455
| 11> H         -1.35339        1.08600       -2.20455
| 12> H          0.00660       -0.00662       -2.10609
| 13> *
| 14>
| 15> %MaxCore 64000
| 16>
| 17> %pal nprocs 4
| 18> end
| 19>
| 20> %scf
| 21>   MaxIter 150
| 22> end
| 23>
| 24>
| 25>                          ****END OF INPUT****

CARTESIAN COORDINATES (ANGSTROEM)
---------------------------------
  C     -0.870960    0.248040   -2.662800
  C     -0.477490    0.608190   -4.101050
  H      0.206770    1.458300   -4.118750
  H     -1.368440    0.929420   -4.647850
  C      0.184670   -0.506640   -4.916760
  F     -0.158690   -1.701090   -4.657980
  O      1.055940   -0.174410   -5.740370
  H     -1.540560   -0.586460   -2.674550
  H     -1.353390    1.086000   -2.204550
  H      0.006600   -0.006620   -2.106090

 Total Charge           Charge          ....    0
 Multiplicity           Mult            ....    1
 Number of Electrons    NEL             ....   40
 Basis Dimension        Dim             ....   95

ORBITAL ENERGIES
----------------

  NO   OCC          E(Eh)            E(eV)
   0   2.0000     -24.474391      -665.9820
   1   2.0000     -18.890615      -514.0398
   2   2.0000     -10.156110      -276.3618
   3   2.0000     -10.026864      -272.8449
   4   2.0000     -10.008280      -272.3391
   5   2.0000      -1.203266       -32.7425
   6   2.0000      -0.948474       -25.8093
   7   2.0000      -0.733136       -19.9496
   8   2.0000      -0.618642       -16.8341
   9   2.0000      -0.573881       -15.6161
  10   2.0000      -0.483333       -13.1522
  11   2.0000      -0.474891       -12.9224
  12   2.0000      -0.433882       -11.8065
  13   2.0000      -0.416988       -11.3468
  14   2.0000      -0.384635       -10.4665
  15   2.0000      -0.353405        -9.6166
  16   2.0000      -0.342225        -9.3124
  17   2.0000      -0.332262        -9.0413
  18   2.0000      -0.304079        -8.2744
  19   2.0000      -0.237374        -6.4593
  20   0.0000      -0.048729        -1.3260
  21   0.0000       0.042615         1.1596
  22   0.0000       0.090982         2.4757
  23   0.0000       0.100259         2.7282
  24   0.0000       0.113456         3.0873

MULLIKEN ATOMIC CHARGES
-----------------------
   0 C :    0.001980
   1 C :   -0.099322
   2 H :    0.052197
   3 H :    0.054587
   4 C :    0.234136
   5 F :   -0.082226
   6 O :   -0.239885
   7 H :    0.026186
   8 H :    0.023718
   9 H :    0.028629
Sum of atomic charges:   -0.0000000

LOEWDIN ATOMIC CHARGES
----------------------
   0 C :   -0.040189
   1 C :   -0.066624
   2 H :    0.042204
   3 H :    0.044630
   4 C :    0.085804
   5 F :    0.036548
   6 O :   -0.171597
   7 H :    0.020579
   8 H :    0.025918
   9 H :    0.022726

  Mayer bond orders larger than 0.100000
B(  0-C ,  1-C ) :   1.0704 B(  0-C ,  7-H ) :   0.9707 B(  0-C ,  8-H ) :   0.9625
B(  0-C ,  9-H ) :   0.9781 B(  1-C ,  2-H ) :   0.9470 B(  1-C ,  3-H ) :   0.9251
B(  1-C ,  4-C ) :   0.9966 B(  4-C ,  5-F ) :   1.1811 B(  4-C ,  6-O ) :   2.0781

Dispersion correction           -0.007539090
FINAL SINGLE POINT ENERGY      -292.221628797976

DIPOLE MOMENT
-------------
                                X             Y             Z
Electronic contribution:      2.68711      -5.42507      -5.40165
Nuclear contribution   :     -3.42837       5.66737       6.17046
                        -----------------------------------------
Total Dipole Moment    :     -0.74126       0.24230       0.76880
                        -----------------------------------------
Magnitude (a.u.)       :      1.09510
Magnitude (Debye)      :      2.78351

Rotational constants in cm-1:     0.304660     0.130969     0.097716
Rotational constants in MHz :  9133.464515  3926.366384  2929.457090

                             ****ORCA TERMINATED NORMALLY****
TOTAL RUN TIME: 0 days 0 hours 0 minutes 7 seconds 889 msec
