                         Program Version 5.0.0 -  RELEASE  -
|  1> !TPSS D3BJ RIJCOSX def2-SVP def2/J TightSCF
|  2> *xyz 0 1
|  3> C          2.48645       -2.67712       -2.56345
|  4> C          3.03764       -2.36672       -3.92351
|  5> C          2.28036       -2.45441       -4.96769
|  6> N          4.32174       -2.01793       -4.01664
|  7> H          4.87994       -1.91167       -3.17382
|  8> H          4.71015       -1.67088       -4.88356
|  9> H          1.27042       -2.41265       -4.86614
| 10> H          2.58183       -2.05528       -5.84688
| 11> C          2.49799       -1.46946       -1.61030
| 12> H          1.47259       -3.05153       -2.69437
| 13> H          3.08320       -3.49064       -2.14147
| 14> H          1.91240       -0.67831       -2.02991
| 15> H          3.50450       -1.13364       -1.47227
| 16> H          2.08509       -1.75655       -0.66585
| 17> *
| 18>
| 19> %MaxCore 64000
| 20>
| 21> %pal nprocs 4
| 22> end
| 23>
| 24> %scf
| 25>   MaxIter 150
| 26> end
| 27>
| 28>
| 29>                          ****END OF INPUT****

CARTESIAN COORDINATES (ANGSTROEM)
---------------------------------
  C      2.486450   -2.677120   -2.563450
  C      3.037640   -2.366720   -3.923510
  C      2.280360   -2.454410   -4.967690
  N      4.321740   -2.017930   -4.016640
  H      4.879940   -1.911670   -3.173820
  H      4.710150   -1.670880   -4.883560
  H      1.270420   -2.412650   -4.866140
  H      2.581830   -2.055280   -5.846880
  C      2.497990   -1.469460   -1.610300
  H      1.472590   -3.051530   -2.694370
  H      3.083200   -3.490640   -2.141470
  H      1.912400   -0.678310   -2.029910
  H      3.504500   -1.133640   -1.472270
  H      2.085090   -1.756550   -0.665850

 Total Charge           Charge          ....    0
 Multiplicity           Mult            ....    1
 Number of Electrons    NEL             ....   40
 Basis Dimension        Dim             ....  115

ORBITAL ENERGIES
----------------

  NO   OCC          E(Eh)            E(eV)
   0   2.0000     -14.111846      -384.0028
   1   2.0000     -10.006662      -272.2951
   2   2.0000      -9.995956      -272.0038
   3   2.0000      -9.990581      -271.8575
   4   2.0000      -9.925639      -270.0904
   5   2.0000      -0.845626       -23.0107
   6   2.0000      -0.710994       -19.3471
   7   2.0000      -0.656813       -17.8728
   8   2.0000      -0.576069       -15.6756
   9   2.0000      -0.511404       -13.9160
  10   2.0000      -0.474150       -12.9023
  11   2.0000      -0.427634       -11.6365
  12   2.0000      -0.392323       -10.6756
  13   2.0000      -0.384950       -10.4750
  14   2.0000      -0.342256        -9.3132
  15   2.0000      -0.339601        -9.2410
  16   2.0000      -0.315230        -8.5778
  17   2.0000      -0.291234        -7.9249
  18   2.0000      -0.280686        -7.6379
  19   2.0000      -0.156322        -4.2537
  20   0.0000       0.034568         0.9406
  21   0.0000       0.036501         0.9932
  22   0.0000       0.084258         2.2928
  23   0.0000       0.088730         2.4145
  24   0.0000       0.107627         2.9287

MULLIKEN ATOMIC CHARGES
-----------------------
   0 C :    0.044720
   1 C :   -0.122683
   2 C :   -0.041305
   3 N :   -0.084973
   4 H :    0.105663
   5 H :    0.113054
   6 H :   -0.031474
   7 H :   -0.052314
   8 C :    0.022614
   9 H :    0.005075
  10 H :    0.012388
  11 H :    0.016737
  12 H :   -0.002469
  13 H :    0.014967
Sum of atomic charges:    0.0000000

LOEWDIN ATOMIC CHARGES
----------------------
   0 C :   -0.022125
   1 C :   -0.001799
   2 C :   -0.166691
   3 N :   -0.004020
   4 H :    0.066895
   5 H :    0.073704
   6 H :   -0.000099
   7 H :   -0.010012
   8 C :   -0.036872
   9 H :    0.029289
  10 H :    0.021601
  11 H :    0.020970
  12 H :    0.009542
  13 H :    0.019615

  Mayer bond orders larger than 0.100000
B(  0-C ,  1-C ) :   1.0347 B(  0-C ,  8-C ) :   1.0876 B(  0-C ,  9-H ) :   0.9302
B(  0-C , 10-H ) :   0.9285 B(  1-C ,  2-C ) :   1.8662 B(  1-C ,  3-N ) :   1.2625
B(  2-C ,  6-H ) :   0.9330 B(  2-C ,  7-H ) :   0.9480 B(  3-N ,  4-H ) :   0.9510
B(  3-N ,  5-H ) :   0.9476 B(  8-C , 11-H ) :   0.9693 B(  8-C , 12-H ) :   0.9694
B(  8-C , 13-H ) :   0.9658

Dispersion correction           -0.012943051
FINAL SINGLE POINT ENERGY      -212.445221354537

DIPOLE MOMENT
-------------
                                X             Y             Z
Electronic contribution:      1.62382      -0.87304      -2.13996
Nuclear contribution   :     -0.99743       1.27863       2.57190
                        -----------------------------------------
Total Dipole Moment    :      0.62638       0.40558       0.43194
                        -----------------------------------------
Magnitude (a.u.)       :      0.86222
Magnitude (Debye)      :      2.19159

Rotational constants in cm-1:     0.274050     0.130114     0.100964
Rotational constants in MHz :  8215.815505  3900.722919  3026.834930

                             ****ORCA TERMINATED NORMALLY****
TOTAL RUN TIME: 0 days 0 hours 0 minutes 9 seconds 658 msec
