                         Program Version 5.0.0 -  RELEASE  -
|  1> !TPSS D3BJ RIJCOSX def2-SVP def2/J TightSCF
|  2> *xyz 0 1
|  3> C          2.48645       -2.67712       -2.56345
|  4> C          3.03764       -2.36672       -3.92351
|  5> N          2.28036       -2.45441       -4.96769
|  6> C          4.32174       -2.01793       -4.01664
|  7> H          4.87994       -1.91167       -3.17382
|  8> H          4.71015       -1.67088       -4.88356
|  9> H          1.27042       -2.41265       -4.86614
| 10> H          2.58183       -2.05528       -5.84688
| 11> C          2.49799       -1.46946       -1.61030
| 12> H          1.47259       -3.05153       -2.69437
| 13> H          3.08320       -3.49064       -2.14147
| 14> H          1.91240       -0.67831       -2.02991
| 15> H          3.50450       -1.13364       -1.47227
| 16> H          2.08509       -1.75655       -0.66585
| 17> *
| 18>
| 19> %MaxCore 64000
| 20>
| 21> %pal nprocs 4
| 22> end
| 23>
| 24> %scf
| 25>   MaxIter 150
| 26> end
| 27>
| 28>
| 29>                          ****END OF INPUT****

CARTESIAN COORDINATES (ANGSTROEM)
---------------------------------
  C      2.486450   -2.677120   -2.563450
  C      3.037640   -2.366720   -3.923510
  N      2.280360   -2.454410   -4.967690
  C      4.321740   -2.017930   -4.016640
  H      4.879940   -1.911670   -3.173820
  H      4.710150   -1.670880   -4.883560
  H      1.270420   -2.412650   -4.866140
  H      2.581830   -2.055280   -5.846880
  C      2.497990   -1.469460   -1.610300
  H      1.472590   -3.051530   -2.694370
  H      3.083200   -3.490640   -2.141470
  H      1.912400   -0.678310   -2.029910
  H      3.504500   -1.133640   -1.472270
  H      2.085090   -1.756550   -0.665850

 Total Charge           Charge          ....    0
 Multiplicity           Mult            ....    1
 Number of Electrons    NEL             ....   40
 Basis Dimension        Dim             ....  115

ORBITAL ENERGIES
----------------

  NO   OCC          E(Eh)            E(eV)
   0   2.0000     -14.115388      -384.0992
   1   2.0000     -10.006839      -272.2999
   2   2.0000      -9.996719      -272.0246
   3   2.0000      -9.986210      -271.7386
   4   2.0000      -9.926487      -270.1134
   5   2.0000      -0.860283       -23.4095
   6   2.0000      -0.711967       -19.3736
   7   2.0000      -0.641875       -17.4663
   8   2.0000      -0.580824       -15.8050
   9   2.0000      -0.514748       -14.0070
  10   2.0000      -0.471024       -12.8172
  11   2.0000      -0.431558       -11.7433
  12   2.0000      -0.399722       -10.8770
  13   2.0000      -0.362887        -9.8747
  14   2.0000      -0.348639        -9.4870
  15   2.0000      -0.335076        -9.1179
  16   2.0000      -0.312550        -8.5049
  17   2.0000      -0.295227        -8.0335
  18   2.0000      -0.288603        -7.8533
  19   2.0000      -0.147789        -4.0215
  20   0.0000       0.031858         0.8669
  21   0.0000       0.039374         1.0714
  22   0.0000       0.081711         2.2235
  23   0.0000       0.087630         2.3845
  24   0.0000       0.111280         3.0281

MULLIKEN ATOMIC CHARGES
-----------------------
   0 C :    0.042497
   1 C :   -0.176145
   2 N :   -0.034688
   3 C :   -0.039853
   4 H :   -0.033351
   5 H :   -0.048096
   6 H :    0.102993
   7 H :    0.106288
   8 C :    0.028434
   9 H :   -0.017472
  10 H :    0.031820
  11 H :    0.008332
  12 H :    0.021075
  13 H :    0.008166
Sum of atomic charges:   -0.0000000

LOEWDIN ATOMIC CHARGES
----------------------
   0 C :   -0.022487
   1 C :   -0.018114
   2 N :    0.019248
   3 C :   -0.170643
   4 H :   -0.004753
   5 H :   -0.011996
   6 H :    0.066876
   7 H :    0.073776
   8 C :   -0.030273
   9 H :    0.011021
  10 H :    0.034536
  11 H :    0.016887
  12 H :    0.020039
  13 H :    0.015885

  Mayer bond orders larger than 0.100000
B(  0-C ,  1-C ) :   1.0082 B(  0-C ,  8-C ) :   1.0986 B(  0-C ,  9-H ) :   0.9320
B(  0-C , 10-H ) :   0.9343 B(  1-C ,  2-N ) :   1.2959 B(  1-C ,  3-C ) :   1.8296
B(  2-N ,  6-H ) :   0.9461 B(  2-N ,  7-H ) :   0.9481 B(  3-C ,  4-H ) :   0.9459
B(  3-C ,  5-H ) :   0.9496 B(  8-C , 11-H ) :   0.9692 B(  8-C , 12-H ) :   0.9726
B(  8-C , 13-H ) :   0.9629

Dispersion correction           -0.012971900
FINAL SINGLE POINT ENERGY      -212.446247756415

DIPOLE MOMENT
-------------
                                X             Y             Z
Electronic contribution:     -0.29017      -1.21620      -3.03455
Nuclear contribution   :     -0.52463       1.37972       2.79217
                        -----------------------------------------
Total Dipole Moment    :     -0.81480       0.16352      -0.24238
                        -----------------------------------------
Magnitude (a.u.)       :      0.86567
Magnitude (Debye)      :      2.20037

Rotational constants in cm-1:     0.281086     0.127387     0.100311
Rotational constants in MHz :  8426.743103  3818.969834  3007.238026

                             ****ORCA TERMINATED NORMALLY****
TOTAL RUN TIME: 0 days 0 hours 0 minutes 9 seconds 574 msec
