                         Program Version 5.0.0 -  RELEASE  -
|  1> !TPSS D3BJ RIJCOSX def2-TZVP def2/J TightSCF xyzfile
|  2>
|  3> *xyzfile 0 1 D1.xyz
|  4>
|  5> %MaxCore 64000
|  6>
|  7> %pal nprocs 18
|  8> end
|  9>
| 10> %scf
| 11>   MaxIter 150
| 12> end
| 13>
| 14>
| 15>                          ****END OF INPUT****

CARTESIAN COORDINATES (ANGSTROEM)
---------------------------------
  C      2.486452   -2.677121   -2.563447
  C     -0.870963    0.248043   -2.662804
  C     -0.477492    0.608191   -4.101052
  H      0.206773    1.458299   -4.118748
  H     -1.368442    0.929419   -4.647855
  C      0.184673   -0.506640   -4.916760
  C      3.037640   -2.366715   -3.923509
  C      2.280360   -2.454408   -4.967692
  N      4.321736   -2.017932   -4.016641
  H      4.879940   -1.911668   -3.173823
  H      4.710148   -1.670882   -4.883561
  H      1.270423   -2.412650   -4.866143
  H      2.581829   -2.055282   -5.846878
  F     -0.158685   -1.701088   -4.657981
  O      1.055938   -0.174410   -5.740373
  C      2.497991   -1.469464   -1.610303
  C      1.582841   -0.321986   -2.042619
  H      2.193083   -1.833912   -0.625420
  H      3.523356   -1.103982   -1.490392
  C      0.100160   -0.673551   -1.915815
  H      1.822311   -0.040361   -3.072834
  H      1.813180    0.557019   -1.433266
  H     -0.063284   -1.679120   -2.301112
  H     -0.168820   -0.691680   -0.853831
  H     -1.001048    1.181040   -2.104071
  H     -1.844645   -0.246592   -2.663281
  H      1.472592   -3.051527   -2.694366
  H      3.083201   -3.490638   -2.141472

 Total Charge           Charge          ....    0
 Multiplicity           Mult            ....    1
 Number of Electrons    NEL             ....   94
 Basis Dimension        Dim             ....  468

ORBITAL ENERGIES
----------------

  NO   OCC          E(Eh)            E(eV)
   0   2.0000     -24.472394      -665.9277
   1   2.0000     -18.883178      -513.8374
   2   2.0000     -14.089036      -383.3822
   3   2.0000     -10.147273      -276.1213
   4   2.0000     -10.012190      -272.4455
   5   2.0000      -9.997483      -272.0453
   6   2.0000      -9.986269      -271.7402
   7   2.0000      -9.983460      -271.6638
   8   2.0000      -9.982750      -271.6444
   9   2.0000      -9.982191      -271.6292
  10   2.0000      -9.977681      -271.5065
  11   2.0000      -9.891298      -269.1559
  12   2.0000      -1.234527       -33.5932
  13   2.0000      -0.966576       -26.3019
  14   2.0000      -0.849666       -23.1206
  15   2.0000      -0.766646       -20.8615
  16   2.0000      -0.733486       -19.9592
  17   2.0000      -0.687215       -18.7001
  18   2.0000      -0.663958       -18.0672
  19   2.0000      -0.621587       -16.9143
  20   2.0000      -0.599160       -16.3040
  21   2.0000      -0.565373       -15.3846
  22   2.0000      -0.531710       -14.4686
  23   2.0000      -0.518118       -14.0987
  24   2.0000      -0.491620       -13.3777
  25   2.0000      -0.485061       -13.1992
  26   2.0000      -0.462967       -12.5980
  27   2.0000      -0.443454       -12.0670
  28   2.0000      -0.435573       -11.8525
  29   2.0000      -0.424915       -11.5625
  30   2.0000      -0.414129       -11.2690
  31   2.0000      -0.399866       -10.8809
  32   2.0000      -0.387711       -10.5502
  33   2.0000      -0.365316        -9.9408
  34   2.0000      -0.361668        -9.8415
  35   2.0000      -0.346200        -9.4206
  36   2.0000      -0.335053        -9.1173
  37   2.0000      -0.332985        -9.0610
  38   2.0000      -0.317912        -8.6508
  39   2.0000      -0.311459        -8.4752
  40   2.0000      -0.301080        -8.1928
  41   2.0000      -0.296773        -8.0756
  42   2.0000      -0.283739        -7.7209
  43   2.0000      -0.274826        -7.4784
  44   2.0000      -0.272345        -7.4109
  45   2.0000      -0.241709        -6.5772
  46   2.0000      -0.149947        -4.0803
  47   0.0000      -0.057010        -1.5513
  48   0.0000       0.013615         0.3705
  49   0.0000       0.022230         0.6049
  50   0.0000       0.033211         0.9037
  51   0.0000       0.045547         1.2394

MULLIKEN ATOMIC CHARGES
-----------------------
   0 C :   -0.222047
   1 C :   -0.142958
   2 C :   -0.201955
   3 H :    0.138746
   4 H :    0.124572
   5 C :    0.274905
   6 C :    0.155277
   7 C :   -0.354289
   8 N :   -0.479979
   9 H :    0.223833
  10 H :    0.231011
  11 H :    0.111239
  12 H :    0.076931
  13 F :   -0.090548
  14 O :   -0.285787
  15 C :   -0.109988
  16 C :   -0.210161
  17 H :    0.077470
  18 H :    0.082096
  19 C :   -0.212806
  20 H :    0.148928
  21 H :    0.071892
  22 H :    0.101686
  23 H :    0.092210
  24 H :    0.092032
  25 H :    0.097196
  26 H :    0.113908
  27 H :    0.096587
Sum of atomic charges:    0.0000000

LOEWDIN ATOMIC CHARGES
----------------------
   0 C :   -0.214311
   1 C :   -0.259788
   2 C :   -0.233106
   3 H :    0.154920
   4 H :    0.153021
   5 C :   -0.517951
   6 C :   -0.380966
   7 C :   -0.262444
   8 N :   -0.004845
   9 H :    0.162861
  10 H :    0.168183
  11 H :    0.096028
  12 H :    0.100142
  13 F :    0.334664
  14 O :    0.114930
  15 C :   -0.255490
  16 C :   -0.255116
  17 H :    0.133808
  18 H :    0.127833
  19 C :   -0.264763
  20 H :    0.145810
  21 H :    0.131705
  22 H :    0.133632
  23 H :    0.135029
  24 H :    0.137013
  25 H :    0.136567
  26 H :    0.143201
  27 H :    0.139432

  Mayer bond orders larger than 0.100000
B(  0-C ,  6-C ) :   0.9976 B(  0-C , 15-C ) :   0.9832 B(  0-C , 26-H ) :   0.9775
B(  0-C , 27-H ) :   0.9388 B(  1-C ,  2-C ) :   1.0007 B(  1-C , 19-C ) :   1.0152
B(  1-C , 24-H ) :   0.9424 B(  1-C , 25-H ) :   0.9511 B(  2-C ,  3-H ) :   0.9452
B(  2-C ,  4-H ) :   0.9188 B(  2-C ,  5-C ) :   1.0383 B(  5-C , 13-F ) :   1.1158
B(  5-C , 14-O ) :   2.0501 B(  6-C ,  7-C ) :   1.7827 B(  6-C ,  8-N ) :   1.1268
B(  7-C , 11-H ) :   0.9955 B(  7-C , 12-H ) :   0.9639 B(  8-N ,  9-H ) :   0.9215
B(  8-N , 10-H ) :   0.9117 B( 15-C , 16-C ) :   1.0009 B( 15-C , 17-H ) :   0.9382
B( 15-C , 18-H ) :   0.9478 B( 16-C , 19-C ) :   1.0158 B( 16-C , 20-H ) :   0.9508
B( 16-C , 21-H ) :   0.9335 B( 19-C , 22-H ) :   0.9619 B( 19-C , 23-H ) :   0.9403

Dispersion correction           -0.038999444
FINAL SINGLE POINT ENERGY      -582.685241639985

DIPOLE MOMENT
-------------
                                X             Y             Z
Electronic contribution:     -3.61952      -1.65107     -10.30039
Nuclear contribution   :      3.32973       2.37270      11.37738
                        -----------------------------------------
Total Dipole Moment    :     -0.28979       0.72163       1.07699
                        -----------------------------------------
Magnitude (a.u.)       :      1.32840
Magnitude (Debye)      :      3.37651

Rotational constants in cm-1:     0.040902     0.025807     0.019036
Rotational constants in MHz :  1226.202138   773.670450   570.681201

                             ****ORCA TERMINATED NORMALLY****
TOTAL RUN TIME: 0 days 0 hours 0 minutes 25 seconds 437 msec
