                         Program Version 5.0.0 -  RELEASE  -
|  1> !TPSS D3BJ RIJCOSX def2-TZVP def2/J TightSCF
|  2> *xyz -1 1
|  3> C         -1.10433        0.25137       -2.86006
|  4> C         -0.71189        0.84252       -4.21834
|  5> H          0.15463        1.49980       -4.13091
|  6> H         -1.53813        1.45922       -4.58267
|  7> C         -0.39762       -0.20587       -5.28802
|  8> O          0.61717       -0.00535       -5.99827
|  9> O         -1.13317       -1.22138       -5.34147
| 10> H         -1.95489       -0.38644       -2.98099
| 11> H         -1.34603        1.04362       -2.18269
| 12> H         -0.28606       -0.31581       -2.46809
| 13> *
| 14>
| 15> %MaxCore 64000
| 16>
| 17> %pal nprocs 4
| 18> end
| 19>
| 20> %scf
| 21>   MaxIter 150
| 22> end
| 23>
| 24>
| 25>                          ****END OF INPUT****

CARTESIAN COORDINATES (ANGSTROEM)
---------------------------------
  C     -1.104330    0.251370   -2.860060
  C     -0.711890    0.842520   -4.218340
  H      0.154630    1.499800   -4.130910
  H     -1.538130    1.459220   -4.582670
  C     -0.397620   -0.205870   -5.288020
  O      0.617170   -0.005350   -5.998270
  O     -1.133170   -1.221380   -5.341470
  H     -1.954890   -0.386440   -2.980990
  H     -1.346030    1.043620   -2.182690
  H     -0.286060   -0.315810   -2.468090

 Total Charge           Charge          ....   -1
 Multiplicity           Mult            ....    1
 Number of Electrons    NEL             ....   40
 Basis Dimension        Dim             ....  185

ORBITAL ENERGIES
----------------

  NO   OCC          E(Eh)            E(eV)
   0   2.0000     -18.606850      -506.3181
   1   2.0000     -18.605112      -506.2708
   2   2.0000      -9.846321      -267.9320
   3   2.0000      -9.814935      -267.0779
   4   2.0000      -9.802653      -266.7437
   5   2.0000      -0.739190       -20.1144
   6   2.0000      -0.650750       -17.7078
   7   2.0000      -0.541689       -14.7401
   8   2.0000      -0.417537       -11.3618
   9   2.0000      -0.265897        -7.2354
  10   2.0000      -0.245444        -6.6789
  11   2.0000      -0.208950        -5.6858
  12   2.0000      -0.178182        -4.8486
  13   2.0000      -0.167524        -4.5586
  14   2.0000      -0.154127        -4.1940
  15   2.0000      -0.125438        -3.4133
  16   2.0000      -0.112041        -3.0488
  17   2.0000      -0.001272        -0.0346
  18   2.0000       0.010817         0.2944
  19   2.0000       0.026853         0.7307
  20   0.0000       0.175504         4.7757
  21   0.0000       0.216786         5.8991
  22   0.0000       0.223073         6.0701
  23   0.0000       0.239689         6.5223
  24   0.0000       0.247511         6.7351

MULLIKEN ATOMIC CHARGES
-----------------------
   0 C :   -0.295829
   1 C :   -0.130371
   2 H :    0.032753
   3 H :    0.023830
   4 C :    0.176403
   5 O :   -0.509089
   6 O :   -0.508664
   7 H :    0.087899
   8 H :    0.046341
   9 H :    0.076726
Sum of atomic charges:   -1.0000000

LOEWDIN ATOMIC CHARGES
----------------------
   0 C :   -0.323219
   1 C :   -0.293687
   2 H :    0.114911
   3 H :    0.116988
   4 C :   -0.718306
   5 O :   -0.098904
   6 O :   -0.096123
   7 H :    0.106691
   8 H :    0.088049
   9 H :    0.103599

  Mayer bond orders larger than 0.100000
B(  0-C ,  1-C ) :   0.9793 B(  0-C ,  7-H ) :   0.9631 B(  0-C ,  8-H ) :   0.9572
B(  0-C ,  9-H ) :   0.9759 B(  1-C ,  2-H ) :   0.9397 B(  1-C ,  3-H ) :   0.9372
B(  1-C ,  4-C ) :   0.9577 B(  4-C ,  5-O ) :   1.8791 B(  4-C ,  6-O ) :   1.8432

Dispersion correction           -0.008035192
FINAL SINGLE POINT ENERGY      -267.983835236937

DIPOLE MOMENT
-------------
                                X             Y             Z
Electronic contribution:      1.60363      -2.47973      -5.38430
Nuclear contribution   :     -2.09607       3.44215       6.87744
                        -----------------------------------------
Total Dipole Moment    :     -0.49244       0.96241       1.49314
                        -----------------------------------------
Magnitude (a.u.)       :      1.84342
Magnitude (Debye)      :      4.68560

Rotational constants in cm-1:     0.324698     0.133739     0.103466
Rotational constants in MHz :  9734.203431  4009.406827  3101.846422

                             ****ORCA TERMINATED NORMALLY****
TOTAL RUN TIME: 0 days 0 hours 0 minutes 8 seconds 605 msec
