                         Program Version 5.0.0 -  RELEASE  -
|  1> !TPSS D3BJ RIJCOSX def2-TZVP def2/J TightSCF
|  2> *xyz 1 1
|  3> C          2.23447       -2.98975       -2.39762
|  4> N          2.75680       -2.94555       -3.76503
|  5> C          1.98721       -2.59045       -4.81898
|  6> N          0.74322       -3.01749       -4.91352
|  7> N          2.49964       -1.84860       -5.80324
|  8> H          3.30978       -1.29282       -5.55895
|  9> H          1.80103       -1.30430       -6.28913
| 10> H          3.71612       -2.62880       -3.82953
| 11> H          0.39583       -3.62775       -4.18502
| 12> H          0.03920       -2.45438       -5.37137
| 13> C          2.19120       -1.61950       -1.71549
| 14> H          2.87278       -3.66637       -1.82801
| 15> H          1.24619       -3.44744       -2.40784
| 16> H          1.56387       -0.96046       -2.27853
| 17> H          3.18033       -1.21449       -1.66568
| 18> H          1.79916       -1.72608       -0.72562
| 19> *
| 20>
| 21> %MaxCore 64000
| 22>
| 23> %pal nprocs 4
| 24> end
| 25>
| 26> %scf
| 27>   MaxIter 150
| 28> end
| 29>
| 30>
| 31>                          ****END OF INPUT****

CARTESIAN COORDINATES (ANGSTROEM)
---------------------------------
  C      2.234470   -2.989750   -2.397620
  N      2.756800   -2.945550   -3.765030
  C      1.987210   -2.590450   -4.818980
  N      0.743220   -3.017490   -4.913520
  N      2.499640   -1.848600   -5.803240
  H      3.309780   -1.292820   -5.558950
  H      1.801030   -1.304300   -6.289130
  H      3.716120   -2.628800   -3.829530
  H      0.395830   -3.627750   -4.185020
  H      0.039200   -2.454380   -5.371370
  C      2.191200   -1.619500   -1.715490
  H      2.872780   -3.666370   -1.828010
  H      1.246190   -3.447440   -2.407840
  H      1.563870   -0.960460   -2.278530
  H      3.180330   -1.214490   -1.665680
  H      1.799160   -1.726080   -0.725620

 Total Charge           Charge          ....    1
 Multiplicity           Mult            ....    1
 Number of Electrons    NEL             ....   48
 Basis Dimension        Dim             ....  246

ORBITAL ENERGIES
----------------

  NO   OCC          E(Eh)            E(eV)
   0   2.0000     -14.329949      -389.9377
   1   2.0000     -14.326095      -389.8329
   2   2.0000     -14.323158      -389.7529
   3   2.0000     -10.311611      -280.5932
   4   2.0000     -10.194919      -277.4179
   5   2.0000     -10.127520      -275.5838
   6   2.0000      -1.152517       -31.3616
   7   2.0000      -1.045153       -28.4400
   8   2.0000      -1.042086       -28.3566
   9   2.0000      -0.874356       -23.7924
  10   2.0000      -0.793985       -21.6054
  11   2.0000      -0.756396       -20.5826
  12   2.0000      -0.736986       -20.0544
  13   2.0000      -0.695229       -18.9182
  14   2.0000      -0.657026       -17.8786
  15   2.0000      -0.642203       -17.4752
  16   2.0000      -0.606591       -16.5062
  17   2.0000      -0.578180       -15.7331
  18   2.0000      -0.563715       -15.3395
  19   2.0000      -0.529173       -14.3995
  20   2.0000      -0.499961       -13.6046
  21   2.0000      -0.482944       -13.1416
  22   2.0000      -0.449948       -12.2437
  23   2.0000      -0.415489       -11.3060
  24   0.0000      -0.219548        -5.9742
  25   0.0000      -0.167486        -4.5575
  26   0.0000      -0.135820        -3.6958
  27   0.0000      -0.121989        -3.3195
  28   0.0000      -0.106877        -2.9083

MULLIKEN ATOMIC CHARGES
-----------------------
   0 C :   -0.127672
   1 N :   -0.245214
   2 C :    0.355059
   3 N :   -0.373142
   4 N :   -0.341509
   5 H :    0.273898
   6 H :    0.272538
   7 H :    0.246688
   8 H :    0.284005
   9 H :    0.286723
  10 C :   -0.327521
  11 H :    0.167546
  12 H :    0.109969
  13 H :    0.118709
  14 H :    0.136750
  15 H :    0.163172
Sum of atomic charges:    1.0000000

LOEWDIN ATOMIC CHARGES
----------------------
   0 C :   -0.279499
   1 N :    0.160868
   2 C :   -0.418577
   3 N :    0.093337
   4 N :    0.067736
   5 H :    0.194457
   6 H :    0.198234
   7 H :    0.204379
   8 H :    0.196992
   9 H :    0.198292
  10 C :   -0.274547
  11 H :    0.148641
  12 H :    0.132329
  13 H :    0.117597
  14 H :    0.123535
  15 H :    0.136226

  Mayer bond orders larger than 0.100000
B(  0-C ,  1-N ) :   0.9106 B(  0-C , 10-C ) :   1.0135 B(  0-C , 11-H ) :   0.9450
B(  0-C , 12-H ) :   0.9607 B(  1-N ,  2-C ) :   1.3539 B(  1-N ,  7-H ) :   0.8992
B(  2-C ,  3-N ) :   1.3540 B(  2-C ,  4-N ) :   1.3492 B(  3-N ,  8-H ) :   0.8893
B(  3-N ,  9-H ) :   0.8828 B(  4-N ,  5-H ) :   0.8920 B(  4-N ,  6-H ) :   0.8894
B( 10-C , 13-H ) :   0.9597 B( 10-C , 14-H ) :   0.9613 B( 10-C , 15-H ) :   0.9534

Dispersion correction           -0.015285904
FINAL SINGLE POINT ENERGY      -284.548199805468

DIPOLE MOMENT
-------------
                                X             Y             Z
Electronic contribution:      0.19022      -1.67611      -5.18659
Nuclear contribution   :     -0.59121       2.30298       4.63196
                        -----------------------------------------
Total Dipole Moment    :     -0.40098       0.62687      -0.55464
                        -----------------------------------------
Magnitude (a.u.)       :      0.92811
Magnitude (Debye)      :      2.35906

Rotational constants in cm-1:     0.205874     0.074757     0.066901
Rotational constants in MHz :  6171.937773  2241.151057  2005.629823

                             ****ORCA TERMINATED NORMALLY****
TOTAL RUN TIME: 0 days 0 hours 0 minutes 15 seconds 440 msec
