                         Program Version 5.0.0 -  RELEASE  -
|  1> !TPSS D3BJ RIJCOSX def2-TZVP def2/J TightSCF
|  2> *xyz 0 1
|  3> C         -1.10433        0.25137       -2.86006
|  4> C         -0.71189        0.84252       -4.21834
|  5> H          0.15463        1.49980       -4.13091
|  6> H         -1.53813        1.45922       -4.58267
|  7> C         -0.39762       -0.20587       -5.28802
|  8> F          0.61717       -0.00535       -5.99827
|  9> O         -1.13317       -1.22138       -5.34147
| 10> H         -1.95489       -0.38644       -2.98099
| 11> H         -1.34603        1.04362       -2.18269
| 12> H         -0.28606       -0.31581       -2.46809
| 13> *
| 14>
| 15> %MaxCore 64000
| 16>
| 17> %pal nprocs 4
| 18> end
| 19>
| 20> %scf
| 21>   MaxIter 150
| 22> end
| 23>
| 24>
| 25>                          ****END OF INPUT****

CARTESIAN COORDINATES (ANGSTROEM)
---------------------------------
  C     -1.104330    0.251370   -2.860060
  C     -0.711890    0.842520   -4.218340
  H      0.154630    1.499800   -4.130910
  H     -1.538130    1.459220   -4.582670
  C     -0.397620   -0.205870   -5.288020
  F      0.617170   -0.005350   -5.998270
  O     -1.133170   -1.221380   -5.341470
  H     -1.954890   -0.386440   -2.980990
  H     -1.346030    1.043620   -2.182690
  H     -0.286060   -0.315810   -2.468090

 Total Charge           Charge          ....    0
 Multiplicity           Mult            ....    1
 Number of Electrons    NEL             ....   40
 Basis Dimension        Dim             ....  185

ORBITAL ENERGIES
----------------

  NO   OCC          E(Eh)            E(eV)
   0   2.0000     -24.475551      -666.0136
   1   2.0000     -18.884716      -513.8793
   2   2.0000     -10.149212      -276.1741
   3   2.0000     -10.015938      -272.5475
   4   2.0000      -9.987460      -271.7726
   5   2.0000      -1.237199       -33.6659
   6   2.0000      -0.961513       -26.1641
   7   2.0000      -0.740924       -20.1616
   8   2.0000      -0.635369       -17.2893
   9   2.0000      -0.581143       -15.8137
  10   2.0000      -0.491798       -13.3825
  11   2.0000      -0.479425       -13.0458
  12   2.0000      -0.455100       -12.3839
  13   2.0000      -0.422259       -11.4902
  14   2.0000      -0.388081       -10.5602
  15   2.0000      -0.354432        -9.6446
  16   2.0000      -0.337931        -9.1956
  17   2.0000      -0.333020        -9.0619
  18   2.0000      -0.308492        -8.3945
  19   2.0000      -0.246487        -6.7073
  20   0.0000      -0.058671        -1.5965
  21   0.0000       0.023131         0.6294
  22   0.0000       0.062411         1.6983
  23   0.0000       0.076905         2.0927
  24   0.0000       0.086421         2.3516

MULLIKEN ATOMIC CHARGES
-----------------------
   0 C :   -0.330700
   1 C :   -0.192393
   2 H :    0.105111
   3 H :    0.118248
   4 C :    0.310519
   5 F :   -0.074473
   6 O :   -0.306749
   7 H :    0.137551
   8 H :    0.118852
   9 H :    0.114034
Sum of atomic charges:   -0.0000000

LOEWDIN ATOMIC CHARGES
----------------------
   0 C :   -0.280054
   1 C :   -0.258699
   2 H :    0.136498
   3 H :    0.152100
   4 C :   -0.520035
   5 F :    0.335679
   6 O :    0.077776
   7 H :    0.122992
   8 H :    0.116294
   9 H :    0.117449

  Mayer bond orders larger than 0.100000
B(  0-C ,  1-C ) :   1.0145 B(  0-C ,  7-H ) :   0.9631 B(  0-C ,  8-H ) :   0.9607
B(  0-C ,  9-H ) :   0.9720 B(  1-C ,  2-H ) :   0.9449 B(  1-C ,  3-H ) :   0.9206
B(  1-C ,  4-C ) :   1.0203 B(  4-C ,  5-F ) :   1.1808 B(  4-C ,  6-O ) :   2.0519

Dispersion correction           -0.007629259
FINAL SINGLE POINT ENERGY      -292.558054469736

DIPOLE MOMENT
-------------
                                X             Y             Z
Electronic contribution:      3.60230      -2.41096      -7.74654
Nuclear contribution   :     -3.36368       3.36392       8.24820
                        -----------------------------------------
Total Dipole Moment    :      0.23862       0.95296       0.50165
                        -----------------------------------------
Magnitude (a.u.)       :      1.10305
Magnitude (Debye)      :      2.80372

Rotational constants in cm-1:     0.315013     0.126712     0.098430
Rotational constants in MHz :  9443.861322  3798.734540  2950.846388

                             ****ORCA TERMINATED NORMALLY****
TOTAL RUN TIME: 0 days 0 hours 0 minutes 8 seconds 666 msec
