                         Program Version 5.0.0 -  RELEASE  -
|  1> !TPSS D3BJ RIJCOSX def2-TZVP def2/J TightSCF
|  2> *xyz 0 1
|  3> C          2.23447       -2.98975       -2.39762
|  4> C          2.75680       -2.94555       -3.76503
|  5> C          1.98721       -2.59045       -4.81898
|  6> N          0.74322       -3.01749       -4.91352
|  7> N          2.49964       -1.84860       -5.80324
|  8> H          3.30978       -1.29282       -5.55895
|  9> H          1.80103       -1.30430       -6.28913
| 10> H          3.71612       -2.62880       -3.82953
| 11> H          0.39583       -3.62775       -4.18502
| 12> H          0.03920       -2.45438       -5.37137
| 13> C          2.19120       -1.61950       -1.71549
| 14> H          2.87278       -3.66637       -1.82801
| 15> H          1.24619       -3.44744       -2.40784
| 16> H          1.56387       -0.96046       -2.27853
| 17> H          3.18033       -1.21449       -1.66568
| 18> H          1.79916       -1.72608       -0.72562
| 19> *
| 20>
| 21> %MaxCore 64000
| 22>
| 23> %pal nprocs 4
| 24> end
| 25>
| 26> %scf
| 27>   MaxIter 150
| 28> end
| 29>
| 30>
| 31>                          ****END OF INPUT****

CARTESIAN COORDINATES (ANGSTROEM)
---------------------------------
  C      2.234470   -2.989750   -2.397620
  C      2.756800   -2.945550   -3.765030
  C      1.987210   -2.590450   -4.818980
  N      0.743220   -3.017490   -4.913520
  N      2.499640   -1.848600   -5.803240
  H      3.309780   -1.292820   -5.558950
  H      1.801030   -1.304300   -6.289130
  H      3.716120   -2.628800   -3.829530
  H      0.395830   -3.627750   -4.185020
  H      0.039200   -2.454380   -5.371370
  C      2.191200   -1.619500   -1.715490
  H      2.872780   -3.666370   -1.828010
  H      1.246190   -3.447440   -2.407840
  H      1.563870   -0.960460   -2.278530
  H      3.180330   -1.214490   -1.665680
  H      1.799160   -1.726080   -0.725620

 Total Charge           Charge          ....    0
 Multiplicity           Mult            ....    1
 Number of Electrons    NEL             ....   48
 Basis Dimension        Dim             ....  246

ORBITAL ENERGIES
----------------

  NO   OCC          E(Eh)            E(eV)
   0   2.0000     -14.106234      -383.8502
   1   2.0000     -14.102193      -383.7402
   2   2.0000     -10.023979      -272.7663
   3   2.0000      -9.961006      -271.0528
   4   2.0000      -9.952645      -270.8252
   5   2.0000      -9.907559      -269.5984
   6   2.0000      -0.905024       -24.6270
   7   2.0000      -0.819882       -22.3101
   8   2.0000      -0.714778       -19.4501
   9   2.0000      -0.637515       -17.3477
  10   2.0000      -0.569177       -15.4881
  11   2.0000      -0.530737       -14.4421
  12   2.0000      -0.496535       -13.5114
  13   2.0000      -0.462383       -12.5821
  14   2.0000      -0.427250       -11.6261
  15   2.0000      -0.406997       -11.0750
  16   2.0000      -0.371806       -10.1173
  17   2.0000      -0.351627        -9.5683
  18   2.0000      -0.331627        -9.0240
  19   2.0000      -0.318153        -8.6574
  20   2.0000      -0.290072        -7.8933
  21   2.0000      -0.285386        -7.7658
  22   2.0000      -0.234503        -6.3811
  23   2.0000      -0.130240        -3.5440
  24   0.0000       0.000358         0.0098
  25   0.0000       0.030131         0.8199
  26   0.0000       0.045919         1.2495
  27   0.0000       0.050640         1.3780
  28   0.0000       0.066187         1.8010

MULLIKEN ATOMIC CHARGES
-----------------------
   0 C :   -0.138521
   1 C :   -0.339267
   2 C :    0.287878
   3 N :   -0.458689
   4 N :   -0.437667
   5 H :    0.241740
   6 H :    0.209688
   7 H :    0.062683
   8 H :    0.244124
   9 H :    0.213389
  10 C :   -0.280101
  11 H :    0.084079
  12 H :    0.033679
  13 H :    0.088041
  14 H :    0.091438
  15 H :    0.097506
Sum of atomic charges:   -0.0000000

LOEWDIN ATOMIC CHARGES
----------------------
   0 C :   -0.311462
   1 C :   -0.278338
   2 C :   -0.472287
   3 N :    0.009256
   4 N :   -0.013013
   5 H :    0.173908
   6 H :    0.161467
   7 H :    0.114615
   8 H :    0.176482
   9 H :    0.156644
  10 C :   -0.294579
  11 H :    0.132094
  12 H :    0.120149
  13 H :    0.108228
  14 H :    0.110130
  15 H :    0.106707

  Mayer bond orders larger than 0.100000
B(  0-C ,  1-C ) :   1.0750 B(  0-C , 10-C ) :   0.9698 B(  0-C , 11-H ) :   0.9585
B(  0-C , 12-H ) :   0.9547 B(  1-C ,  2-C ) :   1.6490 B(  1-C ,  7-H ) :   1.0083
B(  2-C ,  3-N ) :   1.1633 B(  2-C ,  4-N ) :   1.1558 B(  3-N ,  8-H ) :   0.9162
B(  3-N ,  9-H ) :   0.9053 B(  4-N ,  5-H ) :   0.9157 B(  4-N ,  6-H ) :   0.9205
B( 10-C , 13-H ) :   0.9752 B( 10-C , 14-H ) :   0.9714 B( 10-C , 15-H ) :   0.9619

Dispersion correction           -0.015914124
FINAL SINGLE POINT ENERGY      -268.059146286175

DIPOLE MOMENT
-------------
                                X             Y             Z
Electronic contribution:     -0.33749      -1.37031      -5.06122
Nuclear contribution   :     -0.44240       2.20379       4.66256
                        -----------------------------------------
Total Dipole Moment    :     -0.77988       0.83348      -0.39866
                        -----------------------------------------
Magnitude (a.u.)       :      1.20906
Magnitude (Debye)      :      3.07319

Rotational constants in cm-1:     0.209447     0.075194     0.066975
Rotational constants in MHz :  6279.068019  2254.272519  2007.845458

                             ****ORCA TERMINATED NORMALLY****
TOTAL RUN TIME: 0 days 0 hours 0 minutes 16 seconds 445 msec
