                         Program Version 5.0.0 -  RELEASE  -
|  1> !TPSS D3BJ RIJCOSX def2-TZVP def2/J TightSCF
|  2> *xyz 0 1
|  3> C         -1.10433        0.25137       -2.86006
|  4> C         -0.71189        0.84252       -4.21834
|  5> H          0.15463        1.49980       -4.13091
|  6> H         -1.53813        1.45922       -4.58267
|  7> C         -0.39762       -0.20587       -5.28802
|  8> O          0.61717       -0.00535       -5.99827
|  9> F         -1.13317       -1.22138       -5.34147
| 10> H         -1.95489       -0.38644       -2.98099
| 11> H         -1.34603        1.04362       -2.18269
| 12> H         -0.28606       -0.31581       -2.46809
| 13> *
| 14>
| 15> %MaxCore 64000
| 16>
| 17> %pal nprocs 4
| 18> end
| 19>
| 20> %scf
| 21>   MaxIter 150
| 22> end
| 23>
| 24>
| 25>                          ****END OF INPUT****

CARTESIAN COORDINATES (ANGSTROEM)
---------------------------------
  C     -1.104330    0.251370   -2.860060
  C     -0.711890    0.842520   -4.218340
  H      0.154630    1.499800   -4.130910
  H     -1.538130    1.459220   -4.582670
  C     -0.397620   -0.205870   -5.288020
  O      0.617170   -0.005350   -5.998270
  F     -1.133170   -1.221380   -5.341470
  H     -1.954890   -0.386440   -2.980990
  H     -1.346030    1.043620   -2.182690
  H     -0.286060   -0.315810   -2.468090

 Total Charge           Charge          ....    0
 Multiplicity           Mult            ....    1
 Number of Electrons    NEL             ....   40
 Basis Dimension        Dim             ....  185

ORBITAL ENERGIES
----------------

  NO   OCC          E(Eh)            E(eV)
   0   2.0000     -24.476235      -666.0322
   1   2.0000     -18.883432      -513.8443
   2   2.0000     -10.148528      -276.1555
   3   2.0000     -10.015233      -272.5284
   4   2.0000      -9.992791      -271.9177
   5   2.0000      -1.237643       -33.6780
   6   2.0000      -0.960342       -26.1322
   7   2.0000      -0.744863       -20.2687
   8   2.0000      -0.631069       -17.1723
   9   2.0000      -0.588056       -16.0018
  10   2.0000      -0.494100       -13.4451
  11   2.0000      -0.484611       -13.1869
  12   2.0000      -0.447062       -12.1652
  13   2.0000      -0.423106       -11.5133
  14   2.0000      -0.390153       -10.6166
  15   2.0000      -0.357975        -9.7410
  16   2.0000      -0.344433        -9.3725
  17   2.0000      -0.337526        -9.1845
  18   2.0000      -0.308861        -8.4045
  19   2.0000      -0.241908        -6.5826
  20   0.0000      -0.056719        -1.5434
  21   0.0000       0.018061         0.4915
  22   0.0000       0.062641         1.7046
  23   0.0000       0.080184         2.1819
  24   0.0000       0.088465         2.4073

MULLIKEN ATOMIC CHARGES
-----------------------
   0 C :   -0.338421
   1 C :   -0.188518
   2 H :    0.130693
   3 H :    0.111334
   4 C :    0.302172
   5 O :   -0.303045
   6 F :   -0.077961
   7 H :    0.118569
   8 H :    0.123781
   9 H :    0.121397
Sum of atomic charges:   -0.0000000

LOEWDIN ATOMIC CHARGES
----------------------
   0 C :   -0.289533
   1 C :   -0.253933
   2 H :    0.149763
   3 H :    0.148140
   4 C :   -0.520781
   5 O :    0.075666
   6 F :    0.337912
   7 H :    0.116679
   8 H :    0.118118
   9 H :    0.117969

  Mayer bond orders larger than 0.100000
B(  0-C ,  1-C ) :   0.9964 B(  0-C ,  7-H ) :   0.9655 B(  0-C ,  8-H ) :   0.9617
B(  0-C ,  9-H ) :   0.9710 B(  1-C ,  2-H ) :   0.9501 B(  1-C ,  3-H ) :   0.9215
B(  1-C ,  4-C ) :   1.0358 B(  4-C ,  5-O ) :   2.0685 B(  4-C ,  6-F ) :   1.1697

Dispersion correction           -0.007569406
FINAL SINGLE POINT ENERGY      -292.557151561864

DIPOLE MOMENT
-------------
                                X             Y             Z
Electronic contribution:      0.71162      -4.39602      -6.63823
Nuclear contribution   :     -1.45527       4.68977       7.53208
                        -----------------------------------------
Total Dipole Moment    :     -0.74364       0.29375       0.89385
                        -----------------------------------------
Magnitude (a.u.)       :      1.19928
Magnitude (Debye)      :      3.04832

Rotational constants in cm-1:     0.298240     0.132464     0.099915
Rotational constants in MHz :  8940.998095  3971.171647  2995.369122

                             ****ORCA TERMINATED NORMALLY****
TOTAL RUN TIME: 0 days 0 hours 0 minutes 8 seconds 623 msec
