                         Program Version 5.0.0 -  RELEASE  -
|  1> !TPSS D3BJ RIJCOSX def2-TZVP def2/J TightSCF
|  2> *xyz 0 1
|  3> C          2.23447       -2.98975       -2.39762
|  4> N          2.75680       -2.94555       -3.76503
|  5> C          1.98721       -2.59045       -4.81898
|  6> C          0.74322       -3.01749       -4.91352
|  7> N          2.49964       -1.84860       -5.80324
|  8> H          3.30978       -1.29282       -5.55895
|  9> H          1.80103       -1.30430       -6.28913
| 10> H          3.71612       -2.62880       -3.82953
| 11> H          0.39583       -3.62775       -4.18502
| 12> H          0.03920       -2.45438       -5.37137
| 13> C          2.19120       -1.61950       -1.71549
| 14> H          2.87278       -3.66637       -1.82801
| 15> H          1.24619       -3.44744       -2.40784
| 16> H          1.56387       -0.96046       -2.27853
| 17> H          3.18033       -1.21449       -1.66568
| 18> H          1.79916       -1.72608       -0.72562
| 19> *
| 20>
| 21> %MaxCore 64000
| 22>
| 23> %pal nprocs 4
| 24> end
| 25>
| 26> %scf
| 27>   MaxIter 150
| 28> end
| 29>
| 30>
| 31>                          ****END OF INPUT****

CARTESIAN COORDINATES (ANGSTROEM)
---------------------------------
  C      2.234470   -2.989750   -2.397620
  N      2.756800   -2.945550   -3.765030
  C      1.987210   -2.590450   -4.818980
  C      0.743220   -3.017490   -4.913520
  N      2.499640   -1.848600   -5.803240
  H      3.309780   -1.292820   -5.558950
  H      1.801030   -1.304300   -6.289130
  H      3.716120   -2.628800   -3.829530
  H      0.395830   -3.627750   -4.185020
  H      0.039200   -2.454380   -5.371370
  C      2.191200   -1.619500   -1.715490
  H      2.872780   -3.666370   -1.828010
  H      1.246190   -3.447440   -2.407840
  H      1.563870   -0.960460   -2.278530
  H      3.180330   -1.214490   -1.665680
  H      1.799160   -1.726080   -0.725620

 Total Charge           Charge          ....    0
 Multiplicity           Mult            ....    1
 Number of Electrons    NEL             ....   48
 Basis Dimension        Dim             ....  246

ORBITAL ENERGIES
----------------

  NO   OCC          E(Eh)            E(eV)
   0   2.0000     -14.101942      -383.7334
   1   2.0000     -14.100305      -383.6888
   2   2.0000     -10.021335      -272.6944
   3   2.0000     -10.017311      -272.5849
   4   2.0000      -9.973989      -271.4060
   5   2.0000      -9.900646      -269.4103
   6   2.0000      -0.901515       -24.5315
   7   2.0000      -0.827093       -22.5063
   8   2.0000      -0.700482       -19.0611
   9   2.0000      -0.658666       -17.9232
  10   2.0000      -0.590456       -16.0671
  11   2.0000      -0.515534       -14.0284
  12   2.0000      -0.495667       -13.4878
  13   2.0000      -0.467997       -12.7348
  14   2.0000      -0.418134       -11.3780
  15   2.0000      -0.405727       -11.0404
  16   2.0000      -0.373244       -10.1565
  17   2.0000      -0.355683        -9.6786
  18   2.0000      -0.354546        -9.6477
  19   2.0000      -0.333228        -9.0676
  20   2.0000      -0.318263        -8.6604
  21   2.0000      -0.311790        -8.4842
  22   2.0000      -0.213415        -5.8073
  23   2.0000      -0.145273        -3.9531
  24   0.0000       0.006466         0.1760
  25   0.0000       0.031163         0.8480
  26   0.0000       0.043927         1.1953
  27   0.0000       0.055619         1.5135
  28   0.0000       0.071307         1.9404

MULLIKEN ATOMIC CHARGES
-----------------------
   0 C :   -0.062393
   1 N :   -0.312627
   2 C :    0.304616
   3 C :   -0.481752
   4 N :   -0.441611
   5 H :    0.199534
   6 H :    0.236789
   7 H :    0.182234
   8 H :    0.081954
   9 H :    0.093716
  10 C :   -0.332205
  11 H :    0.100638
  12 H :    0.104769
  13 H :    0.123633
  14 H :    0.093744
  15 H :    0.108960
Sum of atomic charges:    0.0000000

LOEWDIN ATOMIC CHARGES
----------------------
   0 C :   -0.296499
   1 N :    0.107828
   2 C :   -0.472437
   3 C :   -0.313845
   4 N :   -0.016103
   5 H :    0.151855
   6 H :    0.177181
   7 H :    0.170889
   8 H :    0.098459
   9 H :    0.096569
  10 C :   -0.301523
  11 H :    0.124914
  12 H :    0.133207
  13 H :    0.116476
  14 H :    0.108205
  15 H :    0.114826

  Mayer bond orders larger than 0.100000
B(  0-C ,  1-N ) :   0.9684 B(  0-C , 10-C ) :   1.0092 B(  0-C , 11-H ) :   0.9607
B(  0-C , 12-H ) :   0.9543 B(  1-N ,  2-C ) :   1.1359 B(  1-N ,  7-H ) :   0.9265
B(  2-C ,  3-C ) :   1.6574 B(  2-C ,  4-N ) :   1.1616 B(  3-C ,  8-H ) :   0.9998
B(  3-C ,  9-H ) :   0.9677 B(  4-N ,  5-H ) :   0.9157 B(  4-N ,  6-H ) :   0.9139
B( 10-C , 13-H ) :   0.9698 B( 10-C , 14-H ) :   0.9691 B( 10-C , 15-H ) :   0.9608

Dispersion correction           -0.015832287
FINAL SINGLE POINT ENERGY      -268.056477342320

DIPOLE MOMENT
-------------
                                X             Y             Z
Electronic contribution:      1.52692      -1.25300      -3.86688
Nuclear contribution   :     -0.86957       2.18853       4.41892
                        -----------------------------------------
Total Dipole Moment    :      0.65736       0.93552       0.55204
                        -----------------------------------------
Magnitude (a.u.)       :      1.26967
Magnitude (Debye)      :      3.22725

Rotational constants in cm-1:     0.214718     0.075736     0.068547
Rotational constants in MHz :  6437.075121  2270.519635  2054.974198

                             ****ORCA TERMINATED NORMALLY****
TOTAL RUN TIME: 0 days 0 hours 0 minutes 15 seconds 670 msec
