                         Program Version 5.0.0 -  RELEASE  -
|  1> !TPSS D3BJ RIJCOSX def2-TZVP def2/J TightSCF
|  2> *xyz 0 1
|  3> C          2.23447       -2.98975       -2.39762
|  4> N          2.75680       -2.94555       -3.76503
|  5> C          1.98721       -2.59045       -4.81898
|  6> N          0.74322       -3.01749       -4.91352
|  7> C          2.49964       -1.84860       -5.80324
|  8> H          3.30978       -1.29282       -5.55895
|  9> H          1.80103       -1.30430       -6.28913
| 10> H          3.71612       -2.62880       -3.82953
| 11> H          0.39583       -3.62775       -4.18502
| 12> H          0.03920       -2.45438       -5.37137
| 13> C          2.19120       -1.61950       -1.71549
| 14> H          2.87278       -3.66637       -1.82801
| 15> H          1.24619       -3.44744       -2.40784
| 16> H          1.56387       -0.96046       -2.27853
| 17> H          3.18033       -1.21449       -1.66568
| 18> H          1.79916       -1.72608       -0.72562
| 19> *
| 20>
| 21> %MaxCore 64000
| 22>
| 23> %pal nprocs 4
| 24> end
| 25>
| 26> %scf
| 27>   MaxIter 150
| 28> end
| 29>
| 30>
| 31>                          ****END OF INPUT****

CARTESIAN COORDINATES (ANGSTROEM)
---------------------------------
  C      2.234470   -2.989750   -2.397620
  N      2.756800   -2.945550   -3.765030
  C      1.987210   -2.590450   -4.818980
  N      0.743220   -3.017490   -4.913520
  C      2.499640   -1.848600   -5.803240
  H      3.309780   -1.292820   -5.558950
  H      1.801030   -1.304300   -6.289130
  H      3.716120   -2.628800   -3.829530
  H      0.395830   -3.627750   -4.185020
  H      0.039200   -2.454380   -5.371370
  C      2.191200   -1.619500   -1.715490
  H      2.872780   -3.666370   -1.828010
  H      1.246190   -3.447440   -2.407840
  H      1.563870   -0.960460   -2.278530
  H      3.180330   -1.214490   -1.665680
  H      1.799160   -1.726080   -0.725620

 Total Charge           Charge          ....    0
 Multiplicity           Mult            ....    1
 Number of Electrons    NEL             ....   48
 Basis Dimension        Dim             ....  246

ORBITAL ENERGIES
----------------

  NO   OCC          E(Eh)            E(eV)
   0   2.0000     -14.103577      -383.7778
   1   2.0000     -14.100911      -383.7053
   2   2.0000     -10.025122      -272.7975
   3   2.0000     -10.024169      -272.7715
   4   2.0000      -9.977752      -271.5084
   5   2.0000      -9.895887      -269.2808
   6   2.0000      -0.903316       -24.5805
   7   2.0000      -0.827513       -22.5178
   8   2.0000      -0.711560       -19.3625
   9   2.0000      -0.652571       -17.7574
  10   2.0000      -0.581011       -15.8101
  11   2.0000      -0.551967       -15.0198
  12   2.0000      -0.492444       -13.4001
  13   2.0000      -0.447797       -12.1852
  14   2.0000      -0.445392       -12.1197
  15   2.0000      -0.398750       -10.8506
  16   2.0000      -0.386040       -10.5047
  17   2.0000      -0.359989        -9.7958
  18   2.0000      -0.337999        -9.1974
  19   2.0000      -0.330079        -8.9819
  20   2.0000      -0.323867        -8.8129
  21   2.0000      -0.316498        -8.6123
  22   2.0000      -0.215764        -5.8712
  23   2.0000      -0.140483        -3.8227
  24   0.0000       0.007683         0.2091
  25   0.0000       0.028034         0.7628
  26   0.0000       0.035817         0.9746
  27   0.0000       0.052257         1.4220
  28   0.0000       0.065450         1.7810

MULLIKEN ATOMIC CHARGES
-----------------------
   0 C :   -0.103074
   1 N :   -0.298692
   2 C :    0.281172
   3 N :   -0.461384
   4 C :   -0.433270
   5 H :    0.070190
   6 H :    0.067648
   7 H :    0.213136
   8 H :    0.219224
   9 H :    0.244950
  10 C :   -0.310505
  11 H :    0.109376
  12 H :    0.073470
  13 H :    0.118877
  14 H :    0.102209
  15 H :    0.106672
Sum of atomic charges:   -0.0000000

LOEWDIN ATOMIC CHARGES
----------------------
   0 C :   -0.312161
   1 N :    0.108265
   2 C :   -0.472006
   3 N :    0.011402
   4 C :   -0.344289
   5 H :    0.093835
   6 H :    0.098809
   7 H :    0.188335
   8 H :    0.160717
   9 H :    0.175751
  10 C :   -0.298494
  11 H :    0.126599
  12 H :    0.120128
  13 H :    0.116567
  14 H :    0.112503
  15 H :    0.114039

  Mayer bond orders larger than 0.100000
B(  0-C ,  1-N ) :   0.9959 B(  0-C , 10-C ) :   0.9976 B(  0-C , 11-H ) :   0.9617
B(  0-C , 12-H ) :   0.9633 B(  1-N ,  2-C ) :   1.1778 B(  1-N ,  7-H ) :   0.9202
B(  2-C ,  3-N ) :   1.1301 B(  2-C ,  4-C ) :   1.7295 B(  3-N ,  8-H ) :   0.9238
B(  3-N ,  9-H ) :   0.9101 B(  4-C ,  5-H ) :   0.9979 B(  4-C ,  6-H ) :   0.9863
B( 10-C , 13-H ) :   0.9706 B( 10-C , 14-H ) :   0.9681 B( 10-C , 15-H ) :   0.9595

Dispersion correction           -0.015780591
FINAL SINGLE POINT ENERGY      -268.050980359047

DIPOLE MOMENT
-------------
                                X             Y             Z
Electronic contribution:     -0.13456      -2.41718      -2.97568
Nuclear contribution   :     -0.49695       2.43650       4.23017
                        -----------------------------------------
Total Dipole Moment    :     -0.63151       0.01932       1.25449
                        -----------------------------------------
Magnitude (a.u.)       :      1.40461
Magnitude (Debye)      :      3.57023

Rotational constants in cm-1:     0.211102     0.077011     0.069221
Rotational constants in MHz :  6328.667765  2308.731604  2075.192956

                             ****ORCA TERMINATED NORMALLY****
TOTAL RUN TIME: 0 days 0 hours 0 minutes 15 seconds 233 msec
