                         Program Version 5.0.0 -  RELEASE  -
|  1> !TPSS D3BJ RIJCOSX def2-TZVP def2/J TightSCF xyzfile
|  2>
|  3> *xyzfile 0 1 D4.xyz
|  4>
|  5> %MaxCore 64000
|  6>
|  7> %pal nprocs 18
|  8> end
|  9>
| 10> %scf
| 11>   MaxIter 150
| 12> end
| 13>
| 14>
| 15>                          ****END OF INPUT****

CARTESIAN COORDINATES (ANGSTROEM)
---------------------------------
  C      2.234473   -2.989754   -2.397622
  C      2.756799   -2.945553   -3.765029
  C     -1.104325    0.251374   -2.860056
  C     -0.711893    0.842517   -4.218344
  H      0.154626    1.499800   -4.130909
  H     -1.538134    1.459222   -4.582671
  C     -0.397624   -0.205875   -5.288018
  C      1.987208   -2.590451   -4.818975
  N      0.743221   -3.017493   -4.913524
  N      2.499636   -1.848598   -5.803241
  H      3.309780   -1.292818   -5.558947
  H      1.801025   -1.304298   -6.289129
  H      3.716116   -2.628797   -3.829533
  H      0.395828   -3.627747   -4.185024
  H      0.039201   -2.454383   -5.371367
  O      0.617165   -0.005348   -5.998273
  F     -1.133173   -1.221380   -5.341465
  C      2.191199   -1.619503   -1.715492
  H      2.872783   -3.666368   -1.828014
  H      1.246188   -3.447444   -2.407842
  C      1.298729   -0.554314   -2.359773
  H      1.872917   -1.787955   -0.681310
  H      3.216809   -1.238432   -1.654428
  C     -0.196255   -0.863365   -2.325763
  H      1.612531   -0.371346   -3.393065
  H      1.480944    0.388638   -1.834444
  H     -0.404105   -1.761825   -2.909448
  H     -0.490439   -1.087880   -1.294131
  H     -1.143842    1.066711   -2.129680
  H     -2.114401   -0.156834   -2.930323

 Total Charge           Charge          ....    0
 Multiplicity           Mult            ....    1
 Number of Electrons    NEL             ....  102
 Basis Dimension        Dim             ....  505

ORBITAL ENERGIES
----------------

  NO   OCC          E(Eh)            E(eV)
   0   2.0000     -24.508501      -666.9102
   1   2.0000     -18.913880      -514.6728
   2   2.0000     -14.092211      -383.4685
   3   2.0000     -14.077288      -383.0625
   4   2.0000     -10.172404      -276.8052
   5   2.0000     -10.025787      -272.8155
   6   2.0000     -10.013450      -272.4798
   7   2.0000     -10.005947      -272.2757
   8   2.0000      -9.988408      -271.7984
   9   2.0000      -9.978223      -271.5212
  10   2.0000      -9.967642      -271.2333
  11   2.0000      -9.958690      -270.9897
  12   2.0000      -9.899590      -269.3815
  13   2.0000      -1.272709       -34.6322
  14   2.0000      -0.993546       -27.0358
  15   2.0000      -0.891461       -24.2579
  16   2.0000      -0.804819       -21.9002
  17   2.0000      -0.773186       -21.0395
  18   2.0000      -0.731982       -19.9182
  19   2.0000      -0.695524       -18.9262
  20   2.0000      -0.649860       -17.6836
  21   2.0000      -0.631753       -17.1909
  22   2.0000      -0.602963       -16.4075
  23   2.0000      -0.564679       -15.3657
  24   2.0000      -0.540985       -14.7210
  25   2.0000      -0.529201       -14.4003
  26   2.0000      -0.516223       -14.0471
  27   2.0000      -0.512123       -13.9356
  28   2.0000      -0.478088       -13.0094
  29   2.0000      -0.470004       -12.7895
  30   2.0000      -0.442867       -12.0510
  31   2.0000      -0.440081       -11.9752
  32   2.0000      -0.430825       -11.7233
  33   2.0000      -0.410908       -11.1814
  34   2.0000      -0.397909       -10.8277
  35   2.0000      -0.393996       -10.7212
  36   2.0000      -0.383554       -10.4370
  37   2.0000      -0.362534        -9.8650
  38   2.0000      -0.356331        -9.6963
  39   2.0000      -0.350035        -9.5249
  40   2.0000      -0.346015        -9.4155
  41   2.0000      -0.325380        -8.8540
  42   2.0000      -0.319727        -8.7002
  43   2.0000      -0.308349        -8.3906
  44   2.0000      -0.300980        -8.1901
  45   2.0000      -0.288366        -7.8468
  46   2.0000      -0.279200        -7.5974
  47   2.0000      -0.272394        -7.4122
  48   2.0000      -0.266174        -7.2430
  49   2.0000      -0.218625        -5.9491
  50   2.0000      -0.121745        -3.3128
  51   0.0000      -0.082992        -2.2583
  52   0.0000       0.006912         0.1881
  53   0.0000       0.030183         0.8213
  54   0.0000       0.036806         1.0015
  55   0.0000       0.041086         1.1180

MULLIKEN ATOMIC CHARGES
-----------------------
   0 C :   -0.197273
   1 C :   -0.274642
   2 C :   -0.157638
   3 C :   -0.170996
   4 H :    0.133894
   5 H :    0.127946
   6 C :    0.308948
   7 C :    0.090163
   8 N :   -0.405792
   9 N :   -0.366663
  10 H :    0.228661
  11 H :    0.227307
  12 H :    0.058170
  13 H :    0.233183
  14 H :    0.212619
  15 O :   -0.341541
  16 F :   -0.092554
  17 C :   -0.066070
  18 H :    0.085143
  19 H :    0.063690
  20 C :   -0.159848
  21 H :    0.061004
  22 H :    0.068776
  23 C :   -0.212164
  24 H :    0.118970
  25 H :    0.071475
  26 H :    0.068957
  27 H :    0.087653
  28 H :    0.099180
  29 H :    0.099443
Sum of atomic charges:    0.0000000

LOEWDIN ATOMIC CHARGES
----------------------
   0 C :   -0.291110
   1 C :   -0.273453
   2 C :   -0.259184
   3 C :   -0.227354
   4 H :    0.155182
   5 H :    0.153502
   6 C :   -0.521753
   7 C :   -0.487077
   8 N :    0.018461
   9 N :    0.002565
  10 H :    0.170144
  11 H :    0.149341
  12 H :    0.114907
  13 H :    0.170738
  14 H :    0.144360
  15 O :    0.083227
  16 F :    0.347815
  17 C :   -0.253363
  18 H :    0.135907
  19 H :    0.123434
  20 C :   -0.262473
  21 H :    0.128057
  22 H :    0.133198
  23 C :   -0.266385
  24 H :    0.139317
  25 H :    0.133236
  26 H :    0.125711
  27 H :    0.136864
  28 H :    0.139653
  29 H :    0.136532

  Mayer bond orders larger than 0.100000
B(  0-C ,  1-C ) :   1.0445 B(  0-C , 17-C ) :   0.9728 B(  0-C , 18-H ) :   0.9483
B(  0-C , 19-H ) :   0.9685 B(  1-C ,  7-C ) :   1.6878 B(  1-C , 12-H ) :   0.9980
B(  2-C ,  3-C ) :   0.9908 B(  2-C , 23-C ) :   1.0086 B(  2-C , 28-H ) :   0.9358
B(  2-C , 29-H ) :   0.9538 B(  3-C ,  4-H ) :   0.9414 B(  3-C ,  5-H ) :   0.9137
B(  3-C ,  6-C ) :   1.0510 B(  6-C , 15-O ) :   1.9366 B(  6-C , 16-F ) :   1.1180
B(  7-C ,  8-N ) :   1.1970 B(  7-C ,  9-N ) :   1.1941 B(  8-N , 13-H ) :   0.9151
B(  8-N , 14-H ) :   0.8935 B(  9-N , 10-H ) :   0.9208 B(  9-N , 11-H ) :   0.8875
B( 17-C , 20-C ) :   1.0402 B( 17-C , 21-H ) :   0.9305 B( 17-C , 22-H ) :   0.9383
B( 20-C , 23-C ) :   1.0102 B( 20-C , 24-H ) :   0.9316 B( 20-C , 25-H ) :   0.9422
B( 23-C , 26-H ) :   0.9554 B( 23-C , 27-H ) :   0.9451

Dispersion correction           -0.043918870
FINAL SINGLE POINT ENERGY      -638.080639772195

DIPOLE MOMENT
-------------
                                X             Y             Z
Electronic contribution:     -5.88409       0.10243     -13.49763
Nuclear contribution   :      4.38568       1.15960      13.97148
                        -----------------------------------------
Total Dipole Moment    :     -1.49841       1.26203       0.47385
                        -----------------------------------------
Magnitude (a.u.)       :      2.01556
Magnitude (Debye)      :      5.12315

Rotational constants in cm-1:     0.032892     0.023844     0.017123
Rotational constants in MHz :   986.091711   714.821905   513.334630

                             ****ORCA TERMINATED NORMALLY****
TOTAL RUN TIME: 0 days 0 hours 0 minutes 27 seconds 93 msec
