                         Program Version 5.0.0 -  RELEASE  -
|  1> !TPSS D3BJ RIJCOSX def2-TZVP def2/J TightSCF xyzfile
|  2>
|  3> *xyzfile 0 1 D5.xyz
|  4>
|  5> %MaxCore 64000
|  6>
|  7> %pal nprocs 18
|  8> end
|  9>
| 10> %scf
| 11>   MaxIter 150
| 12> end
| 13>
| 14>
| 15>                          ****END OF INPUT****

CARTESIAN COORDINATES (ANGSTROEM)
---------------------------------
  C      2.234473   -2.989754   -2.397622
  N      2.756799   -2.945553   -3.765029
  C     -1.104325    0.251374   -2.860056
  C     -0.711893    0.842517   -4.218344
  H      0.154626    1.499800   -4.130909
  H     -1.538134    1.459222   -4.582671
  C     -0.397624   -0.205875   -5.288018
  C      1.987208   -2.590451   -4.818975
  C      0.743221   -3.017493   -4.913524
  N      2.499636   -1.848598   -5.803241
  H      3.309780   -1.292818   -5.558947
  H      1.801025   -1.304298   -6.289129
  H      3.716116   -2.628797   -3.829533
  H      0.395828   -3.627747   -4.185024
  H      0.039201   -2.454383   -5.371367
  O      0.617165   -0.005348   -5.998273
  F     -1.133173   -1.221380   -5.341465
  C      2.191199   -1.619503   -1.715492
  H      2.872783   -3.666368   -1.828014
  H      1.246188   -3.447444   -2.407842
  C      1.298729   -0.554314   -2.359773
  H      1.872917   -1.787955   -0.681310
  H      3.216809   -1.238432   -1.654428
  C     -0.196255   -0.863365   -2.325763
  H      1.612531   -0.371346   -3.393065
  H      1.480944    0.388638   -1.834444
  H     -0.404105   -1.761825   -2.909448
  H     -0.490439   -1.087880   -1.294131
  H     -1.143842    1.066711   -2.129680
  H     -2.114401   -0.156834   -2.930323

 Total Charge           Charge          ....    0
 Multiplicity           Mult            ....    1
 Number of Electrons    NEL             ....  102
 Basis Dimension        Dim             ....  505

ORBITAL ENERGIES
----------------

  NO   OCC          E(Eh)            E(eV)
   0   2.0000     -24.481351      -666.1714
   1   2.0000     -18.898175      -514.2455
   2   2.0000     -14.094061      -383.5189
   3   2.0000     -14.075629      -383.0173
   4   2.0000     -10.159206      -276.4461
   5   2.0000     -10.017455      -272.5888
   6   2.0000     -10.013767      -272.4884
   7   2.0000     -10.010734      -272.4059
   8   2.0000     -10.000739      -272.1339
   9   2.0000      -9.985936      -271.7311
  10   2.0000      -9.984799      -271.7002
  11   2.0000      -9.984220      -271.6844
  12   2.0000      -9.888332      -269.0752
  13   2.0000      -1.247018       -33.9331
  14   2.0000      -0.978221       -26.6188
  15   2.0000      -0.889527       -24.2052
  16   2.0000      -0.814133       -22.1537
  17   2.0000      -0.767062       -20.8728
  18   2.0000      -0.727490       -19.7960
  19   2.0000      -0.679064       -18.4783
  20   2.0000      -0.650998       -17.7146
  21   2.0000      -0.632429       -17.2093
  22   2.0000      -0.604653       -16.4534
  23   2.0000      -0.568721       -15.4757
  24   2.0000      -0.535826       -14.5806
  25   2.0000      -0.517597       -14.0845
  26   2.0000      -0.495990       -13.4966
  27   2.0000      -0.491662       -13.3788
  28   2.0000      -0.481149       -13.0927
  29   2.0000      -0.468702       -12.7540
  30   2.0000      -0.441854       -12.0235
  31   2.0000      -0.437441       -11.9034
  32   2.0000      -0.428740       -11.6666
  33   2.0000      -0.407222       -11.0811
  34   2.0000      -0.401980       -10.9384
  35   2.0000      -0.376217       -10.2374
  36   2.0000      -0.372432       -10.1344
  37   2.0000      -0.369444       -10.0531
  38   2.0000      -0.351046        -9.5524
  39   2.0000      -0.342434        -9.3181
  40   2.0000      -0.338075        -9.1995
  41   2.0000      -0.332557        -9.0493
  42   2.0000      -0.321868        -8.7585
  43   2.0000      -0.319235        -8.6868
  44   2.0000      -0.302521        -8.2320
  45   2.0000      -0.295574        -8.0430
  46   2.0000      -0.291326        -7.9274
  47   2.0000      -0.286209        -7.7881
  48   2.0000      -0.255669        -6.9571
  49   2.0000      -0.200494        -5.4557
  50   2.0000      -0.136493        -3.7142
  51   0.0000      -0.068030        -1.8512
  52   0.0000       0.010709         0.2914
  53   0.0000       0.022744         0.6189
  54   0.0000       0.038811         1.0561
  55   0.0000       0.040598         1.1047

MULLIKEN ATOMIC CHARGES
-----------------------
   0 C :   -0.129428
   1 N :   -0.271409
   2 C :   -0.155713
   3 C :   -0.170512
   4 H :    0.126791
   5 H :    0.124224
   6 C :    0.318974
   7 C :    0.159510
   8 C :   -0.474897
   9 N :   -0.378263
  10 H :    0.189628
  11 H :    0.247496
  12 H :    0.183205
  13 H :    0.081319
  14 H :    0.110670
  15 O :   -0.357734
  16 F :   -0.069956
  17 C :   -0.150779
  18 H :    0.108773
  19 H :    0.123336
  20 C :   -0.150834
  21 H :    0.073653
  22 H :    0.082061
  23 C :   -0.204037
  24 H :    0.121136
  25 H :    0.074913
  26 H :    0.115602
  27 H :    0.078661
  28 H :    0.095065
  29 H :    0.098543
Sum of atomic charges:    0.0000000

LOEWDIN ATOMIC CHARGES
----------------------
   0 C :   -0.276345
   1 N :    0.113643
   2 C :   -0.258445
   3 C :   -0.227608
   4 H :    0.152637
   5 H :    0.152237
   6 C :   -0.511614
   7 C :   -0.487577
   8 C :   -0.314839
   9 N :   -0.001974
  10 H :    0.148823
  11 H :    0.162498
  12 H :    0.171348
  13 H :    0.094469
  14 H :    0.090660
  15 O :    0.076807
  16 F :    0.357799
  17 C :   -0.265263
  18 H :    0.128835
  19 H :    0.135341
  20 C :   -0.262969
  21 H :    0.134790
  22 H :    0.130850
  23 C :   -0.265565
  24 H :    0.140351
  25 H :    0.133579
  26 H :    0.137609
  27 H :    0.134262
  28 H :    0.137704
  29 H :    0.137955

  Mayer bond orders larger than 0.100000
B(  0-C ,  1-N ) :   0.9613 B(  0-C , 17-C ) :   1.0195 B(  0-C , 18-H ) :   0.9558
B(  0-C , 19-H ) :   0.9651 B(  1-N ,  7-C ) :   1.1453 B(  1-N , 12-H ) :   0.9192
B(  2-C ,  3-C ) :   0.9942 B(  2-C , 23-C ) :   1.0146 B(  2-C , 28-H ) :   0.9374
B(  2-C , 29-H ) :   0.9509 B(  3-C ,  4-H ) :   0.9429 B(  3-C ,  5-H ) :   0.9145
B(  3-C ,  6-C ) :   1.0479 B(  6-C , 15-O ) :   1.9178 B(  6-C , 16-F ) :   1.1592
B(  7-C ,  8-C ) :   1.6150 B(  7-C ,  9-N ) :   1.2089 B(  8-C , 13-H ) :   1.0034
B(  8-C , 14-H ) :   0.9828 B(  9-N , 10-H ) :   0.9204 B(  9-N , 11-H ) :   0.8741
B( 17-C , 20-C ) :   1.0166 B( 17-C , 21-H ) :   0.9367 B( 17-C , 22-H ) :   0.9492
B( 20-C , 23-C ) :   1.0082 B( 20-C , 24-H ) :   0.9352 B( 20-C , 25-H ) :   0.9435
B( 23-C , 26-H ) :   0.9532 B( 23-C , 27-H ) :   0.9434

Dispersion correction           -0.043991777
FINAL SINGLE POINT ENERGY      -638.073011229856

DIPOLE MOMENT
-------------
                                X             Y             Z
Electronic contribution:     -4.27642       0.10791     -12.49459
Nuclear contribution   :      4.07548       1.14852      13.79455
                        -----------------------------------------
Total Dipole Moment    :     -0.20093       1.25643       1.29996
                        -----------------------------------------
Magnitude (a.u.)       :      1.81903
Magnitude (Debye)      :      4.62362

Rotational constants in cm-1:     0.033274     0.023559     0.016968
Rotational constants in MHz :   997.539108   706.293545   508.690532

                             ****ORCA TERMINATED NORMALLY****
TOTAL RUN TIME: 0 days 0 hours 0 minutes 25 seconds 658 msec
