                         Program Version 5.0.0 -  RELEASE  -
|  1> !TPSS D3BJ RIJCOSX def2-TZVP def2/J TightSCF xyzfile
|  2>
|  3> *xyzfile 0 1 D6.xyz
|  4>
|  5> %MaxCore 64000
|  6>
|  7> %pal nprocs 18
|  8> end
|  9>
| 10> %scf
| 11>   MaxIter 150
| 12> end
| 13>
| 14>
| 15>                          ****END OF INPUT****

CARTESIAN COORDINATES (ANGSTROEM)
---------------------------------
  C      2.234473   -2.989754   -2.397622
  N      2.756799   -2.945553   -3.765029
  C     -1.104325    0.251374   -2.860056
  C     -0.711893    0.842517   -4.218344
  H      0.154626    1.499800   -4.130909
  H     -1.538134    1.459222   -4.582671
  C     -0.397624   -0.205875   -5.288018
  C      1.987208   -2.590451   -4.818975
  N      0.743221   -3.017493   -4.913524
  C      2.499636   -1.848598   -5.803241
  H      3.309780   -1.292818   -5.558947
  H      1.801025   -1.304298   -6.289129
  H      3.716116   -2.628797   -3.829533
  H      0.395828   -3.627747   -4.185024
  H      0.039201   -2.454383   -5.371367
  O      0.617165   -0.005348   -5.998273
  F     -1.133173   -1.221380   -5.341465
  C      2.191199   -1.619503   -1.715492
  H      2.872783   -3.666368   -1.828014
  H      1.246188   -3.447444   -2.407842
  C      1.298729   -0.554314   -2.359773
  H      1.872917   -1.787955   -0.681310
  H      3.216809   -1.238432   -1.654428
  C     -0.196255   -0.863365   -2.325763
  H      1.612531   -0.371346   -3.393065
  H      1.480944    0.388638   -1.834444
  H     -0.404105   -1.761825   -2.909448
  H     -0.490439   -1.087880   -1.294131
  H     -1.143842    1.066711   -2.129680
  H     -2.114401   -0.156834   -2.930323

 Total Charge           Charge          ....    0
 Multiplicity           Mult            ....    1
 Number of Electrons    NEL             ....  102
 Basis Dimension        Dim             ....  505

ORBITAL ENERGIES
----------------

  NO   OCC          E(Eh)            E(eV)
   0   2.0000     -24.494979      -666.5423
   1   2.0000     -18.894822      -514.1543
   2   2.0000     -14.092874      -383.4866
   3   2.0000     -14.090346      -383.4178
   4   2.0000     -10.155203      -276.3371
   5   2.0000     -10.020035      -272.6590
   6   2.0000     -10.018534      -272.6182
   7   2.0000     -10.011127      -272.4166
   8   2.0000     -10.004593      -272.2388
   9   2.0000      -9.992879      -271.9201
  10   2.0000      -9.988567      -271.8027
  11   2.0000      -9.986707      -271.7521
  12   2.0000      -9.876381      -268.7500
  13   2.0000      -1.260029       -34.2871
  14   2.0000      -0.973876       -26.5005
  15   2.0000      -0.894776       -24.3481
  16   2.0000      -0.820375       -22.3235
  17   2.0000      -0.771473       -20.9929
  18   2.0000      -0.732081       -19.9209
  19   2.0000      -0.686665       -18.6851
  20   2.0000      -0.653932       -17.7944
  21   2.0000      -0.626137       -17.0380
  22   2.0000      -0.608646       -16.5621
  23   2.0000      -0.567615       -15.4456
  24   2.0000      -0.551907       -15.0182
  25   2.0000      -0.533538       -14.5183
  26   2.0000      -0.509330       -13.8596
  27   2.0000      -0.502165       -13.6646
  28   2.0000      -0.483324       -13.1519
  29   2.0000      -0.459369       -12.5001
  30   2.0000      -0.447960       -12.1896
  31   2.0000      -0.437925       -11.9165
  32   2.0000      -0.427080       -11.6214
  33   2.0000      -0.418163       -11.3788
  34   2.0000      -0.402327       -10.9479
  35   2.0000      -0.395673       -10.7668
  36   2.0000      -0.372063       -10.1243
  37   2.0000      -0.365171        -9.9368
  38   2.0000      -0.347882        -9.4663
  39   2.0000      -0.343644        -9.3510
  40   2.0000      -0.340939        -9.2774
  41   2.0000      -0.335305        -9.1241
  42   2.0000      -0.327372        -8.9082
  43   2.0000      -0.318091        -8.6557
  44   2.0000      -0.299624        -8.1532
  45   2.0000      -0.297698        -8.1008
  46   2.0000      -0.295754        -8.0479
  47   2.0000      -0.290418        -7.9027
  48   2.0000      -0.242821        -6.6075
  49   2.0000      -0.207040        -5.6338
  50   2.0000      -0.127445        -3.4680
  51   0.0000      -0.067656        -1.8410
  52   0.0000       0.007300         0.1986
  53   0.0000       0.023762         0.6466
  54   0.0000       0.026050         0.7089
  55   0.0000       0.043552         1.1851

MULLIKEN ATOMIC CHARGES
-----------------------
   0 C :   -0.168614
   1 N :   -0.258258
   2 C :   -0.159065
   3 C :   -0.176020
   4 H :    0.132786
   5 H :    0.123736
   6 C :    0.298131
   7 C :    0.123025
   8 N :   -0.424874
   9 C :   -0.350710
  10 H :    0.052467
  11 H :    0.101386
  12 H :    0.210633
  13 H :    0.212778
  14 H :    0.233270
  15 O :   -0.293674
  16 F :   -0.105767
  17 C :   -0.126497
  18 H :    0.116281
  19 H :    0.098131
  20 C :   -0.173839
  21 H :    0.069997
  22 H :    0.088412
  23 C :   -0.197992
  24 H :    0.150876
  25 H :    0.078732
  26 H :    0.064797
  27 H :    0.083770
  28 H :    0.097795
  29 H :    0.098306
Sum of atomic charges:    0.0000000

LOEWDIN ATOMIC CHARGES
----------------------
   0 C :   -0.292032
   1 N :    0.113203
   2 C :   -0.259718
   3 C :   -0.229529
   4 H :    0.154980
   5 H :    0.151885
   6 C :   -0.528966
   7 C :   -0.491189
   8 N :    0.021237
   9 C :   -0.328887
  10 H :    0.091675
  11 H :    0.098227
  12 H :    0.187997
  13 H :    0.155667
  14 H :    0.157948
  15 O :    0.114775
  16 F :    0.339076
  17 C :   -0.264928
  18 H :    0.130071
  19 H :    0.123233
  20 C :   -0.261278
  21 H :    0.133662
  22 H :    0.134350
  23 C :   -0.268510
  24 H :    0.146947
  25 H :    0.135420
  26 H :    0.124479
  27 H :    0.134854
  28 H :    0.138606
  29 H :    0.136746

  Mayer bond orders larger than 0.100000
B(  0-C ,  1-N ) :   0.9904 B(  0-C , 17-C ) :   1.0017 B(  0-C , 18-H ) :   0.9583
B(  0-C , 19-H ) :   0.9751 B(  1-N ,  7-C ) :   1.1913 B(  1-N , 12-H ) :   0.9152
B(  2-C ,  3-C ) :   0.9888 B(  2-C , 23-C ) :   1.0166 B(  2-C , 28-H ) :   0.9372
B(  2-C , 29-H ) :   0.9531 B(  3-C ,  4-H ) :   0.9432 B(  3-C ,  5-H ) :   0.9160
B(  3-C ,  6-C ) :   1.0521 B(  6-C , 15-O ) :   1.9966 B(  6-C , 16-F ) :   1.0941
B(  7-C ,  8-N ) :   1.1384 B(  7-C ,  9-C ) :   1.7034 B(  8-N , 13-H ) :   0.9221
B(  8-N , 14-H ) :   0.8902 B(  9-C , 10-H ) :   0.9760 B(  9-C , 11-H ) :   0.9792
B( 17-C , 20-C ) :   1.0107 B( 17-C , 21-H ) :   0.9342 B( 17-C , 22-H ) :   0.9456
B( 20-C , 23-C ) :   1.0094 B( 20-C , 24-H ) :   0.9344 B( 20-C , 25-H ) :   0.9405
B( 23-C , 26-H ) :   0.9535 B( 23-C , 27-H ) :   0.9419

Dispersion correction           -0.043843529
FINAL SINGLE POINT ENERGY      -638.058270849922

DIPOLE MOMENT
-------------
                                X             Y             Z
Electronic contribution:     -5.60516      -0.81028     -11.78473
Nuclear contribution   :      4.34606       1.32859      13.65749
                        -----------------------------------------
Total Dipole Moment    :     -1.25909       0.51831       1.87275
                        -----------------------------------------
Magnitude (a.u.)       :      2.31542
Magnitude (Debye)      :      5.88533

Rotational constants in cm-1:     0.033551     0.023540     0.017085
Rotational constants in MHz :  1005.818710   705.725032   512.192443

                             ****ORCA TERMINATED NORMALLY****
TOTAL RUN TIME: 0 days 0 hours 0 minutes 26 seconds 885 msec
