                         Program Version 5.0.0 -  RELEASE  -
|  1> !PBE D3BJ RIJCOSX def2-SVPD def2/J TightSCF
|  2> *xyz -1 1
|  3> C          2.09343        1.86104       -4.65684
|  4> S          1.87964        0.07859       -4.46297
|  5> O          3.20757       -0.46611       -4.42026
|  6> O          1.07506       -0.05616       -3.26876
|  7> O          1.13166       -0.31996       -5.67903
|  8> H          2.68437        2.05681       -5.52711
|  9> H          2.58708        2.25699       -3.79404
| 10> H          1.13553        2.32556       -4.76426
| 11> *
| 12>
| 13> %MaxCore 64000
| 14>
| 15> %pal nprocs 8
| 16> end
| 17>
| 18> %scf
| 19>   MaxIter 150
| 20> end
| 21>
| 22>
| 23>                          ****END OF INPUT****

CARTESIAN COORDINATES (ANGSTROEM)
---------------------------------
  C      2.093430    1.861040   -4.656840
  S      1.879640    0.078590   -4.462970
  O      3.207570   -0.466110   -4.420260
  O      1.075060   -0.056160   -3.268760
  O      1.131660   -0.319960   -5.679030
  H      2.684370    2.056810   -5.527110
  H      2.587080    2.256990   -3.794040
  H      1.135530    2.325560   -4.764260

 Total Charge           Charge          ....   -1
 Multiplicity           Mult            ....    1
 Number of Electrons    NEL             ....   50
 Basis Dimension        Dim             ....  140

ORBITAL ENERGIES
----------------

  NO   OCC          E(Eh)            E(eV)
   0   2.0000     -88.054269     -2396.0785
   1   2.0000     -18.547155      -504.6938
   2   2.0000     -18.543169      -504.5853
   3   2.0000     -18.532587      -504.2973
   4   2.0000      -9.741621      -265.0830
   5   2.0000      -7.658445      -208.3969
   6   2.0000      -5.685410      -154.7079
   7   2.0000      -5.685248      -154.7034
   8   2.0000      -5.684885      -154.6936
   9   2.0000      -0.841331       -22.8938
  10   2.0000      -0.708480       -19.2787
  11   2.0000      -0.683622       -18.6023
  12   2.0000      -0.503629       -13.7044
  13   2.0000      -0.324925        -8.8417
  14   2.0000      -0.249136        -6.7793
  15   2.0000      -0.236526        -6.4362
  16   2.0000      -0.235692        -6.4135
  17   2.0000      -0.197929        -5.3859
  18   2.0000      -0.195861        -5.3296
  19   2.0000      -0.104356        -2.8397
  20   2.0000      -0.103741        -2.8229
  21   2.0000      -0.072009        -1.9595
  22   2.0000      -0.067201        -1.8286
  23   2.0000      -0.056000        -1.5238
  24   2.0000      -0.019664        -0.5351
  25   0.0000       0.137459         3.7405
  26   0.0000       0.172781         4.7016
  27   0.0000       0.173375         4.7178
  28   0.0000       0.175078         4.7641
  29   0.0000       0.198549         5.4028

MULLIKEN ATOMIC CHARGES
-----------------------
   0 C :    0.501546
   1 S :    0.933009
   2 O :   -0.699475
   3 O :   -0.713140
   4 O :   -0.752705
   5 H :   -0.091832
   6 H :   -0.093031
   7 H :   -0.084371
Sum of atomic charges:   -1.0000000

LOEWDIN ATOMIC CHARGES
----------------------
   0 C :    0.049488
   1 S :    0.778777
   2 O :   -0.555052
   3 O :   -0.561915
   4 O :   -0.579926
   5 H :   -0.043680
   6 H :   -0.045234
   7 H :   -0.042457

  Mayer bond orders larger than 0.100000
B(  0-C ,  1-S ) :   0.9341 B(  0-C ,  5-H ) :   0.9251 B(  0-C ,  6-H ) :   0.9228
B(  0-C ,  7-H ) :   0.9240 B(  1-S ,  2-O ) :   1.3810 B(  1-S ,  3-O ) :   1.3731
B(  1-S ,  4-O ) :   1.3440 B(  1-S ,  5-H ) :   0.1190 B(  1-S ,  6-H ) :   0.1120
B(  1-S ,  7-H ) :   0.1202

Dispersion correction           -0.006310950
FINAL SINGLE POINT ENERGY      -663.052267983772

DIPOLE MOMENT
-------------
                                X             Y             Z
Electronic contribution:     -0.44132      -4.37636       0.56900
Nuclear contribution   :      0.72475       5.67579      -0.57287
                        -----------------------------------------
Total Dipole Moment    :      0.28343       1.29943      -0.00387
                        -----------------------------------------
Magnitude (a.u.)       :      1.32999
Magnitude (Debye)      :      3.38056

Rotational constants in cm-1:     0.171646     0.157781     0.155534
Rotational constants in MHz :  5145.813281  4730.160232  4662.792719

                             ****ORCA TERMINATED NORMALLY****
TOTAL RUN TIME: 0 days 0 hours 0 minutes 3 seconds 350 msec
