                         Program Version 5.0.0 -  RELEASE  -
|  1> !PBE D3BJ RIJCOSX def2-SVPD def2/J TightSCF
|  2> *xyz 1 1
|  3> C         -0.46129        2.23469       -4.98962
|  4> C         -0.42384        2.39877       -6.47432
|  5> N         -0.95947        3.49265       -7.00740
|  6> N          0.14558        1.48689       -7.20399
|  7> H          0.56537        0.69681       -6.72386
|  8> H          0.22068        1.58177       -8.20752
|  9> H         -1.40624        4.18151       -6.40326
| 10> H         -0.93421        3.68160       -7.99947
| 11> H          0.00645        1.31059       -4.72100
| 12> H         -1.47822        2.22967       -4.65687
| 13> H          0.06109        3.04632       -4.52779
| 14> *
| 15>
| 16> %MaxCore 64000
| 17>
| 18> %pal nprocs 8
| 19> end
| 20>
| 21> %scf
| 22>   MaxIter 150
| 23> end
| 24>
| 25>
| 26>                          ****END OF INPUT****

CARTESIAN COORDINATES (ANGSTROEM)
---------------------------------
  C     -0.461290    2.234690   -4.989620
  C     -0.423840    2.398770   -6.474320
  N     -0.959470    3.492650   -7.007400
  N      0.145580    1.486890   -7.203990
  H      0.565370    0.696810   -6.723860
  H      0.220680    1.581770   -8.207520
  H     -1.406240    4.181510   -6.403260
  H     -0.934210    3.681600   -7.999470
  H      0.006450    1.310590   -4.721000
  H     -1.478220    2.229670   -4.656870
  H      0.061090    3.046320   -4.527790

 Total Charge           Charge          ....    1
 Multiplicity           Mult            ....    1
 Number of Electrons    NEL             ....   32
 Basis Dimension        Dim             ....  136

ORBITAL ENERGIES
----------------

  NO   OCC          E(Eh)            E(eV)
   0   2.0000     -14.255302      -387.9065
   1   2.0000     -14.248950      -387.7336
   2   2.0000     -10.219283      -278.0808
   3   2.0000     -10.094870      -274.6954
   4   2.0000      -1.121334       -30.5130
   5   2.0000      -1.031628       -28.0720
   6   2.0000      -0.882737       -24.0205
   7   2.0000      -0.784955       -21.3597
   8   2.0000      -0.734204       -19.9787
   9   2.0000      -0.717966       -19.5368
  10   2.0000      -0.660319       -17.9682
  11   2.0000      -0.615734       -16.7550
  12   2.0000      -0.575464       -15.6592
  13   2.0000      -0.557965       -15.1830
  14   2.0000      -0.535298       -14.5662
  15   2.0000      -0.462789       -12.5931
  16   0.0000      -0.250503        -6.8165
  17   0.0000      -0.187118        -5.0917
  18   0.0000      -0.142752        -3.8845
  19   0.0000      -0.139187        -3.7875
  20   0.0000      -0.118136        -3.2146

MULLIKEN ATOMIC CHARGES
-----------------------
   0 C :    0.632044
   1 C :    0.412936
   2 N :    0.124153
   3 N :    0.060185
   4 H :    0.075568
   5 H :   -0.154337
   6 H :    0.014142
   7 H :   -0.177369
   8 H :    0.006728
   9 H :    0.008255
  10 H :   -0.002306
Sum of atomic charges:    1.0000000

LOEWDIN ATOMIC CHARGES
----------------------
   0 C :    0.234452
   1 C :   -0.084340
   2 N :    0.288030
   3 N :    0.294452
   4 H :    0.055798
   5 H :    0.053648
   6 H :    0.058609
   7 H :    0.042977
   8 H :    0.006964
   9 H :    0.024409
  10 H :    0.025001

  Mayer bond orders larger than 0.100000
B(  0-C ,  1-C ) :   1.2900 B(  0-C ,  8-H ) :   0.7748 B(  0-C ,  9-H ) :   0.7439
B(  0-C , 10-H ) :   0.7646 B(  1-C ,  2-N ) :   1.1218 B(  1-C ,  3-N ) :   1.0501
B(  1-C ,  5-H ) :  -0.2616 B(  1-C ,  7-H ) :  -0.1923 B(  1-C ,  8-H ) :   0.2514
B(  1-C ,  9-H ) :   0.1833 B(  1-C , 10-H ) :   0.1698 B(  2-N ,  3-N ) :   0.1957
B(  2-N ,  6-H ) :   1.1101 B(  2-N ,  7-H ) :   1.2752 B(  3-N ,  4-H ) :   1.0308
B(  3-N ,  5-H ) :   1.3743 B(  4-H ,  5-H ) :  -0.1813 B(  6-H ,  7-H ) :  -0.1679
B(  9-H , 10-H ) :   0.1016

Dispersion correction           -0.006916769
FINAL SINGLE POINT ENERGY      -189.358681349505

DIPOLE MOMENT
-------------
                                X             Y             Z
Electronic contribution:      0.06022       0.18276      -2.19267
Nuclear contribution   :     -0.00094      -0.11553       1.69525
                        -----------------------------------------
Total Dipole Moment    :      0.05928       0.06722      -0.49741
                        -----------------------------------------
Magnitude (a.u.)       :      0.50542
Magnitude (Debye)      :      1.28469

Rotational constants in cm-1:     0.329971     0.303414     0.162776
Rotational constants in MHz :  9892.292308  9096.128349  4879.901854

                             ****ORCA TERMINATED NORMALLY****
TOTAL RUN TIME: 0 days 0 hours 0 minutes 3 seconds 361 msec
