                         Program Version 5.0.0 -  RELEASE  -
|  1> !PBE D3BJ RIJCOSX def2-SVPD def2/J TightSCF xyzfile
|  2>
|  3> *xyzfile 0 1 B.xyz
|  4>
|  5> %MaxCore 64000
|  6>
|  7> %pal nprocs 4
|  8> end
|  9>
| 10> %scf
| 11>   MaxIter 150
| 12> end
| 13>
| 14>
| 15>                          ****END OF INPUT****

CARTESIAN COORDINATES (ANGSTROEM)
---------------------------------
  C     -0.461293    2.234686   -4.989619
  C      0.848883    2.667967   -4.302351
  C      2.093434    1.861037   -4.656845
  H      2.444814    2.041567   -5.674990
  H      2.901748    2.137864   -3.980338
  S      1.879644    0.078594   -4.462965
  C     -0.423841    2.398772   -6.474317
  N     -0.959467    3.492647   -7.007401
  N      0.145585    1.486891   -7.203987
  H      0.565371    0.696807   -6.723858
  H      0.220682    1.581768   -8.207520
  H     -1.406243    4.181507   -6.403261
  H     -0.934215    3.681601   -7.999468
  O      3.207574   -0.466111   -4.420259
  O      1.075064   -0.056160   -3.268758
  O      1.131661   -0.319960   -5.679031
  H      0.668432    2.559427   -3.232850
  H      1.034074    3.729426   -4.497081
  H     -1.288884    2.826737   -4.594997
  H     -0.651696    1.186343   -4.756552

 Total Charge           Charge          ....    0
 Multiplicity           Mult            ....    1
 Number of Electrons    NEL             ....   88
 Basis Dimension        Dim             ....  296

ORBITAL ENERGIES
----------------

  NO   OCC          E(Eh)            E(eV)
   0   2.0000     -88.207693     -2400.2534
   1   2.0000     -18.705914      -509.0138
   2   2.0000     -18.691668      -508.6261
   3   2.0000     -18.690017      -508.5812
   4   2.0000     -14.109196      -383.9307
   5   2.0000     -14.075911      -383.0250
   6   2.0000     -10.060293      -273.7545
   7   2.0000      -9.946737      -270.6645
   8   2.0000      -9.927703      -270.1465
   9   2.0000      -9.902918      -269.4721
  10   2.0000      -7.811243      -212.5547
  11   2.0000      -5.838801      -158.8819
  12   2.0000      -5.837823      -158.8552
  13   2.0000      -5.837353      -158.8425
  14   2.0000      -0.995834       -27.0980
  15   2.0000      -0.966806       -26.3081
  16   2.0000      -0.879008       -23.9190
  17   2.0000      -0.854337       -23.2477
  18   2.0000      -0.851283       -23.1646
  19   2.0000      -0.757017       -20.5995
  20   2.0000      -0.684765       -18.6334
  21   2.0000      -0.631480       -17.1834
  22   2.0000      -0.590491       -16.0681
  23   2.0000      -0.581184       -15.8148
  24   2.0000      -0.547268       -14.8919
  25   2.0000      -0.511942       -13.9307
  26   2.0000      -0.467259       -12.7148
  27   2.0000      -0.465612       -12.6699
  28   2.0000      -0.435277       -11.8445
  29   2.0000      -0.426261       -11.5992
  30   2.0000      -0.400686       -10.9032
  31   2.0000      -0.391569       -10.6551
  32   2.0000      -0.367740       -10.0067
  33   2.0000      -0.358572        -9.7573
  34   2.0000      -0.348405        -9.4806
  35   2.0000      -0.335205        -9.1214
  36   2.0000      -0.318761        -8.6739
  37   2.0000      -0.308921        -8.4062
  38   2.0000      -0.259323        -7.0565
  39   2.0000      -0.253781        -6.9057
  40   2.0000      -0.228072        -6.2062
  41   2.0000      -0.216742        -5.8978
  42   2.0000      -0.212828        -5.7913
  43   2.0000      -0.176948        -4.8150
  44   0.0000      -0.099549        -2.7089
  45   0.0000      -0.060801        -1.6545
  46   0.0000      -0.023486        -0.6391
  47   0.0000      -0.003197        -0.0870
  48   0.0000       0.011893         0.3236

MULLIKEN ATOMIC CHARGES
-----------------------
   0 C :    0.124479
   1 C :    0.162766
   2 C :    0.147245
   3 H :    0.099138
   4 H :   -0.158951
   5 S :    1.285565
   6 C :    0.819265
   7 N :    0.012991
   8 N :    0.379853
   9 H :   -0.143325
  10 H :   -0.200056
  11 H :   -0.024367
  12 H :   -0.198389
  13 O :   -0.722093
  14 O :   -0.736661
  15 O :   -0.846298
  16 H :    0.168768
  17 H :   -0.206131
  18 H :   -0.101056
  19 H :    0.137257
Sum of atomic charges:    0.0000000

LOEWDIN ATOMIC CHARGES
----------------------
   0 C :    0.052090
   1 C :   -0.018992
   2 C :   -0.072666
   3 H :    0.006988
   4 H :    0.017587
   5 S :    0.889780
   6 C :   -0.056015
   7 N :    0.259760
   8 N :    0.317497
   9 H :   -0.122947
  10 H :    0.040573
  11 H :    0.033405
  12 H :    0.023119
  13 O :   -0.487158
  14 O :   -0.497387
  15 O :   -0.503181
  16 H :    0.034554
  17 H :    0.022535
  18 H :    0.030080
  19 H :    0.030378

  Mayer bond orders larger than 0.100000
B(  0-C ,  1-C ) :   1.2372 B(  0-C ,  6-C ) :   1.0894 B(  0-C ,  8-N ) :   0.1118
B(  0-C , 16-H ) :   0.1505 B(  0-C , 18-H ) :   0.7808 B(  0-C , 19-H ) :   0.8116
B(  1-C ,  2-C ) :   1.3571 B(  1-C ,  3-H ) :   0.1333 B(  1-C ,  4-H ) :   0.1933
B(  1-C , 16-H ) :   0.7645 B(  1-C , 17-H ) :   0.8521 B(  1-C , 18-H ) :   0.1607
B(  1-C , 19-H ) :   0.1424 B(  2-C ,  3-H ) :   0.8668 B(  2-C ,  4-H ) :   0.8218
B(  2-C ,  5-S ) :   0.8650 B(  2-C , 13-O ) :   0.1008 B(  2-C , 14-O ) :   0.1098
B(  2-C , 15-O ) :   0.1581 B(  2-C , 16-H ) :   0.1516 B(  2-C , 17-H ) :   0.1299
B(  5-S , 13-O ) :   1.4225 B(  5-S , 14-O ) :   1.3552 B(  5-S , 15-O ) :   1.1552
B(  6-C ,  7-N ) :   0.9341 B(  6-C ,  8-N ) :   1.1275 B(  6-C , 10-H ) :  -0.2575
B(  6-C , 11-H ) :  -0.1375 B(  6-C , 12-H ) :  -0.1884 B(  6-C , 18-H ) :   0.1238
B(  7-N ,  8-N ) :   0.1900 B(  7-N , 11-H ) :   1.1645 B(  7-N , 12-H ) :   1.3375
B(  8-N ,  9-H ) :   1.0886 B(  8-N , 10-H ) :   1.3359 B(  9-H , 10-H ) :  -0.2517
B(  9-H , 15-O ) :   0.1969 B( 11-H , 12-H ) :  -0.1865

Dispersion correction           -0.022855477
FINAL SINGLE POINT ENERGY      -890.616440388702

DIPOLE MOMENT
-------------
                                X             Y             Z
Electronic contribution:      3.14653      -7.74129       1.13394
Nuclear contribution   :     -5.91573      12.15027      -4.18945
                        -----------------------------------------
Total Dipole Moment    :     -2.76920       4.40898      -3.05551
                        -----------------------------------------
Magnitude (a.u.)       :      6.03686
Magnitude (Debye)      :     15.34449

Rotational constants in cm-1:     0.082044     0.024757     0.022371
Rotational constants in MHz :  2459.631375   742.181961   670.660570

                             ****ORCA TERMINATED NORMALLY****
TOTAL RUN TIME: 0 days 0 hours 0 minutes 21 seconds 799 msec
