                         Program Version 5.0.0 -  RELEASE  -
|  1> !PBE D3BJ RIJCOSX def2-SVPD def2/J TightSCF
|  2> *xyz 0 1
|  3> C          2.09343        1.86104       -4.65684
|  4> S          1.87964        0.07859       -4.46297
|  5> F          3.20757       -0.46611       -4.42026
|  6> O          1.07506       -0.05616       -3.26876
|  7> O          1.13166       -0.31996       -5.67903
|  8> H          2.68437        2.05681       -5.52711
|  9> H          2.58708        2.25699       -3.79404
| 10> H          1.13553        2.32556       -4.76426
| 11> *
| 12>
| 13> %MaxCore 64000
| 14>
| 15> %pal nprocs 8
| 16> end
| 17>
| 18> %scf
| 19>   MaxIter 150
| 20> end
| 21>
| 22>
| 23>                          ****END OF INPUT****

CARTESIAN COORDINATES (ANGSTROEM)
---------------------------------
  C      2.093430    1.861040   -4.656840
  S      1.879640    0.078590   -4.462970
  F      3.207570   -0.466110   -4.420260
  O      1.075060   -0.056160   -3.268760
  O      1.131660   -0.319960   -5.679030
  H      2.684370    2.056810   -5.527110
  H      2.587080    2.256990   -3.794040
  H      1.135530    2.325560   -4.764260

 Total Charge           Charge          ....    0
 Multiplicity           Mult            ....    1
 Number of Electrons    NEL             ....   50
 Basis Dimension        Dim             ....  140

ORBITAL ENERGIES
----------------

  NO   OCC          E(Eh)            E(eV)
   0   2.0000     -88.317427     -2403.2394
   1   2.0000     -24.396580      -663.8647
   2   2.0000     -18.781088      -511.0594
   3   2.0000     -18.770212      -510.7634
   4   2.0000      -9.950972      -270.7797
   5   2.0000      -7.922340      -215.5778
   6   2.0000      -5.953643      -162.0069
   7   2.0000      -5.946932      -161.8243
   8   2.0000      -5.945754      -161.7922
   9   2.0000      -1.282265       -34.8922
  10   2.0000      -1.022333       -27.8191
  11   2.0000      -0.921866       -25.0853
  12   2.0000      -0.726712       -19.7748
  13   2.0000      -0.658582       -17.9209
  14   2.0000      -0.548652       -14.9296
  15   2.0000      -0.531845       -14.4722
  16   2.0000      -0.501379       -13.6432
  17   2.0000      -0.429021       -11.6743
  18   2.0000      -0.428102       -11.6492
  19   2.0000      -0.418087       -11.3767
  20   2.0000      -0.393090       -10.6965
  21   2.0000      -0.343277        -9.3410
  22   2.0000      -0.296254        -8.0615
  23   2.0000      -0.285206        -7.7609
  24   2.0000      -0.264705        -7.2030
  25   0.0000      -0.034946        -0.9509
  26   0.0000       0.003543         0.0964
  27   0.0000       0.007356         0.2002
  28   0.0000       0.029898         0.8136
  29   0.0000       0.031248         0.8503

MULLIKEN ATOMIC CHARGES
-----------------------
   0 C :    0.493486
   1 S :    1.116509
   2 F :   -0.327222
   3 O :   -0.573524
   4 O :   -0.608589
   5 H :   -0.033439
   6 H :   -0.031232
   7 H :   -0.035989
Sum of atomic charges:    0.0000000

LOEWDIN ATOMIC CHARGES
----------------------
   0 C :    0.117823
   1 S :    1.053346
   2 F :   -0.237814
   3 O :   -0.441370
   4 O :   -0.457548
   5 H :   -0.016277
   6 H :   -0.016853
   7 H :   -0.001308

  Mayer bond orders larger than 0.100000
B(  0-C ,  1-S ) :   0.9966 B(  0-C ,  5-H ) :   0.9142 B(  0-C ,  6-H ) :   0.9117
B(  0-C ,  7-H ) :   0.9132 B(  1-S ,  2-F ) :   0.7582 B(  1-S ,  3-O ) :   1.5689
B(  1-S ,  4-O ) :   1.5399 B(  1-S ,  7-H ) :   0.1174

Dispersion correction           -0.005927740
FINAL SINGLE POINT ENERGY      -687.520614195434

DIPOLE MOMENT
-------------
                                X             Y             Z
Electronic contribution:      1.74620      -5.23095       0.65699
Nuclear contribution   :     -0.60459       6.33153      -0.64388
                        -----------------------------------------
Total Dipole Moment    :      1.14161       1.10058       0.01311
                        -----------------------------------------
Magnitude (a.u.)       :      1.58579
Magnitude (Debye)      :      4.03075

Rotational constants in cm-1:     0.163601     0.155191     0.147098
Rotational constants in MHz :  4904.622287  4652.507792  4409.891356

                             ****ORCA TERMINATED NORMALLY****
TOTAL RUN TIME: 0 days 0 hours 0 minutes 3 seconds 483 msec
