                         Program Version 5.0.0 -  RELEASE  -
|  1> !PBE D3BJ RIJCOSX def2-SVPD def2/J TightSCF
|  2> *xyz 0 1
|  3> C         -0.46129        2.23469       -4.98962
|  4> C         -0.42384        2.39877       -6.47432
|  5> C         -0.95947        3.49265       -7.00740
|  6> N          0.14558        1.48689       -7.20399
|  7> H          0.56537        0.69681       -6.72386
|  8> H          0.22068        1.58177       -8.20752
|  9> H         -1.40624        4.18151       -6.40326
| 10> H         -0.93421        3.68160       -7.99947
| 11> H          0.00645        1.31059       -4.72100
| 12> H         -1.47822        2.22967       -4.65687
| 13> H          0.06109        3.04632       -4.52779
| 14> *
| 15>
| 16> %MaxCore 64000
| 17>
| 18> %pal nprocs 8
| 19> end
| 20>
| 21> %scf
| 22>   MaxIter 150
| 23> end
| 24>
| 25>
| 26>                          ****END OF INPUT****

CARTESIAN COORDINATES (ANGSTROEM)
---------------------------------
  C     -0.461290    2.234690   -4.989620
  C     -0.423840    2.398770   -6.474320
  C     -0.959470    3.492650   -7.007400
  N      0.145580    1.486890   -7.203990
  H      0.565370    0.696810   -6.723860
  H      0.220680    1.581770   -8.207520
  H     -1.406240    4.181510   -6.403260
  H     -0.934210    3.681600   -7.999470
  H      0.006450    1.310590   -4.721000
  H     -1.478220    2.229670   -4.656870
  H      0.061090    3.046320   -4.527790

 Total Charge           Charge          ....    0
 Multiplicity           Mult            ....    1
 Number of Electrons    NEL             ....   32
 Basis Dimension        Dim             ....  136

ORBITAL ENERGIES
----------------

  NO   OCC          E(Eh)            E(eV)
   0   2.0000     -14.006089      -381.1251
   1   2.0000      -9.912996      -269.7463
   2   2.0000      -9.886578      -269.0275
   3   2.0000      -9.824194      -267.3299
   4   2.0000      -0.849359       -23.1122
   5   2.0000      -0.679808       -18.4985
   6   2.0000      -0.613711       -16.6999
   7   2.0000      -0.518998       -14.1226
   8   2.0000      -0.480664       -13.0795
   9   2.0000      -0.422176       -11.4880
  10   2.0000      -0.384922       -10.4743
  11   2.0000      -0.352946        -9.6042
  12   2.0000      -0.342108        -9.3092
  13   2.0000      -0.310007        -8.4357
  14   2.0000      -0.297210        -8.0875
  15   2.0000      -0.154249        -4.1973
  16   0.0000      -0.001451        -0.0395
  17   0.0000       0.015930         0.4335
  18   0.0000       0.036701         0.9987
  19   0.0000       0.043888         1.1942
  20   0.0000       0.068772         1.8714

MULLIKEN ATOMIC CHARGES
-----------------------
   0 C :    0.843338
   1 C :   -0.396135
   2 C :    0.410675
   3 N :    0.230142
   4 H :   -0.085430
   5 H :   -0.205624
   6 H :   -0.177626
   7 H :   -0.469432
   8 H :   -0.146828
   9 H :    0.007409
  10 H :   -0.010490
Sum of atomic charges:   -0.0000000

LOEWDIN ATOMIC CHARGES
----------------------
   0 C :    0.166251
   1 C :   -0.302647
   2 C :    0.162163
   3 N :    0.176801
   4 H :   -0.001710
   5 H :    0.011671
   6 H :   -0.079374
   7 H :   -0.094535
   8 H :   -0.028726
   9 H :   -0.005090
  10 H :   -0.004805

  Mayer bond orders larger than 0.100000
B(  0-C ,  1-C ) :   1.1112 B(  0-C ,  2-C ) :   0.1182 B(  0-C ,  3-N ) :   0.1260
B(  0-C ,  8-H ) :   0.6991 B(  0-C ,  9-H ) :   0.7174 B(  0-C , 10-H ) :   0.7430
B(  1-C ,  2-C ) :   1.6946 B(  1-C ,  3-N ) :   1.1169 B(  1-C ,  5-H ) :  -0.1586
B(  1-C ,  7-H ) :   0.1833 B(  1-C ,  8-H ) :   0.2941 B(  1-C ,  9-H ) :   0.1985
B(  1-C , 10-H ) :   0.1827 B(  2-C ,  3-N ) :   0.2760 B(  2-C ,  6-H ) :   0.8240
B(  2-C ,  7-H ) :   0.8031 B(  3-N ,  4-H ) :   1.0687 B(  3-N ,  5-H ) :   1.3207
B(  4-H ,  5-H ) :  -0.1565

Dispersion correction           -0.007237078
FINAL SINGLE POINT ENERGY      -172.904647346762

DIPOLE MOMENT
-------------
                                X             Y             Z
Electronic contribution:      0.54529      -0.82480      -1.55479
Nuclear contribution   :     -0.12116       0.12783       1.56719
                        -----------------------------------------
Total Dipole Moment    :      0.42413      -0.69697       0.01240
                        -----------------------------------------
Magnitude (a.u.)       :      0.81597
Magnitude (Debye)      :      2.07403

Rotational constants in cm-1:     0.350065     0.307664     0.168807
Rotational constants in MHz : 10494.676477  9223.531181  5060.697310

                             ****ORCA TERMINATED NORMALLY****
TOTAL RUN TIME: 0 days 0 hours 0 minutes 3 seconds 693 msec
