                         Program Version 5.0.0 -  RELEASE  -
|  1> !PBE D3BJ RIJCOSX def2-SVPD def2/J TightSCF
|  2> *xyz 0 1
|  3> C          2.09343        1.86104       -4.65684
|  4> S          1.87964        0.07859       -4.46297
|  5> O          3.20757       -0.46611       -4.42026
|  6> F          1.07506       -0.05616       -3.26876
|  7> O          1.13166       -0.31996       -5.67903
|  8> H          2.68437        2.05681       -5.52711
|  9> H          2.58708        2.25699       -3.79404
| 10> H          1.13553        2.32556       -4.76426
| 11> *
| 12>
| 13> %MaxCore 64000
| 14>
| 15> %pal nprocs 8
| 16> end
| 17>
| 18> %scf
| 19>   MaxIter 150
| 20> end
| 21>
| 22>
| 23>                          ****END OF INPUT****

CARTESIAN COORDINATES (ANGSTROEM)
---------------------------------
  C      2.093430    1.861040   -4.656840
  S      1.879640    0.078590   -4.462970
  O      3.207570   -0.466110   -4.420260
  F      1.075060   -0.056160   -3.268760
  O      1.131660   -0.319960   -5.679030
  H      2.684370    2.056810   -5.527110
  H      2.587080    2.256990   -3.794040
  H      1.135530    2.325560   -4.764260

 Total Charge           Charge          ....    0
 Multiplicity           Mult            ....    1
 Number of Electrons    NEL             ....   50
 Basis Dimension        Dim             ....  140

ORBITAL ENERGIES
----------------

  NO   OCC          E(Eh)            E(eV)
   0   2.0000     -88.316795     -2403.2222
   1   2.0000     -24.390931      -663.7110
   2   2.0000     -18.784984      -511.1654
   3   2.0000     -18.770007      -510.7579
   4   2.0000      -9.950792      -270.7748
   5   2.0000      -7.921731      -215.5613
   6   2.0000      -5.952958      -161.9882
   7   2.0000      -5.946410      -161.8100
   8   2.0000      -5.945183      -161.7767
   9   2.0000      -1.273128       -34.6436
  10   2.0000      -1.026715       -27.9383
  11   2.0000      -0.925169       -25.1751
  12   2.0000      -0.726529       -19.7699
  13   2.0000      -0.654057       -17.7978
  14   2.0000      -0.544251       -14.8098
  15   2.0000      -0.525551       -14.3010
  16   2.0000      -0.500540       -13.6204
  17   2.0000      -0.429854       -11.6969
  18   2.0000      -0.428519       -11.6606
  19   2.0000      -0.417107       -11.3501
  20   2.0000      -0.394740       -10.7414
  21   2.0000      -0.345960        -9.4141
  22   2.0000      -0.300799        -8.1852
  23   2.0000      -0.285589        -7.7713
  24   2.0000      -0.267291        -7.2734
  25   0.0000      -0.034064        -0.9269
  26   0.0000       0.005064         0.1378
  27   0.0000       0.007201         0.1959
  28   0.0000       0.030631         0.8335
  29   0.0000       0.031930         0.8689

MULLIKEN ATOMIC CHARGES
-----------------------
   0 C :    0.492454
   1 S :    1.118281
   2 O :   -0.564113
   3 F :   -0.333530
   4 O :   -0.611624
   5 H :   -0.042613
   6 H :   -0.033135
   7 H :   -0.025722
Sum of atomic charges:    0.0000000

LOEWDIN ATOMIC CHARGES
----------------------
   0 C :    0.118024
   1 S :    1.052663
   2 O :   -0.435165
   3 F :   -0.243485
   4 O :   -0.457714
   5 H :   -0.002095
   6 H :   -0.017375
   7 H :   -0.014854

  Mayer bond orders larger than 0.100000
B(  0-C ,  1-S ) :   0.9956 B(  0-C ,  5-H ) :   0.9141 B(  0-C ,  6-H ) :   0.9115
B(  0-C ,  7-H ) :   0.9144 B(  1-S ,  2-O ) :   1.5763 B(  1-S ,  3-F ) :   0.7468
B(  1-S ,  4-O ) :   1.5397 B(  1-S ,  5-H ) :   0.1169

Dispersion correction           -0.005926678
FINAL SINGLE POINT ENERGY      -687.525633001542

DIPOLE MOMENT
-------------
                                X             Y             Z
Electronic contribution:     -1.72723      -4.56454       2.53686
Nuclear contribution   :      1.52593       5.92196      -1.79430
                        -----------------------------------------
Total Dipole Moment    :     -0.20130       1.35742       0.74256
                        -----------------------------------------
Magnitude (a.u.)       :      1.56029
Magnitude (Debye)      :      3.96594

Rotational constants in cm-1:     0.162837     0.155564     0.147443
Rotational constants in MHz :  4881.731197  4663.686927  4420.233103

                             ****ORCA TERMINATED NORMALLY****
TOTAL RUN TIME: 0 days 0 hours 0 minutes 3 seconds 444 msec
