                         Program Version 5.0.0 -  RELEASE  -
|  1> !PBE D3BJ RIJCOSX def2-SVPD def2/J TightSCF
|  2> *xyz 0 1
|  3> C         -0.46129        2.23469       -4.98962
|  4> C         -0.42384        2.39877       -6.47432
|  5> N         -0.95947        3.49265       -7.00740
|  6> C          0.14558        1.48689       -7.20399
|  7> H          0.56537        0.69681       -6.72386
|  8> H          0.22068        1.58177       -8.20752
|  9> H         -1.40624        4.18151       -6.40326
| 10> H         -0.93421        3.68160       -7.99947
| 11> H          0.00645        1.31059       -4.72100
| 12> H         -1.47822        2.22967       -4.65687
| 13> H          0.06109        3.04632       -4.52779
| 14> *
| 15>
| 16> %MaxCore 64000
| 17>
| 18> %pal nprocs 8
| 19> end
| 20>
| 21> %scf
| 22>   MaxIter 150
| 23> end
| 24>
| 25>
| 26>                          ****END OF INPUT****

CARTESIAN COORDINATES (ANGSTROEM)
---------------------------------
  C     -0.461290    2.234690   -4.989620
  C     -0.423840    2.398770   -6.474320
  N     -0.959470    3.492650   -7.007400
  C      0.145580    1.486890   -7.203990
  H      0.565370    0.696810   -6.723860
  H      0.220680    1.581770   -8.207520
  H     -1.406240    4.181510   -6.403260
  H     -0.934210    3.681600   -7.999470
  H      0.006450    1.310590   -4.721000
  H     -1.478220    2.229670   -4.656870
  H      0.061090    3.046320   -4.527790

 Total Charge           Charge          ....    0
 Multiplicity           Mult            ....    1
 Number of Electrons    NEL             ....   32
 Basis Dimension        Dim             ....  136

ORBITAL ENERGIES
----------------

  NO   OCC          E(Eh)            E(eV)
   0   2.0000     -14.001840      -381.0094
   1   2.0000      -9.912202      -269.7247
   2   2.0000      -9.884968      -268.9837
   3   2.0000      -9.828259      -267.4405
   4   2.0000      -0.837205       -22.7815
   5   2.0000      -0.683592       -18.6015
   6   2.0000      -0.617304       -16.7977
   7   2.0000      -0.515209       -14.0195
   8   2.0000      -0.471902       -12.8411
   9   2.0000      -0.424419       -11.5490
  10   2.0000      -0.384823       -10.4716
  11   2.0000      -0.350999        -9.5512
  12   2.0000      -0.347866        -9.4659
  13   2.0000      -0.310294        -8.4435
  14   2.0000      -0.289950        -7.8899
  15   2.0000      -0.163422        -4.4469
  16   0.0000      -0.000111        -0.0030
  17   0.0000       0.021020         0.5720
  18   0.0000       0.037060         1.0085
  19   0.0000       0.046992         1.2787
  20   0.0000       0.070330         1.9138

MULLIKEN ATOMIC CHARGES
-----------------------
   0 C :    0.868604
   1 C :   -0.473487
   2 N :    0.263989
   3 C :    0.411669
   4 H :   -0.067211
   5 H :   -0.468263
   6 H :   -0.168820
   7 H :   -0.233852
   8 H :    0.000770
   9 H :   -0.061467
  10 H :   -0.071931
Sum of atomic charges:    0.0000000

LOEWDIN ATOMIC CHARGES
----------------------
   0 C :    0.162929
   1 C :   -0.305113
   2 N :    0.175829
   3 C :    0.166345
   4 H :   -0.079374
   5 H :   -0.080688
   6 H :   -0.000509
   7 H :   -0.000185
   8 H :   -0.014622
   9 H :   -0.012750
  10 H :   -0.011863

  Mayer bond orders larger than 0.100000
B(  0-C ,  1-C ) :   1.3014 B(  0-C ,  8-H ) :   0.7930 B(  0-C ,  9-H ) :   0.6522
B(  0-C , 10-H ) :   0.6521 B(  1-C ,  2-N ) :   1.1786 B(  1-C ,  3-C ) :   1.6439
B(  1-C ,  5-H ) :   0.1882 B(  1-C ,  8-H ) :   0.2247 B(  1-C ,  9-H ) :   0.2917
B(  1-C , 10-H ) :   0.2956 B(  2-N ,  3-C ) :   0.2937 B(  2-N ,  6-H ) :   1.1654
B(  2-N ,  7-H ) :   1.2369 B(  3-C ,  4-H ) :   0.8992 B(  3-C ,  5-H ) :   0.7451
B(  6-H ,  7-H ) :  -0.1430

Dispersion correction           -0.007236251
FINAL SINGLE POINT ENERGY      -172.907878219053

DIPOLE MOMENT
-------------
                                X             Y             Z
Electronic contribution:     -0.44878       0.96492      -1.41458
Nuclear contribution   :      0.12666      -0.32199       1.52310
                        -----------------------------------------
Total Dipole Moment    :     -0.32211       0.64293       0.10852
                        -----------------------------------------
Magnitude (a.u.)       :      0.72725
Magnitude (Debye)      :      1.84852

Rotational constants in cm-1:     0.352483     0.305471     0.168700
Rotational constants in MHz : 10567.165953  9157.779739  5057.501411

                             ****ORCA TERMINATED NORMALLY****
TOTAL RUN TIME: 0 days 0 hours 0 minutes 3 seconds 665 msec
