                         Program Version 5.0.0 -  RELEASE  -
|  1> !PBE D3BJ RIJCOSX def2-SVPD def2/J TightSCF
|  2> *xyz 0 1
|  3> C          2.09343        1.86104       -4.65684
|  4> S          1.87964        0.07859       -4.46297
|  5> O          3.20757       -0.46611       -4.42026
|  6> O          1.07506       -0.05616       -3.26876
|  7> F          1.13166       -0.31996       -5.67903
|  8> H          2.68437        2.05681       -5.52711
|  9> H          2.58708        2.25699       -3.79404
| 10> H          1.13553        2.32556       -4.76426
| 11> *
| 12>
| 13> %MaxCore 64000
| 14>
| 15> %pal nprocs 8
| 16> end
| 17>
| 18> %scf
| 19>   MaxIter 150
| 20> end
| 21>
| 22>
| 23>                          ****END OF INPUT****

CARTESIAN COORDINATES (ANGSTROEM)
---------------------------------
  C      2.093430    1.861040   -4.656840
  S      1.879640    0.078590   -4.462970
  O      3.207570   -0.466110   -4.420260
  O      1.075060   -0.056160   -3.268760
  F      1.131660   -0.319960   -5.679030
  H      2.684370    2.056810   -5.527110
  H      2.587080    2.256990   -3.794040
  H      1.135530    2.325560   -4.764260

 Total Charge           Charge          ....    0
 Multiplicity           Mult            ....    1
 Number of Electrons    NEL             ....   50
 Basis Dimension        Dim             ....  140

ORBITAL ENERGIES
----------------

  NO   OCC          E(Eh)            E(eV)
   0   2.0000     -88.314662     -2403.1641
   1   2.0000     -24.373948      -663.2489
   2   2.0000     -18.784691      -511.1574
   3   2.0000     -18.780566      -511.0452
   4   2.0000      -9.949929      -270.7513
   5   2.0000      -7.919658      -215.5049
   6   2.0000      -5.950625      -161.9247
   7   2.0000      -5.944533      -161.7590
   8   2.0000      -5.943315      -161.7258
   9   2.0000      -1.243998       -33.8509
  10   2.0000      -1.033889       -28.1335
  11   2.0000      -0.943125       -25.6637
  12   2.0000      -0.724125       -19.7044
  13   2.0000      -0.640327       -17.4242
  14   2.0000      -0.532619       -14.4933
  15   2.0000      -0.505703       -13.7609
  16   2.0000      -0.496591       -13.5129
  17   2.0000      -0.430396       -11.7117
  18   2.0000      -0.427838       -11.6421
  19   2.0000      -0.415418       -11.3041
  20   2.0000      -0.398747       -10.8505
  21   2.0000      -0.350431        -9.5357
  22   2.0000      -0.302952        -8.2437
  23   2.0000      -0.297442        -8.0938
  24   2.0000      -0.280351        -7.6287
  25   0.0000      -0.032305        -0.8791
  26   0.0000       0.003721         0.1012
  27   0.0000       0.008385         0.2282
  28   0.0000       0.032073         0.8727
  29   0.0000       0.033136         0.9017

MULLIKEN ATOMIC CHARGES
-----------------------
   0 C :    0.490972
   1 S :    1.126850
   2 O :   -0.574578
   3 O :   -0.586629
   4 F :   -0.353410
   5 H :   -0.033251
   6 H :   -0.042294
   7 H :   -0.027661
Sum of atomic charges:    0.0000000

LOEWDIN ATOMIC CHARGES
----------------------
   0 C :    0.118452
   1 S :    1.051059
   2 O :   -0.435403
   3 O :   -0.441956
   4 F :   -0.257766
   5 H :   -0.015950
   6 H :   -0.003110
   7 H :   -0.015327

  Mayer bond orders larger than 0.100000
B(  0-C ,  1-S ) :   0.9948 B(  0-C ,  5-H ) :   0.9162 B(  0-C ,  6-H ) :   0.9106
B(  0-C ,  7-H ) :   0.9143 B(  1-S ,  2-O ) :   1.5732 B(  1-S ,  3-O ) :   1.5662
B(  1-S ,  4-F ) :   0.7035 B(  1-S ,  6-H ) :   0.1112 B(  2-O ,  3-O ) :   0.1119

Dispersion correction           -0.005927333
FINAL SINGLE POINT ENERGY      -687.540176076442

DIPOLE MOMENT
-------------
                                X             Y             Z
Electronic contribution:     -1.64505      -4.99788      -1.41483
Nuclear contribution   :      1.46938       6.18552       0.61372
                        -----------------------------------------
Total Dipole Moment    :     -0.17567       1.18764      -0.80111
                        -----------------------------------------
Magnitude (a.u.)       :      1.44330
Magnitude (Debye)      :      3.66858

Rotational constants in cm-1:     0.163578     0.153284     0.148718
Rotational constants in MHz :  4903.939615  4595.352658  4458.447794

                             ****ORCA TERMINATED NORMALLY****
TOTAL RUN TIME: 0 days 0 hours 0 minutes 3 seconds 656 msec
