                         Program Version 5.0.0 -  RELEASE  -
|  1> !PBE D3BJ RIJCOSX def2-SVPD def2/J TightSCF xyzfile
|  2>
|  3> *xyzfile 0 1 D4.xyz
|  4>
|  5> %MaxCore 64000
|  6>
|  7> %pal nprocs 4
|  8> end
|  9>
| 10> %scf
| 11>   MaxIter 150
| 12> end
| 13>
| 14>
| 15>                          ****END OF INPUT****

CARTESIAN COORDINATES (ANGSTROEM)
---------------------------------
  C     -0.461293    2.234686   -4.989619
  C      0.848883    2.667967   -4.302351
  C      2.093434    1.861037   -4.656845
  H      2.444814    2.041567   -5.674990
  H      2.901748    2.137864   -3.980338
  S      1.879644    0.078594   -4.462965
  C     -0.423841    2.398772   -6.474317
  N     -0.959467    3.492647   -7.007401
  C      0.145585    1.486891   -7.203987
  H      0.565371    0.696807   -6.723858
  H      0.220682    1.581768   -8.207520
  H     -1.406243    4.181507   -6.403261
  H     -0.934215    3.681601   -7.999468
  O      3.207574   -0.466111   -4.420259
  F      1.075064   -0.056160   -3.268758
  O      1.131661   -0.319960   -5.679031
  H      0.668432    2.559427   -3.232850
  H      1.034074    3.729426   -4.497081
  H     -1.288884    2.826737   -4.594997
  H     -0.651696    1.186343   -4.756552

 Total Charge           Charge          ....    0
 Multiplicity           Mult            ....    1
 Number of Electrons    NEL             ....   88
 Basis Dimension        Dim             ....  296

ORBITAL ENERGIES
----------------

  NO   OCC          E(Eh)            E(eV)
   0   2.0000     -88.311102     -2403.0673
   1   2.0000     -24.387855      -663.6273
   2   2.0000     -18.780825      -511.0522
   3   2.0000     -18.768110      -510.7062
   4   2.0000     -14.001856      -381.0099
   5   2.0000      -9.949714      -270.7455
   6   2.0000      -9.928082      -270.1569
   7   2.0000      -9.908330      -269.6194
   8   2.0000      -9.907681      -269.6017
   9   2.0000      -9.809975      -266.9430
  10   2.0000      -7.915668      -215.3963
  11   2.0000      -5.947123      -161.8294
  12   2.0000      -5.940649      -161.6533
  13   2.0000      -5.938589      -161.5972
  14   2.0000      -1.269523       -34.5455
  15   2.0000      -1.024146       -27.8684
  16   2.0000      -0.926918       -25.2227
  17   2.0000      -0.838053       -22.8046
  18   2.0000      -0.757144       -20.6029
  19   2.0000      -0.694364       -18.8946
  20   2.0000      -0.654934       -17.8217
  21   2.0000      -0.634981       -17.2787
  22   2.0000      -0.578062       -15.7299
  23   2.0000      -0.537599       -14.6288
  24   2.0000      -0.525627       -14.3030
  25   2.0000      -0.511169       -13.9096
  26   2.0000      -0.497968       -13.5504
  27   2.0000      -0.466204       -12.6860
  28   2.0000      -0.446791       -12.1578
  29   2.0000      -0.431087       -11.7305
  30   2.0000      -0.429700       -11.6927
  31   2.0000      -0.412874       -11.2349
  32   2.0000      -0.397997       -10.8301
  33   2.0000      -0.367174        -9.9913
  34   2.0000      -0.359642        -9.7864
  35   2.0000      -0.347992        -9.4693
  36   2.0000      -0.333715        -9.0809
  37   2.0000      -0.329827        -8.9750
  38   2.0000      -0.302731        -8.2377
  39   2.0000      -0.292584        -7.9616
  40   2.0000      -0.285745        -7.7755
  41   2.0000      -0.276022        -7.5109
  42   2.0000      -0.248963        -6.7746
  43   2.0000      -0.158419        -4.3108
  44   0.0000      -0.030427        -0.8280
  45   0.0000      -0.007045        -0.1917
  46   0.0000       0.005635         0.1533
  47   0.0000       0.009629         0.2620
  48   0.0000       0.015700         0.4272

MULLIKEN ATOMIC CHARGES
-----------------------
   0 C :    0.367476
   1 C :    0.185115
   2 C :    0.096170
   3 H :    0.210297
   4 H :   -0.187982
   5 S :    1.370907
   6 C :    0.148435
   7 N :    0.043578
   8 C :    0.751021
   9 H :    0.027659
  10 H :   -0.726123
  11 H :   -0.132166
  12 H :   -0.222791
  13 O :   -0.618433
  14 F :   -0.389622
  15 O :   -0.746338
  16 H :    0.136177
  17 H :   -0.222346
  18 H :   -0.217047
  19 H :    0.126013
Sum of atomic charges:    0.0000000

LOEWDIN ATOMIC CHARGES
----------------------
   0 C :    0.020283
   1 C :   -0.026482
   2 C :   -0.034335
   3 H :    0.034568
   4 H :    0.018308
   5 S :    1.110018
   6 C :   -0.241452
   7 N :    0.177806
   8 C :    0.203550
   9 H :   -0.183603
  10 H :   -0.068728
  11 H :   -0.007422
  12 H :    0.000878
  13 O :   -0.424787
  14 F :   -0.234684
  15 O :   -0.433517
  16 H :    0.020759
  17 H :    0.034307
  18 H :    0.020548
  19 H :    0.013986

  Mayer bond orders larger than 0.100000
B(  0-C ,  1-C ) :   1.1940 B(  0-C ,  6-C ) :   1.0836 B(  0-C ,  7-N ) :   0.1406
B(  0-C ,  8-C ) :   0.2363 B(  0-C , 16-H ) :   0.1280 B(  0-C , 18-H ) :   0.7276
B(  0-C , 19-H ) :   0.8045 B(  1-C ,  2-C ) :   1.3685 B(  1-C ,  3-H ) :   0.1287
B(  1-C ,  4-H ) :   0.2009 B(  1-C , 16-H ) :   0.7356 B(  1-C , 17-H ) :   0.8569
B(  1-C , 18-H ) :   0.1783 B(  1-C , 19-H ) :   0.1437 B(  2-C ,  3-H ) :   0.8322
B(  2-C ,  4-H ) :   0.8536 B(  2-C ,  5-S ) :   0.9585 B(  2-C ,  9-H ) :   0.1086
B(  2-C , 15-O ) :   0.1466 B(  2-C , 16-H ) :   0.1299 B(  2-C , 17-H ) :   0.1060
B(  4-H ,  9-H ) :  -0.1268 B(  5-S , 13-O ) :   1.5693 B(  5-S , 14-F ) :   0.6857
B(  5-S , 15-O ) :   1.4630 B(  6-C ,  7-N ) :   0.9659 B(  6-C ,  8-C ) :   1.7280
B(  6-C ,  9-H ) :   0.3046 B(  6-C , 10-H ) :   0.2499 B(  6-C , 12-H ) :  -0.1403
B(  6-C , 18-H ) :   0.1638 B(  7-N ,  8-C ) :   0.3560 B(  7-N , 11-H ) :   1.1797
B(  7-N , 12-H ) :   1.3612 B(  8-C ,  9-H ) :   0.5893 B(  8-C , 10-H ) :   0.7287
B(  9-H , 10-H ) :  -0.3031 B( 11-H , 12-H ) :  -0.1623 B( 13-O , 15-O ) :   0.1007

Dispersion correction           -0.022828563
FINAL SINGLE POINT ENERGY      -898.466208918642

DIPOLE MOMENT
-------------
                                X             Y             Z
Electronic contribution:      5.53612     -11.69978       7.24517
Nuclear contribution   :     -6.09390      13.51614      -6.45360
                        -----------------------------------------
Total Dipole Moment    :     -0.55778       1.81636       0.79157
                        -----------------------------------------
Magnitude (a.u.)       :      2.05836
Magnitude (Debye)      :      5.23194

Rotational constants in cm-1:     0.081469     0.024519     0.022336
Rotational constants in MHz :  2442.393231   735.066768   669.628729

                             ****ORCA TERMINATED NORMALLY****
TOTAL RUN TIME: 0 days 0 hours 0 minutes 18 seconds 936 msec
