                         Program Version 5.0.0 -  RELEASE  -
|  1> !wB97X-D3 RIJCOSX def2-TZVPD def2/J TightSCF
|  2> *xyz -1 1
|  3> C         -0.91495        0.61511        2.50554
|  4> C         -0.05915        1.50352        3.41058
|  5> H          0.36536        2.34431        2.86116
|  6> H         -0.69226        1.92021        4.19898
|  7> C          1.08303        0.74964        4.08571
|  8> O          2.22817        1.26348        4.01983
|  9> O          0.81003       -0.34541        4.63627
| 10> C         -0.13074       -0.19398        1.47076
| 11> H         -1.64796        1.24596        1.99108
| 12> H         -1.47818       -0.08105        3.13042
| 13> H         -0.80952       -0.78099        0.88803
| 14> H          0.55985       -0.83974        1.97175
| 15> H          0.40595        0.47288        0.82877
| 16> *
| 17>
| 18> %MaxCore 64000
| 19>
| 20> %pal nprocs 18
| 21> end
| 22>
| 23> %scf
| 24>   MaxIter 150
| 25> end
| 26>
| 27>
| 28>                          ****END OF INPUT****

CARTESIAN COORDINATES (ANGSTROEM)
---------------------------------
  C     -0.914950    0.615110    2.505540
  C     -0.059150    1.503520    3.410580
  H      0.365360    2.344310    2.861160
  H     -0.692260    1.920210    4.198980
  C      1.083030    0.749640    4.085710
  O      2.228170    1.263480    4.019830
  O      0.810030   -0.345410    4.636270
  C     -0.130740   -0.193980    1.470760
  H     -1.647960    1.245960    1.991080
  H     -1.478180   -0.081050    3.130420
  H     -0.809520   -0.780990    0.888030
  H      0.559850   -0.839740    1.971750
  H      0.405950    0.472880    0.828770

 Total Charge           Charge          ....   -1
 Multiplicity           Mult            ....    1
 Number of Electrons    NEL             ....   48
 Basis Dimension        Dim             ....  291

ORBITAL ENERGIES
----------------

  NO   OCC          E(Eh)            E(eV)
   0   2.0000     -18.966368      -516.1011
   1   2.0000     -18.965784      -516.0852
   2   2.0000     -10.159988      -276.4673
   3   2.0000     -10.125543      -275.5300
   4   2.0000     -10.116264      -275.2776
   5   2.0000     -10.101153      -274.8663
   6   2.0000      -0.938353       -25.5339
   7   2.0000      -0.843106       -22.9421
   8   2.0000      -0.753874       -20.5140
   9   2.0000      -0.657155       -17.8821
  10   2.0000      -0.556032       -15.1304
  11   2.0000      -0.430991       -11.7279
  12   2.0000      -0.405760       -11.0413
  13   2.0000      -0.393013       -10.6944
  14   2.0000      -0.355613        -9.6767
  15   2.0000      -0.334626        -9.1056
  16   2.0000      -0.311200        -8.4682
  17   2.0000      -0.303341        -8.2543
  18   2.0000      -0.290481        -7.9044
  19   2.0000      -0.268730        -7.3125
  20   2.0000      -0.257540        -7.0080
  21   2.0000      -0.143321        -3.9000
  22   2.0000      -0.137052        -3.7294
  23   2.0000      -0.125285        -3.4092
  24   0.0000       0.186109         5.0643
  25   0.0000       0.202526         5.5110
  26   0.0000       0.210710         5.7337
  27   0.0000       0.218460         5.9446
  28   0.0000       0.239969         6.5299

MULLIKEN ATOMIC CHARGES
-----------------------
   0 C :   -0.195123
   1 C :   -0.246720
   2 H :    0.229585
   3 H :    0.205772
   4 C :    0.343758
   5 O :   -0.773219
   6 O :   -0.760088
   7 C :   -1.266770
   8 H :    0.240950
   9 H :    0.241843
  10 H :    0.312208
  11 H :    0.351952
  12 H :    0.315852
Sum of atomic charges:   -1.0000000

LOEWDIN ATOMIC CHARGES
----------------------
   0 C :   -0.280151
   1 C :   -0.172462
   2 H :    0.094752
   3 H :    0.100263
   4 C :   -0.771620
   5 O :   -0.109479
   6 O :   -0.101418
   7 C :   -0.118807
   8 H :    0.087250
   9 H :    0.095896
  10 H :    0.049562
  11 H :    0.064251
  12 H :    0.061963

  Mayer bond orders larger than 0.100000
B(  0-C ,  1-C ) :   0.7813 B(  0-C ,  7-C ) :   0.6358 B(  0-C ,  8-H ) :   0.9613
B(  0-C ,  9-H ) :   0.9354 B(  1-C ,  2-H ) :   0.9845 B(  1-C ,  3-H ) :   0.9343
B(  1-C ,  4-C ) :   0.9419 B(  1-C ,  7-C ) :   0.1257 B(  4-C ,  5-O ) :   1.4387
B(  4-C ,  6-O ) :   1.4752 B(  7-C , 10-H ) :   0.9245 B(  7-C , 11-H ) :   0.9566
B(  7-C , 12-H ) :   0.9575

Dispersion correction           -0.003396105
FINAL SINGLE POINT ENERGY      -307.190515754741

DIPOLE MOMENT
-------------
                                X             Y             Z
Electronic contribution:      4.59918       0.20485       5.51513
Nuclear contribution   :     -6.45806       0.15825      -7.12052
                        -----------------------------------------
Total Dipole Moment    :     -1.85889       0.36310      -1.60540
                        -----------------------------------------
Magnitude (a.u.)       :      2.48286
Magnitude (Debye)      :      6.31093

Rotational constants in cm-1:     0.199323     0.080770     0.077827
Rotational constants in MHz :  5975.562678  2421.415024  2333.195390

                             ****ORCA TERMINATED NORMALLY****
TOTAL RUN TIME: 0 days 0 hours 0 minutes 21 seconds 17 msec
