                         Program Version 5.0.0 -  RELEASE  -
|  1> !wB97X-D3 RIJCOSX def2-TZVPD def2/J TightSCF
|  2> *xyz 1 1
|  3> C          4.60295       -2.44010        2.63478
|  4> C          3.86085       -1.59157        3.62289
|  5> N          2.75650       -2.04616        4.16633
|  6> N          4.25433       -0.36291        3.86046
|  7> H          3.56526        0.31099        4.16898
|  8> H          5.05429       -0.01606        3.33784
|  9> H          2.43970       -2.97389        3.89740
| 10> H          2.06687       -1.41253        4.54981
| 11> C          3.74469       -2.58056        1.36188
| 12> C          3.20372       -1.25600        0.82621
| 13> H          2.89894       -3.23929        1.58307
| 14> H          4.33496       -3.09552        0.60019
| 15> H          5.56156       -1.97135        2.40708
| 16> H          4.81050       -3.42255        3.06310
| 17> H          2.62184       -1.43789       -0.05313
| 18> H          4.02069       -0.60826        0.58562
| 19> H          2.58975       -0.79418        1.57097
| 20> *
| 21>
| 22> %MaxCore 64000
| 23>
| 24> %pal nprocs 18
| 25> end
| 26>
| 27> %scf
| 28>   MaxIter 150
| 29> end
| 30>
| 31>
| 32>                          ****END OF INPUT****

CARTESIAN COORDINATES (ANGSTROEM)
---------------------------------
  C      4.602950   -2.440100    2.634780
  C      3.860850   -1.591570    3.622890
  N      2.756500   -2.046160    4.166330
  N      4.254330   -0.362910    3.860460
  H      3.565260    0.310990    4.168980
  H      5.054290   -0.016060    3.337840
  H      2.439700   -2.973890    3.897400
  H      2.066870   -1.412530    4.549810
  C      3.744690   -2.580560    1.361880
  C      3.203720   -1.256000    0.826210
  H      2.898940   -3.239290    1.583070
  H      4.334960   -3.095520    0.600190
  H      5.561560   -1.971350    2.407080
  H      4.810500   -3.422550    3.063100
  H      2.621840   -1.437890   -0.053130
  H      4.020690   -0.608260    0.585620
  H      2.589750   -0.794180    1.570970

 Total Charge           Charge          ....    1
 Multiplicity           Mult            ....    1
 Number of Electrons    NEL             ....   48
 Basis Dimension        Dim             ....  321

ORBITAL ENERGIES
----------------

  NO   OCC          E(Eh)            E(eV)
   0   2.0000     -14.663441      -399.0125
   1   2.0000     -14.663159      -399.0048
   2   2.0000     -10.597537      -288.3736
   3   2.0000     -10.472211      -284.9634
   4   2.0000     -10.442185      -284.1463
   5   2.0000     -10.407726      -283.2086
   6   2.0000      -1.323976       -36.0272
   7   2.0000      -1.223505       -33.2933
   8   2.0000      -1.094491       -29.7826
   9   2.0000      -1.004336       -27.3294
  10   2.0000      -0.942750       -25.6535
  11   2.0000      -0.890936       -24.2436
  12   2.0000      -0.871986       -23.7280
  13   2.0000      -0.841027       -22.8855
  14   2.0000      -0.792679       -21.5699
  15   2.0000      -0.769090       -20.9280
  16   2.0000      -0.729492       -19.8505
  17   2.0000      -0.690394       -18.7866
  18   2.0000      -0.672321       -18.2948
  19   2.0000      -0.665128       -18.0991
  20   2.0000      -0.604900       -16.4602
  21   2.0000      -0.602443       -16.3933
  22   2.0000      -0.591812       -16.1040
  23   2.0000      -0.585006       -15.9188
  24   0.0000      -0.132298        -3.6000
  25   0.0000      -0.090215        -2.4549
  26   0.0000      -0.055883        -1.5207
  27   0.0000      -0.049046        -1.3346
  28   0.0000      -0.031982        -0.8703

MULLIKEN ATOMIC CHARGES
-----------------------
   0 C :   -0.420188
   1 C :    0.399487
   2 N :   -0.374256
   3 N :   -0.355548
   4 H :    0.255238
   5 H :    0.275789
   6 H :    0.279858
   7 H :    0.227510
   8 C :   -0.284984
   9 C :   -1.226301
  10 H :    0.307739
  11 H :    0.301378
  12 H :    0.322948
  13 H :    0.274038
  14 H :    0.346695
  15 H :    0.338602
  16 H :    0.331996
Sum of atomic charges:    1.0000000

LOEWDIN ATOMIC CHARGES
----------------------
   0 C :   -0.105108
   1 C :   -0.378148
   2 N :    0.229717
   3 N :    0.228827
   4 H :    0.150903
   5 H :    0.151767
   6 H :    0.152517
   7 H :    0.152098
   8 C :   -0.222994
   9 C :   -0.086596
  10 H :    0.110498
  11 H :    0.124873
  12 H :    0.130203
  13 H :    0.137260
  14 H :    0.083647
  15 H :    0.079683
  16 H :    0.060853

  Mayer bond orders larger than 0.100000
B(  0-C ,  1-C ) :   0.7790 B(  0-C ,  8-C ) :   0.8531 B(  0-C , 12-H ) :   0.9139
B(  0-C , 13-H ) :   1.0122 B(  1-C ,  2-N ) :   1.2670 B(  1-C ,  3-N ) :   1.3088
B(  1-C ,  8-C ) :   0.1429 B(  1-C ,  9-C ) :   0.2177 B(  2-N ,  6-H ) :   0.9108
B(  2-N ,  7-H ) :   0.9699 B(  3-N ,  4-H ) :   0.9304 B(  3-N ,  5-H ) :   0.9143
B(  8-C ,  9-C ) :   0.7583 B(  8-C , 10-H ) :   0.8628 B(  8-C , 11-H ) :   0.9441
B(  9-C , 14-H ) :   0.9399 B(  9-C , 15-H ) :   0.9408 B(  9-C , 16-H ) :   0.9335

Dispersion correction           -0.004943813
FINAL SINGLE POINT ENERGY      -268.373035122809

DIPOLE MOMENT
-------------
                                X             Y             Z
Electronic contribution:      0.49946       0.56996       5.19931
Nuclear contribution   :     -0.82989      -0.08664      -4.26094
                        -----------------------------------------
Total Dipole Moment    :     -0.33043       0.48332       0.93838
                        -----------------------------------------
Magnitude (a.u.)       :      1.10605
Magnitude (Debye)      :      2.81134

Rotational constants in cm-1:     0.166042     0.084809     0.078793
Rotational constants in MHz :  4977.819890  2542.513379  2362.161076

                             ****ORCA TERMINATED NORMALLY****
TOTAL RUN TIME: 0 days 0 hours 0 minutes 35 seconds 224 msec
