                         Program Version 5.0.0 -  RELEASE  -
|  1> !wB97X-D3 RIJCOSX def2-TZVPD def2/J TightSCF
|  2> *xyz 0 1
|  3> C         -0.91495        0.61511        2.50554
|  4> C         -0.05915        1.50352        3.41058
|  5> H          0.36536        2.34431        2.86116
|  6> H         -0.69226        1.92021        4.19898
|  7> C          1.08303        0.74964        4.08571
|  8> F          2.22817        1.26348        4.01983
|  9> O          0.81003       -0.34541        4.63627
| 10> C         -0.13074       -0.19398        1.47076
| 11> H         -1.64796        1.24596        1.99108
| 12> H         -1.47818       -0.08105        3.13042
| 13> H         -0.80952       -0.78099        0.88803
| 14> H          0.55985       -0.83974        1.97175
| 15> H          0.40595        0.47288        0.82877
| 16> *
| 17>
| 18> %MaxCore 64000
| 19>
| 20> %pal nprocs 18
| 21> end
| 22>
| 23> %scf
| 24>   MaxIter 150
| 25> end
| 26>
| 27>
| 28>                          ****END OF INPUT****

CARTESIAN COORDINATES (ANGSTROEM)
---------------------------------
  C     -0.914950    0.615110    2.505540
  C     -0.059150    1.503520    3.410580
  H      0.365360    2.344310    2.861160
  H     -0.692260    1.920210    4.198980
  C      1.083030    0.749640    4.085710
  F      2.228170    1.263480    4.019830
  O      0.810030   -0.345410    4.636270
  C     -0.130740   -0.193980    1.470760
  H     -1.647960    1.245960    1.991080
  H     -1.478180   -0.081050    3.130420
  H     -0.809520   -0.780990    0.888030
  H      0.559850   -0.839740    1.971750
  H      0.405950    0.472880    0.828770

 Total Charge           Charge          ....    0
 Multiplicity           Mult            ....    1
 Number of Electrons    NEL             ....   48
 Basis Dimension        Dim             ....  291

ORBITAL ENERGIES
----------------

  NO   OCC          E(Eh)            E(eV)
   0   2.0000     -24.855325      -676.3478
   1   2.0000     -19.236135      -523.4418
   2   2.0000     -10.455603      -284.5114
   3   2.0000     -10.305564      -280.4286
   4   2.0000     -10.288208      -279.9564
   5   2.0000     -10.263726      -279.2902
   6   2.0000      -1.434996       -39.0482
   7   2.0000      -1.149390       -31.2765
   8   2.0000      -0.930754       -25.3271
   9   2.0000      -0.845296       -23.0017
  10   2.0000      -0.772707       -21.0264
  11   2.0000      -0.719554       -19.5801
  12   2.0000      -0.652860       -17.7652
  13   2.0000      -0.636313       -17.3150
  14   2.0000      -0.615470       -16.7478
  15   2.0000      -0.567348       -15.4383
  16   2.0000      -0.556308       -15.1379
  17   2.0000      -0.517116       -14.0714
  18   2.0000      -0.500420       -13.6171
  19   2.0000      -0.466218       -12.6864
  20   2.0000      -0.450713       -12.2645
  21   2.0000      -0.441896       -12.0246
  22   2.0000      -0.437799       -11.9131
  23   2.0000      -0.390042       -10.6136
  24   0.0000       0.051360         1.3976
  25   0.0000       0.066200         1.8014
  26   0.0000       0.086063         2.3419
  27   0.0000       0.090520         2.4632
  28   0.0000       0.094162         2.5623

MULLIKEN ATOMIC CHARGES
-----------------------
   0 C :   -0.240233
   1 C :   -0.340814
   2 H :    0.304249
   3 H :    0.265246
   4 C :    0.564019
   5 F :   -0.248663
   6 O :   -0.570549
   7 C :   -1.331512
   8 H :    0.274826
   9 H :    0.285461
  10 H :    0.322880
  11 H :    0.372431
  12 H :    0.342661
Sum of atomic charges:    0.0000000

LOEWDIN ATOMIC CHARGES
----------------------
   0 C :   -0.250052
   1 C :   -0.120477
   2 H :    0.114624
   3 H :    0.126186
   4 C :   -0.478534
   5 F :    0.205539
   6 O :    0.076541
   7 C :   -0.099218
   8 H :    0.109656
   9 H :    0.110404
  10 H :    0.068598
  11 H :    0.065877
  12 H :    0.070855

  Mayer bond orders larger than 0.100000
B(  0-C ,  1-C ) :   0.8397 B(  0-C ,  7-C ) :   0.6078 B(  0-C ,  8-H ) :   0.9482
B(  0-C ,  9-H ) :   0.9281 B(  1-C ,  2-H ) :   0.9264 B(  1-C ,  3-H ) :   0.9159
B(  1-C ,  4-C ) :   0.9069 B(  1-C ,  7-C ) :   0.1178 B(  4-C ,  5-F ) :   0.9159
B(  4-C ,  6-O ) :   1.6720 B(  4-C ,  7-C ) :   0.1099 B(  7-C , 10-H ) :   0.9406
B(  7-C , 11-H ) :   0.9220 B(  7-C , 12-H ) :   0.9462

Dispersion correction           -0.003314907
FINAL SINGLE POINT ENERGY      -331.756938369670

DIPOLE MOMENT
-------------
                                X             Y             Z
Electronic contribution:      7.98629       1.46878       7.21950
Nuclear contribution   :     -8.39104      -0.60591      -7.87060
                        -----------------------------------------
Total Dipole Moment    :     -0.40475       0.86287      -0.65110
                        -----------------------------------------
Magnitude (a.u.)       :      1.15425
Magnitude (Debye)      :      2.93388

Rotational constants in cm-1:     0.194210     0.077092     0.074391
Rotational constants in MHz :  5822.269139  2311.145895  2230.180895

                             ****ORCA TERMINATED NORMALLY****
TOTAL RUN TIME: 0 days 0 hours 0 minutes 26 seconds 816 msec
