                         Program Version 5.0.0 -  RELEASE  -
|  1> !wB97X-D3 RIJCOSX def2-TZVPD def2/J TightSCF
|  2> *xyz 0 1
|  3> C          4.60295       -2.44010        2.63478
|  4> C          3.86085       -1.59157        3.62289
|  5> C          2.75650       -2.04616        4.16633
|  6> N          4.25433       -0.36291        3.86046
|  7> H          3.56526        0.31099        4.16898
|  8> H          5.05429       -0.01606        3.33784
|  9> H          2.43970       -2.97389        3.89740
| 10> H          2.06687       -1.41253        4.54981
| 11> C          3.74469       -2.58056        1.36188
| 12> C          3.20372       -1.25600        0.82621
| 13> H          2.89894       -3.23929        1.58307
| 14> H          4.33496       -3.09552        0.60019
| 15> H          5.56156       -1.97135        2.40708
| 16> H          4.81050       -3.42255        3.06310
| 17> H          2.62184       -1.43789       -0.05313
| 18> H          4.02069       -0.60826        0.58562
| 19> H          2.58975       -0.79418        1.57097
| 20> *
| 21>
| 22> %MaxCore 64000
| 23>
| 24> %pal nprocs 18
| 25> end
| 26>
| 27> %scf
| 28>   MaxIter 150
| 29> end
| 30>
| 31>
| 32>                          ****END OF INPUT****

CARTESIAN COORDINATES (ANGSTROEM)
---------------------------------
  C      4.602950   -2.440100    2.634780
  C      3.860850   -1.591570    3.622890
  C      2.756500   -2.046160    4.166330
  N      4.254330   -0.362910    3.860460
  H      3.565260    0.310990    4.168980
  H      5.054290   -0.016060    3.337840
  H      2.439700   -2.973890    3.897400
  H      2.066870   -1.412530    4.549810
  C      3.744690   -2.580560    1.361880
  C      3.203720   -1.256000    0.826210
  H      2.898940   -3.239290    1.583070
  H      4.334960   -3.095520    0.600190
  H      5.561560   -1.971350    2.407080
  H      4.810500   -3.422550    3.063100
  H      2.621840   -1.437890   -0.053130
  H      4.020690   -0.608260    0.585620
  H      2.589750   -0.794180    1.570970

 Total Charge           Charge          ....    0
 Multiplicity           Mult            ....    1
 Number of Electrons    NEL             ....   48
 Basis Dimension        Dim             ....  321

ORBITAL ENERGIES
----------------

  NO   OCC          E(Eh)            E(eV)
   0   2.0000     -14.422358      -392.4523
   1   2.0000     -10.294496      -280.1275
   2   2.0000     -10.276002      -279.6242
   3   2.0000     -10.271720      -279.5077
   4   2.0000     -10.252927      -278.9963
   5   2.0000     -10.200860      -277.5795
   6   2.0000      -1.051968       -28.6255
   7   2.0000      -0.913390       -24.8546
   8   2.0000      -0.845955       -23.0196
   9   2.0000      -0.798863       -21.7382
  10   2.0000      -0.716427       -19.4950
  11   2.0000      -0.662434       -18.0258
  12   2.0000      -0.624551       -16.9949
  13   2.0000      -0.589631       -16.0447
  14   2.0000      -0.558247       -15.1907
  15   2.0000      -0.536175       -14.5901
  16   2.0000      -0.499484       -13.5917
  17   2.0000      -0.485521       -13.2117
  18   2.0000      -0.463223       -12.6049
  19   2.0000      -0.457572       -12.4512
  20   2.0000      -0.430475       -11.7138
  21   2.0000      -0.423186       -11.5155
  22   2.0000      -0.416224       -11.3260
  23   2.0000      -0.278931        -7.5901
  24   0.0000       0.067619         1.8400
  25   0.0000       0.084134         2.2894
  26   0.0000       0.090812         2.4711
  27   0.0000       0.096480         2.6254
  28   0.0000       0.114194         3.1074

MULLIKEN ATOMIC CHARGES
-----------------------
   0 C :   -0.462634
   1 C :    0.509467
   2 C :   -1.372152
   3 N :   -0.390056
   4 H :    0.213111
   5 H :    0.235275
   6 H :    0.382023
   7 H :    0.328093
   8 C :   -0.330184
   9 C :   -1.231791
  10 H :    0.308317
  11 H :    0.292763
  12 H :    0.312123
  13 H :    0.235027
  14 H :    0.331033
  15 H :    0.310510
  16 H :    0.329075
Sum of atomic charges:   -0.0000000

LOEWDIN ATOMIC CHARGES
----------------------
   0 C :   -0.152692
   1 C :   -0.518642
   2 C :    0.007921
   3 N :    0.104291
   4 H :    0.116744
   5 H :    0.109644
   6 H :    0.030273
   7 H :    0.028780
   8 C :   -0.247374
   9 C :   -0.105624
  10 H :    0.103897
  11 H :    0.102718
  12 H :    0.108114
  13 H :    0.117669
  14 H :    0.065411
  15 H :    0.067153
  16 H :    0.061718

  Mayer bond orders larger than 0.100000
B(  0-C ,  1-C ) :   0.6595 B(  0-C ,  8-C ) :   0.8572 B(  0-C , 12-H ) :   0.9678
B(  0-C , 13-H ) :   1.0035 B(  1-C ,  2-C ) :   1.3564 B(  1-C ,  3-N ) :   1.0340
B(  1-C ,  8-C ) :   0.1549 B(  1-C ,  9-C ) :   0.1061 B(  2-C ,  3-N ) :   0.1162
B(  2-C ,  6-H ) :   0.8985 B(  2-C ,  7-H ) :   0.9682 B(  3-N ,  4-H ) :   0.9280
B(  3-N ,  5-H ) :   0.9232 B(  8-C ,  9-C ) :   0.7309 B(  8-C , 10-H ) :   0.8934
B(  8-C , 11-H ) :   0.9458 B(  9-C , 14-H ) :   0.9360 B(  9-C , 15-H ) :   0.9510
B(  9-C , 16-H ) :   0.9750

Dispersion correction           -0.004909280
FINAL SINGLE POINT ENERGY      -251.897134559898

DIPOLE MOMENT
-------------
                                X             Y             Z
Electronic contribution:      1.36305       0.69689       3.39937
Nuclear contribution   :     -1.05621      -0.17147      -3.92631
                        -----------------------------------------
Total Dipole Moment    :      0.30684       0.52541      -0.52694
                        -----------------------------------------
Magnitude (a.u.)       :      0.80491
Magnitude (Debye)      :      2.04591

Rotational constants in cm-1:     0.171127     0.086782     0.080643
Rotational constants in MHz :  5130.249275  2601.647634  2417.629092

                             ****ORCA TERMINATED NORMALLY****
TOTAL RUN TIME: 0 days 0 hours 0 minutes 35 seconds 614 msec
