                         Program Version 5.0.0 -  RELEASE  -
|  1> !wB97X-D3 RIJCOSX def2-TZVPD def2/J TightSCF
|  2> *xyz 0 1
|  3> C         -0.91495        0.61511        2.50554
|  4> C         -0.05915        1.50352        3.41058
|  5> H          0.36536        2.34431        2.86116
|  6> H         -0.69226        1.92021        4.19898
|  7> C          1.08303        0.74964        4.08571
|  8> O          2.22817        1.26348        4.01983
|  9> F          0.81003       -0.34541        4.63627
| 10> C         -0.13074       -0.19398        1.47076
| 11> H         -1.64796        1.24596        1.99108
| 12> H         -1.47818       -0.08105        3.13042
| 13> H         -0.80952       -0.78099        0.88803
| 14> H          0.55985       -0.83974        1.97175
| 15> H          0.40595        0.47288        0.82877
| 16> *
| 17>
| 18> %MaxCore 64000
| 19>
| 20> %pal nprocs 18
| 21> end
| 22>
| 23> %scf
| 24>   MaxIter 150
| 25> end
| 26>
| 27>
| 28>                          ****END OF INPUT****

CARTESIAN COORDINATES (ANGSTROEM)
---------------------------------
  C     -0.914950    0.615110    2.505540
  C     -0.059150    1.503520    3.410580
  H      0.365360    2.344310    2.861160
  H     -0.692260    1.920210    4.198980
  C      1.083030    0.749640    4.085710
  O      2.228170    1.263480    4.019830
  F      0.810030   -0.345410    4.636270
  C     -0.130740   -0.193980    1.470760
  H     -1.647960    1.245960    1.991080
  H     -1.478180   -0.081050    3.130420
  H     -0.809520   -0.780990    0.888030
  H      0.559850   -0.839740    1.971750
  H      0.405950    0.472880    0.828770

 Total Charge           Charge          ....    0
 Multiplicity           Mult            ....    1
 Number of Electrons    NEL             ....   48
 Basis Dimension        Dim             ....  291

ORBITAL ENERGIES
----------------

  NO   OCC          E(Eh)            E(eV)
   0   2.0000     -24.856426      -676.3777
   1   2.0000     -19.234888      -523.4079
   2   2.0000     -10.454574      -284.4834
   3   2.0000     -10.304664      -280.4042
   4   2.0000     -10.293029      -280.0875
   5   2.0000     -10.269455      -279.4461
   6   2.0000      -1.436521       -39.0897
   7   2.0000      -1.146885       -31.2083
   8   2.0000      -0.935824       -25.4651
   9   2.0000      -0.845686       -23.0123
  10   2.0000      -0.772195       -21.0125
  11   2.0000      -0.726087       -19.7578
  12   2.0000      -0.656243       -17.8573
  13   2.0000      -0.646896       -17.6029
  14   2.0000      -0.597944       -16.2709
  15   2.0000      -0.574464       -15.6320
  16   2.0000      -0.558339       -15.1932
  17   2.0000      -0.519181       -14.1276
  18   2.0000      -0.499120       -13.5817
  19   2.0000      -0.472284       -12.8515
  20   2.0000      -0.461021       -12.5450
  21   2.0000      -0.446696       -12.1552
  22   2.0000      -0.438936       -11.9440
  23   2.0000      -0.383623       -10.4389
  24   0.0000       0.053916         1.4671
  25   0.0000       0.065489         1.7820
  26   0.0000       0.086586         2.3561
  27   0.0000       0.089133         2.4254
  28   0.0000       0.092071         2.5054

MULLIKEN ATOMIC CHARGES
-----------------------
   0 C :   -0.300785
   1 C :   -0.266193
   2 H :    0.254849
   3 H :    0.284520
   4 C :    0.542332
   5 O :   -0.588875
   6 F :   -0.239498
   7 C :   -1.278687
   8 H :    0.267507
   9 H :    0.290846
  10 H :    0.324922
  11 H :    0.365718
  12 H :    0.343342
Sum of atomic charges:    0.0000000

LOEWDIN ATOMIC CHARGES
----------------------
   0 C :   -0.255064
   1 C :   -0.117245
   2 H :    0.123445
   3 H :    0.123917
   4 C :   -0.486022
   5 O :    0.072629
   6 F :    0.209095
   7 C :   -0.097556
   8 H :    0.110000
   9 H :    0.106788
  10 H :    0.068526
  11 H :    0.066542
  12 H :    0.074946

  Mayer bond orders larger than 0.100000
B(  0-C ,  1-C ) :   0.7968 B(  0-C ,  7-C ) :   0.6548 B(  0-C ,  8-H ) :   0.9537
B(  0-C ,  9-H ) :   0.9285 B(  1-C ,  2-H ) :   0.9821 B(  1-C ,  3-H ) :   0.9146
B(  1-C ,  4-C ) :   0.9151 B(  4-C ,  5-O ) :   1.6382 B(  4-C ,  6-F ) :   0.9181
B(  4-C ,  7-C ) :   0.1114 B(  7-C , 10-H ) :   0.9518 B(  7-C , 11-H ) :   0.9071
B(  7-C , 12-H ) :   0.9608

Dispersion correction           -0.003318922
FINAL SINGLE POINT ENERGY      -331.755858737657

DIPOLE MOMENT
-------------
                                X             Y             Z
Electronic contribution:      5.53905      -1.26680       8.23014
Nuclear contribution   :     -6.78915       1.21145      -8.56691
                        -----------------------------------------
Total Dipole Moment    :     -1.25010      -0.05535      -0.33677
                        -----------------------------------------
Magnitude (a.u.)       :      1.29585
Magnitude (Debye)      :      3.29379

Rotational constants in cm-1:     0.188995     0.079574     0.075294
Rotational constants in MHz :  5665.932233  2385.568994  2257.246443

                             ****ORCA TERMINATED NORMALLY****
TOTAL RUN TIME: 0 days 0 hours 0 minutes 26 seconds 359 msec
