                         Program Version 5.0.0 -  RELEASE  -
|  1> !wB97X-D3 RIJCOSX def2-TZVPD def2/J TightSCF
|  2> *xyz 0 1
|  3> C          4.60295       -2.44010        2.63478
|  4> C          3.86085       -1.59157        3.62289
|  5> N          2.75650       -2.04616        4.16633
|  6> C          4.25433       -0.36291        3.86046
|  7> H          3.56526        0.31099        4.16898
|  8> H          5.05429       -0.01606        3.33784
|  9> H          2.43970       -2.97389        3.89740
| 10> H          2.06687       -1.41253        4.54981
| 11> C          3.74469       -2.58056        1.36188
| 12> C          3.20372       -1.25600        0.82621
| 13> H          2.89894       -3.23929        1.58307
| 14> H          4.33496       -3.09552        0.60019
| 15> H          5.56156       -1.97135        2.40708
| 16> H          4.81050       -3.42255        3.06310
| 17> H          2.62184       -1.43789       -0.05313
| 18> H          4.02069       -0.60826        0.58562
| 19> H          2.58975       -0.79418        1.57097
| 20> *
| 21>
| 22> %MaxCore 64000
| 23>
| 24> %pal nprocs 18
| 25> end
| 26>
| 27> %scf
| 28>   MaxIter 150
| 29> end
| 30>
| 31>
| 32>                          ****END OF INPUT****

CARTESIAN COORDINATES (ANGSTROEM)
---------------------------------
  C      4.602950   -2.440100    2.634780
  C      3.860850   -1.591570    3.622890
  N      2.756500   -2.046160    4.166330
  C      4.254330   -0.362910    3.860460
  H      3.565260    0.310990    4.168980
  H      5.054290   -0.016060    3.337840
  H      2.439700   -2.973890    3.897400
  H      2.066870   -1.412530    4.549810
  C      3.744690   -2.580560    1.361880
  C      3.203720   -1.256000    0.826210
  H      2.898940   -3.239290    1.583070
  H      4.334960   -3.095520    0.600190
  H      5.561560   -1.971350    2.407080
  H      4.810500   -3.422550    3.063100
  H      2.621840   -1.437890   -0.053130
  H      4.020690   -0.608260    0.585620
  H      2.589750   -0.794180    1.570970

 Total Charge           Charge          ....    0
 Multiplicity           Mult            ....    1
 Number of Electrons    NEL             ....   48
 Basis Dimension        Dim             ....  321

ORBITAL ENERGIES
----------------

  NO   OCC          E(Eh)            E(eV)
   0   2.0000     -14.422791      -392.4641
   1   2.0000     -10.294835      -280.1367
   2   2.0000     -10.275269      -279.6043
   3   2.0000     -10.275026      -279.5977
   4   2.0000     -10.251634      -278.9611
   5   2.0000     -10.201735      -277.6033
   6   2.0000      -1.051749       -28.6195
   7   2.0000      -0.912204       -24.8223
   8   2.0000      -0.849022       -23.1031
   9   2.0000      -0.800273       -21.7765
  10   2.0000      -0.709226       -19.2990
  11   2.0000      -0.672879       -18.3100
  12   2.0000      -0.628259       -17.0958
  13   2.0000      -0.573887       -15.6163
  14   2.0000      -0.559563       -15.2265
  15   2.0000      -0.547927       -14.9099
  16   2.0000      -0.487551       -13.2669
  17   2.0000      -0.486991       -13.2517
  18   2.0000      -0.472797       -12.8655
  19   2.0000      -0.459171       -12.4947
  20   2.0000      -0.427042       -11.6204
  21   2.0000      -0.424119       -11.5409
  22   2.0000      -0.413562       -11.2536
  23   2.0000      -0.280857        -7.6425
  24   0.0000       0.066168         1.8005
  25   0.0000       0.084563         2.3011
  26   0.0000       0.091423         2.4877
  27   0.0000       0.094857         2.5812
  28   0.0000       0.113600         3.0912

MULLIKEN ATOMIC CHARGES
-----------------------
   0 C :   -0.449650
   1 C :    0.389650
   2 N :   -0.400275
   3 C :   -1.252580
   4 H :    0.328593
   5 H :    0.371946
   6 H :    0.236568
   7 H :    0.183574
   8 C :   -0.255883
   9 C :   -1.220797
  10 H :    0.271408
  11 H :    0.268005
  12 H :    0.280866
  13 H :    0.253912
  14 H :    0.334663
  15 H :    0.324339
  16 H :    0.335662
Sum of atomic charges:   -0.0000000

LOEWDIN ATOMIC CHARGES
----------------------
   0 C :   -0.154322
   1 C :   -0.521665
   2 N :    0.107508
   3 C :    0.007182
   4 H :    0.029384
   5 H :    0.027922
   6 H :    0.111592
   7 H :    0.117705
   8 C :   -0.248863
   9 C :   -0.104186
  10 H :    0.096886
  11 H :    0.104008
  12 H :    0.115125
  13 H :    0.112232
  14 H :    0.064336
  15 H :    0.073110
  16 H :    0.062046

  Mayer bond orders larger than 0.100000
B(  0-C ,  1-C ) :   0.8487 B(  0-C ,  8-C ) :   0.8887 B(  0-C , 12-H ) :   0.9103
B(  0-C , 13-H ) :   1.0142 B(  1-C ,  2-N ) :   1.0276 B(  1-C ,  3-C ) :   1.4933
B(  1-C ,  9-C ) :   0.1266 B(  2-N ,  6-H ) :   0.9285 B(  2-N ,  7-H ) :   0.9688
B(  3-C ,  4-H ) :   0.9566 B(  3-C ,  5-H ) :   0.9247 B(  3-C ,  9-C ) :   0.1002
B(  8-C ,  9-C ) :   0.7862 B(  8-C , 10-H ) :   0.8865 B(  8-C , 11-H ) :   0.9558
B(  9-C , 14-H ) :   0.9335 B(  9-C , 15-H ) :   0.9552 B(  9-C , 16-H ) :   0.9624

Dispersion correction           -0.004912654
FINAL SINGLE POINT ENERGY      -251.897063132205

DIPOLE MOMENT
-------------
                                X             Y             Z
Electronic contribution:      0.08433      -0.73399       3.67427
Nuclear contribution   :     -0.70193       0.22667      -3.99866
                        -----------------------------------------
Total Dipole Moment    :     -0.61760      -0.50732      -0.32439
                        -----------------------------------------
Magnitude (a.u.)       :      0.86258
Magnitude (Debye)      :      2.19249

Rotational constants in cm-1:     0.170665     0.086587     0.081284
Rotational constants in MHz :  5116.404877  2595.819690  2436.831753

                             ****ORCA TERMINATED NORMALLY****
TOTAL RUN TIME: 0 days 0 hours 0 minutes 29 seconds 965 msec
