                         Program Version 5.0.0 -  RELEASE  -
|  1> !wB97X-D3 RIJCOSX def2-TZVPD def2/J TightSCF xyzfile
|  2>
|  3> *xyzfile 0 1 D3.xyz
|  4>
|  5> %MaxCore 64000
|  6>
|  7> %pal nprocs 18
|  8> end
|  9>
| 10> %scf
| 11>   MaxIter 150
| 12> end
| 13>
| 14>
| 15>                          ****END OF INPUT****

CARTESIAN COORDINATES (ANGSTROEM)
---------------------------------
  C      4.602954   -2.440100    2.634780
  C     -0.914947    0.615112    2.505538
  C     -0.059146    1.503524    3.410578
  H      0.365364    2.344315    2.861161
  H     -0.692261    1.920207    4.198985
  C      1.083027    0.749640    4.085705
  C      3.860851   -1.591565    3.622893
  C      2.756502   -2.046159    4.166333
  N      4.254325   -0.362905    3.860455
  H      3.565256    0.310994    4.168983
  H      5.054292   -0.016059    3.337838
  H      2.439696   -2.973894    3.897395
  H      2.066869   -1.412532    4.549813
  O      2.228167    1.263475    4.019826
  F      0.810034   -0.345411    4.636269
  C      3.744685   -2.580557    1.361882
  C      0.772139    0.636882    0.562129
  C     -0.130740   -0.193985    1.470763
  H     -0.840563   -0.760165    0.856377
  H      0.466691   -0.938942    2.006959
  H     -1.647961    1.245963    1.991076
  H     -1.478180   -0.081046    3.130424
  C      3.203721   -1.256004    0.826211
  H      2.898939   -3.239289    1.583074
  H      4.334962   -3.095523    0.600188
  C      2.107815   -1.442385   -0.216865
  H      2.786775   -0.672760    1.650711
  H      4.021008   -0.652993    0.414046
  C      1.390662   -0.145912   -0.602422
  H      1.372179   -2.152184    0.176151
  H      2.523302   -1.906787   -1.117115
  H      1.561361    1.100094    1.161831
  H      0.195516    1.468325    0.142758
  H      0.602893   -0.398214   -1.319716
  H      2.087247    0.508272   -1.137335
  H      5.561557   -1.971347    2.407084
  H      4.810498   -3.422552    3.063099

 Total Charge           Charge          ....    0
 Multiplicity           Mult            ....    1
 Number of Electrons    NEL             ....  118
 Basis Dimension        Dim             ....  759

ORBITAL ENERGIES
----------------

  NO   OCC          E(Eh)            E(eV)
   0   2.0000     -24.871495      -676.7878
   1   2.0000     -19.258926      -524.0620
   2   2.0000     -14.384221      -391.4146
   3   2.0000     -10.477414      -285.1049
   4   2.0000     -10.314579      -280.6740
   5   2.0000     -10.296534      -280.1829
   6   2.0000     -10.280504      -279.7467
   7   2.0000     -10.275531      -279.6114
   8   2.0000     -10.274009      -279.5700
   9   2.0000     -10.269804      -279.4556
  10   2.0000     -10.263763      -279.2912
  11   2.0000     -10.262695      -279.2621
  12   2.0000     -10.262173      -279.2479
  13   2.0000     -10.258182      -279.1393
  14   2.0000     -10.176121      -276.9063
  15   2.0000      -1.456396       -39.6306
  16   2.0000      -1.176597       -32.0168
  17   2.0000      -1.024650       -27.8821
  18   2.0000      -0.953658       -25.9504
  19   2.0000      -0.924351       -25.1529
  20   2.0000      -0.897208       -24.4143
  21   2.0000      -0.861020       -23.4296
  22   2.0000      -0.827804       -22.5257
  23   2.0000      -0.808747       -22.0071
  24   2.0000      -0.781936       -21.2776
  25   2.0000      -0.761888       -20.7320
  26   2.0000      -0.725339       -19.7375
  27   2.0000      -0.700000       -19.0480
  28   2.0000      -0.676729       -18.4147
  29   2.0000      -0.673984       -18.3400
  30   2.0000      -0.662527       -18.0283
  31   2.0000      -0.648672       -17.6513
  32   2.0000      -0.625683       -17.0257
  33   2.0000      -0.596026       -16.2187
  34   2.0000      -0.587811       -15.9952
  35   2.0000      -0.581614       -15.8265
  36   2.0000      -0.569858       -15.5066
  37   2.0000      -0.549697       -14.9580
  38   2.0000      -0.545205       -14.8358
  39   2.0000      -0.530424       -14.4336
  40   2.0000      -0.523727       -14.2513
  41   2.0000      -0.508455       -13.8358
  42   2.0000      -0.506578       -13.7847
  43   2.0000      -0.488792       -13.3007
  44   2.0000      -0.482950       -13.1417
  45   2.0000      -0.472496       -12.8573
  46   2.0000      -0.467914       -12.7326
  47   2.0000      -0.460660       -12.5352
  48   2.0000      -0.448071       -12.1926
  49   2.0000      -0.437652       -11.9091
  50   2.0000      -0.434537       -11.8243
  51   2.0000      -0.428550       -11.6614
  52   2.0000      -0.416859       -11.3433
  53   2.0000      -0.411827       -11.2064
  54   2.0000      -0.404317       -11.0020
  55   2.0000      -0.401545       -10.9266
  56   2.0000      -0.393356       -10.7038
  57   2.0000      -0.385674       -10.4947
  58   2.0000      -0.256926        -6.9913
  59   0.0000       0.035182         0.9573
  60   0.0000       0.060653         1.6505
  61   0.0000       0.071190         1.9372
  62   0.0000       0.075206         2.0464
  63   0.0000       0.079109         2.1527

MULLIKEN ATOMIC CHARGES
-----------------------
   0 C :   -0.821018
   1 C :   -0.723162
   2 C :   -0.452750
   3 H :    0.306275
   4 H :    0.325735
   5 C :    0.677629
   6 C :    0.389847
   7 C :   -1.605241
   8 N :   -0.280839
   9 H :    0.318282
  10 H :    0.252221
  11 H :    0.434685
  12 H :    0.623184
  13 O :   -0.688084
  14 F :   -0.335080
  15 C :   -0.673022
  16 C :   -0.333567
  17 C :   -0.450505
  18 H :    0.394401
  19 H :    0.156087
  20 H :    0.294972
  21 H :    0.326738
  22 C :    0.440835
  23 H :    0.282979
  24 H :    0.316277
  25 C :   -0.540722
  26 H :   -0.466925
  27 H :    0.245330
  28 C :   -0.877428
  29 H :    0.260017
  30 H :    0.348683
  31 H :    0.297154
  32 H :    0.336912
  33 H :    0.304112
  34 H :    0.302837
  35 H :    0.347285
  36 H :    0.265867
Sum of atomic charges:    0.0000000

LOEWDIN ATOMIC CHARGES
----------------------
   0 C :   -0.140039
   1 C :   -0.197086
   2 C :   -0.093231
   3 H :    0.123208
   4 H :    0.128746
   5 C :   -0.428485
   6 C :   -0.495956
   7 C :    0.018599
   8 N :    0.115648
   9 H :    0.043628
  10 H :    0.112516
  11 H :    0.036199
  12 H :   -0.003994
  13 O :    0.073606
  14 F :    0.189051
  15 C :   -0.195894
  16 C :   -0.214193
  17 C :   -0.209022
  18 H :    0.123176
  19 H :    0.105651
  20 H :    0.117552
  21 H :    0.113193
  22 C :   -0.214693
  23 H :    0.108505
  24 H :    0.110878
  25 C :   -0.218398
  26 H :    0.084545
  27 H :    0.125976
  28 C :   -0.209098
  29 H :    0.107885
  30 H :    0.114382
  31 H :    0.104314
  32 H :    0.116900
  33 H :    0.109006
  34 H :    0.111060
  35 H :    0.108625
  36 H :    0.117241

  Mayer bond orders larger than 0.100000
B(  0-C ,  6-C ) :   0.8356 B(  0-C , 15-C ) :   0.8593 B(  0-C , 22-C ) :   0.1628
B(  0-C , 35-H ) :   0.8981 B(  0-C , 36-H ) :   0.9881 B(  1-C ,  2-C ) :   0.8351
B(  1-C ,  5-C ) :   0.1611 B(  1-C , 16-C ) :   0.2544 B(  1-C , 17-C ) :   0.9069
B(  1-C , 20-H ) :   0.9221 B(  1-C , 21-H ) :   0.9183 B(  2-C ,  3-H ) :   0.9637
B(  2-C ,  4-H ) :   0.8498 B(  2-C ,  5-C ) :   0.9557 B(  2-C , 16-C ) :   0.1918
B(  5-C , 13-O ) :   1.5595 B(  5-C , 14-F ) :   0.8269 B(  6-C ,  7-C ) :   1.3567
B(  6-C ,  8-N ) :   1.2142 B(  7-C , 11-H ) :   0.9654 B(  7-C , 12-H ) :   0.6268
B(  8-N ,  9-H ) :   0.7765 B(  8-N , 10-H ) :   0.8319 B( 15-C , 22-C ) :   0.5361
B( 15-C , 23-H ) :   0.8842 B( 15-C , 24-H ) :   0.9136 B( 15-C , 25-C ) :   0.5479
B( 15-C , 26-H ) :   0.1861 B( 15-C , 27-H ) :  -0.1617 B( 16-C , 17-C ) :   0.4355
B( 16-C , 19-H ) :  -0.1370 B( 16-C , 22-C ) :   0.1116 B( 16-C , 28-C ) :   0.8905
B( 16-C , 31-H ) :   1.0332 B( 16-C , 32-H ) :   0.8007 B( 17-C , 18-H ) :   0.7513
B( 17-C , 19-H ) :   1.2496 B( 17-C , 25-C ) :   0.1642 B( 17-C , 28-C ) :   0.3481
B( 17-C , 29-H ) :   0.1106 B( 17-C , 31-H ) :  -0.1112 B( 22-C , 25-C ) :   0.3862
B( 22-C , 26-H ) :   1.5026 B( 22-C , 27-H ) :   0.8684 B( 22-C , 28-C ) :   0.2881
B( 23-H , 25-C ) :   0.1239 B( 25-C , 27-H ) :  -0.1214 B( 25-C , 28-C ) :   0.9259
B( 25-C , 29-H ) :   0.9468 B( 25-C , 30-H ) :   0.8676 B( 28-C , 33-H ) :   0.9224
B( 28-C , 34-H ) :   0.9365

Dispersion correction           -0.019741224
FINAL SINGLE POINT ENERGY      -700.391144776971

DIPOLE MOMENT
-------------
                                X             Y             Z
Electronic contribution:     -1.23992       4.75563      15.94508
Nuclear contribution   :      0.05905      -3.94566     -16.70013
                        -----------------------------------------
Total Dipole Moment    :     -1.18087       0.80997      -0.75505
                        -----------------------------------------
Magnitude (a.u.)       :      1.61883
Magnitude (Debye)      :      4.11474

Rotational constants in cm-1:     0.021602     0.017295     0.011353
Rotational constants in MHz :   647.614981   518.478934   340.359556

                             ****ORCA TERMINATED NORMALLY****
TOTAL RUN TIME: 0 days 0 hours 4 minutes 50 seconds 852 msec
