                         Program Version 5.0.0 -  RELEASE  -
|  1> !PBE D3BJ RIJCOSX def2-SVPD def2/J TightSCF
|  2> *xyz -1 1
|  3> C         -0.87096        0.24804       -2.66280
|  4> C         -0.47749        0.60819       -4.10105
|  5> H          0.20677        1.45830       -4.11875
|  6> H         -1.36844        0.92942       -4.64785
|  7> C          0.18467       -0.50664       -4.91676
|  8> O         -0.15869       -1.70109       -4.65798
|  9> O          1.05594       -0.17441       -5.74037
| 10> C          0.10016       -0.67355       -1.91581
| 11> H         -1.00105        1.18104       -2.10407
| 12> H         -1.84465       -0.24659       -2.66328
| 13> H          0.22336       -1.58297       -2.46597
| 14> H         -0.29270       -0.89423       -0.94532
| 15> H          1.04759       -0.18666       -1.81480
| 16> *
| 17>
| 18> %MaxCore 64000
| 19>
| 20> %pal nprocs 4
| 21> end
| 22>
| 23> %scf
| 24>   MaxIter 150
| 25> end
| 26>
| 27>
| 28>                          ****END OF INPUT****

CARTESIAN COORDINATES (ANGSTROEM)
---------------------------------
  C     -0.870960    0.248040   -2.662800
  C     -0.477490    0.608190   -4.101050
  H      0.206770    1.458300   -4.118750
  H     -1.368440    0.929420   -4.647850
  C      0.184670   -0.506640   -4.916760
  O     -0.158690   -1.701090   -4.657980
  O      1.055940   -0.174410   -5.740370
  C      0.100160   -0.673550   -1.915810
  H     -1.001050    1.181040   -2.104070
  H     -1.844650   -0.246590   -2.663280
  H      0.223360   -1.582970   -2.465970
  H     -0.292700   -0.894230   -0.945320
  H      1.047590   -0.186660   -1.814800

 Total Charge           Charge          ....   -1
 Multiplicity           Mult            ....    1
 Number of Electrons    NEL             ....   48
 Basis Dimension        Dim             ....  182

ORBITAL ENERGIES
----------------

  NO   OCC          E(Eh)            E(eV)
   0   2.0000     -18.511025      -503.7106
   1   2.0000     -18.508380      -503.6386
   2   2.0000      -9.777003      -266.0458
   3   2.0000      -9.746618      -265.2190
   4   2.0000      -9.729919      -264.7645
   5   2.0000      -9.724246      -264.6102
   6   2.0000      -0.730289       -19.8722
   7   2.0000      -0.640805       -17.4372
   8   2.0000      -0.553103       -15.0507
   9   2.0000      -0.467060       -12.7093
  10   2.0000      -0.378651       -10.3036
  11   2.0000      -0.267938        -7.2910
  12   2.0000      -0.253833        -6.9072
  13   2.0000      -0.238942        -6.5019
  14   2.0000      -0.207613        -5.6494
  15   2.0000      -0.179981        -4.8975
  16   2.0000      -0.167627        -4.5614
  17   2.0000      -0.160305        -4.3621
  18   2.0000      -0.147094        -4.0026
  19   2.0000      -0.133446        -3.6313
  20   2.0000      -0.120328        -3.2743
  21   2.0000      -0.017892        -0.4869
  22   2.0000      -0.004062        -0.1105
  23   2.0000       0.012417         0.3379
  24   0.0000       0.131060         3.5663
  25   0.0000       0.156638         4.2624
  26   0.0000       0.172249         4.6871
  27   0.0000       0.179128         4.8743
  28   0.0000       0.197286         5.3684

MULLIKEN ATOMIC CHARGES
-----------------------
   0 C :   -0.405769
   1 C :    0.103510
   2 H :    0.053284
   3 H :   -0.045331
   4 C :    0.288917
   5 O :   -0.707258
   6 O :   -0.616864
   7 C :    0.697637
   8 H :   -0.145649
   9 H :   -0.018165
  10 H :   -0.087435
  11 H :   -0.065324
  12 H :   -0.051551
Sum of atomic charges:   -1.0000000

LOEWDIN ATOMIC CHARGES
----------------------
   0 C :   -0.091427
   1 C :   -0.000828
   2 H :   -0.001130
   3 H :    0.008950
   4 C :   -0.312315
   5 O :   -0.299303
   6 O :   -0.299532
   7 C :    0.108104
   8 H :   -0.004637
   9 H :    0.007003
  10 H :   -0.048955
  11 H :   -0.040156
  12 H :   -0.025774

  Mayer bond orders larger than 0.100000
B(  0-C ,  1-C ) :   1.2359 B(  0-C ,  2-H ) :   0.1344 B(  0-C ,  3-H ) :   0.1372
B(  0-C ,  7-C ) :   1.3778 B(  0-C ,  8-H ) :   0.9317 B(  0-C ,  9-H ) :   0.8735
B(  0-C , 10-H ) :   0.2119 B(  0-C , 11-H ) :   0.2442 B(  0-C , 12-H ) :   0.2108
B(  1-C ,  2-H ) :   0.8374 B(  1-C ,  3-H ) :   0.8227 B(  1-C ,  4-C ) :   1.1085
B(  1-C ,  8-H ) :   0.1275 B(  1-C ,  9-H ) :   0.1228 B(  2-H ,  4-C ) :   0.2087
B(  3-H ,  4-C ) :   0.1020 B(  4-C ,  5-O ) :   1.4650 B(  4-C ,  6-O ) :   1.4126
B(  7-C ,  8-H ) :   0.1142 B(  7-C ,  9-H ) :   0.1054 B(  7-C , 10-H ) :   0.8403
B(  7-C , 11-H ) :   0.7080 B(  7-C , 12-H ) :   0.7604

Dispersion correction           -0.009869300
FINAL SINGLE POINT ENERGY      -306.589510536958

DIPOLE MOMENT
-------------
                                X             Y             Z
Electronic contribution:      1.84972      -2.06427      -6.79147
Nuclear contribution   :     -2.71698       3.10699       8.64748
                        -----------------------------------------
Total Dipole Moment    :     -0.86727       1.04273       1.85601
                        -----------------------------------------
Magnitude (a.u.)       :      2.29874
Magnitude (Debye)      :      5.84293

Rotational constants in cm-1:     0.212307     0.084237     0.072775
Rotational constants in MHz :  6364.813744  2525.362351  2181.751235

                             ****ORCA TERMINATED NORMALLY****
TOTAL RUN TIME: 0 days 0 hours 0 minutes 7 seconds 208 msec
