                         Program Version 5.0.0 -  RELEASE  -
|  1> !PBE D3BJ RIJCOSX def2-SVPD def2/J TightSCF
|  2> *xyz 1 1
|  3> C          2.48645       -2.67712       -2.56345
|  4> C          3.03764       -2.36672       -3.92351
|  5> N          2.28036       -2.45441       -4.96769
|  6> N          4.32174       -2.01793       -4.01664
|  7> H          4.87994       -1.91167       -3.17382
|  8> H          4.71015       -1.67088       -4.88356
|  9> H          1.27042       -2.41265       -4.86614
| 10> H          2.58183       -2.05528       -5.84688
| 11> C          2.49799       -1.46946       -1.61030
| 12> C          1.58284       -0.32199       -2.04262
| 13> H          2.19308       -1.83391       -0.62542
| 14> H          3.52336       -1.10398       -1.49039
| 15> H          1.47259       -3.05153       -2.69437
| 16> H          3.08320       -3.49064       -2.14147
| 17> H          1.88480        0.03130       -3.00642
| 18> H          1.65140        0.47571       -1.33278
| 19> H          0.57235       -0.67052       -2.09099
| 20> *
| 21>
| 22> %MaxCore 64000
| 23>
| 24> %pal nprocs 4
| 25> end
| 26>
| 27> %scf
| 28>   MaxIter 150
| 29> end
| 30>
| 31>
| 32>                          ****END OF INPUT****

CARTESIAN COORDINATES (ANGSTROEM)
---------------------------------
  C      2.486450   -2.677120   -2.563450
  C      3.037640   -2.366720   -3.923510
  N      2.280360   -2.454410   -4.967690
  N      4.321740   -2.017930   -4.016640
  H      4.879940   -1.911670   -3.173820
  H      4.710150   -1.670880   -4.883560
  H      1.270420   -2.412650   -4.866140
  H      2.581830   -2.055280   -5.846880
  C      2.497990   -1.469460   -1.610300
  C      1.582840   -0.321990   -2.042620
  H      2.193080   -1.833910   -0.625420
  H      3.523360   -1.103980   -1.490390
  H      1.472590   -3.051530   -2.694370
  H      3.083200   -3.490640   -2.141470
  H      1.884800    0.031300   -3.006420
  H      1.651400    0.475710   -1.332780
  H      0.572350   -0.670520   -2.090990

 Total Charge           Charge          ....    1
 Multiplicity           Mult            ....    1
 Number of Electrons    NEL             ....   48
 Basis Dimension        Dim             ....  208

ORBITAL ENERGIES
----------------

  NO   OCC          E(Eh)            E(eV)
   0   2.0000     -14.246598      -387.6696
   1   2.0000     -14.241955      -387.5433
   2   2.0000     -10.208085      -277.7761
   3   2.0000     -10.089824      -274.5581
   4   2.0000     -10.061134      -273.7774
   5   2.0000     -10.025441      -272.8061
   6   2.0000      -1.115007       -30.3409
   7   2.0000      -1.024427       -27.8761
   8   2.0000      -0.896176       -24.3862
   9   2.0000      -0.818896       -22.2833
  10   2.0000      -0.774332       -21.0706
  11   2.0000      -0.725559       -19.7435
  12   2.0000      -0.716216       -19.4892
  13   2.0000      -0.676055       -18.3964
  14   2.0000      -0.650879       -17.7113
  15   2.0000      -0.605727       -16.4827
  16   2.0000      -0.579857       -15.7787
  17   2.0000      -0.547973       -14.9111
  18   2.0000      -0.531059       -14.4509
  19   2.0000      -0.518554       -14.1106
  20   2.0000      -0.466546       -12.6954
  21   2.0000      -0.460886       -12.5414
  22   2.0000      -0.458163       -12.4672
  23   2.0000      -0.450917       -12.2701
  24   0.0000      -0.248019        -6.7489
  25   0.0000      -0.179138        -4.8746
  26   0.0000      -0.140931        -3.8349
  27   0.0000      -0.138358        -3.7649
  28   0.0000      -0.109251        -2.9729

MULLIKEN ATOMIC CHARGES
-----------------------
   0 C :    0.131747
   1 C :    0.679516
   2 N :    0.140540
   3 N :    0.076894
   4 H :    0.024534
   5 H :   -0.153588
   6 H :    0.007606
   7 H :   -0.115911
   8 C :   -0.351822
   9 C :    0.777770
  10 H :   -0.064680
  11 H :   -0.053318
  12 H :    0.060610
  13 H :   -0.011584
  14 H :   -0.097736
  15 H :   -0.079142
  16 H :    0.028564
Sum of atomic charges:    1.0000000

LOEWDIN ATOMIC CHARGES
----------------------
   0 C :    0.044822
   1 C :   -0.067097
   2 N :    0.296667
   3 N :    0.301926
   4 H :    0.046553
   5 H :    0.043196
   6 H :    0.057001
   7 H :    0.048953
   8 C :   -0.049118
   9 C :    0.146076
  10 H :    0.042481
  11 H :    0.021670
  12 H :    0.037773
  13 H :    0.054111
  14 H :   -0.021443
  15 H :    0.001434
  16 H :   -0.005006

  Mayer bond orders larger than 0.100000
B(  0-C ,  1-C ) :   1.1427 B(  0-C ,  2-N ) :   0.1074 B(  0-C ,  8-C ) :   1.2085
B(  0-C , 10-H ) :   0.1217 B(  0-C , 11-H ) :   0.1251 B(  0-C , 12-H ) :   0.7689
B(  0-C , 13-H ) :   0.8224 B(  1-C ,  2-N ) :   1.0690 B(  1-C ,  3-N ) :   1.0885
B(  1-C ,  5-H ) :  -0.1575 B(  1-C ,  7-H ) :  -0.1294 B(  1-C , 12-H ) :   0.1804
B(  1-C , 13-H ) :   0.1258 B(  2-N ,  3-N ) :   0.1952 B(  2-N ,  6-H ) :   1.0650
B(  2-N ,  7-H ) :   1.1955 B(  3-N ,  4-H ) :   1.0929 B(  3-N ,  5-H ) :   1.2948
B(  4-H ,  5-H ) :  -0.1849 B(  6-H ,  7-H ) :  -0.1348 B(  8-C ,  9-C ) :   1.4098
B(  8-C , 10-H ) :   0.9432 B(  8-C , 11-H ) :   0.8706 B(  8-C , 12-H ) :   0.1384
B(  8-C , 13-H ) :   0.1036 B(  8-C , 14-H ) :   0.2474 B(  8-C , 15-H ) :   0.2361
B(  8-C , 16-H ) :   0.2198 B(  9-C , 14-H ) :   0.8028 B(  9-C , 15-H ) :   0.7491
B(  9-C , 16-H ) :   0.7535

Dispersion correction           -0.013676766
FINAL SINGLE POINT ENERGY      -267.826301616180

DIPOLE MOMENT
-------------
                                X             Y             Z
Electronic contribution:      2.38325      -2.80799      -4.28204
Nuclear contribution   :     -1.82438       2.64851       2.98450
                        -----------------------------------------
Total Dipole Moment    :      0.55887      -0.15948      -1.29754
                        -----------------------------------------
Magnitude (a.u.)       :      1.42175
Magnitude (Debye)      :      3.61380

Rotational constants in cm-1:     0.176712     0.077069     0.069669
Rotational constants in MHz :  5297.698588  2310.466480  2088.633881

                             ****ORCA TERMINATED NORMALLY****
TOTAL RUN TIME: 0 days 0 hours 0 minutes 8 seconds 744 msec
