                         Program Version 5.0.0 -  RELEASE  -
|  1> !PBE D3BJ RIJCOSX def2-SVPD def2/J TightSCF
|  2> *xyz 0 1
|  3> C         -0.87096        0.24804       -2.66280
|  4> C         -0.47749        0.60819       -4.10105
|  5> H          0.20677        1.45830       -4.11875
|  6> H         -1.36844        0.92942       -4.64785
|  7> C          0.18467       -0.50664       -4.91676
|  8> F         -0.15869       -1.70109       -4.65798
|  9> O          1.05594       -0.17441       -5.74037
| 10> C          0.10016       -0.67355       -1.91581
| 11> H         -1.00105        1.18104       -2.10407
| 12> H         -1.84465       -0.24659       -2.66328
| 13> H          0.22336       -1.58297       -2.46597
| 14> H         -0.29270       -0.89423       -0.94532
| 15> H          1.04759       -0.18666       -1.81480
| 16> *
| 17>
| 18> %MaxCore 64000
| 19>
| 20> %pal nprocs 4
| 21> end
| 22>
| 23> %scf
| 24>   MaxIter 150
| 25> end
| 26>
| 27>
| 28>                          ****END OF INPUT****

CARTESIAN COORDINATES (ANGSTROEM)
---------------------------------
  C     -0.870960    0.248040   -2.662800
  C     -0.477490    0.608190   -4.101050
  H      0.206770    1.458300   -4.118750
  H     -1.368440    0.929420   -4.647850
  C      0.184670   -0.506640   -4.916760
  F     -0.158690   -1.701090   -4.657980
  O      1.055940   -0.174410   -5.740370
  C      0.100160   -0.673550   -1.915810
  H     -1.001050    1.181040   -2.104070
  H     -1.844650   -0.246590   -2.663280
  H      0.223360   -1.582970   -2.465970
  H     -0.292700   -0.894230   -0.945320
  H      1.047590   -0.186660   -1.814800

 Total Charge           Charge          ....    0
 Multiplicity           Mult            ....    1
 Number of Electrons    NEL             ....   48
 Basis Dimension        Dim             ....  182

ORBITAL ENERGIES
----------------

  NO   OCC          E(Eh)            E(eV)
   0   2.0000     -24.341352      -662.3618
   1   2.0000     -18.774055      -510.8680
   2   2.0000     -10.066351      -273.9193
   3   2.0000      -9.926876      -270.1240
   4   2.0000      -9.914064      -269.7754
   5   2.0000      -9.891479      -269.1608
   6   2.0000      -1.196145       -32.5488
   7   2.0000      -0.945445       -25.7269
   8   2.0000      -0.737068       -20.0566
   9   2.0000      -0.656738       -17.8708
  10   2.0000      -0.593563       -16.1517
  11   2.0000      -0.554482       -15.0882
  12   2.0000      -0.489202       -13.3119
  13   2.0000      -0.478526       -13.0213
  14   2.0000      -0.435906       -11.8616
  15   2.0000      -0.426726       -11.6118
  16   2.0000      -0.403418       -10.9776
  17   2.0000      -0.373365       -10.1598
  18   2.0000      -0.358940        -9.7673
  19   2.0000      -0.337299        -9.1784
  20   2.0000      -0.321934        -8.7603
  21   2.0000      -0.316807        -8.6207
  22   2.0000      -0.300206        -8.1690
  23   2.0000      -0.247080        -6.7234
  24   0.0000      -0.069608        -1.8941
  25   0.0000      -0.008776        -0.2388
  26   0.0000       0.026888         0.7317
  27   0.0000       0.028780         0.7832
  28   0.0000       0.038799         1.0558

MULLIKEN ATOMIC CHARGES
-----------------------
   0 C :   -0.338079
   1 C :    0.051977
   2 H :    0.076571
   3 H :    0.005970
   4 C :    0.663401
   5 F :   -0.392896
   6 O :   -0.445960
   7 C :    0.733286
   8 H :   -0.138781
   9 H :   -0.012375
  10 H :   -0.117121
  11 H :   -0.055691
  12 H :   -0.030302
Sum of atomic charges:   -0.0000000

LOEWDIN ATOMIC CHARGES
----------------------
   0 C :   -0.068853
   1 C :    0.046680
   2 H :    0.035803
   3 H :    0.040499
   4 C :   -0.033595
   5 F :   -0.025090
   6 O :   -0.109506
   7 C :    0.130336
   8 H :    0.023683
   9 H :    0.021411
  10 H :   -0.037085
  11 H :   -0.013942
  12 H :   -0.010340

  Mayer bond orders larger than 0.100000
B(  0-C ,  1-C ) :   1.2631 B(  0-C ,  2-H ) :   0.1253 B(  0-C ,  3-H ) :   0.1301
B(  0-C ,  7-C ) :   1.3987 B(  0-C ,  8-H ) :   0.9146 B(  0-C ,  9-H ) :   0.8670
B(  0-C , 10-H ) :   0.1956 B(  0-C , 11-H ) :   0.2321 B(  0-C , 12-H ) :   0.2041
B(  1-C ,  2-H ) :   0.8453 B(  1-C ,  3-H ) :   0.8142 B(  1-C ,  4-C ) :   1.0937
B(  1-C ,  8-H ) :   0.1280 B(  1-C ,  9-H ) :   0.1156 B(  2-H ,  4-C ) :   0.1533
B(  4-C ,  5-F ) :   0.7130 B(  4-C ,  6-O ) :   1.7545 B(  5-F ,  6-O ) :   0.1168
B(  7-C , 10-H ) :   0.8455 B(  7-C , 11-H ) :   0.7117 B(  7-C , 12-H ) :   0.7613

Dispersion correction           -0.009418695
FINAL SINGLE POINT ENERGY      -331.107412073929

DIPOLE MOMENT
-------------
                                X             Y             Z
Electronic contribution:      1.76190      -4.32539      -8.50600
Nuclear contribution   :     -2.55684       4.59749       9.38828
                        -----------------------------------------
Total Dipole Moment    :     -0.79494       0.27210       0.88227
                        -----------------------------------------
Magnitude (a.u.)       :      1.21835
Magnitude (Debye)      :      3.09680

Rotational constants in cm-1:     0.200184     0.083263     0.071070
Rotational constants in MHz :  6001.373539  2496.169674  2130.635527

                             ****ORCA TERMINATED NORMALLY****
TOTAL RUN TIME: 0 days 0 hours 0 minutes 6 seconds 892 msec
