                         Program Version 5.0.0 -  RELEASE  -
|  1> !PBE D3BJ RIJCOSX def2-SVPD def2/J TightSCF
|  2> *xyz 0 1
|  3> C          2.48645       -2.67712       -2.56345
|  4> C          3.03764       -2.36672       -3.92351
|  5> C          2.28036       -2.45441       -4.96769
|  6> N          4.32174       -2.01793       -4.01664
|  7> H          4.87994       -1.91167       -3.17382
|  8> H          4.71015       -1.67088       -4.88356
|  9> H          1.27042       -2.41265       -4.86614
| 10> H          2.58183       -2.05528       -5.84688
| 11> C          2.49799       -1.46946       -1.61030
| 12> C          1.58284       -0.32199       -2.04262
| 13> H          2.19308       -1.83391       -0.62542
| 14> H          3.52336       -1.10398       -1.49039
| 15> H          1.47259       -3.05153       -2.69437
| 16> H          3.08320       -3.49064       -2.14147
| 17> H          1.88480        0.03130       -3.00642
| 18> H          1.65140        0.47571       -1.33278
| 19> H          0.57235       -0.67052       -2.09099
| 20> *
| 21>
| 22> %MaxCore 64000
| 23>
| 24> %pal nprocs 4
| 25> end
| 26>
| 27> %scf
| 28>   MaxIter 150
| 29> end
| 30>
| 31>
| 32>                          ****END OF INPUT****

CARTESIAN COORDINATES (ANGSTROEM)
---------------------------------
  C      2.486450   -2.677120   -2.563450
  C      3.037640   -2.366720   -3.923510
  C      2.280360   -2.454410   -4.967690
  N      4.321740   -2.017930   -4.016640
  H      4.879940   -1.911670   -3.173820
  H      4.710150   -1.670880   -4.883560
  H      1.270420   -2.412650   -4.866140
  H      2.581830   -2.055280   -5.846880
  C      2.497990   -1.469460   -1.610300
  C      1.582840   -0.321990   -2.042620
  H      2.193080   -1.833910   -0.625420
  H      3.523360   -1.103980   -1.490390
  H      1.472590   -3.051530   -2.694370
  H      3.083200   -3.490640   -2.141470
  H      1.884800    0.031300   -3.006420
  H      1.651400    0.475710   -1.332780
  H      0.572350   -0.670520   -2.090990

 Total Charge           Charge          ....    0
 Multiplicity           Mult            ....    1
 Number of Electrons    NEL             ....   48
 Basis Dimension        Dim             ....  208

ORBITAL ENERGIES
----------------

  NO   OCC          E(Eh)            E(eV)
   0   2.0000     -14.003811      -381.0631
   1   2.0000      -9.912713      -269.7386
   2   2.0000      -9.896811      -269.3059
   3   2.0000      -9.893525      -269.2165
   4   2.0000      -9.877251      -268.7737
   5   2.0000      -9.827872      -267.4300
   6   2.0000      -0.839084       -22.8326
   7   2.0000      -0.714896       -19.4533
   8   2.0000      -0.663650       -18.0588
   9   2.0000      -0.614288       -16.7156
  10   2.0000      -0.536529       -14.5997
  11   2.0000      -0.509272       -13.8580
  12   2.0000      -0.474655       -12.9160
  13   2.0000      -0.421967       -11.4823
  14   2.0000      -0.403211       -10.9719
  15   2.0000      -0.401264       -10.9190
  16   2.0000      -0.351619        -9.5680
  17   2.0000      -0.345330        -9.3969
  18   2.0000      -0.325663        -8.8617
  19   2.0000      -0.323487        -8.8025
  20   2.0000      -0.295421        -8.0388
  21   2.0000      -0.283219        -7.7068
  22   2.0000      -0.280209        -7.6249
  23   2.0000      -0.167375        -4.5545
  24   0.0000      -0.005132        -0.1397
  25   0.0000       0.007569         0.2060
  26   0.0000       0.025774         0.7013
  27   0.0000       0.032436         0.8826
  28   0.0000       0.046414         1.2630

MULLIKEN ATOMIC CHARGES
-----------------------
   0 C :    0.183961
   1 C :   -0.137857
   2 C :    0.435345
   3 N :    0.204325
   4 H :   -0.137038
   5 H :   -0.209188
   6 H :   -0.014150
   7 H :   -0.449142
   8 C :   -0.359224
   9 C :    0.769728
  10 H :   -0.111172
  11 H :   -0.051994
  12 H :    0.128796
  13 H :   -0.082512
  14 H :   -0.085664
  15 H :   -0.088589
  16 H :    0.004374
Sum of atomic charges:   -0.0000000

LOEWDIN ATOMIC CHARGES
----------------------
   0 C :    0.003786
   1 C :   -0.270627
   2 C :    0.164832
   3 N :    0.193932
   4 H :   -0.006878
   5 H :    0.002444
   6 H :   -0.075027
   7 H :   -0.082945
   8 C :   -0.073875
   9 C :    0.127760
  10 H :    0.017722
  11 H :    0.007842
  12 H :    0.023370
  13 H :    0.024479
  14 H :   -0.020751
  15 H :   -0.020678
  16 H :   -0.015388

  Mayer bond orders larger than 0.100000
B(  0-C ,  1-C ) :   1.1769 B(  0-C ,  2-C ) :   0.1191 B(  0-C ,  3-N ) :   0.1121
B(  0-C ,  8-C ) :   1.1752 B(  0-C , 10-H ) :   0.1699 B(  0-C , 11-H ) :   0.1577
B(  0-C , 12-H ) :   0.7627 B(  0-C , 13-H ) :   0.8727 B(  1-C ,  2-C ) :   1.9621
B(  1-C ,  3-N ) :   1.1907 B(  1-C ,  6-H ) :   0.1556 B(  1-C ,  7-H ) :   0.3172
B(  1-C , 12-H ) :   0.1274 B(  1-C , 13-H ) :   0.1715 B(  2-C ,  3-N ) :   0.3101
B(  2-C ,  6-H ) :   0.8299 B(  2-C ,  7-H ) :   0.5952 B(  3-N ,  4-H ) :   1.1515
B(  3-N ,  5-H ) :   1.2171 B(  4-H ,  5-H ) :  -0.1583 B(  6-H ,  7-H ) :   0.1475
B(  8-C ,  9-C ) :   1.3792 B(  8-C , 10-H ) :   0.9196 B(  8-C , 11-H ) :   0.8575
B(  8-C , 12-H ) :   0.1486 B(  8-C , 14-H ) :   0.2558 B(  8-C , 15-H ) :   0.2418
B(  8-C , 16-H ) :   0.2243 B(  9-C , 14-H ) :   0.8176 B(  9-C , 15-H ) :   0.7365
B(  9-C , 16-H ) :   0.7606

Dispersion correction           -0.014092214
FINAL SINGLE POINT ENERGY      -251.369920070363

DIPOLE MOMENT
-------------
                                X             Y             Z
Electronic contribution:      2.48008      -2.10765      -2.15100
Nuclear contribution   :     -1.92525       2.50924       2.56958
                        -----------------------------------------
Total Dipole Moment    :      0.55483       0.40159       0.41857
                        -----------------------------------------
Magnitude (a.u.)       :      0.80270
Magnitude (Debye)      :      2.04029

Rotational constants in cm-1:     0.181985     0.078726     0.071856
Rotational constants in MHz :  5455.785660  2360.157292  2154.177820

                             ****ORCA TERMINATED NORMALLY****
TOTAL RUN TIME: 0 days 0 hours 0 minutes 8 seconds 795 msec
