                         Program Version 5.0.0 -  RELEASE  -
|  1> !PBE D3BJ RIJCOSX def2-SVPD def2/J TightSCF
|  2> *xyz 0 1
|  3> C         -0.87096        0.24804       -2.66280
|  4> C         -0.47749        0.60819       -4.10105
|  5> H          0.20677        1.45830       -4.11875
|  6> H         -1.36844        0.92942       -4.64785
|  7> C          0.18467       -0.50664       -4.91676
|  8> O         -0.15869       -1.70109       -4.65798
|  9> F          1.05594       -0.17441       -5.74037
| 10> C          0.10016       -0.67355       -1.91581
| 11> H         -1.00105        1.18104       -2.10407
| 12> H         -1.84465       -0.24659       -2.66328
| 13> H          0.22336       -1.58297       -2.46597
| 14> H         -0.29270       -0.89423       -0.94532
| 15> H          1.04759       -0.18666       -1.81480
| 16> *
| 17>
| 18> %MaxCore 64000
| 19>
| 20> %pal nprocs 4
| 21> end
| 22>
| 23> %scf
| 24>   MaxIter 150
| 25> end
| 26>
| 27>
| 28>                          ****END OF INPUT****

CARTESIAN COORDINATES (ANGSTROEM)
---------------------------------
  C     -0.870960    0.248040   -2.662800
  C     -0.477490    0.608190   -4.101050
  H      0.206770    1.458300   -4.118750
  H     -1.368440    0.929420   -4.647850
  C      0.184670   -0.506640   -4.916760
  O     -0.158690   -1.701090   -4.657980
  F      1.055940   -0.174410   -5.740370
  C      0.100160   -0.673550   -1.915810
  H     -1.001050    1.181040   -2.104070
  H     -1.844650   -0.246590   -2.663280
  H      0.223360   -1.582970   -2.465970
  H     -0.292700   -0.894230   -0.945320
  H      1.047590   -0.186660   -1.814800

 Total Charge           Charge          ....    0
 Multiplicity           Mult            ....    1
 Number of Electrons    NEL             ....   48
 Basis Dimension        Dim             ....  182

ORBITAL ENERGIES
----------------

  NO   OCC          E(Eh)            E(eV)
   0   2.0000     -24.349988      -662.5969
   1   2.0000     -18.771693      -510.8037
   2   2.0000     -10.068763      -273.9850
   3   2.0000      -9.928548      -270.1695
   4   2.0000      -9.909315      -269.6462
   5   2.0000      -9.879659      -268.8392
   6   2.0000      -1.213630       -33.0246
   7   2.0000      -0.932731       -25.3809
   8   2.0000      -0.731155       -19.8957
   9   2.0000      -0.656559       -17.8659
  10   2.0000      -0.599439       -16.3116
  11   2.0000      -0.548595       -14.9280
  12   2.0000      -0.496947       -13.5226
  13   2.0000      -0.473053       -12.8724
  14   2.0000      -0.451368       -12.2823
  15   2.0000      -0.421336       -11.4651
  16   2.0000      -0.404561       -11.0087
  17   2.0000      -0.370093       -10.0707
  18   2.0000      -0.349741        -9.5169
  19   2.0000      -0.322837        -8.7848
  20   2.0000      -0.317532        -8.6405
  21   2.0000      -0.304470        -8.2851
  22   2.0000      -0.299976        -8.1628
  23   2.0000      -0.243876        -6.6362
  24   0.0000      -0.072837        -1.9820
  25   0.0000      -0.005171        -0.1407
  26   0.0000       0.023805         0.6478
  27   0.0000       0.032895         0.8951
  28   0.0000       0.040119         1.0917

MULLIKEN ATOMIC CHARGES
-----------------------
   0 C :   -0.350219
   1 C :    0.032553
   2 H :    0.086819
   3 H :    0.017528
   4 C :    0.652000
   5 O :   -0.530928
   6 F :   -0.309682
   7 C :    0.739624
   8 H :   -0.122772
   9 H :   -0.004426
  10 H :   -0.114056
  11 H :   -0.052303
  12 H :   -0.044139
Sum of atomic charges:   -0.0000000

LOEWDIN ATOMIC CHARGES
----------------------
   0 C :   -0.059263
   1 C :    0.038914
   2 H :    0.024711
   3 H :    0.040726
   4 C :   -0.027688
   5 O :   -0.121463
   6 F :   -0.006309
   7 C :    0.131377
   8 H :    0.023736
   9 H :    0.026185
  10 H :   -0.041502
  11 H :   -0.014949
  12 H :   -0.014475

  Mayer bond orders larger than 0.100000
B(  0-C ,  1-C ) :   1.2871 B(  0-C ,  2-H ) :   0.1263 B(  0-C ,  3-H ) :   0.1424
B(  0-C ,  7-C ) :   1.4087 B(  0-C ,  8-H ) :   0.9061 B(  0-C ,  9-H ) :   0.8583
B(  0-C , 10-H ) :   0.1971 B(  0-C , 11-H ) :   0.2300 B(  0-C , 12-H ) :   0.1995
B(  1-C ,  2-H ) :   0.8274 B(  1-C ,  3-H ) :   0.7971 B(  1-C ,  4-C ) :   1.1404
B(  1-C ,  8-H ) :   0.1221 B(  1-C ,  9-H ) :   0.1215 B(  2-H ,  4-C ) :   0.1285
B(  4-C ,  5-O ) :   1.7596 B(  4-C ,  6-F ) :   0.7483 B(  5-O ,  6-F ) :   0.1020
B(  7-C ,  8-H ) :   0.1057 B(  7-C , 10-H ) :   0.8401 B(  7-C , 11-H ) :   0.7047
B(  7-C , 12-H ) :   0.7566

Dispersion correction           -0.009519861
FINAL SINGLE POINT ENERGY      -331.101490867460

DIPOLE MOMENT
-------------
                                X             Y             Z
Electronic contribution:      3.81118      -1.79595     -10.38638
Nuclear contribution   :     -3.92885       2.87300      10.61091
                        -----------------------------------------
Total Dipole Moment    :     -0.11768       1.07705       0.22454
                        -----------------------------------------
Magnitude (a.u.)       :      1.10648
Magnitude (Debye)      :      2.81245

Rotational constants in cm-1:     0.209332     0.079487     0.069375
Rotational constants in MHz :  6275.605762  2382.960864  2079.805430

                             ****ORCA TERMINATED NORMALLY****
TOTAL RUN TIME: 0 days 0 hours 0 minutes 6 seconds 473 msec
