                         Program Version 5.0.0 -  RELEASE  -
|  1> !PBE D3BJ RIJCOSX def2-SVPD def2/J TightSCF
|  2> *xyz 0 1
|  3> C          2.48645       -2.67712       -2.56345
|  4> C          3.03764       -2.36672       -3.92351
|  5> N          2.28036       -2.45441       -4.96769
|  6> C          4.32174       -2.01793       -4.01664
|  7> H          4.87994       -1.91167       -3.17382
|  8> H          4.71015       -1.67088       -4.88356
|  9> H          1.27042       -2.41265       -4.86614
| 10> H          2.58183       -2.05528       -5.84688
| 11> C          2.49799       -1.46946       -1.61030
| 12> C          1.58284       -0.32199       -2.04262
| 13> H          2.19308       -1.83391       -0.62542
| 14> H          3.52336       -1.10398       -1.49039
| 15> H          1.47259       -3.05153       -2.69437
| 16> H          3.08320       -3.49064       -2.14147
| 17> H          1.88480        0.03130       -3.00642
| 18> H          1.65140        0.47571       -1.33278
| 19> H          0.57235       -0.67052       -2.09099
| 20> *
| 21>
| 22> %MaxCore 64000
| 23>
| 24> %pal nprocs 4
| 25> end
| 26>
| 27> %scf
| 28>   MaxIter 150
| 29> end
| 30>
| 31>
| 32>                          ****END OF INPUT****

CARTESIAN COORDINATES (ANGSTROEM)
---------------------------------
  C      2.486450   -2.677120   -2.563450
  C      3.037640   -2.366720   -3.923510
  N      2.280360   -2.454410   -4.967690
  C      4.321740   -2.017930   -4.016640
  H      4.879940   -1.911670   -3.173820
  H      4.710150   -1.670880   -4.883560
  H      1.270420   -2.412650   -4.866140
  H      2.581830   -2.055280   -5.846880
  C      2.497990   -1.469460   -1.610300
  C      1.582840   -0.321990   -2.042620
  H      2.193080   -1.833910   -0.625420
  H      3.523360   -1.103980   -1.490390
  H      1.472590   -3.051530   -2.694370
  H      3.083200   -3.490640   -2.141470
  H      1.884800    0.031300   -3.006420
  H      1.651400    0.475710   -1.332780
  H      0.572350   -0.670520   -2.090990

 Total Charge           Charge          ....    0
 Multiplicity           Mult            ....    1
 Number of Electrons    NEL             ....   48
 Basis Dimension        Dim             ....  208

ORBITAL ENERGIES
----------------

  NO   OCC          E(Eh)            E(eV)
   0   2.0000     -14.007153      -381.1540
   1   2.0000      -9.913124      -269.7498
   2   2.0000      -9.894586      -269.2454
   3   2.0000      -9.893112      -269.2053
   4   2.0000      -9.878374      -268.8042
   5   2.0000      -9.828716      -267.4530
   6   2.0000      -0.853738       -23.2314
   7   2.0000      -0.715958       -19.4822
   8   2.0000      -0.655720       -17.8430
   9   2.0000      -0.609782       -16.5930
  10   2.0000      -0.546953       -14.8834
  11   2.0000      -0.506997       -13.7961
  12   2.0000      -0.468854       -12.7582
  13   2.0000      -0.434787       -11.8312
  14   2.0000      -0.404819       -11.0157
  15   2.0000      -0.384948       -10.4750
  16   2.0000      -0.357859        -9.7378
  17   2.0000      -0.345906        -9.4126
  18   2.0000      -0.327205        -8.9037
  19   2.0000      -0.316018        -8.5993
  20   2.0000      -0.296437        -8.0665
  21   2.0000      -0.288190        -7.8420
  22   2.0000      -0.285036        -7.7562
  23   2.0000      -0.158992        -4.3264
  24   0.0000      -0.003144        -0.0856
  25   0.0000       0.003560         0.0969
  26   0.0000       0.026942         0.7331
  27   0.0000       0.033272         0.9054
  28   0.0000       0.043389         1.1807

MULLIKEN ATOMIC CHARGES
-----------------------
   0 C :    0.422567
   1 C :   -0.097199
   2 N :    0.150614
   3 C :    0.419726
   4 H :   -0.100102
   5 H :   -0.506502
   6 H :   -0.073549
   7 H :   -0.144763
   8 C :   -0.453932
   9 C :    0.742093
  10 H :   -0.082982
  11 H :   -0.055667
  12 H :   -0.063780
  13 H :    0.010618
  14 H :   -0.071675
  15 H :   -0.106803
  16 H :    0.011335
Sum of atomic charges:   -0.0000000

LOEWDIN ATOMIC CHARGES
----------------------
   0 C :    0.004583
   1 C :   -0.273215
   2 N :    0.182590
   3 C :    0.181700
   4 H :   -0.082917
   5 H :   -0.089948
   6 H :    0.001270
   7 H :    0.008838
   8 C :   -0.068901
   9 C :    0.124415
  10 H :    0.017848
  11 H :    0.015528
  12 H :    0.011510
  13 H :    0.029724
  14 H :   -0.022697
  15 H :   -0.019835
  16 H :   -0.020493

  Mayer bond orders larger than 0.100000
B(  0-C ,  1-C ) :   1.0714 B(  0-C ,  2-N ) :   0.1347 B(  0-C ,  3-C ) :   0.1497
B(  0-C ,  8-C ) :   1.2050 B(  0-C , 10-H ) :   0.1111 B(  0-C , 11-H ) :   0.1463
B(  0-C , 12-H ) :   0.6253 B(  0-C , 13-H ) :   0.7772 B(  1-C ,  2-N ) :   0.9906
B(  1-C ,  3-C ) :   1.6877 B(  1-C ,  4-H ) :   0.1112 B(  1-C ,  5-H ) :   0.1662
B(  1-C , 12-H ) :   0.2523 B(  1-C , 13-H ) :   0.1451 B(  2-N ,  3-C ) :   0.3368
B(  2-N ,  6-H ) :   1.0081 B(  2-N ,  7-H ) :   1.1255 B(  3-C ,  4-H ) :   0.7794
B(  3-C ,  5-H ) :   0.7742 B(  6-H ,  7-H ) :  -0.1205 B(  8-C ,  9-C ) :   1.3833
B(  8-C , 10-H ) :   0.9296 B(  8-C , 11-H ) :   0.9082 B(  8-C , 12-H ) :   0.2029
B(  8-C , 13-H ) :   0.1215 B(  8-C , 14-H ) :   0.2544 B(  8-C , 15-H ) :   0.2416
B(  8-C , 16-H ) :   0.2345 B(  9-C , 14-H ) :   0.8108 B(  9-C , 15-H ) :   0.7531
B(  9-C , 16-H ) :   0.7649

Dispersion correction           -0.014104253
FINAL SINGLE POINT ENERGY      -251.371026345066

DIPOLE MOMENT
-------------
                                X             Y             Z
Electronic contribution:      0.71312      -2.42946      -2.97710
Nuclear contribution   :     -1.44240       2.61248       2.79453
                        -----------------------------------------
Total Dipole Moment    :     -0.72928       0.18302      -0.18256
                        -----------------------------------------
Magnitude (a.u.)       :      0.77374
Magnitude (Debye)      :      1.96668

Rotational constants in cm-1:     0.182540     0.078634     0.071436
Rotational constants in MHz :  5472.425685  2357.397154  2141.608207

                             ****ORCA TERMINATED NORMALLY****
TOTAL RUN TIME: 0 days 0 hours 0 minutes 9 seconds 316 msec
