                         Program Version 5.0.0 -  RELEASE  -
|  1> !wB97X-D3 RIJCOSX def2-SVP def2/J TightSCF
|  2> *xyz -1 1
|  3> C          4.93020       -7.37532       -2.64962
|  4> C          3.84189       -6.95161       -3.63283
|  5> H          3.45814       -5.95442       -3.40712
|  6> H          2.98848       -7.64361       -3.56708
|  7> S          4.31812       -6.91593       -5.36869
|  8> O          5.40615       -5.89948       -5.51297
|  9> O          3.11191       -6.44508       -6.04379
| 10> C          6.17399       -6.48552       -2.60631
| 11> H          4.46961       -7.40617       -1.65588
| 12> H          5.23013       -8.39868       -2.88591
| 13> O          4.76340       -8.23942       -5.69863
| 14> H          6.62449       -6.45478       -3.57637
| 15> H          6.87304       -6.88376       -1.90088
| 16> H          5.89434       -5.49571       -2.31140
| 17> *
| 18>
| 19> %MaxCore 64000
| 20>
| 21> %pal nprocs 8
| 22> end
| 23>
| 24> %scf
| 25>   MaxIter 150
| 26> end
| 27>
| 28>
| 29>                          ****END OF INPUT****

CARTESIAN COORDINATES (ANGSTROEM)
---------------------------------
  C      4.930200   -7.375320   -2.649620
  C      3.841890   -6.951610   -3.632830
  H      3.458140   -5.954420   -3.407120
  H      2.988480   -7.643610   -3.567080
  S      4.318120   -6.915930   -5.368690
  O      5.406150   -5.899480   -5.512970
  O      3.111910   -6.445080   -6.043790
  C      6.173990   -6.485520   -2.606310
  H      4.469610   -7.406170   -1.655880
  H      5.230130   -8.398680   -2.885910
  O      4.763400   -8.239420   -5.698630
  H      6.624490   -6.454780   -3.576370
  H      6.873040   -6.883760   -1.900880
  H      5.894340   -5.495710   -2.311400

 Total Charge           Charge          ....   -1
 Multiplicity           Mult            ....    1
 Number of Electrons    NEL             ....   66
 Basis Dimension        Dim             ....  137

ORBITAL ENERGIES
----------------

  NO   OCC          E(Eh)            E(eV)
   0   2.0000     -88.943408     -2420.2732
   1   2.0000     -18.999641      -517.0065
   2   2.0000     -18.988389      -516.7003
   3   2.0000     -18.982502      -516.5401
   4   2.0000     -10.154901      -276.3289
   5   2.0000     -10.141941      -275.9762
   6   2.0000     -10.135645      -275.8049
   7   2.0000      -8.023885      -218.3410
   8   2.0000      -5.982950      -162.8043
   9   2.0000      -5.982706      -162.7977
  10   2.0000      -5.982579      -162.7942
  11   2.0000      -1.022833       -27.8327
  12   2.0000      -0.881233       -23.9796
  13   2.0000      -0.851661       -23.1749
  14   2.0000      -0.761943       -20.7335
  15   2.0000      -0.667905       -18.1746
  16   2.0000      -0.569845       -15.5063
  17   2.0000      -0.473928       -12.8962
  18   2.0000      -0.423333       -11.5195
  19   2.0000      -0.413336       -11.2475
  20   2.0000      -0.380994       -10.3674
  21   2.0000      -0.368080       -10.0160
  22   2.0000      -0.342764        -9.3271
  23   2.0000      -0.334484        -9.1018
  24   2.0000      -0.312008        -8.4902
  25   2.0000      -0.302135        -8.2215
  26   2.0000      -0.290633        -7.9085
  27   2.0000      -0.224286        -6.1031
  28   2.0000      -0.222232        -6.0472
  29   2.0000      -0.188582        -5.1316
  30   2.0000      -0.177463        -4.8290
  31   2.0000      -0.169623        -4.6157
  32   2.0000      -0.133218        -3.6251
  33   0.0000       0.271330         7.3833
  34   0.0000       0.319746         8.7007
  35   0.0000       0.322292         8.7700
  36   0.0000       0.345468         9.4007
  37   0.0000       0.355563         9.6754

MULLIKEN ATOMIC CHARGES
-----------------------
   0 C :   -0.067536
   1 C :   -0.099708
   2 H :    0.018425
   3 H :    0.020757
   4 S :    0.886905
   5 O :   -0.616058
   6 O :   -0.595953
   7 C :   -0.005570
   8 H :   -0.017152
   9 H :    0.018333
  10 O :   -0.568286
  11 H :    0.055213
  12 H :   -0.023328
  13 H :   -0.006041
Sum of atomic charges:   -1.0000000

LOEWDIN ATOMIC CHARGES
----------------------
   0 C :   -0.059466
   1 C :   -0.186678
   2 H :    0.011967
   3 H :    0.014657
   4 S :    1.111233
   5 O :   -0.652606
   6 O :   -0.630344
   7 C :   -0.065016
   8 H :    0.004281
   9 H :    0.017717
  10 O :   -0.602489
  11 H :    0.024544
  12 H :    0.001259
  13 H :    0.010942

  Mayer bond orders larger than 0.100000
B(  0-C ,  1-C ) :   1.0317 B(  0-C ,  7-C ) :   1.0859 B(  0-C ,  8-H ) :   0.9530
B(  0-C ,  9-H ) :   0.9505 B(  1-C ,  2-H ) :   0.9436 B(  1-C ,  3-H ) :   0.9435
B(  1-C ,  4-S ) :   0.8953 B(  4-S ,  5-O ) :   1.5461 B(  4-S ,  6-O ) :   1.6196
B(  4-S , 10-O ) :   1.6393 B(  7-C , 11-H ) :   0.9564 B(  7-C , 12-H ) :   0.9675
B(  7-C , 13-H ) :   0.9733

Dispersion correction           -0.004547932
FINAL SINGLE POINT ENERGY      -741.916431275612

DIPOLE MOMENT
-------------
                                X             Y             Z
Electronic contribution:     -3.11362      -0.29410     -10.33400
Nuclear contribution   :      3.14317       0.05805      12.49367
                        -----------------------------------------
Total Dipole Moment    :      0.02955      -0.23606       2.15968
                        -----------------------------------------
Magnitude (a.u.)       :      2.17274
Magnitude (Debye)      :      5.52267

Rotational constants in cm-1:     0.133431     0.055055     0.052069
Rotational constants in MHz :  4000.170974  1650.506165  1561.001383

                             ****ORCA TERMINATED NORMALLY****
TOTAL RUN TIME: 0 days 0 hours 0 minutes 13 seconds 614 msec
