                         Program Version 5.0.0 -  RELEASE  -
|  1> !wB97X-D3 RIJCOSX def2-SVP def2/J TightSCF
|  2> *xyz 1 1
|  3> C          5.55821       -1.99291       -6.21505
|  4> C          4.18188       -2.58967       -6.29891
|  5> N          3.14587       -1.76843       -6.48675
|  6> N          4.01910       -3.86431       -6.22743
|  7> H          4.76849       -4.59115       -5.99077
|  8> H          3.12241       -4.33339       -6.31462
|  9> H          3.28164       -0.77779       -6.56655
| 10> H          2.21255       -2.13419       -6.56225
| 11> C          6.41926       -2.54294       -5.07763
| 12> C          5.89651       -2.16931       -3.69455
| 13> H          7.42888       -2.14367       -5.20808
| 14> H          6.50589       -3.62754       -5.17550
| 15> H          6.03683       -2.19819       -7.17685
| 16> H          5.46761       -0.90737       -6.12797
| 17> H          5.81870       -1.10488       -3.61824
| 18> H          6.57185       -2.53200       -2.94804
| 19> H          4.93221       -2.60892       -3.54698
| 20> *
| 21>
| 22> %MaxCore 64000
| 23>
| 24> %pal nprocs 8
| 25> end
| 26>
| 27> %scf
| 28>   MaxIter 150
| 29> end
| 30>
| 31>
| 32>                          ****END OF INPUT****

CARTESIAN COORDINATES (ANGSTROEM)
---------------------------------
  C      5.558210   -1.992910   -6.215050
  C      4.181880   -2.589670   -6.298910
  N      3.145870   -1.768430   -6.486750
  N      4.019100   -3.864310   -6.227430
  H      4.768490   -4.591150   -5.990770
  H      3.122410   -4.333390   -6.314620
  H      3.281640   -0.777790   -6.566550
  H      2.212550   -2.134190   -6.562250
  C      6.419260   -2.542940   -5.077630
  C      5.896510   -2.169310   -3.694550
  H      7.428880   -2.143670   -5.208080
  H      6.505890   -3.627540   -5.175500
  H      6.036830   -2.198190   -7.176850
  H      5.467610   -0.907370   -6.127970
  H      5.818700   -1.104880   -3.618240
  H      6.571850   -2.532000   -2.948040
  H      4.932210   -2.608920   -3.546980

 Total Charge           Charge          ....    1
 Multiplicity           Mult            ....    1
 Number of Electrons    NEL             ....   48
 Basis Dimension        Dim             ....  139

ORBITAL ENERGIES
----------------

  NO   OCC          E(Eh)            E(eV)
   0   2.0000     -14.686513      -399.6403
   1   2.0000     -14.674517      -399.3139
   2   2.0000     -10.612876      -288.7910
   3   2.0000     -10.481353      -285.2121
   4   2.0000     -10.448734      -284.3245
   5   2.0000     -10.412599      -283.3412
   6   2.0000      -1.311675       -35.6925
   7   2.0000      -1.210203       -32.9313
   8   2.0000      -1.084098       -29.4998
   9   2.0000      -0.995982       -27.1020
  10   2.0000      -0.941375       -25.6161
  11   2.0000      -0.885117       -24.0853
  12   2.0000      -0.872339       -23.7375
  13   2.0000      -0.832078       -22.6420
  14   2.0000      -0.795333       -21.6421
  15   2.0000      -0.756703       -20.5909
  16   2.0000      -0.726842       -19.7784
  17   2.0000      -0.686714       -18.6864
  18   2.0000      -0.671980       -18.2855
  19   2.0000      -0.657585       -17.8938
  20   2.0000      -0.594449       -16.1758
  21   2.0000      -0.592415       -16.1204
  22   2.0000      -0.586636       -15.9632
  23   2.0000      -0.582269       -15.8443
  24   0.0000      -0.114863        -3.1256
  25   0.0000      -0.054014        -1.4698
  26   0.0000      -0.018710        -0.5091
  27   0.0000      -0.006297        -0.1713
  28   0.0000       0.012425         0.3381

MULLIKEN ATOMIC CHARGES
-----------------------
   0 C :    0.003901
   1 C :   -0.032534
   2 N :   -0.025899
   3 N :   -0.038234
   4 H :    0.224821
   5 H :    0.185880
   6 H :    0.189739
   7 H :    0.176763
   8 C :   -0.131220
   9 C :   -0.018559
  10 H :    0.085738
  11 H :    0.040163
  12 H :    0.119252
  13 H :    0.062195
  14 H :    0.051569
  15 H :    0.078089
  16 H :    0.028337
Sum of atomic charges:    1.0000000

LOEWDIN ATOMIC CHARGES
----------------------
   0 C :   -0.033229
   1 C :    0.156888
   2 N :    0.084466
   3 N :    0.081068
   4 H :    0.151376
   5 H :    0.115612
   6 H :    0.115697
   7 H :    0.107613
   8 C :   -0.032876
   9 C :   -0.047481
  10 H :    0.052581
  11 H :    0.023968
  12 H :    0.073514
  13 H :    0.051305
  14 H :    0.033562
  15 H :    0.046372
  16 H :    0.019565

  Mayer bond orders larger than 0.100000
B(  0-C ,  1-C ) :   0.9998 B(  0-C ,  8-C ) :   1.0646 B(  0-C , 12-H ) :   0.9147
B(  0-C , 13-H ) :   0.9303 B(  1-C ,  2-N ) :   1.4933 B(  1-C ,  3-N ) :   1.5190
B(  2-N ,  6-H ) :   0.9203 B(  2-N ,  7-H ) :   0.9326 B(  3-N ,  4-H ) :   0.9072
B(  3-N ,  5-H ) :   0.9296 B(  8-C ,  9-C ) :   1.0673 B(  8-C , 10-H ) :   0.9439
B(  8-C , 11-H ) :   0.9532 B(  9-C , 14-H ) :   0.9733 B(  9-C , 15-H ) :   0.9677
B(  9-C , 16-H ) :   0.9729

Dispersion correction           -0.004499177
FINAL SINGLE POINT ENERGY      -268.081781180017

DIPOLE MOMENT
-------------
                                X             Y             Z
Electronic contribution:     -4.06825      -0.95651      -3.75159
Nuclear contribution   :      2.70373       0.48594       2.85544
                        -----------------------------------------
Total Dipole Moment    :     -1.36452      -0.47057      -0.89616
                        -----------------------------------------
Magnitude (a.u.)       :      1.69896
Magnitude (Debye)      :      4.31840

Rotational constants in cm-1:     0.185545     0.074107     0.068805
Rotational constants in MHz :  5562.487769  2221.680591  2062.713441

                             ****ORCA TERMINATED NORMALLY****
TOTAL RUN TIME: 0 days 0 hours 0 minutes 13 seconds 82 msec
