                         Program Version 5.0.0 -  RELEASE  -
|  1> !wB97X-D3 RIJCOSX def2-SVP def2/J TightSCF xyzfile
|  2>
|  3> *xyzfile 0 1 B.xyz
|  4>
|  5> %MaxCore 64000
|  6>
|  7> %pal nprocs 18
|  8> end
|  9>
| 10> %scf
| 11>   MaxIter 150
| 12> end
| 13>
| 14>
| 15>                          ****END OF INPUT****

CARTESIAN COORDINATES (ANGSTROEM)
---------------------------------
  C      5.558206   -1.992914   -6.215054
  C      4.930199   -7.375319   -2.649623
  C      3.841892   -6.951611   -3.632829
  H      3.458144   -5.954425   -3.407121
  H      2.988484   -7.643606   -3.567078
  S      4.318115   -6.915930   -5.368692
  C      4.181880   -2.589671   -6.298911
  N      3.145873   -1.768431   -6.486753
  N      4.019102   -3.864307   -6.227427
  H      4.768490   -4.591153   -5.990773
  H      3.122405   -4.333392   -6.314620
  H      3.281635   -0.777786   -6.566549
  H      2.212549   -2.134193   -6.562246
  O      5.406154   -5.899480   -5.512972
  O      3.111910   -6.445079   -6.043792
  C      6.419260   -2.542944   -5.077630
  C      5.872267   -5.002756   -2.427819
  C      6.173994   -6.485522   -2.606315
  H      6.734852   -6.613767   -3.534015
  H      6.821463   -6.831018   -1.793617
  H      4.469612   -7.406168   -1.655876
  H      5.230134   -8.398678   -2.885906
  C      5.896512   -2.169314   -3.694552
  H      7.428880   -2.143665   -5.208078
  H      6.505894   -3.627541   -5.175502
  C      6.807804   -2.623428   -2.551019
  H      4.894708   -2.589732   -3.557501
  H      5.778823   -1.081255   -3.635790
  C      7.111544   -4.122463   -2.520363
  H      7.751615   -2.071393   -2.614406
  H      6.345837   -2.326401   -1.604086
  H      5.362882   -4.828697   -1.471335
  H      5.174429   -4.702577   -3.211298
  H      7.778329   -4.329347   -1.677651
  H      7.673189   -4.402845   -3.417586
  O      4.763396   -8.239424   -5.698629
  H      6.036826   -2.198189   -7.176852
  H      5.467610   -0.907371   -6.127968

 Total Charge           Charge          ....    0
 Multiplicity           Mult            ....    1
 Number of Electrons    NEL             ....  136
 Basis Dimension        Dim             ....  338

ORBITAL ENERGIES
----------------

  NO   OCC          E(Eh)            E(eV)
   0   2.0000     -89.107174     -2424.7295
   1   2.0000     -19.171491      -521.6828
   2   2.0000     -19.157941      -521.3141
   3   2.0000     -19.150260      -521.1051
   4   2.0000     -14.526855      -395.2958
   5   2.0000     -14.486478      -394.1971
   6   2.0000     -10.449827      -284.3543
   7   2.0000     -10.346869      -281.5526
   8   2.0000     -10.313646      -280.6486
   9   2.0000     -10.302155      -280.3359
  10   2.0000     -10.290125      -280.0085
  11   2.0000     -10.277160      -279.6557
  12   2.0000     -10.276954      -279.6501
  13   2.0000     -10.269577      -279.4494
  14   2.0000     -10.268513      -279.4205
  15   2.0000     -10.260563      -279.2041
  16   2.0000      -8.187889      -222.8038
  17   2.0000      -6.147755      -167.2889
  18   2.0000      -6.146502      -167.2548
  19   2.0000      -6.145816      -167.2361
  20   2.0000      -1.191287       -32.4166
  21   2.0000      -1.148629       -31.2558
  22   2.0000      -1.051058       -28.6007
  23   2.0000      -1.039152       -28.2768
  24   2.0000      -1.035131       -28.1673
  25   2.0000      -0.952697       -25.9242
  26   2.0000      -0.916019       -24.9262
  27   2.0000      -0.891857       -24.2686
  28   2.0000      -0.850983       -23.1564
  29   2.0000      -0.814920       -22.1751
  30   2.0000      -0.781529       -21.2665
  31   2.0000      -0.760354       -20.6903
  32   2.0000      -0.732800       -19.9405
  33   2.0000      -0.711903       -19.3719
  34   2.0000      -0.700284       -19.0557
  35   2.0000      -0.678927       -18.4745
  36   2.0000      -0.663127       -18.0446
  37   2.0000      -0.641035       -17.4435
  38   2.0000      -0.611520       -16.6403
  39   2.0000      -0.606298       -16.4982
  40   2.0000      -0.588187       -16.0054
  41   2.0000      -0.573531       -15.6066
  42   2.0000      -0.566116       -15.4048
  43   2.0000      -0.551162       -14.9979
  44   2.0000      -0.544983       -14.8298
  45   2.0000      -0.536996       -14.6124
  46   2.0000      -0.527886       -14.3645
  47   2.0000      -0.519463       -14.1353
  48   2.0000      -0.503706       -13.7065
  49   2.0000      -0.494841       -13.4653
  50   2.0000      -0.490933       -13.3590
  51   2.0000      -0.487008       -13.2521
  52   2.0000      -0.468115       -12.7381
  53   2.0000      -0.460898       -12.5417
  54   2.0000      -0.455368       -12.3912
  55   2.0000      -0.436663       -11.8822
  56   2.0000      -0.427466       -11.6319
  57   2.0000      -0.420633       -11.4460
  58   2.0000      -0.417604       -11.3636
  59   2.0000      -0.405914       -11.0455
  60   2.0000      -0.402726       -10.9587
  61   2.0000      -0.392988       -10.6937
  62   2.0000      -0.390330       -10.6214
  63   2.0000      -0.384789       -10.4706
  64   2.0000      -0.348719        -9.4891
  65   2.0000      -0.343857        -9.3568
  66   2.0000      -0.331882        -9.0310
  67   2.0000      -0.310170        -8.4402
  68   0.0000       0.041483         1.1288
  69   0.0000       0.087387         2.3779
  70   0.0000       0.124319         3.3829
  71   0.0000       0.135059         3.6751
  72   0.0000       0.149782         4.0758

MULLIKEN ATOMIC CHARGES
-----------------------
   0 C :    0.055382
   1 C :   -0.002781
   2 C :   -0.108789
   3 H :    0.024565
   4 H :    0.066039
   5 S :    0.901148
   6 C :   -0.082664
   7 N :   -0.060109
   8 N :   -0.013514
   9 H :    0.206739
  10 H :    0.159936
  11 H :    0.156508
  12 H :    0.158348
  13 O :   -0.587744
  14 O :   -0.579183
  15 C :   -0.089771
  16 C :   -0.050465
  17 C :   -0.030288
  18 H :    0.047221
  19 H :    0.010865
  20 H :    0.016345
  21 H :    0.045242
  22 C :   -0.056749
  23 H :    0.035909
  24 H :    0.084326
  25 C :    0.011065
  26 H :    0.030803
  27 H :    0.010665
  28 C :   -0.042326
  29 H :    0.018391
  30 H :    0.020279
  31 H :    0.004598
  32 H :   -0.016447
  33 H :    0.019704
  34 H :    0.027693
  35 O :   -0.498680
  36 H :    0.089999
  37 H :    0.017741
Sum of atomic charges:   -0.0000000

LOEWDIN ATOMIC CHARGES
----------------------
   0 C :   -0.034494
   1 C :   -0.048825
   2 C :   -0.172615
   3 H :    0.012146
   4 H :    0.035839
   5 S :    1.140935
   6 C :    0.125889
   7 N :    0.039294
   8 N :    0.091081
   9 H :    0.053411
  10 H :    0.085938
  11 H :    0.094116
  12 H :    0.095062
  13 O :   -0.556127
  14 O :   -0.599081
  15 C :   -0.031808
  16 C :   -0.043145
  17 C :   -0.041929
  18 H :    0.025658
  19 H :    0.018782
  20 H :    0.022236
  21 H :    0.032253
  22 C :   -0.044256
  23 H :    0.033759
  24 H :    0.038584
  25 C :   -0.035555
  26 H :    0.017929
  27 H :    0.019046
  28 C :   -0.038390
  29 H :    0.022136
  30 H :    0.024042
  31 H :    0.015480
  32 H :    0.005946
  33 H :    0.023784
  34 H :    0.023394
  35 O :   -0.543547
  36 H :    0.061766
  37 H :    0.031264

  Mayer bond orders larger than 0.100000
B(  0-C ,  6-C ) :   0.9935 B(  0-C , 15-C ) :   1.0867 B(  0-C , 36-H ) :   0.9179
B(  0-C , 37-H ) :   0.9303 B(  1-C ,  2-C ) :   1.0343 B(  1-C , 17-C ) :   1.0794
B(  1-C , 20-H ) :   0.9444 B(  1-C , 21-H ) :   0.9448 B(  2-C ,  3-H ) :   0.9317
B(  2-C ,  4-H ) :   0.9399 B(  2-C ,  5-S ) :   0.9015 B(  5-S , 13-O ) :   1.3509
B(  5-S , 14-O ) :   1.5609 B(  5-S , 35-O ) :   1.7298 B(  6-C ,  7-N ) :   1.3756
B(  6-C ,  8-N ) :   1.6889 B(  7-N , 11-H ) :   0.9329 B(  7-N , 12-H ) :   0.9394
B(  8-N ,  9-H ) :   0.7580 B(  8-N , 10-H ) :   0.8960 B(  9-H , 13-O ) :   0.2383
B( 15-C , 22-C ) :   1.0413 B( 15-C , 23-H ) :   0.9420 B( 15-C , 24-H ) :   0.9338
B( 16-C , 17-C ) :   1.0628 B( 16-C , 28-C ) :   1.0687 B( 16-C , 31-H ) :   0.9484
B( 16-C , 32-H ) :   0.9267 B( 17-C , 18-H ) :   0.9403 B( 17-C , 19-H ) :   0.9482
B( 22-C , 25-C ) :   1.0846 B( 22-C , 26-H ) :   0.9420 B( 22-C , 27-H ) :   0.9455
B( 25-C , 28-C ) :   1.0756 B( 25-C , 29-H ) :   0.9484 B( 25-C , 30-H ) :   0.9464
B( 28-C , 33-H ) :   0.9449 B( 28-C , 34-H ) :   0.9469

Dispersion correction           -0.020898093
FINAL SINGLE POINT ENERGY     -1126.816945264864

DIPOLE MOMENT
-------------
                                X             Y             Z
Electronic contribution:     -9.30099     -11.39914     -14.32942
Nuclear contribution   :      8.53517      16.50844      14.36520
                        -----------------------------------------
Total Dipole Moment    :     -0.76582       5.10930       0.03578
                        -----------------------------------------
Magnitude (a.u.)       :      5.16650
Magnitude (Debye)      :     13.13221

Rotational constants in cm-1:     0.017951     0.012436     0.008288
Rotational constants in MHz :   538.163255   372.824050   248.467077

                             ****ORCA TERMINATED NORMALLY****
TOTAL RUN TIME: 0 days 0 hours 0 minutes 40 seconds 851 msec
