                         Program Version 5.0.0 -  RELEASE  -
|  1> !wB97X-D3 RIJCOSX def2-SVP def2/J TightSCF
|  2> *xyz 0 1
|  3> C          4.93020       -7.37532       -2.64962
|  4> C          3.84189       -6.95161       -3.63283
|  5> H          3.45814       -5.95442       -3.40712
|  6> H          2.98848       -7.64361       -3.56708
|  7> S          4.31812       -6.91593       -5.36869
|  8> F          5.40615       -5.89948       -5.51297
|  9> O          3.11191       -6.44508       -6.04379
| 10> C          6.17399       -6.48552       -2.60631
| 11> H          4.46961       -7.40617       -1.65588
| 12> H          5.23013       -8.39868       -2.88591
| 13> O          4.76340       -8.23942       -5.69863
| 14> H          6.62449       -6.45478       -3.57637
| 15> H          6.87304       -6.88376       -1.90088
| 16> H          5.89434       -5.49571       -2.31140
| 17> *
| 18>
| 19> %MaxCore 64000
| 20>
| 21> %pal nprocs 8
| 22> end
| 23>
| 24> %scf
| 25>   MaxIter 150
| 26> end
| 27>
| 28>
| 29>                          ****END OF INPUT****

CARTESIAN COORDINATES (ANGSTROEM)
---------------------------------
  C      4.930200   -7.375320   -2.649620
  C      3.841890   -6.951610   -3.632830
  H      3.458140   -5.954420   -3.407120
  H      2.988480   -7.643610   -3.567080
  S      4.318120   -6.915930   -5.368690
  F      5.406150   -5.899480   -5.512970
  O      3.111910   -6.445080   -6.043790
  C      6.173990   -6.485520   -2.606310
  H      4.469610   -7.406170   -1.655880
  H      5.230130   -8.398680   -2.885910
  O      4.763400   -8.239420   -5.698630
  H      6.624490   -6.454780   -3.576370
  H      6.873040   -6.883760   -1.900880
  H      5.894340   -5.495710   -2.311400

 Total Charge           Charge          ....    0
 Multiplicity           Mult            ....    1
 Number of Electrons    NEL             ....   66
 Basis Dimension        Dim             ....  137

ORBITAL ENERGIES
----------------

  NO   OCC          E(Eh)            E(eV)
   0   2.0000     -89.211120     -2427.5580
   1   2.0000     -24.884354      -677.1377
   2   2.0000     -19.248015      -523.7651
   3   2.0000     -19.236517      -523.4522
   4   2.0000     -10.348984      -281.6102
   5   2.0000     -10.319921      -280.8193
   6   2.0000     -10.296322      -280.1772
   7   2.0000      -8.293820      -225.6863
   8   2.0000      -6.256762      -170.2551
   9   2.0000      -6.250506      -170.0849
  10   2.0000      -6.249419      -170.0553
  11   2.0000      -1.445207       -39.3261
  12   2.0000      -1.223924       -33.3047
  13   2.0000      -1.124167       -30.5901
  14   2.0000      -0.947190       -25.7743
  15   2.0000      -0.860236       -23.4082
  16   2.0000      -0.800897       -21.7935
  17   2.0000      -0.744663       -20.2633
  18   2.0000      -0.673755       -18.3338
  19   2.0000      -0.659383       -17.9427
  20   2.0000      -0.644818       -17.5464
  21   2.0000      -0.592702       -16.1282
  22   2.0000      -0.579857       -15.7787
  23   2.0000      -0.562288       -15.3006
  24   2.0000      -0.547548       -14.8995
  25   2.0000      -0.530698       -14.4410
  26   2.0000      -0.489268       -13.3137
  27   2.0000      -0.481289       -13.0965
  28   2.0000      -0.467293       -12.7157
  29   2.0000      -0.458630       -12.4800
  30   2.0000      -0.427562       -11.6345
  31   2.0000      -0.412685       -11.2297
  32   2.0000      -0.403898       -10.9906
  33   0.0000       0.105080         2.8594
  34   0.0000       0.134867         3.6699
  35   0.0000       0.166058         4.5187
  36   0.0000       0.168055         4.5730
  37   0.0000       0.176839         4.8120

MULLIKEN ATOMIC CHARGES
-----------------------
   0 C :   -0.102041
   1 C :   -0.134930
   2 H :    0.082161
   3 H :    0.115253
   4 S :    0.965623
   5 F :   -0.218184
   6 O :   -0.461806
   7 C :   -0.041064
   8 H :    0.051894
   9 H :    0.061953
  10 O :   -0.436238
  11 H :    0.038057
  12 H :    0.046578
  13 H :    0.032744
Sum of atomic charges:   -0.0000000

LOEWDIN ATOMIC CHARGES
----------------------
   0 C :   -0.057859
   1 C :   -0.148817
   2 H :    0.037517
   3 H :    0.060312
   4 S :    1.174724
   5 F :   -0.164118
   6 O :   -0.507104
   7 C :   -0.059822
   8 H :    0.036780
   9 H :    0.034040
  10 O :   -0.479276
  11 H :    0.016867
  12 H :    0.032453
  13 H :    0.024303

  Mayer bond orders larger than 0.100000
B(  0-C ,  1-C ) :   1.0241 B(  0-C ,  7-C ) :   1.0797 B(  0-C ,  8-H ) :   0.9475
B(  0-C ,  9-H ) :   0.9524 B(  1-C ,  2-H ) :   0.9358 B(  1-C ,  3-H ) :   0.9355
B(  1-C ,  4-S ) :   0.9165 B(  4-S ,  5-F ) :   0.9546 B(  4-S ,  6-O ) :   1.7713
B(  4-S , 10-O ) :   1.7911 B(  7-C , 11-H ) :   0.9737 B(  7-C , 12-H ) :   0.9717
B(  7-C , 13-H ) :   0.9761

Dispersion correction           -0.004510730
FINAL SINGLE POINT ENERGY      -766.432777468118

DIPOLE MOMENT
-------------
                                X             Y             Z
Electronic contribution:     -1.89806       1.41299     -11.81232
Nuclear contribution   :      2.27444      -1.01744      13.40618
                        -----------------------------------------
Total Dipole Moment    :      0.37637       0.39555       1.59387
                        -----------------------------------------
Magnitude (a.u.)       :      1.68479
Magnitude (Debye)      :      4.28240

Rotational constants in cm-1:     0.126966     0.054929     0.051005
Rotational constants in MHz :  3806.345018  1646.729702  1529.089209

                             ****ORCA TERMINATED NORMALLY****
TOTAL RUN TIME: 0 days 0 hours 0 minutes 12 seconds 938 msec
