                         Program Version 5.0.0 -  RELEASE  -
|  1> !wB97X-D3 RIJCOSX def2-SVP def2/J TightSCF
|  2> *xyz 0 1
|  3> C          5.55821       -1.99291       -6.21505
|  4> C          4.18188       -2.58967       -6.29891
|  5> C          3.14587       -1.76843       -6.48675
|  6> N          4.01910       -3.86431       -6.22743
|  7> H          4.76849       -4.59115       -5.99077
|  8> H          3.12241       -4.33339       -6.31462
|  9> H          3.28164       -0.77779       -6.56655
| 10> H          2.21255       -2.13419       -6.56225
| 11> C          6.41926       -2.54294       -5.07763
| 12> C          5.89651       -2.16931       -3.69455
| 13> H          7.42888       -2.14367       -5.20808
| 14> H          6.50589       -3.62754       -5.17550
| 15> H          6.03683       -2.19819       -7.17685
| 16> H          5.46761       -0.90737       -6.12797
| 17> H          5.81870       -1.10488       -3.61824
| 18> H          6.57185       -2.53200       -2.94804
| 19> H          4.93221       -2.60892       -3.54698
| 20> *
| 21>
| 22> %MaxCore 64000
| 23>
| 24> %pal nprocs 8
| 25> end
| 26>
| 27> %scf
| 28>   MaxIter 150
| 29> end
| 30>
| 31>
| 32>                          ****END OF INPUT****

CARTESIAN COORDINATES (ANGSTROEM)
---------------------------------
  C      5.558210   -1.992910   -6.215050
  C      4.181880   -2.589670   -6.298910
  C      3.145870   -1.768430   -6.486750
  N      4.019100   -3.864310   -6.227430
  H      4.768490   -4.591150   -5.990770
  H      3.122410   -4.333390   -6.314620
  H      3.281640   -0.777790   -6.566550
  H      2.212550   -2.134190   -6.562250
  C      6.419260   -2.542940   -5.077630
  C      5.896510   -2.169310   -3.694550
  H      7.428880   -2.143670   -5.208080
  H      6.505890   -3.627540   -5.175500
  H      6.036830   -2.198190   -7.176850
  H      5.467610   -0.907370   -6.127970
  H      5.818700   -1.104880   -3.618240
  H      6.571850   -2.532000   -2.948040
  H      4.932210   -2.608920   -3.546980

 Total Charge           Charge          ....    0
 Multiplicity           Mult            ....    1
 Number of Electrons    NEL             ....   48
 Basis Dimension        Dim             ....  139

ORBITAL ENERGIES
----------------

  NO   OCC          E(Eh)            E(eV)
   0   2.0000     -14.438539      -392.8926
   1   2.0000     -10.306669      -280.4587
   2   2.0000     -10.286366      -279.9062
   3   2.0000     -10.283182      -279.8196
   4   2.0000     -10.268861      -279.4299
   5   2.0000     -10.211662      -277.8734
   6   2.0000      -1.037066       -28.2200
   7   2.0000      -0.901810       -24.5395
   8   2.0000      -0.837381       -22.7863
   9   2.0000      -0.783543       -21.3213
  10   2.0000      -0.702563       -19.1177
  11   2.0000      -0.677821       -18.4444
  12   2.0000      -0.616550       -16.7772
  13   2.0000      -0.562379       -15.3031
  14   2.0000      -0.553508       -15.0617
  15   2.0000      -0.544472       -14.8158
  16   2.0000      -0.489397       -13.3172
  17   2.0000      -0.482270       -13.1232
  18   2.0000      -0.467103       -12.7105
  19   2.0000      -0.461166       -12.5490
  20   2.0000      -0.429943       -11.6993
  21   2.0000      -0.417022       -11.3477
  22   2.0000      -0.411559       -11.1991
  23   2.0000      -0.265579        -7.2268
  24   0.0000       0.126493         3.4420
  25   0.0000       0.145281         3.9533
  26   0.0000       0.170099         4.6286
  27   0.0000       0.176168         4.7938
  28   0.0000       0.198498         5.4014

MULLIKEN ATOMIC CHARGES
-----------------------
   0 C :    0.057607
   1 C :   -0.129172
   2 C :   -0.069758
   3 N :   -0.113482
   4 H :    0.137225
   5 H :    0.127398
   6 H :   -0.030803
   7 H :   -0.041522
   8 C :   -0.105121
   9 C :   -0.003228
  10 H :    0.026275
  11 H :    0.005746
  12 H :    0.037404
  13 H :    0.018451
  14 H :    0.025223
  15 H :    0.024987
  16 H :    0.032769
Sum of atomic charges:   -0.0000000

LOEWDIN ATOMIC CHARGES
----------------------
   0 C :   -0.027763
   1 C :    0.000981
   2 C :   -0.187398
   3 N :   -0.016771
   4 H :    0.091861
   5 H :    0.079370
   6 H :   -0.004207
   7 H :   -0.010206
   8 C :   -0.045272
   9 C :   -0.053300
  10 H :    0.024490
  11 H :    0.011319
  12 H :    0.032610
  13 H :    0.034062
  14 H :    0.023820
  15 H :    0.022251
  16 H :    0.024152

  Mayer bond orders larger than 0.100000
B(  0-C ,  1-C ) :   1.0115 B(  0-C ,  8-C ) :   1.0691 B(  0-C , 12-H ) :   0.9349
B(  0-C , 13-H ) :   0.9375 B(  1-C ,  2-C ) :   1.8469 B(  1-C ,  3-N ) :   1.2535
B(  2-C ,  6-H ) :   0.9496 B(  2-C ,  7-H ) :   0.9596 B(  3-N ,  4-H ) :   0.9466
B(  3-N ,  5-H ) :   0.9505 B(  8-C ,  9-C ) :   1.0728 B(  8-C , 10-H ) :   0.9533
B(  8-C , 11-H ) :   0.9536 B(  9-C , 14-H ) :   0.9737 B(  9-C , 15-H ) :   0.9722
B(  9-C , 16-H ) :   0.9742

Dispersion correction           -0.004522724
FINAL SINGLE POINT ENERGY      -251.616619317113

DIPOLE MOMENT
-------------
                                X             Y             Z
Electronic contribution:     -1.91376      -1.48012      -2.50474
Nuclear contribution   :      2.30279       0.65856       2.66048
                        -----------------------------------------
Total Dipole Moment    :      0.38904      -0.82156       0.15574
                        -----------------------------------------
Magnitude (a.u.)       :      0.92226
Magnitude (Debye)      :      2.34419

Rotational constants in cm-1:     0.189707     0.076319     0.071159
Rotational constants in MHz :  5687.269526  2287.988194  2133.283230

                             ****ORCA TERMINATED NORMALLY****
TOTAL RUN TIME: 0 days 0 hours 0 minutes 13 seconds 272 msec
