                         Program Version 5.0.0 -  RELEASE  -
|  1> !wB97X-D3 RIJCOSX def2-SVP def2/J TightSCF
|  2> *xyz 0 1
|  3> C          4.93020       -7.37532       -2.64962
|  4> C          3.84189       -6.95161       -3.63283
|  5> H          3.45814       -5.95442       -3.40712
|  6> H          2.98848       -7.64361       -3.56708
|  7> S          4.31812       -6.91593       -5.36869
|  8> O          5.40615       -5.89948       -5.51297
|  9> F          3.11191       -6.44508       -6.04379
| 10> C          6.17399       -6.48552       -2.60631
| 11> H          4.46961       -7.40617       -1.65588
| 12> H          5.23013       -8.39868       -2.88591
| 13> O          4.76340       -8.23942       -5.69863
| 14> H          6.62449       -6.45478       -3.57637
| 15> H          6.87304       -6.88376       -1.90088
| 16> H          5.89434       -5.49571       -2.31140
| 17> *
| 18>
| 19> %MaxCore 64000
| 20>
| 21> %pal nprocs 8
| 22> end
| 23>
| 24> %scf
| 25>   MaxIter 150
| 26> end
| 27>
| 28>
| 29>                          ****END OF INPUT****

CARTESIAN COORDINATES (ANGSTROEM)
---------------------------------
  C      4.930200   -7.375320   -2.649620
  C      3.841890   -6.951610   -3.632830
  H      3.458140   -5.954420   -3.407120
  H      2.988480   -7.643610   -3.567080
  S      4.318120   -6.915930   -5.368690
  O      5.406150   -5.899480   -5.512970
  F      3.111910   -6.445080   -6.043790
  C      6.173990   -6.485520   -2.606310
  H      4.469610   -7.406170   -1.655880
  H      5.230130   -8.398680   -2.885910
  O      4.763400   -8.239420   -5.698630
  H      6.624490   -6.454780   -3.576370
  H      6.873040   -6.883760   -1.900880
  H      5.894340   -5.495710   -2.311400

 Total Charge           Charge          ....    0
 Multiplicity           Mult            ....    1
 Number of Electrons    NEL             ....   66
 Basis Dimension        Dim             ....  137

ORBITAL ENERGIES
----------------

  NO   OCC          E(Eh)            E(eV)
   0   2.0000     -89.213541     -2427.6239
   1   2.0000     -24.899629      -677.5534
   2   2.0000     -19.247664      -523.7556
   3   2.0000     -19.229599      -523.2640
   4   2.0000     -10.350077      -281.6399
   5   2.0000     -10.317876      -280.7637
   6   2.0000     -10.278626      -279.6956
   7   2.0000      -8.296340      -225.7549
   8   2.0000      -6.259345      -170.3254
   9   2.0000      -6.252987      -170.1524
  10   2.0000      -6.251773      -170.1194
  11   2.0000      -1.473317       -40.0910
  12   2.0000      -1.218426       -33.1551
  13   2.0000      -1.106326       -30.1047
  14   2.0000      -0.943405       -25.6714
  15   2.0000      -0.863197       -23.4888
  16   2.0000      -0.805484       -21.9183
  17   2.0000      -0.739609       -20.1258
  18   2.0000      -0.679539       -18.4912
  19   2.0000      -0.675276       -18.3752
  20   2.0000      -0.654026       -17.7970
  21   2.0000      -0.593306       -16.1447
  22   2.0000      -0.583322       -15.8730
  23   2.0000      -0.548543       -14.9266
  24   2.0000      -0.540262       -14.7013
  25   2.0000      -0.523969       -14.2579
  26   2.0000      -0.481030       -13.0895
  27   2.0000      -0.467575       -12.7234
  28   2.0000      -0.466703       -12.6996
  29   2.0000      -0.452074       -12.3016
  30   2.0000      -0.424283       -11.5453
  31   2.0000      -0.401799       -10.9335
  32   2.0000      -0.392004       -10.6670
  33   0.0000       0.121332         3.3016
  34   0.0000       0.127630         3.4730
  35   0.0000       0.162610         4.4248
  36   0.0000       0.165165         4.4944
  37   0.0000       0.181604         4.9417

MULLIKEN ATOMIC CHARGES
-----------------------
   0 C :   -0.096674
   1 C :   -0.132145
   2 H :    0.078535
   3 H :    0.085842
   4 S :    0.965126
   5 O :   -0.488373
   6 F :   -0.190693
   7 C :   -0.027601
   8 H :    0.053006
   9 H :    0.060666
  10 O :   -0.433166
  11 H :    0.065352
  12 H :    0.034159
  13 H :    0.025964
Sum of atomic charges:    0.0000000

LOEWDIN ATOMIC CHARGES
----------------------
   0 C :   -0.045564
   1 C :   -0.154103
   2 H :    0.035932
   3 H :    0.041139
   4 S :    1.172844
   5 O :   -0.531960
   6 F :   -0.135520
   7 C :   -0.056142
   8 H :    0.037613
   9 H :    0.035009
  10 O :   -0.477154
  11 H :    0.027974
  12 H :    0.026760
  13 H :    0.023170

  Mayer bond orders larger than 0.100000
B(  0-C ,  1-C ) :   1.0431 B(  0-C ,  7-C ) :   1.0842 B(  0-C ,  8-H ) :   0.9501
B(  0-C ,  9-H ) :   0.9531 B(  1-C ,  2-H ) :   0.9303 B(  1-C ,  3-H ) :   0.9318
B(  1-C ,  4-S ) :   0.9154 B(  4-S ,  5-O ) :   1.7103 B(  4-S ,  6-F ) :   1.0042
B(  4-S , 10-O ) :   1.7908 B(  7-C , 11-H ) :   0.9669 B(  7-C , 12-H ) :   0.9704
B(  7-C , 13-H ) :   0.9752

Dispersion correction           -0.004531135
FINAL SINGLE POINT ENERGY      -766.420643334032

DIPOLE MOMENT
-------------
                                X             Y             Z
Electronic contribution:     -5.89005       0.47804     -12.81808
Nuclear contribution   :      4.74176      -0.43068      13.97705
                        -----------------------------------------
Total Dipole Moment    :     -1.14829       0.04736       1.15897
                        -----------------------------------------
Magnitude (a.u.)       :      1.63218
Magnitude (Debye)      :      4.14867

Rotational constants in cm-1:     0.131248     0.052952     0.050354
Rotational constants in MHz :  3934.713341  1587.473971  1509.583923

                             ****ORCA TERMINATED NORMALLY****
TOTAL RUN TIME: 0 days 0 hours 0 minutes 13 seconds 23 msec
