                         Program Version 5.0.0 -  RELEASE  -
|  1> !wB97X-D3 RIJCOSX def2-SVP def2/J TightSCF
|  2> *xyz 0 1
|  3> C          5.55821       -1.99291       -6.21505
|  4> C          4.18188       -2.58967       -6.29891
|  5> N          3.14587       -1.76843       -6.48675
|  6> C          4.01910       -3.86431       -6.22743
|  7> H          4.76849       -4.59115       -5.99077
|  8> H          3.12241       -4.33339       -6.31462
|  9> H          3.28164       -0.77779       -6.56655
| 10> H          2.21255       -2.13419       -6.56225
| 11> C          6.41926       -2.54294       -5.07763
| 12> C          5.89651       -2.16931       -3.69455
| 13> H          7.42888       -2.14367       -5.20808
| 14> H          6.50589       -3.62754       -5.17550
| 15> H          6.03683       -2.19819       -7.17685
| 16> H          5.46761       -0.90737       -6.12797
| 17> H          5.81870       -1.10488       -3.61824
| 18> H          6.57185       -2.53200       -2.94804
| 19> H          4.93221       -2.60892       -3.54698
| 20> *
| 21>
| 22> %MaxCore 64000
| 23>
| 24> %pal nprocs 8
| 25> end
| 26>
| 27> %scf
| 28>   MaxIter 150
| 29> end
| 30>
| 31>
| 32>                          ****END OF INPUT****

CARTESIAN COORDINATES (ANGSTROEM)
---------------------------------
  C      5.558210   -1.992910   -6.215050
  C      4.181880   -2.589670   -6.298910
  N      3.145870   -1.768430   -6.486750
  C      4.019100   -3.864310   -6.227430
  H      4.768490   -4.591150   -5.990770
  H      3.122410   -4.333390   -6.314620
  H      3.281640   -0.777790   -6.566550
  H      2.212550   -2.134190   -6.562250
  C      6.419260   -2.542940   -5.077630
  C      5.896510   -2.169310   -3.694550
  H      7.428880   -2.143670   -5.208080
  H      6.505890   -3.627540   -5.175500
  H      6.036830   -2.198190   -7.176850
  H      5.467610   -0.907370   -6.127970
  H      5.818700   -1.104880   -3.618240
  H      6.571850   -2.532000   -2.948040
  H      4.932210   -2.608920   -3.546980

 Total Charge           Charge          ....    0
 Multiplicity           Mult            ....    1
 Number of Electrons    NEL             ....   48
 Basis Dimension        Dim             ....  139

ORBITAL ENERGIES
----------------

  NO   OCC          E(Eh)            E(eV)
   0   2.0000     -14.426504      -392.5651
   1   2.0000     -10.304479      -280.3991
   2   2.0000     -10.284511      -279.8558
   3   2.0000     -10.280144      -279.7369
   4   2.0000     -10.264563      -279.3130
   5   2.0000     -10.219448      -278.0853
   6   2.0000      -1.026115       -27.9220
   7   2.0000      -0.902467       -24.5574
   8   2.0000      -0.834958       -22.7203
   9   2.0000      -0.787393       -21.4260
  10   2.0000      -0.708620       -19.2825
  11   2.0000      -0.649814       -17.6823
  12   2.0000      -0.617828       -16.8119
  13   2.0000      -0.587623       -15.9900
  14   2.0000      -0.551446       -15.0056
  15   2.0000      -0.533172       -14.5083
  16   2.0000      -0.495278       -13.4772
  17   2.0000      -0.483066       -13.1449
  18   2.0000      -0.459031       -12.4909
  19   2.0000      -0.442943       -12.0531
  20   2.0000      -0.424584       -11.5535
  21   2.0000      -0.416930       -11.3452
  22   2.0000      -0.410931       -11.1820
  23   2.0000      -0.274344        -7.4653
  24   0.0000       0.139026         3.7831
  25   0.0000       0.147296         4.0081
  26   0.0000       0.171131         4.6567
  27   0.0000       0.181338         4.9345
  28   0.0000       0.201832         5.4921

MULLIKEN ATOMIC CHARGES
-----------------------
   0 C :    0.055894
   1 C :   -0.072231
   2 N :   -0.116537
   3 C :   -0.144432
   4 H :    0.002318
   5 H :   -0.031254
   6 H :    0.114256
   7 H :    0.119974
   8 C :   -0.091328
   9 C :   -0.006635
  10 H :    0.019797
  11 H :    0.032813
  12 H :    0.048662
  13 H :   -0.005807
  14 H :    0.013278
  15 H :    0.026158
  16 H :    0.035074
Sum of atomic charges:    0.0000000

LOEWDIN ATOMIC CHARGES
----------------------
   0 C :   -0.030504
   1 C :    0.008897
   2 N :   -0.018378
   3 C :   -0.186876
   4 H :    0.013792
   5 H :   -0.004714
   6 H :    0.065390
   7 H :    0.074242
   8 C :   -0.034173
   9 C :   -0.054727
  10 H :    0.021158
  11 H :    0.023875
  12 H :    0.039885
  13 H :    0.016170
  14 H :    0.018132
  15 H :    0.023069
  16 H :    0.024760

  Mayer bond orders larger than 0.100000
B(  0-C ,  1-C ) :   0.9815 B(  0-C ,  8-C ) :   1.0899 B(  0-C , 12-H ) :   0.9340
B(  0-C , 13-H ) :   0.9396 B(  1-C ,  2-N ) :   1.2426 B(  1-C ,  3-C ) :   1.8735
B(  2-N ,  6-H ) :   0.9544 B(  2-N ,  7-H ) :   0.9529 B(  3-C ,  4-H ) :   0.9645
B(  3-C ,  5-H ) :   0.9606 B(  8-C ,  9-C ) :   1.0797 B(  8-C , 10-H ) :   0.9533
B(  8-C , 11-H ) :   0.9522 B(  9-C , 14-H ) :   0.9740 B(  9-C , 15-H ) :   0.9732
B(  9-C , 16-H ) :   0.9720

Dispersion correction           -0.004481361
FINAL SINGLE POINT ENERGY      -251.626554410595

DIPOLE MOMENT
-------------
                                X             Y             Z
Electronic contribution:     -2.72699       0.49288      -2.79603
Nuclear contribution   :      2.50934       0.16282       2.72182
                        -----------------------------------------
Total Dipole Moment    :     -0.21765       0.65570      -0.07422
                        -----------------------------------------
Magnitude (a.u.)       :      0.69486
Magnitude (Debye)      :      1.76619

Rotational constants in cm-1:     0.192764     0.074934     0.070466
Rotational constants in MHz :  5778.908020  2246.454937  2112.518546

                             ****ORCA TERMINATED NORMALLY****
TOTAL RUN TIME: 0 days 0 hours 0 minutes 14 seconds 40 msec
