                         Program Version 5.0.0 -  RELEASE  -
|  1> !wB97X-D3 RIJCOSX def2-SVP def2/J TightSCF
|  2> *xyz 0 1
|  3> C          4.93020       -7.37532       -2.64962
|  4> C          3.84189       -6.95161       -3.63283
|  5> H          3.45814       -5.95442       -3.40712
|  6> H          2.98848       -7.64361       -3.56708
|  7> S          4.31812       -6.91593       -5.36869
|  8> O          5.40615       -5.89948       -5.51297
|  9> O          3.11191       -6.44508       -6.04379
| 10> C          6.17399       -6.48552       -2.60631
| 11> H          4.46961       -7.40617       -1.65588
| 12> H          5.23013       -8.39868       -2.88591
| 13> F          4.76340       -8.23942       -5.69863
| 14> H          6.62449       -6.45478       -3.57637
| 15> H          6.87304       -6.88376       -1.90088
| 16> H          5.89434       -5.49571       -2.31140
| 17> *
| 18>
| 19> %MaxCore 64000
| 20>
| 21> %pal nprocs 8
| 22> end
| 23>
| 24> %scf
| 25>   MaxIter 150
| 26> end
| 27>
| 28>
| 29>                          ****END OF INPUT****

CARTESIAN COORDINATES (ANGSTROEM)
---------------------------------
  C      4.930200   -7.375320   -2.649620
  C      3.841890   -6.951610   -3.632830
  H      3.458140   -5.954420   -3.407120
  H      2.988480   -7.643610   -3.567080
  S      4.318120   -6.915930   -5.368690
  O      5.406150   -5.899480   -5.512970
  O      3.111910   -6.445080   -6.043790
  C      6.173990   -6.485520   -2.606310
  H      4.469610   -7.406170   -1.655880
  H      5.230130   -8.398680   -2.885910
  F      4.763400   -8.239420   -5.698630
  H      6.624490   -6.454780   -3.576370
  H      6.873040   -6.883760   -1.900880
  H      5.894340   -5.495710   -2.311400

 Total Charge           Charge          ....    0
 Multiplicity           Mult            ....    1
 Number of Electrons    NEL             ....   66
 Basis Dimension        Dim             ....  137

ORBITAL ENERGIES
----------------

  NO   OCC          E(Eh)            E(eV)
   0   2.0000     -89.214705     -2427.6556
   1   2.0000     -24.913745      -677.9375
   2   2.0000     -19.237402      -523.4763
   3   2.0000     -19.230996      -523.3020
   4   2.0000     -10.350281      -281.6455
   5   2.0000     -10.320596      -280.8377
   6   2.0000     -10.283192      -279.8199
   7   2.0000      -8.297615      -225.7896
   8   2.0000      -6.260940      -170.3688
   9   2.0000      -6.253962      -170.1790
  10   2.0000      -6.252868      -170.1492
  11   2.0000      -1.496284       -40.7159
  12   2.0000      -1.206899       -32.8414
  13   2.0000      -1.098638       -29.8955
  14   2.0000      -0.946977       -25.7685
  15   2.0000      -0.863456       -23.4958
  16   2.0000      -0.818224       -22.2650
  17   2.0000      -0.744326       -20.2541
  18   2.0000      -0.701085       -19.0775
  19   2.0000      -0.693724       -18.8772
  20   2.0000      -0.644046       -17.5254
  21   2.0000      -0.592880       -16.1331
  22   2.0000      -0.585677       -15.9371
  23   2.0000      -0.553429       -15.0596
  24   2.0000      -0.531108       -14.4522
  25   2.0000      -0.527585       -14.3563
  26   2.0000      -0.477035       -12.9808
  27   2.0000      -0.475292       -12.9334
  28   2.0000      -0.470658       -12.8073
  29   2.0000      -0.452945       -12.3253
  30   2.0000      -0.412845       -11.2341
  31   2.0000      -0.403292       -10.9741
  32   2.0000      -0.384400       -10.4601
  33   0.0000       0.109009         2.9663
  34   0.0000       0.135415         3.6848
  35   0.0000       0.159870         4.3503
  36   0.0000       0.168863         4.5950
  37   0.0000       0.177245         4.8231

MULLIKEN ATOMIC CHARGES
-----------------------
   0 C :   -0.113704
   1 C :   -0.134064
   2 H :    0.108739
   3 H :    0.089273
   4 S :    0.958828
   5 O :   -0.480188
   6 O :   -0.454798
   7 C :   -0.019425
   8 H :    0.053589
   9 H :    0.039944
  10 F :   -0.165726
  11 H :    0.050570
  12 H :    0.034207
  13 H :    0.032756
Sum of atomic charges:    0.0000000

LOEWDIN ATOMIC CHARGES
----------------------
   0 C :   -0.060124
   1 C :   -0.148636
   2 H :    0.055317
   3 H :    0.042271
   4 S :    1.169778
   5 O :   -0.525887
   6 O :   -0.501082
   7 C :   -0.057502
   8 H :    0.036958
   9 H :    0.024636
  10 F :   -0.109908
  11 H :    0.021627
  12 H :    0.026201
  13 H :    0.026349

  Mayer bond orders larger than 0.100000
B(  0-C ,  1-C ) :   1.0205 B(  0-C ,  7-C ) :   1.0772 B(  0-C ,  8-H ) :   0.9486
B(  0-C ,  9-H ) :   0.9572 B(  1-C ,  2-H ) :   0.9349 B(  1-C ,  3-H ) :   0.9359
B(  1-C ,  4-S ) :   0.9163 B(  4-S ,  5-O ) :   1.7078 B(  4-S ,  6-O ) :   1.7665
B(  4-S , 10-F ) :   1.0283 B(  7-C , 11-H ) :   0.9644 B(  7-C , 12-H ) :   0.9705
B(  7-C , 13-H ) :   0.9758

Dispersion correction           -0.004476074
FINAL SINGLE POINT ENERGY      -766.407986564390

DIPOLE MOMENT
-------------
                                X             Y             Z
Electronic contribution:     -3.03429      -2.60672     -12.21061
Nuclear contribution   :      2.96568       1.49902      13.60585
                        -----------------------------------------
Total Dipole Moment    :     -0.06862      -1.10770       1.39524
                        -----------------------------------------
Magnitude (a.u.)       :      1.78281
Magnitude (Debye)      :      4.53154

Rotational constants in cm-1:     0.127173     0.053596     0.051689
Rotational constants in MHz :  3812.547794  1606.772866  1549.597841

                             ****ORCA TERMINATED NORMALLY****
TOTAL RUN TIME: 0 days 0 hours 0 minutes 13 seconds 223 msec
