                         Program Version 5.0.0 -  RELEASE  -
|  1> !wB97X-D3 RIJCOSX def2-SVP def2/J TightSCF xyzfile
|  2>
|  3> *xyzfile 0 1 D2.xyz
|  4>
|  5> %MaxCore 64000
|  6>
|  7> %pal nprocs 18
|  8> end
|  9>
| 10> %scf
| 11>   MaxIter 150
| 12> end
| 13>
| 14>
| 15>                          ****END OF INPUT****

CARTESIAN COORDINATES (ANGSTROEM)
---------------------------------
  C      5.558206   -1.992914   -6.215054
  C      4.930199   -7.375319   -2.649623
  C      3.841892   -6.951611   -3.632829
  H      3.458144   -5.954425   -3.407121
  H      2.988484   -7.643606   -3.567078
  S      4.318115   -6.915930   -5.368692
  C      4.181880   -2.589671   -6.298911
  N      3.145873   -1.768431   -6.486753
  C      4.019102   -3.864307   -6.227427
  H      4.768490   -4.591153   -5.990773
  H      3.122405   -4.333392   -6.314620
  H      3.281635   -0.777786   -6.566549
  H      2.212549   -2.134193   -6.562246
  F      5.406154   -5.899480   -5.512972
  O      3.111910   -6.445079   -6.043792
  C      6.419260   -2.542944   -5.077630
  C      5.872267   -5.002756   -2.427819
  C      6.173994   -6.485522   -2.606315
  H      6.734852   -6.613767   -3.534015
  H      6.821463   -6.831018   -1.793617
  H      4.469612   -7.406168   -1.655876
  H      5.230134   -8.398678   -2.885906
  C      5.896512   -2.169314   -3.694552
  H      7.428880   -2.143665   -5.208078
  H      6.505894   -3.627541   -5.175502
  C      6.807804   -2.623428   -2.551019
  H      4.894708   -2.589732   -3.557501
  H      5.778823   -1.081255   -3.635790
  C      7.111544   -4.122463   -2.520363
  H      7.751615   -2.071393   -2.614406
  H      6.345837   -2.326401   -1.604086
  H      5.362882   -4.828697   -1.471335
  H      5.174429   -4.702577   -3.211298
  H      7.778329   -4.329347   -1.677651
  H      7.673189   -4.402845   -3.417586
  O      4.763396   -8.239424   -5.698629
  H      6.036826   -2.198189   -7.176852
  H      5.467610   -0.907371   -6.127968

 Total Charge           Charge          ....    0
 Multiplicity           Mult            ....    1
 Number of Electrons    NEL             ....  136
 Basis Dimension        Dim             ....  338

ORBITAL ENERGIES
----------------

  NO   OCC          E(Eh)            E(eV)
   0   2.0000     -89.212684     -2427.6005
   1   2.0000     -24.888310      -677.2454
   2   2.0000     -19.248515      -523.7787
   3   2.0000     -19.235655      -523.4288
   4   2.0000     -14.418600      -392.3500
   5   2.0000     -10.345669      -281.5200
   6   2.0000     -10.315295      -280.6935
   7   2.0000     -10.299831      -280.2726
   8   2.0000     -10.294041      -280.1151
   9   2.0000     -10.291546      -280.0472
  10   2.0000     -10.286748      -279.9166
  11   2.0000     -10.283668      -279.8328
  12   2.0000     -10.281809      -279.7822
  13   2.0000     -10.281619      -279.7771
  14   2.0000     -10.278767      -279.6995
  15   2.0000     -10.195589      -277.4361
  16   2.0000      -8.294625      -225.7082
  17   2.0000      -6.257821      -170.2840
  18   2.0000      -6.251233      -170.1047
  19   2.0000      -6.250128      -170.0746
  20   2.0000      -1.454879       -39.5893
  21   2.0000      -1.225112       -33.3370
  22   2.0000      -1.124931       -30.6109
  23   2.0000      -1.017819       -27.6963
  24   2.0000      -0.954104       -25.9625
  25   2.0000      -0.926113       -25.2008
  26   2.0000      -0.895830       -24.3768
  27   2.0000      -0.866701       -23.5841
  28   2.0000      -0.828339       -22.5403
  29   2.0000      -0.816667       -22.2226
  30   2.0000      -0.789870       -21.4935
  31   2.0000      -0.765228       -20.8229
  32   2.0000      -0.727349       -19.7922
  33   2.0000      -0.710893       -19.3444
  34   2.0000      -0.693038       -18.8585
  35   2.0000      -0.669710       -18.2237
  36   2.0000      -0.665245       -18.1022
  37   2.0000      -0.645722       -17.5710
  38   2.0000      -0.637256       -17.3406
  39   2.0000      -0.611504       -16.6399
  40   2.0000      -0.596306       -16.2263
  41   2.0000      -0.591259       -16.0890
  42   2.0000      -0.584461       -15.9040
  43   2.0000      -0.570723       -15.5302
  44   2.0000      -0.556620       -15.1464
  45   2.0000      -0.552974       -15.0472
  46   2.0000      -0.545068       -14.8321
  47   2.0000      -0.532745       -14.4967
  48   2.0000      -0.515421       -14.0253
  49   2.0000      -0.510087       -13.8802
  50   2.0000      -0.503029       -13.6881
  51   2.0000      -0.497316       -13.5327
  52   2.0000      -0.472174       -12.8485
  53   2.0000      -0.468002       -12.7350
  54   2.0000      -0.460979       -12.5439
  55   2.0000      -0.454856       -12.3773
  56   2.0000      -0.444038       -12.0829
  57   2.0000      -0.441386       -12.0107
  58   2.0000      -0.432072       -11.7573
  59   2.0000      -0.428670       -11.6647
  60   2.0000      -0.422098       -11.4859
  61   2.0000      -0.417207       -11.3528
  62   2.0000      -0.409443       -11.1415
  63   2.0000      -0.407863       -11.0985
  64   2.0000      -0.403708       -10.9855
  65   2.0000      -0.397613       -10.8196
  66   2.0000      -0.390497       -10.6260
  67   2.0000      -0.263915        -7.1815
  68   0.0000       0.102942         2.8012
  69   0.0000       0.129949         3.5361
  70   0.0000       0.136936         3.7262
  71   0.0000       0.144042         3.9196
  72   0.0000       0.149384         4.0649

MULLIKEN ATOMIC CHARGES
-----------------------
   0 C :    0.099438
   1 C :   -0.014021
   2 C :   -0.136800
   3 H :    0.090118
   4 H :    0.112660
   5 S :    0.959674
   6 C :   -0.058050
   7 N :   -0.108745
   8 C :   -0.263778
   9 H :    0.040282
  10 H :   -0.006418
  11 H :    0.108940
  12 H :    0.119134
  13 F :   -0.197722
  14 O :   -0.439036
  15 C :   -0.056755
  16 C :   -0.071143
  17 C :   -0.057333
  18 H :    0.029177
  19 H :    0.035453
  20 H :    0.044638
  21 H :    0.057763
  22 C :   -0.047797
  23 H :    0.013458
  24 H :    0.015782
  25 C :    0.012637
  26 H :    0.036892
  27 H :    0.012358
  28 C :   -0.036409
  29 H :    0.018257
  30 H :    0.015902
  31 H :    0.020465
  32 H :   -0.000481
  33 H :    0.020319
  34 H :    0.020636
  35 O :   -0.422367
  36 H :    0.044929
  37 H :   -0.012059
Sum of atomic charges:    0.0000000

LOEWDIN ATOMIC CHARGES
----------------------
   0 C :   -0.027377
   1 C :   -0.051374
   2 C :   -0.144976
   3 H :    0.039159
   4 H :    0.059898
   5 S :    1.190102
   6 C :    0.003026
   7 N :   -0.020344
   8 C :   -0.225318
   9 H :   -0.027967
  10 H :   -0.008106
  11 H :    0.062588
  12 H :    0.073979
  13 F :   -0.108760
  14 O :   -0.473487
  15 C :   -0.031982
  16 C :   -0.045937
  17 C :   -0.045726
  18 H :    0.016739
  19 H :    0.030232
  20 H :    0.036474
  21 H :    0.035045
  22 C :   -0.041537
  23 H :    0.021591
  24 H :    0.016406
  25 C :   -0.037191
  26 H :    0.021062
  27 H :    0.022016
  28 C :   -0.038513
  29 H :    0.022389
  30 H :    0.021658
  31 H :    0.022935
  32 H :    0.010135
  33 H :    0.023348
  34 H :    0.019903
  35 O :   -0.474450
  36 H :    0.039280
  37 H :    0.015078

  Mayer bond orders larger than 0.100000
B(  0-C ,  6-C ) :   0.9812 B(  0-C , 15-C ) :   1.1020 B(  0-C , 36-H ) :   0.9305
B(  0-C , 37-H ) :   0.9334 B(  1-C ,  2-C ) :   1.0241 B(  1-C , 17-C ) :   1.0752
B(  1-C , 20-H ) :   0.9390 B(  1-C , 21-H ) :   0.9477 B(  2-C ,  3-H ) :   0.9275
B(  2-C ,  4-H ) :   0.9338 B(  2-C ,  5-S ) :   0.9188 B(  5-S , 13-F ) :   0.9107
B(  5-S , 14-O ) :   1.7443 B(  5-S , 35-O ) :   1.8018 B(  6-C ,  7-N ) :   1.2436
B(  6-C ,  8-C ) :   1.8487 B(  7-N , 11-H ) :   0.9525 B(  7-N , 12-H ) :   0.9515
B(  8-C ,  9-H ) :   0.9466 B(  8-C , 10-H ) :   0.9614 B( 15-C , 22-C ) :   1.0494
B( 15-C , 23-H ) :   0.9456 B( 15-C , 24-H ) :   0.9412 B( 16-C , 17-C ) :   1.0572
B( 16-C , 28-C ) :   1.0645 B( 16-C , 31-H ) :   0.9487 B( 16-C , 32-H ) :   0.9338
B( 17-C , 18-H ) :   0.9490 B( 17-C , 19-H ) :   0.9468 B( 22-C , 25-C ) :   1.0809
B( 22-C , 26-H ) :   0.9415 B( 22-C , 27-H ) :   0.9446 B( 25-C , 28-C ) :   1.0754
B( 25-C , 29-H ) :   0.9471 B( 25-C , 30-H ) :   0.9475 B( 28-C , 33-H ) :   0.9467
B( 28-C , 34-H ) :   0.9465

Dispersion correction           -0.020708039
FINAL SINGLE POINT ENERGY     -1134.672382336755

DIPOLE MOMENT
-------------
                                X             Y             Z
Electronic contribution:     -7.78517     -16.97199     -13.67249
Nuclear contribution   :      7.91684      17.85507      15.13212
                        -----------------------------------------
Total Dipole Moment    :      0.13167       0.88308       1.45963
                        -----------------------------------------
Magnitude (a.u.)       :      1.71105
Magnitude (Debye)      :      4.34913

Rotational constants in cm-1:     0.018015     0.012410     0.008313
Rotational constants in MHz :   540.084467   372.038374   249.228144

                             ****ORCA TERMINATED NORMALLY****
TOTAL RUN TIME: 0 days 0 hours 0 minutes 52 seconds 126 msec
