                         Program Version 5.0.0 -  RELEASE  -
|  1> !wB97X-D3 RIJCOSX def2-SVP def2/J TightSCF xyzfile
|  2>
|  3> *xyzfile 0 1 D3.xyz
|  4>
|  5> %MaxCore 64000
|  6>
|  7> %pal nprocs 18
|  8> end
|  9>
| 10> %scf
| 11>   MaxIter 150
| 12> end
| 13>
| 14>
| 15>                          ****END OF INPUT****

CARTESIAN COORDINATES (ANGSTROEM)
---------------------------------
  C      5.558206   -1.992914   -6.215054
  C      4.930199   -7.375319   -2.649623
  C      3.841892   -6.951611   -3.632829
  H      3.458144   -5.954425   -3.407121
  H      2.988484   -7.643606   -3.567078
  S      4.318115   -6.915930   -5.368692
  C      4.181880   -2.589671   -6.298911
  C      3.145873   -1.768431   -6.486753
  N      4.019102   -3.864307   -6.227427
  H      4.768490   -4.591153   -5.990773
  H      3.122405   -4.333392   -6.314620
  H      3.281635   -0.777786   -6.566549
  H      2.212549   -2.134193   -6.562246
  O      5.406154   -5.899480   -5.512972
  F      3.111910   -6.445079   -6.043792
  C      6.419260   -2.542944   -5.077630
  C      5.872267   -5.002756   -2.427819
  C      6.173994   -6.485522   -2.606315
  H      6.734852   -6.613767   -3.534015
  H      6.821463   -6.831018   -1.793617
  H      4.469612   -7.406168   -1.655876
  H      5.230134   -8.398678   -2.885906
  C      5.896512   -2.169314   -3.694552
  H      7.428880   -2.143665   -5.208078
  H      6.505894   -3.627541   -5.175502
  C      6.807804   -2.623428   -2.551019
  H      4.894708   -2.589732   -3.557501
  H      5.778823   -1.081255   -3.635790
  C      7.111544   -4.122463   -2.520363
  H      7.751615   -2.071393   -2.614406
  H      6.345837   -2.326401   -1.604086
  H      5.362882   -4.828697   -1.471335
  H      5.174429   -4.702577   -3.211298
  H      7.778329   -4.329347   -1.677651
  H      7.673189   -4.402845   -3.417586
  O      4.763396   -8.239424   -5.698629
  H      6.036826   -2.198189   -7.176852
  H      5.467610   -0.907371   -6.127968

 Total Charge           Charge          ....    0
 Multiplicity           Mult            ....    1
 Number of Electrons    NEL             ....  136
 Basis Dimension        Dim             ....  338

ORBITAL ENERGIES
----------------

  NO   OCC          E(Eh)            E(eV)
   0   2.0000     -89.246069     -2428.5090
   1   2.0000     -24.931143      -678.4109
   2   2.0000     -19.276021      -524.5272
   3   2.0000     -19.268999      -524.3361
   4   2.0000     -14.400411      -391.8551
   5   2.0000     -10.368311      -282.1361
   6   2.0000     -10.329513      -281.0803
   7   2.0000     -10.297810      -280.2177
   8   2.0000     -10.288638      -279.9681
   9   2.0000     -10.288294      -279.9587
  10   2.0000     -10.281605      -279.7767
  11   2.0000     -10.277934      -279.6768
  12   2.0000     -10.271868      -279.5117
  13   2.0000     -10.271562      -279.5034
  14   2.0000     -10.269555      -279.4488
  15   2.0000     -10.195370      -277.4301
  16   2.0000      -8.328607      -226.6329
  17   2.0000      -6.291681      -171.2053
  18   2.0000      -6.285515      -171.0376
  19   2.0000      -6.283687      -170.9878
  20   2.0000      -1.505489       -40.9664
  21   2.0000      -1.251231       -34.0477
  22   2.0000      -1.149192       -31.2711
  23   2.0000      -1.013445       -27.5772
  24   2.0000      -0.966280       -26.2938
  25   2.0000      -0.924032       -25.1442
  26   2.0000      -0.898128       -24.4393
  27   2.0000      -0.868528       -23.6338
  28   2.0000      -0.845337       -23.0028
  29   2.0000      -0.815691       -22.1961
  30   2.0000      -0.795900       -21.6576
  31   2.0000      -0.760964       -20.7069
  32   2.0000      -0.728867       -19.8335
  33   2.0000      -0.717883       -19.5346
  34   2.0000      -0.705685       -19.2027
  35   2.0000      -0.695467       -18.9246
  36   2.0000      -0.682128       -18.5617
  37   2.0000      -0.660179       -17.9644
  38   2.0000      -0.653396       -17.7798
  39   2.0000      -0.624107       -16.9828
  40   2.0000      -0.610058       -16.6005
  41   2.0000      -0.595717       -16.2103
  42   2.0000      -0.582790       -15.8585
  43   2.0000      -0.565706       -15.3936
  44   2.0000      -0.558652       -15.2017
  45   2.0000      -0.555009       -15.1026
  46   2.0000      -0.543839       -14.7986
  47   2.0000      -0.529998       -14.4220
  48   2.0000      -0.521170       -14.1818
  49   2.0000      -0.514595       -14.0029
  50   2.0000      -0.509404       -13.8616
  51   2.0000      -0.499780       -13.5997
  52   2.0000      -0.486765       -13.2456
  53   2.0000      -0.476943       -12.9783
  54   2.0000      -0.466891       -12.7047
  55   2.0000      -0.457140       -12.4394
  56   2.0000      -0.452687       -12.3182
  57   2.0000      -0.450081       -12.2473
  58   2.0000      -0.442737       -12.0475
  59   2.0000      -0.429603       -11.6901
  60   2.0000      -0.424944       -11.5633
  61   2.0000      -0.420231       -11.4351
  62   2.0000      -0.417470       -11.3599
  63   2.0000      -0.406422       -11.0593
  64   2.0000      -0.399912       -10.8822
  65   2.0000      -0.392012       -10.6672
  66   2.0000      -0.388594       -10.5742
  67   2.0000      -0.247471        -6.7340
  68   0.0000       0.092552         2.5185
  69   0.0000       0.109730         2.9859
  70   0.0000       0.133932         3.6445
  71   0.0000       0.138083         3.7574
  72   0.0000       0.148873         4.0510

MULLIKEN ATOMIC CHARGES
-----------------------
   0 C :    0.097134
   1 C :   -0.015086
   2 C :   -0.140811
   3 H :    0.092513
   4 H :    0.096167
   5 S :    0.979660
   6 C :   -0.127054
   7 C :   -0.085336
   8 N :   -0.161977
   9 H :    0.163627
  10 H :    0.101541
  11 H :   -0.040653
  12 H :   -0.053409
  13 O :   -0.471817
  14 F :   -0.181958
  15 C :   -0.079313
  16 C :   -0.063837
  17 C :   -0.043008
  18 H :    0.049257
  19 H :    0.031946
  20 H :    0.055600
  21 H :    0.061411
  22 C :   -0.043158
  23 H :    0.012487
  24 H :    0.029180
  25 C :    0.011231
  26 H :    0.030145
  27 H :    0.017650
  28 C :   -0.038323
  29 H :    0.017703
  30 H :    0.013506
  31 H :    0.014196
  32 H :   -0.007550
  33 H :    0.017122
  34 H :    0.027101
  35 O :   -0.406763
  36 H :    0.032706
  37 H :    0.008170
Sum of atomic charges:    0.0000000

LOEWDIN ATOMIC CHARGES
----------------------
   0 C :   -0.024031
   1 C :   -0.038395
   2 C :   -0.147211
   3 H :    0.039340
   4 H :    0.046695
   5 S :    1.199221
   6 C :    0.003943
   7 C :   -0.206413
   8 N :   -0.052106
   9 H :    0.025445
  10 H :    0.049882
  11 H :   -0.008660
  12 H :   -0.015202
  13 O :   -0.452311
  14 F :   -0.115227
  15 C :   -0.043543
  16 C :   -0.044528
  17 C :   -0.042164
  18 H :    0.025648
  19 H :    0.028604
  20 H :    0.042016
  21 H :    0.037754
  22 C :   -0.039865
  23 H :    0.021762
  24 H :    0.017827
  25 C :   -0.037575
  26 H :    0.019629
  27 H :    0.024860
  28 C :   -0.037479
  29 H :    0.022443
  30 H :    0.020414
  31 H :    0.019367
  32 H :    0.007953
  33 H :    0.021882
  34 H :    0.023074
  35 O :   -0.455970
  36 H :    0.032439
  37 H :    0.030482

  Mayer bond orders larger than 0.100000
B(  0-C ,  6-C ) :   1.0134 B(  0-C , 15-C ) :   1.0795 B(  0-C , 36-H ) :   0.9312
B(  0-C , 37-H ) :   0.9339 B(  1-C ,  2-C ) :   1.0387 B(  1-C , 17-C ) :   1.0785
B(  1-C , 20-H ) :   0.9405 B(  1-C , 21-H ) :   0.9484 B(  2-C ,  3-H ) :   0.9203
B(  2-C ,  4-H ) :   0.9290 B(  2-C ,  5-S ) :   0.9152 B(  5-S , 13-O ) :   1.5875
B(  5-S , 14-F ) :   0.9966 B(  5-S , 35-O ) :   1.8250 B(  6-C ,  7-C ) :   1.8237
B(  6-C ,  8-N ) :   1.2926 B(  7-C , 11-H ) :   0.9480 B(  7-C , 12-H ) :   0.9575
B(  8-N ,  9-H ) :   0.8645 B(  8-N , 10-H ) :   0.9444 B(  9-H , 13-O ) :   0.1239
B( 15-C , 22-C ) :   1.0435 B( 15-C , 23-H ) :   0.9454 B( 15-C , 24-H ) :   0.9417
B( 16-C , 17-C ) :   1.0590 B( 16-C , 28-C ) :   1.0681 B( 16-C , 31-H ) :   0.9492
B( 16-C , 32-H ) :   0.9285 B( 17-C , 18-H ) :   0.9441 B( 17-C , 19-H ) :   0.9468
B( 22-C , 25-C ) :   1.0805 B( 22-C , 26-H ) :   0.9435 B( 22-C , 27-H ) :   0.9438
B( 25-C , 28-C ) :   1.0747 B( 25-C , 29-H ) :   0.9466 B( 25-C , 30-H ) :   0.9479
B( 28-C , 33-H ) :   0.9470 B( 28-C , 34-H ) :   0.9473

Dispersion correction           -0.020916184
FINAL SINGLE POINT ENERGY     -1134.676141804726

DIPOLE MOMENT
-------------
                                X             Y             Z
Electronic contribution:    -11.02912     -20.18341     -14.26362
Nuclear contribution   :     10.48431      18.81367      15.71750
                        -----------------------------------------
Total Dipole Moment    :     -0.54480      -1.36974       1.45388
                        -----------------------------------------
Magnitude (a.u.)       :      2.07045
Magnitude (Debye)      :      5.26267

Rotational constants in cm-1:     0.017977     0.012528     0.008321
Rotational constants in MHz :   538.924099   375.570730   249.458530

                             ****ORCA TERMINATED NORMALLY****
TOTAL RUN TIME: 0 days 0 hours 0 minutes 46 seconds 947 msec
