                         Program Version 5.0.0 -  RELEASE  -
|  1> !wB97X-D3 RIJCOSX def2-SVPD def2/J TightSCF CPCM(Water)
|  2> *xyz -1 1
|  3> C         -0.91495        0.61511        2.50554
|  4> C         -0.05915        1.50352        3.41058
|  5> H          0.36536        2.34431        2.86116
|  6> H         -0.69226        1.92021        4.19898
|  7> C          1.08303        0.74964        4.08571
|  8> O          2.22817        1.26348        4.01983
|  9> O          0.81003       -0.34541        4.63627
| 10> H         -0.30401        0.20228        1.73015
| 11> H         -1.69811        1.19946        2.06954
| 12> H         -1.34124       -0.17772        3.08397
| 13> *
| 14>
| 15> %MaxCore 64000
| 16>
| 17> %pal nprocs 18
| 18> end
| 19>
| 20> %scf
| 21>   MaxIter 150
| 22> end
| 23>
| 24>
| 25>                          ****END OF INPUT****

CARTESIAN COORDINATES (ANGSTROEM)
---------------------------------
  C     -0.914950    0.615110    2.505540
  C     -0.059150    1.503520    3.410580
  H      0.365360    2.344310    2.861160
  H     -0.692260    1.920210    4.198980
  C      1.083030    0.749640    4.085710
  O      2.228170    1.263480    4.019830
  O      0.810030   -0.345410    4.636270
  H     -0.304010    0.202280    1.730150
  H     -1.698110    1.199460    2.069540
  H     -1.341240   -0.177720    3.083970

 Total Charge           Charge          ....   -1
 Multiplicity           Mult            ....    1
 Number of Electrons    NEL             ....   40
 Basis Dimension        Dim             ....  146

ORBITAL ENERGIES
----------------

  NO   OCC          E(Eh)            E(eV)
   0   2.0000     -19.177647      -521.8503
   1   2.0000     -19.177326      -521.8416
   2   2.0000     -10.365672      -282.0643
   3   2.0000     -10.269734      -279.4537
   4   2.0000     -10.264326      -279.3065
   5   2.0000      -1.123624       -30.5754
   6   2.0000      -1.028201       -27.9788
   7   2.0000      -0.864967       -23.5370
   8   2.0000      -0.732428       -19.9304
   9   2.0000      -0.589801       -16.0493
  10   2.0000      -0.547043       -14.8858
  11   2.0000      -0.537676       -14.6309
  12   2.0000      -0.508414       -13.8346
  13   2.0000      -0.490238       -13.3401
  14   2.0000      -0.467124       -12.7111
  15   2.0000      -0.439296       -11.9538
  16   2.0000      -0.423625       -11.5274
  17   2.0000      -0.343687        -9.3522
  18   2.0000      -0.329446        -8.9647
  19   2.0000      -0.323164        -8.7937
  20   0.0000       0.094803         2.5797
  21   0.0000       0.120274         3.2728
  22   0.0000       0.130421         3.5489
  23   0.0000       0.140016         3.8100
  24   0.0000       0.154987         4.2174

MULLIKEN ATOMIC CHARGES
-----------------------
   0 C :    0.525358
   1 C :   -0.321538
   2 H :   -0.051215
   3 H :    0.038942
   4 C :    0.401258
   5 O :   -0.721023
   6 O :   -0.745959
   7 H :   -0.046430
   8 H :   -0.032585
   9 H :   -0.046809
Sum of atomic charges:   -1.0000000

LOEWDIN ATOMIC CHARGES
----------------------
   0 C :    0.112716
   1 C :   -0.036289
   2 H :    0.010336
   3 H :    0.027756
   4 C :   -0.325971
   5 O :   -0.369329
   6 O :   -0.359574
   7 H :   -0.013526
   8 H :   -0.019843
   9 H :   -0.026277

  Mayer bond orders larger than 0.100000
B(  0-C ,  1-C ) :   1.2762 B(  0-C ,  7-H ) :   0.8652 B(  0-C ,  8-H ) :   0.8510
B(  0-C ,  9-H ) :   0.8353 B(  1-C ,  2-H ) :   0.9716 B(  1-C ,  3-H ) :   0.8861
B(  1-C ,  4-C ) :   1.0480 B(  1-C ,  7-H ) :   0.1490 B(  1-C ,  8-H ) :   0.1545
B(  1-C ,  9-H ) :   0.1807 B(  2-H ,  4-C ) :   0.1610 B(  4-C ,  5-O ) :   1.4728
B(  4-C ,  6-O ) :   1.4839 B(  5-O ,  6-O ) :   0.1482

Dispersion correction           -0.001940068
FINAL SINGLE POINT ENERGY      -267.692987509776

DIPOLE MOMENT
-------------
                                X             Y             Z
Electronic contribution:      4.10231      -0.70870       2.96256
Nuclear contribution   :     -6.38408       1.63097      -4.40540
                        -----------------------------------------
Total Dipole Moment    :     -2.28176       0.92226      -1.44284
                        -----------------------------------------
Magnitude (a.u.)       :      2.85286
Magnitude (Debye)      :      7.25139

Rotational constants in cm-1:     0.319732     0.134414     0.104753
Rotational constants in MHz :  9585.336550  4029.633034  3140.404334

                             ****ORCA TERMINATED NORMALLY****
TOTAL RUN TIME: 0 days 0 hours 0 minutes 8 seconds 174 msec
