                         Program Version 5.0.0 -  RELEASE  -
|  1> !wB97X-D3 RIJCOSX def2-SVPD def2/J TightSCF CPCM(Water)
|  2> *xyz 1 1
|  3> C          4.60295       -2.44010        2.63478
|  4> C          3.86085       -1.59157        3.62289
|  5> N          2.75650       -2.04616        4.16633
|  6> N          4.25433       -0.36291        3.86046
|  7> H          3.56526        0.31099        4.16898
|  8> H          5.05429       -0.01606        3.33784
|  9> H          2.43970       -2.97389        3.89740
| 10> H          2.06687       -1.41253        4.54981
| 11> C          3.74469       -2.58056        1.36188
| 12> H          5.56156       -1.97135        2.40708
| 13> H          4.81050       -3.42255        3.06310
| 14> H          4.26314       -3.18477        0.64702
| 15> H          3.56325       -1.61180        0.94535
| 16> H          2.81197       -3.04259        1.60980
| 17> *
| 18>
| 19> %MaxCore 64000
| 20>
| 21> %pal nprocs 18
| 22> end
| 23>
| 24> %scf
| 25>   MaxIter 150
| 26> end
| 27>
| 28>
| 29>                          ****END OF INPUT****

CARTESIAN COORDINATES (ANGSTROEM)
---------------------------------
  C      4.602950   -2.440100    2.634780
  C      3.860850   -1.591570    3.622890
  N      2.756500   -2.046160    4.166330
  N      4.254330   -0.362910    3.860460
  H      3.565260    0.310990    4.168980
  H      5.054290   -0.016060    3.337840
  H      2.439700   -2.973890    3.897400
  H      2.066870   -1.412530    4.549810
  C      3.744690   -2.580560    1.361880
  H      5.561560   -1.971350    2.407080
  H      4.810500   -3.422550    3.063100
  H      4.263140   -3.184770    0.647020
  H      3.563250   -1.611800    0.945350
  H      2.811970   -3.042590    1.609800

 Total Charge           Charge          ....    1
 Multiplicity           Mult            ....    1
 Number of Electrons    NEL             ....   40
 Basis Dimension        Dim             ....  172

ORBITAL ENERGIES
----------------

  NO   OCC          E(Eh)            E(eV)
   0   2.0000     -14.498469      -394.5234
   1   2.0000     -14.497876      -394.5073
   2   2.0000     -10.436121      -283.9813
   3   2.0000     -10.322950      -280.9017
   4   2.0000     -10.292406      -280.0706
   5   2.0000      -1.136200       -30.9176
   6   2.0000      -1.033952       -28.1353
   7   2.0000      -0.913337       -24.8532
   8   2.0000      -0.795179       -21.6379
   9   2.0000      -0.745473       -20.2854
  10   2.0000      -0.692704       -18.8494
  11   2.0000      -0.677722       -18.4418
  12   2.0000      -0.611591       -16.6422
  13   2.0000      -0.593888       -16.1605
  14   2.0000      -0.558885       -15.2080
  15   2.0000      -0.528437       -14.3795
  16   2.0000      -0.482806       -13.1378
  17   2.0000      -0.475054       -12.9269
  18   2.0000      -0.461988       -12.5713
  19   2.0000      -0.407718       -11.0946
  20   0.0000       0.043017         1.1705
  21   0.0000       0.088358         2.4043
  22   0.0000       0.122900         3.3443
  23   0.0000       0.130240         3.5440
  24   0.0000       0.136382         3.7111

MULLIKEN ATOMIC CHARGES
-----------------------
   0 C :   -0.305180
   1 C :    0.433744
   2 N :    0.022676
   3 N :   -0.068486
   4 H :    0.001594
   5 H :    0.136726
   6 H :    0.131536
   7 H :   -0.060520
   8 C :    0.507599
   9 H :    0.073930
  10 H :    0.112583
  11 H :    0.032214
  12 H :   -0.001422
  13 H :   -0.016992
Sum of atomic charges:    1.0000000

LOEWDIN ATOMIC CHARGES
----------------------
   0 C :    0.019266
   1 C :   -0.050745
   2 N :    0.285131
   3 N :    0.282359
   4 H :    0.059898
   5 H :    0.058269
   6 H :    0.057813
   7 H :    0.061817
   8 C :    0.156565
   9 H :    0.039083
  10 H :    0.048432
  11 H :   -0.002542
  12 H :   -0.001926
  13 H :   -0.013419

  Mayer bond orders larger than 0.100000
B(  0-C ,  1-C ) :   1.2530 B(  0-C ,  8-C ) :   1.2412 B(  0-C ,  9-H ) :   0.9123
B(  0-C , 10-H ) :   0.8513 B(  0-C , 11-H ) :   0.1326 B(  0-C , 12-H ) :   0.1376
B(  0-C , 13-H ) :   0.1657 B(  1-C ,  2-N ) :   1.1540 B(  1-C ,  3-N ) :   1.1129
B(  1-C ,  7-H ) :  -0.1022 B(  1-C ,  9-H ) :   0.1493 B(  1-C , 10-H ) :   0.1515
B(  2-N ,  3-N ) :   0.1540 B(  2-N ,  6-H ) :   0.9785 B(  2-N ,  7-H ) :   1.2525
B(  3-N ,  4-H ) :   1.1924 B(  3-N ,  5-H ) :   0.9759 B(  4-H ,  5-H ) :  -0.1291
B(  6-H ,  7-H ) :  -0.1464 B(  8-C , 11-H ) :   0.8757 B(  8-C , 12-H ) :   0.8669
B(  8-C , 13-H ) :   0.8368

Dispersion correction           -0.003043751
FINAL SINGLE POINT ENERGY      -228.916117229770

DIPOLE MOMENT
-------------
                                X             Y             Z
Electronic contribution:     -0.37687       1.98082       3.92001
Nuclear contribution   :     -0.22400      -1.16268      -3.30447
                        -----------------------------------------
Total Dipole Moment    :     -0.60088       0.81814       0.61553
                        -----------------------------------------
Magnitude (a.u.)       :      1.18713
Magnitude (Debye)      :      3.01745

Rotational constants in cm-1:     0.258103     0.130571     0.102508
Rotational constants in MHz :  7737.732062  3914.431392  3073.119154

                             ****ORCA TERMINATED NORMALLY****
TOTAL RUN TIME: 0 days 0 hours 0 minutes 10 seconds 482 msec
