                         Program Version 5.0.0 -  RELEASE  -
|  1> !wB97X-D3 RIJCOSX def2-SVPD def2/J TightSCF CPCM(Water) xyzfile
|  2>
|  3> *xyzfile 0 1 B.xyz
|  4>
|  5> %MaxCore 64000
|  6>
|  7> %pal nprocs 18
|  8> end
|  9>
| 10> %scf
| 11>   MaxIter 150
| 12> end
| 13>
| 14>
| 15>                          ****END OF INPUT****

CARTESIAN COORDINATES (ANGSTROEM)
---------------------------------
  C      4.602954   -2.440100    2.634780
  C     -0.914947    0.615112    2.505538
  C     -0.059146    1.503524    3.410578
  H      0.365364    2.344315    2.861161
  H     -0.692261    1.920207    4.198985
  C      1.083027    0.749640    4.085705
  C      3.860851   -1.591565    3.622893
  N      2.756502   -2.046159    4.166333
  N      4.254325   -0.362905    3.860455
  H      3.565256    0.310994    4.168983
  H      5.054292   -0.016059    3.337838
  H      2.439696   -2.973894    3.897395
  H      2.066869   -1.412532    4.549813
  O      2.228167    1.263475    4.019826
  O      0.810034   -0.345411    4.636269
  C      3.744685   -2.580557    1.361882
  C      0.772139    0.636882    0.562129
  C     -0.130740   -0.193985    1.470763
  H     -0.840563   -0.760165    0.856377
  H      0.466691   -0.938942    2.006959
  H     -1.647961    1.245963    1.991076
  H     -1.478180   -0.081046    3.130424
  C      3.203721   -1.256004    0.826211
  H      2.898939   -3.239289    1.583074
  H      4.334962   -3.095523    0.600188
  C      2.107815   -1.442385   -0.216865
  H      2.786775   -0.672760    1.650711
  H      4.021008   -0.652993    0.414046
  C      1.390662   -0.145912   -0.602422
  H      1.372179   -2.152184    0.176151
  H      2.523302   -1.906787   -1.117115
  H      1.561361    1.100094    1.161831
  H      0.195516    1.468325    0.142758
  H      0.602893   -0.398214   -1.319716
  H      2.087247    0.508272   -1.137335
  H      5.561557   -1.971347    2.407084
  H      4.810498   -3.422552    3.063099

 Total Charge           Charge          ....    0
 Multiplicity           Mult            ....    1
 Number of Electrons    NEL             ....  118
 Basis Dimension        Dim             ....  482

ORBITAL ENERGIES
----------------

  NO   OCC          E(Eh)            E(eV)
   0   2.0000     -19.199926      -522.4566
   1   2.0000     -19.198856      -522.4274
   2   2.0000     -14.462678      -393.5495
   3   2.0000     -14.462102      -393.5338
   4   2.0000     -10.412192      -283.3301
   5   2.0000     -10.386789      -282.6389
   6   2.0000     -10.309813      -280.5443
   7   2.0000     -10.295580      -280.1570
   8   2.0000     -10.280780      -279.7543
   9   2.0000     -10.278351      -279.6882
  10   2.0000     -10.277045      -279.6526
  11   2.0000     -10.276485      -279.6374
  12   2.0000     -10.275462      -279.6095
  13   2.0000     -10.274343      -279.5791
  14   2.0000     -10.274103      -279.5726
  15   2.0000      -1.151782       -31.3416
  16   2.0000      -1.109546       -30.1923
  17   2.0000      -1.056495       -28.7487
  18   2.0000      -1.006251       -27.3815
  19   2.0000      -0.930893       -25.3309
  20   2.0000      -0.910759       -24.7830
  21   2.0000      -0.883973       -24.0541
  22   2.0000      -0.838499       -22.8167
  23   2.0000      -0.803253       -21.8576
  24   2.0000      -0.758476       -20.6392
  25   2.0000      -0.739692       -20.1281
  26   2.0000      -0.710915       -19.3450
  27   2.0000      -0.689929       -18.7739
  28   2.0000      -0.673253       -18.3201
  29   2.0000      -0.661689       -18.0055
  30   2.0000      -0.648621       -17.6499
  31   2.0000      -0.605740       -16.4830
  32   2.0000      -0.591952       -16.1078
  33   2.0000      -0.587386       -15.9836
  34   2.0000      -0.571614       -15.5544
  35   2.0000      -0.567803       -15.4507
  36   2.0000      -0.556596       -15.1458
  37   2.0000      -0.544963       -14.8292
  38   2.0000      -0.535929       -14.5834
  39   2.0000      -0.527370       -14.3505
  40   2.0000      -0.514254       -13.9936
  41   2.0000      -0.506525       -13.7832
  42   2.0000      -0.500577       -13.6214
  43   2.0000      -0.491989       -13.3877
  44   2.0000      -0.475954       -12.9514
  45   2.0000      -0.464656       -12.6439
  46   2.0000      -0.458976       -12.4894
  47   2.0000      -0.451790       -12.2938
  48   2.0000      -0.439162       -11.9502
  49   2.0000      -0.425917       -11.5898
  50   2.0000      -0.420494       -11.4422
  51   2.0000      -0.416345       -11.3293
  52   2.0000      -0.400909       -10.9093
  53   2.0000      -0.396864       -10.7992
  54   2.0000      -0.392979       -10.6935
  55   2.0000      -0.387119       -10.5341
  56   2.0000      -0.359633        -9.7861
  57   2.0000      -0.349393        -9.5075
  58   2.0000      -0.345394        -9.3986
  59   0.0000       0.060962         1.6589
  60   0.0000       0.091119         2.4795
  61   0.0000       0.100745         2.7414
  62   0.0000       0.104625         2.8470
  63   0.0000       0.108664         2.9569

MULLIKEN ATOMIC CHARGES
-----------------------
   0 C :    0.461275
   1 C :    0.476352
   2 C :    0.134010
   3 H :    0.161552
   4 H :   -0.126973
   5 C :    0.424383
   6 C :    0.277537
   7 N :    0.304963
   8 N :    0.271553
   9 H :   -0.409587
  10 H :    0.180909
  11 H :    0.169872
  12 H :   -0.506324
  13 O :   -0.678651
  14 O :   -0.739219
  15 C :    0.115098
  16 C :   -0.236903
  17 C :   -0.185320
  18 H :   -0.161356
  19 H :   -0.048225
  20 H :   -0.059521
  21 H :    0.040180
  22 C :    0.133759
  23 H :    0.054098
  24 H :   -0.208062
  25 C :   -0.067516
  26 H :   -0.370885
  27 H :    0.028780
  28 C :    0.764540
  29 H :    0.175757
  30 H :   -0.312222
  31 H :    0.175047
  32 H :   -0.471122
  33 H :    0.099825
  34 H :    0.003659
  35 H :    0.087859
  36 H :    0.040881
Sum of atomic charges:   -0.0000000

LOEWDIN ATOMIC CHARGES
----------------------
   0 C :    0.052649
   1 C :   -0.028154
   2 C :    0.026397
   3 H :    0.016023
   4 H :    0.034280
   5 C :   -0.199328
   6 C :   -0.062271
   7 N :    0.302514
   8 N :    0.290783
   9 H :   -0.098881
  10 H :    0.053366
  11 H :    0.054725
  12 H :   -0.100290
  13 O :   -0.271061
  14 O :   -0.270659
  15 C :   -0.007230
  16 C :   -0.035692
  17 C :   -0.033577
  18 H :    0.029675
  19 H :    0.006623
  20 H :    0.024358
  21 H :    0.018647
  22 C :   -0.028754
  23 H :    0.025110
  24 H :    0.034613
  25 C :   -0.037067
  26 H :   -0.013400
  27 H :    0.041442
  28 C :   -0.031282
  29 H :    0.018339
  30 H :    0.026927
  31 H :    0.007150
  32 H :    0.025757
  33 H :    0.022948
  34 H :    0.023623
  35 H :    0.037439
  36 H :    0.044258

  Mayer bond orders larger than 0.100000
B(  0-C ,  6-C ) :   1.2212 B(  0-C , 15-C ) :   1.1432 B(  0-C , 35-H ) :   0.7508
B(  0-C , 36-H ) :   0.6751 B(  1-C ,  2-C ) :   1.2012 B(  1-C ,  4-H ) :   0.1518
B(  1-C , 17-C ) :   1.2180 B(  1-C , 20-H ) :   0.7756 B(  1-C , 21-H ) :   0.6453
B(  2-C ,  3-H ) :   0.8288 B(  2-C ,  4-H ) :   0.7404 B(  2-C ,  5-C ) :   1.1397
B(  2-C , 20-H ) :   0.1466 B(  2-C , 21-H ) :   0.1155 B(  3-H ,  5-C ) :   0.1735
B(  4-H ,  5-C ) :   0.2167 B(  5-C , 13-O ) :   1.3793 B(  5-C , 14-O ) :   1.3056
B(  6-C ,  7-N ) :   1.0515 B(  6-C ,  8-N ) :   1.0778 B(  6-C , 35-H ) :   0.2013
B(  6-C , 36-H ) :   0.2160 B(  7-N ,  8-N ) :   0.1566 B(  7-N , 11-H ) :   0.9776
B(  7-N , 12-H ) :   1.1466 B(  8-N ,  9-H ) :   1.1042 B(  8-N , 10-H ) :   0.9775
B(  9-H , 10-H ) :  -0.2335 B(  9-H , 13-O ) :   0.1675 B( 11-H , 12-H ) :  -0.2527
B( 12-H , 14-O ) :   0.2248 B( 13-O , 14-O ) :   0.1306 B( 15-C , 22-C ) :   1.1540
B( 15-C , 23-H ) :   0.8829 B( 15-C , 24-H ) :   0.9362 B( 15-C , 26-H ) :   0.1038
B( 15-C , 27-H ) :   0.1118 B( 15-C , 35-H ) :   0.1319 B( 15-C , 36-H ) :   0.1560
B( 16-C , 17-C ) :   1.2677 B( 16-C , 18-H ) :   0.1783 B( 16-C , 19-H ) :   0.1251
B( 16-C , 25-C ) :   0.1252 B( 16-C , 28-C ) :   1.0752 B( 16-C , 31-H ) :   0.8156
B( 16-C , 32-H ) :   1.1613 B( 16-C , 33-H ) :   0.1450 B( 16-C , 34-H ) :   0.2649
B( 17-C , 18-H ) :   0.8937 B( 17-C , 19-H ) :   0.9350 B( 17-C , 20-H ) :   0.1921
B( 17-C , 21-H ) :   0.2500 B( 17-C , 32-H ) :   0.1269 B( 20-H , 21-H ) :  -0.1149
B( 22-C , 23-H ) :   0.1200 B( 22-C , 24-H ) :   0.2279 B( 22-C , 25-C ) :   1.1988
B( 22-C , 26-H ) :   0.9202 B( 22-C , 27-H ) :   0.7442 B( 22-C , 29-H ) :   0.1253
B( 22-C , 30-H ) :   0.2172 B( 25-C , 27-H ) :   0.1054 B( 25-C , 28-C ) :   1.1493
B( 25-C , 29-H ) :   0.8142 B( 25-C , 30-H ) :   0.9939 B( 25-C , 33-H ) :   0.2115
B( 25-C , 34-H ) :   0.1568 B( 26-H , 27-H ) :   0.1994 B( 26-H , 31-H ) :   0.1925
B( 26-H , 32-H ) :  -0.1072 B( 28-C , 33-H ) :   0.6517 B( 28-C , 34-H ) :   0.6382
B( 33-H , 34-H ) :  -0.1050

Dispersion correction           -0.019998660
FINAL SINGLE POINT ENERGY      -691.832899585357

DIPOLE MOMENT
-------------
                                X             Y             Z
Electronic contribution:      3.90009       1.05599      12.49515
Nuclear contribution   :     -1.50655      -3.48027     -14.35034
                        -----------------------------------------
Total Dipole Moment    :      2.39354      -2.42428      -1.85519
                        -----------------------------------------
Magnitude (a.u.)       :      3.87916
Magnitude (Debye)      :      9.86004

Rotational constants in cm-1:     0.021781     0.017296     0.011403
Rotational constants in MHz :   652.971749   518.510612   341.853154

                             ****ORCA TERMINATED NORMALLY****
TOTAL RUN TIME: 0 days 0 hours 1 minutes 28 seconds 750 msec
