                         Program Version 5.0.0 -  RELEASE  -
|  1> !wB97X-D3 RIJCOSX def2-SVPD def2/J TightSCF CPCM(Water)
|  2> *xyz 0 1
|  3> C         -0.91495        0.61511        2.50554
|  4> C         -0.05915        1.50352        3.41058
|  5> H          0.36536        2.34431        2.86116
|  6> H         -0.69226        1.92021        4.19898
|  7> C          1.08303        0.74964        4.08571
|  8> F          2.22817        1.26348        4.01983
|  9> O          0.81003       -0.34541        4.63627
| 10> H         -0.30401        0.20228        1.73015
| 11> H         -1.69811        1.19946        2.06954
| 12> H         -1.34124       -0.17772        3.08397
| 13> *
| 14>
| 15> %MaxCore 64000
| 16>
| 17> %pal nprocs 18
| 18> end
| 19>
| 20> %scf
| 21>   MaxIter 150
| 22> end
| 23>
| 24>
| 25>                          ****END OF INPUT****

CARTESIAN COORDINATES (ANGSTROEM)
---------------------------------
  C     -0.914950    0.615110    2.505540
  C     -0.059150    1.503520    3.410580
  H      0.365360    2.344310    2.861160
  H     -0.692260    1.920210    4.198980
  C      1.083030    0.749640    4.085710
  F      2.228170    1.263480    4.019830
  O      0.810030   -0.345410    4.636270
  H     -0.304010    0.202280    1.730150
  H     -1.698110    1.199460    2.069540
  H     -1.341240   -0.177720    3.083970

 Total Charge           Charge          ....    0
 Multiplicity           Mult            ....    1
 Number of Electrons    NEL             ....   40
 Basis Dimension        Dim             ....  146

ORBITAL ENERGIES
----------------

  NO   OCC          E(Eh)            E(eV)
   0   2.0000     -24.876211      -676.9161
   1   2.0000     -19.263035      -524.1738
   2   2.0000     -10.480643      -285.1928
   3   2.0000     -10.311039      -280.5776
   4   2.0000     -10.282174      -279.7922
   5   2.0000      -1.425271       -38.7836
   6   2.0000      -1.150969       -31.3195
   7   2.0000      -0.902692       -24.5635
   8   2.0000      -0.795078       -21.6352
   9   2.0000      -0.742280       -20.1985
  10   2.0000      -0.657961       -17.9040
  11   2.0000      -0.640679       -17.4338
  12   2.0000      -0.616572       -16.7778
  13   2.0000      -0.557348       -15.1662
  14   2.0000      -0.535591       -14.5742
  15   2.0000      -0.491678       -13.3792
  16   2.0000      -0.469535       -12.7767
  17   2.0000      -0.464788       -12.6475
  18   2.0000      -0.444493       -12.0953
  19   2.0000      -0.402234       -10.9453
  20   0.0000       0.049815         1.3555
  21   0.0000       0.091172         2.4809
  22   0.0000       0.122242         3.3264
  23   0.0000       0.133525         3.6334
  24   0.0000       0.148788         4.0487

MULLIKEN ATOMIC CHARGES
-----------------------
   0 C :    0.480066
   1 C :   -0.474714
   2 H :    0.044377
   3 H :    0.134716
   4 C :    0.775286
   5 F :   -0.377831
   6 O :   -0.554716
   7 H :   -0.014157
   8 H :    0.000414
   9 H :   -0.013439
Sum of atomic charges:    0.0000000

LOEWDIN ATOMIC CHARGES
----------------------
   0 C :    0.137914
   1 C :    0.010187
   2 H :    0.033007
   3 H :    0.051552
   4 C :    0.006701
   5 F :   -0.034003
   6 O :   -0.181041
   7 H :   -0.004366
   8 H :   -0.006354
   9 H :   -0.013598

  Mayer bond orders larger than 0.100000
B(  0-C ,  1-C ) :   1.3010 B(  0-C ,  7-H ) :   0.8744 B(  0-C ,  8-H ) :   0.8589
B(  0-C ,  9-H ) :   0.8453 B(  1-C ,  2-H ) :   0.9687 B(  1-C ,  3-H ) :   0.8787
B(  1-C ,  4-C ) :   1.1065 B(  1-C ,  7-H ) :   0.1430 B(  1-C ,  8-H ) :   0.1476
B(  1-C ,  9-H ) :   0.1644 B(  4-C ,  5-F ) :   0.7556 B(  4-C ,  6-O ) :   1.7958

Dispersion correction           -0.001903263
FINAL SINGLE POINT ENERGY      -292.125181504394

DIPOLE MOMENT
-------------
                                X             Y             Z
Electronic contribution:      7.66813       0.16592       3.90749
Nuclear contribution   :     -8.12386       1.06915      -4.71960
                        -----------------------------------------
Total Dipole Moment    :     -0.45574       1.23507      -0.81211
                        -----------------------------------------
Magnitude (a.u.)       :      1.54681
Magnitude (Debye)      :      3.93167

Rotational constants in cm-1:     0.309513     0.127560     0.099675
Rotational constants in MHz :  9278.979128  3824.146597  2988.174827

                             ****ORCA TERMINATED NORMALLY****
TOTAL RUN TIME: 0 days 0 hours 0 minutes 8 seconds 376 msec
