                         Program Version 5.0.0 -  RELEASE  -
|  1> !wB97X-D3 RIJCOSX def2-SVPD def2/J TightSCF CPCM(Water)
|  2> *xyz 0 1
|  3> C          4.60295       -2.44010        2.63478
|  4> C          3.86085       -1.59157        3.62289
|  5> C          2.75650       -2.04616        4.16633
|  6> N          4.25433       -0.36291        3.86046
|  7> H          3.56526        0.31099        4.16898
|  8> H          5.05429       -0.01606        3.33784
|  9> H          2.43970       -2.97389        3.89740
| 10> H          2.06687       -1.41253        4.54981
| 11> C          3.74469       -2.58056        1.36188
| 12> H          5.56156       -1.97135        2.40708
| 13> H          4.81050       -3.42255        3.06310
| 14> H          4.26314       -3.18477        0.64702
| 15> H          3.56325       -1.61180        0.94535
| 16> H          2.81197       -3.04259        1.60980
| 17> *
| 18>
| 19> %MaxCore 64000
| 20>
| 21> %pal nprocs 18
| 22> end
| 23>
| 24> %scf
| 25>   MaxIter 150
| 26> end
| 27>
| 28>
| 29>                          ****END OF INPUT****

CARTESIAN COORDINATES (ANGSTROEM)
---------------------------------
  C      4.602950   -2.440100    2.634780
  C      3.860850   -1.591570    3.622890
  C      2.756500   -2.046160    4.166330
  N      4.254330   -0.362910    3.860460
  H      3.565260    0.310990    4.168980
  H      5.054290   -0.016060    3.337840
  H      2.439700   -2.973890    3.897400
  H      2.066870   -1.412530    4.549810
  C      3.744690   -2.580560    1.361880
  H      5.561560   -1.971350    2.407080
  H      4.810500   -3.422550    3.063100
  H      4.263140   -3.184770    0.647020
  H      3.563250   -1.611800    0.945350
  H      2.811970   -3.042590    1.609800

 Total Charge           Charge          ....    0
 Multiplicity           Mult            ....    1
 Number of Electrons    NEL             ....   40
 Basis Dimension        Dim             ....  172

ORBITAL ENERGIES
----------------

  NO   OCC          E(Eh)            E(eV)
   0   2.0000     -14.432672      -392.7330
   1   2.0000     -10.313155      -280.6352
   2   2.0000     -10.287448      -279.9357
   3   2.0000     -10.271847      -279.5112
   4   2.0000     -10.220510      -278.1142
   5   2.0000      -1.040176       -28.3046
   6   2.0000      -0.889744       -24.2112
   7   2.0000      -0.821563       -22.3559
   8   2.0000      -0.744176       -20.2501
   9   2.0000      -0.662924       -18.0391
  10   2.0000      -0.620879       -16.8950
  11   2.0000      -0.584284       -15.8992
  12   2.0000      -0.545940       -14.8558
  13   2.0000      -0.511346       -13.9144
  14   2.0000      -0.486986       -13.2516
  15   2.0000      -0.474242       -12.9048
  16   2.0000      -0.444478       -12.0949
  17   2.0000      -0.434797       -11.8314
  18   2.0000      -0.423713       -11.5298
  19   2.0000      -0.283306        -7.7092
  20   0.0000       0.096683         2.6309
  21   0.0000       0.112164         3.0521
  22   0.0000       0.127356         3.4655
  23   0.0000       0.130905         3.5621
  24   0.0000       0.144579         3.9342

MULLIKEN ATOMIC CHARGES
-----------------------
   0 C :   -0.113424
   1 C :   -0.279869
   2 C :    0.347115
   3 N :    0.061440
   4 H :   -0.029900
   5 H :    0.010601
   6 H :   -0.097225
   7 H :   -0.374234
   8 C :    0.555444
   9 H :   -0.024560
  10 H :    0.066514
  11 H :    0.019859
  12 H :   -0.052894
  13 H :   -0.088866
Sum of atomic charges:    0.0000000

LOEWDIN ATOMIC CHARGES
----------------------
   0 C :   -0.022376
   1 C :   -0.278867
   2 C :    0.137769
   3 N :    0.170259
   4 H :    0.022301
   5 H :    0.015228
   6 H :   -0.084944
   7 H :   -0.085764
   8 C :    0.132565
   9 H :    0.018986
  10 H :    0.028832
  11 H :   -0.017221
  12 H :   -0.011035
  13 H :   -0.025734

  Mayer bond orders larger than 0.100000
B(  0-C ,  1-C ) :   1.2320 B(  0-C ,  2-C ) :   0.1085 B(  0-C ,  8-C ) :   1.2554
B(  0-C ,  9-H ) :   0.8423 B(  0-C , 10-H ) :   0.8369 B(  0-C , 11-H ) :   0.1466
B(  0-C , 12-H ) :   0.1632 B(  0-C , 13-H ) :   0.1741 B(  1-C ,  2-C ) :   1.9356
B(  1-C ,  3-N ) :   1.1289 B(  1-C ,  6-H ) :   0.1206 B(  1-C ,  7-H ) :   0.1462
B(  1-C ,  9-H ) :   0.1801 B(  1-C , 10-H ) :   0.1793 B(  2-C ,  3-N ) :   0.2459
B(  2-C ,  6-H ) :   0.7383 B(  2-C ,  7-H ) :   0.8754 B(  3-N ,  4-H ) :   1.0973
B(  3-N ,  5-H ) :   0.9891 B(  4-H ,  5-H ) :  -0.1165 B(  8-C , 11-H ) :   0.8340
B(  8-C , 12-H ) :   0.8555 B(  8-C , 13-H ) :   0.8716

Dispersion correction           -0.003025704
FINAL SINGLE POINT ENERGY      -212.365320255582

DIPOLE MOMENT
-------------
                                X             Y             Z
Electronic contribution:      0.97292       1.99417       2.30798
Nuclear contribution   :     -0.47010      -1.22282      -3.06417
                        -----------------------------------------
Total Dipole Moment    :      0.50282       0.77135      -0.75619
                        -----------------------------------------
Magnitude (a.u.)       :      1.19148
Magnitude (Debye)      :      3.02850

Rotational constants in cm-1:     0.271862     0.131962     0.105499
Rotational constants in MHz :  8150.219120  3956.123671  3162.785522

                             ****ORCA TERMINATED NORMALLY****
TOTAL RUN TIME: 0 days 0 hours 0 minutes 11 seconds 864 msec
