                         Program Version 5.0.0 -  RELEASE  -
|  1> !wB97X-D3 RIJCOSX def2-SVPD def2/J TightSCF CPCM(Water)
|  2> *xyz 0 1
|  3> C         -0.91495        0.61511        2.50554
|  4> C         -0.05915        1.50352        3.41058
|  5> H          0.36536        2.34431        2.86116
|  6> H         -0.69226        1.92021        4.19898
|  7> C          1.08303        0.74964        4.08571
|  8> O          2.22817        1.26348        4.01983
|  9> F          0.81003       -0.34541        4.63627
| 10> H         -0.30401        0.20228        1.73015
| 11> H         -1.69811        1.19946        2.06954
| 12> H         -1.34124       -0.17772        3.08397
| 13> *
| 14>
| 15> %MaxCore 64000
| 16>
| 17> %pal nprocs 18
| 18> end
| 19>
| 20> %scf
| 21>   MaxIter 150
| 22> end
| 23>
| 24>
| 25>                          ****END OF INPUT****

CARTESIAN COORDINATES (ANGSTROEM)
---------------------------------
  C     -0.914950    0.615110    2.505540
  C     -0.059150    1.503520    3.410580
  H      0.365360    2.344310    2.861160
  H     -0.692260    1.920210    4.198980
  C      1.083030    0.749640    4.085710
  O      2.228170    1.263480    4.019830
  F      0.810030   -0.345410    4.636270
  H     -0.304010    0.202280    1.730150
  H     -1.698110    1.199460    2.069540
  H     -1.341240   -0.177720    3.083970

 Total Charge           Charge          ....    0
 Multiplicity           Mult            ....    1
 Number of Electrons    NEL             ....   40
 Basis Dimension        Dim             ....  146

ORBITAL ENERGIES
----------------

  NO   OCC          E(Eh)            E(eV)
   0   2.0000     -24.877646      -676.9552
   1   2.0000     -19.262896      -524.1701
   2   2.0000     -10.480811      -285.1974
   3   2.0000     -10.310972      -280.5758
   4   2.0000     -10.282844      -279.8104
   5   2.0000      -1.427034       -38.8316
   6   2.0000      -1.150137       -31.2968
   7   2.0000      -0.905432       -24.6381
   8   2.0000      -0.789400       -21.4807
   9   2.0000      -0.748172       -20.3588
  10   2.0000      -0.660081       -17.9617
  11   2.0000      -0.649019       -17.6607
  12   2.0000      -0.607473       -16.5302
  13   2.0000      -0.557565       -15.1721
  14   2.0000      -0.528899       -14.3921
  15   2.0000      -0.499012       -13.5788
  16   2.0000      -0.478206       -13.0126
  17   2.0000      -0.462701       -12.5907
  18   2.0000      -0.447736       -12.1835
  19   2.0000      -0.396503       -10.7894
  20   0.0000       0.051482         1.4009
  21   0.0000       0.090055         2.4505
  22   0.0000       0.121835         3.3153
  23   0.0000       0.133112         3.6221
  24   0.0000       0.149980         4.0812

MULLIKEN ATOMIC CHARGES
-----------------------
   0 C :    0.463246
   1 C :   -0.460930
   2 H :    0.012171
   3 H :    0.129594
   4 C :    0.788412
   5 O :   -0.530662
   6 F :   -0.399530
   7 H :   -0.011184
   8 H :    0.004209
   9 H :    0.004674
Sum of atomic charges:   -0.0000000

LOEWDIN ATOMIC CHARGES
----------------------
   0 C :    0.134971
   1 C :    0.012461
   2 H :    0.036914
   3 H :    0.050765
   4 C :    0.001971
   5 O :   -0.186973
   6 F :   -0.028508
   7 H :   -0.004786
   8 H :   -0.006477
   9 H :   -0.010337

  Mayer bond orders larger than 0.100000
B(  0-C ,  1-C ) :   1.2806 B(  0-C ,  7-H ) :   0.8802 B(  0-C ,  8-H ) :   0.8610
B(  0-C ,  9-H ) :   0.8396 B(  1-C ,  2-H ) :   1.0086 B(  1-C ,  3-H ) :   0.8743
B(  1-C ,  4-C ) :   1.0752 B(  1-C ,  7-H ) :   0.1377 B(  1-C ,  8-H ) :   0.1506
B(  1-C ,  9-H ) :   0.1560 B(  2-H ,  4-C ) :   0.1164 B(  4-C ,  5-O ) :   1.7967
B(  4-C ,  6-F ) :   0.7382

Dispersion correction           -0.001900834
FINAL SINGLE POINT ENERGY      -292.124544777920

DIPOLE MOMENT
-------------
                                X             Y             Z
Electronic contribution:      4.97952      -2.86183       5.06257
Nuclear contribution   :     -6.57765       2.82334      -5.39171
                        -----------------------------------------
Total Dipole Moment    :     -1.59813      -0.03849      -0.32914
                        -----------------------------------------
Magnitude (a.u.)       :      1.63213
Magnitude (Debye)      :      4.14853

Rotational constants in cm-1:     0.294245     0.132994     0.101060
Rotational constants in MHz :  8821.228602  3987.049251  3029.696815

                             ****ORCA TERMINATED NORMALLY****
TOTAL RUN TIME: 0 days 0 hours 0 minutes 9 seconds 183 msec
