                         Program Version 5.0.0 -  RELEASE  -
|  1> !wB97X-D3 RIJCOSX def2-SVPD def2/J TightSCF CPCM(Water)
|  2> *xyz 0 1
|  3> C          4.60295       -2.44010        2.63478
|  4> C          3.86085       -1.59157        3.62289
|  5> N          2.75650       -2.04616        4.16633
|  6> C          4.25433       -0.36291        3.86046
|  7> H          3.56526        0.31099        4.16898
|  8> H          5.05429       -0.01606        3.33784
|  9> H          2.43970       -2.97389        3.89740
| 10> H          2.06687       -1.41253        4.54981
| 11> C          3.74469       -2.58056        1.36188
| 12> H          5.56156       -1.97135        2.40708
| 13> H          4.81050       -3.42255        3.06310
| 14> H          4.26314       -3.18477        0.64702
| 15> H          3.56325       -1.61180        0.94535
| 16> H          2.81197       -3.04259        1.60980
| 17> *
| 18>
| 19> %MaxCore 64000
| 20>
| 21> %pal nprocs 18
| 22> end
| 23>
| 24> %scf
| 25>   MaxIter 150
| 26> end
| 27>
| 28>
| 29>                          ****END OF INPUT****

CARTESIAN COORDINATES (ANGSTROEM)
---------------------------------
  C      4.602950   -2.440100    2.634780
  C      3.860850   -1.591570    3.622890
  N      2.756500   -2.046160    4.166330
  C      4.254330   -0.362910    3.860460
  H      3.565260    0.310990    4.168980
  H      5.054290   -0.016060    3.337840
  H      2.439700   -2.973890    3.897400
  H      2.066870   -1.412530    4.549810
  C      3.744690   -2.580560    1.361880
  H      5.561560   -1.971350    2.407080
  H      4.810500   -3.422550    3.063100
  H      4.263140   -3.184770    0.647020
  H      3.563250   -1.611800    0.945350
  H      2.811970   -3.042590    1.609800

 Total Charge           Charge          ....    0
 Multiplicity           Mult            ....    1
 Number of Electrons    NEL             ....   40
 Basis Dimension        Dim             ....  172

ORBITAL ENERGIES
----------------

  NO   OCC          E(Eh)            E(eV)
   0   2.0000     -14.432632      -392.7319
   1   2.0000     -10.314720      -280.6778
   2   2.0000     -10.287572      -279.9391
   3   2.0000     -10.273168      -279.5471
   4   2.0000     -10.222292      -278.1627
   5   2.0000      -1.040119       -28.3031
   6   2.0000      -0.887042       -24.1376
   7   2.0000      -0.829776       -22.5794
   8   2.0000      -0.739104       -20.1121
   9   2.0000      -0.669687       -18.2231
  10   2.0000      -0.622664       -16.9435
  11   2.0000      -0.579310       -15.7638
  12   2.0000      -0.533990       -14.5306
  13   2.0000      -0.528468       -14.3803
  14   2.0000      -0.488382       -13.2895
  15   2.0000      -0.475202       -12.9309
  16   2.0000      -0.446289       -12.1441
  17   2.0000      -0.433886       -11.8066
  18   2.0000      -0.419126       -11.4050
  19   2.0000      -0.286249        -7.7892
  20   0.0000       0.095589         2.6011
  21   0.0000       0.113286         3.0827
  22   0.0000       0.127003         3.4559
  23   0.0000       0.136221         3.7068
  24   0.0000       0.139352         3.7920

MULLIKEN ATOMIC CHARGES
-----------------------
   0 C :   -0.238062
   1 C :   -0.353100
   2 N :    0.182659
   3 C :    0.345131
   4 H :   -0.309433
   5 H :   -0.073059
   6 H :   -0.011549
   7 H :   -0.117522
   8 C :    0.595363
   9 H :    0.088047
  10 H :    0.005849
  11 H :   -0.037743
  12 H :   -0.041462
  13 H :   -0.035121
Sum of atomic charges:   -0.0000000

LOEWDIN ATOMIC CHARGES
----------------------
   0 C :   -0.025040
   1 C :   -0.284853
   2 N :    0.175625
   3 C :    0.137405
   4 H :   -0.086538
   5 H :   -0.089782
   6 H :    0.017000
   7 H :    0.024473
   8 C :    0.134216
   9 H :    0.023383
  10 H :    0.025616
  11 H :   -0.015894
  12 H :   -0.012059
  13 H :   -0.023551

  Mayer bond orders larger than 0.100000
B(  0-C ,  1-C ) :   1.3182 B(  0-C ,  8-C ) :   1.2435 B(  0-C ,  9-H ) :   0.8975
B(  0-C , 10-H ) :   0.8515 B(  0-C , 11-H ) :   0.1777 B(  0-C , 12-H ) :   0.1439
B(  0-C , 13-H ) :   0.1968 B(  1-C ,  2-N ) :   1.1712 B(  1-C ,  3-C ) :   2.0470
B(  1-C ,  4-H ) :   0.2448 B(  1-C ,  5-H ) :   0.1340 B(  1-C ,  9-H ) :   0.1631
B(  1-C , 10-H ) :   0.1880 B(  2-N ,  3-C ) :   0.2278 B(  2-N ,  6-H ) :   1.0212
B(  2-N ,  7-H ) :   1.1537 B(  3-C ,  4-H ) :   0.7742 B(  3-C ,  5-H ) :   0.8832
B(  4-H ,  5-H ) :   0.1084 B(  6-H ,  7-H ) :  -0.1187 B(  8-C ,  9-H ) :   0.1003
B(  8-C , 11-H ) :   0.8607 B(  8-C , 12-H ) :   0.8601 B(  8-C , 13-H ) :   0.8129

Dispersion correction           -0.003043251
FINAL SINGLE POINT ENERGY      -212.366205625028

DIPOLE MOMENT
-------------
                                X             Y             Z
Electronic contribution:     -0.74675       0.05375       2.68468
Nuclear contribution   :     -0.12319      -0.83296      -3.13501
                        -----------------------------------------
Total Dipole Moment    :     -0.86994      -0.77922      -0.45033
                        -----------------------------------------
Magnitude (a.u.)       :      1.25171
Magnitude (Debye)      :      3.18159

Rotational constants in cm-1:     0.266453     0.134423     0.106086
Rotational constants in MHz :  7988.053142  4029.892766  3180.375228

                             ****ORCA TERMINATED NORMALLY****
TOTAL RUN TIME: 0 days 0 hours 0 minutes 11 seconds 43 msec
