                         Program Version 5.0.0 -  RELEASE  -
|  1> !wB97X-D3 RIJCOSX def2-SVPD def2/J TightSCF CPCM(Water) xyzfile
|  2>
|  3> *xyzfile 0 1 D3.xyz
|  4>
|  5> %MaxCore 64000
|  6>
|  7> %pal nprocs 18
|  8> end
|  9>
| 10> %scf
| 11>   MaxIter 150
| 12> end
| 13>
| 14>
| 15>                          ****END OF INPUT****

CARTESIAN COORDINATES (ANGSTROEM)
---------------------------------
  C      4.602954   -2.440100    2.634780
  C     -0.914947    0.615112    2.505538
  C     -0.059146    1.503524    3.410578
  H      0.365364    2.344315    2.861161
  H     -0.692261    1.920207    4.198985
  C      1.083027    0.749640    4.085705
  C      3.860851   -1.591565    3.622893
  C      2.756502   -2.046159    4.166333
  N      4.254325   -0.362905    3.860455
  H      3.565256    0.310994    4.168983
  H      5.054292   -0.016059    3.337838
  H      2.439696   -2.973894    3.897395
  H      2.066869   -1.412532    4.549813
  O      2.228167    1.263475    4.019826
  F      0.810034   -0.345411    4.636269
  C      3.744685   -2.580557    1.361882
  C      0.772139    0.636882    0.562129
  C     -0.130740   -0.193985    1.470763
  H     -0.840563   -0.760165    0.856377
  H      0.466691   -0.938942    2.006959
  H     -1.647961    1.245963    1.991076
  H     -1.478180   -0.081046    3.130424
  C      3.203721   -1.256004    0.826211
  H      2.898939   -3.239289    1.583074
  H      4.334962   -3.095523    0.600188
  C      2.107815   -1.442385   -0.216865
  H      2.786775   -0.672760    1.650711
  H      4.021008   -0.652993    0.414046
  C      1.390662   -0.145912   -0.602422
  H      1.372179   -2.152184    0.176151
  H      2.523302   -1.906787   -1.117115
  H      1.561361    1.100094    1.161831
  H      0.195516    1.468325    0.142758
  H      0.602893   -0.398214   -1.319716
  H      2.087247    0.508272   -1.137335
  H      5.561557   -1.971347    2.407084
  H      4.810498   -3.422552    3.063099

 Total Charge           Charge          ....    0
 Multiplicity           Mult            ....    1
 Number of Electrons    NEL             ....  118
 Basis Dimension        Dim             ....  482

ORBITAL ENERGIES
----------------

  NO   OCC          E(Eh)            E(eV)
   0   2.0000     -24.886198      -677.1879
   1   2.0000     -19.274914      -524.4971
   2   2.0000     -14.411232      -392.1495
   3   2.0000     -10.492437      -285.5137
   4   2.0000     -10.312392      -280.6144
   5   2.0000     -10.304722      -280.4057
   6   2.0000     -10.294148      -280.1180
   7   2.0000     -10.282958      -279.8135
   8   2.0000     -10.280831      -279.7556
   9   2.0000     -10.279203      -279.7113
  10   2.0000     -10.278269      -279.6859
  11   2.0000     -10.276824      -279.6466
  12   2.0000     -10.274187      -279.5748
  13   2.0000     -10.272012      -279.5157
  14   2.0000     -10.206597      -277.7356
  15   2.0000      -1.439683       -39.1758
  16   2.0000      -1.167090       -31.7581
  17   2.0000      -1.028428       -27.9850
  18   2.0000      -0.935082       -25.4449
  19   2.0000      -0.913779       -24.8652
  20   2.0000      -0.888552       -24.1787
  21   2.0000      -0.852067       -23.1859
  22   2.0000      -0.820880       -22.3373
  23   2.0000      -0.805402       -21.9161
  24   2.0000      -0.775954       -21.1148
  25   2.0000      -0.751616       -20.4525
  26   2.0000      -0.717061       -19.5122
  27   2.0000      -0.693343       -18.8668
  28   2.0000      -0.675561       -18.3829
  29   2.0000      -0.668739       -18.1973
  30   2.0000      -0.660089       -17.9619
  31   2.0000      -0.646712       -17.5979
  32   2.0000      -0.626681       -17.0529
  33   2.0000      -0.597520       -16.2593
  34   2.0000      -0.581465       -15.8225
  35   2.0000      -0.572517       -15.5790
  36   2.0000      -0.567519       -15.4430
  37   2.0000      -0.548379       -14.9222
  38   2.0000      -0.540208       -14.6998
  39   2.0000      -0.528614       -14.3843
  40   2.0000      -0.521826       -14.1996
  41   2.0000      -0.506572       -13.7845
  42   2.0000      -0.501134       -13.6365
  43   2.0000      -0.488196       -13.2845
  44   2.0000      -0.481140       -13.0925
  45   2.0000      -0.474634       -12.9155
  46   2.0000      -0.465729       -12.6731
  47   2.0000      -0.457037       -12.4366
  48   2.0000      -0.443042       -12.0558
  49   2.0000      -0.436628       -11.8813
  50   2.0000      -0.435023       -11.8376
  51   2.0000      -0.425991       -11.5918
  52   2.0000      -0.416053       -11.3214
  53   2.0000      -0.409753       -11.1499
  54   2.0000      -0.401205       -10.9173
  55   2.0000      -0.396418       -10.7871
  56   2.0000      -0.392966       -10.6932
  57   2.0000      -0.389149       -10.5893
  58   2.0000      -0.273725        -7.4484
  59   0.0000       0.039205         1.0668
  60   0.0000       0.090854         2.4723
  61   0.0000       0.100310         2.7296
  62   0.0000       0.105167         2.8617
  63   0.0000       0.108609         2.9554

MULLIKEN ATOMIC CHARGES
-----------------------
   0 C :    0.760968
   1 C :    0.445899
   2 C :    0.040030
   3 H :    0.223066
   4 H :   -0.060477
   5 C :    0.730643
   6 C :   -0.541405
   7 C :    1.009973
   8 N :    0.330970
   9 H :   -0.428174
  10 H :    0.150522
  11 H :   -0.179305
  12 H :   -0.907890
  13 O :   -0.562041
  14 F :   -0.489673
  15 C :    0.034073
  16 C :   -0.239641
  17 C :   -0.180824
  18 H :   -0.145029
  19 H :   -0.062699
  20 H :   -0.022409
  21 H :    0.058276
  22 C :    0.139974
  23 H :    0.068759
  24 H :   -0.237617
  25 C :   -0.048192
  26 H :   -0.370239
  27 H :    0.031402
  28 C :    0.765183
  29 H :    0.174462
  30 H :   -0.311112
  31 H :    0.182237
  32 H :   -0.476775
  33 H :    0.090881
  34 H :    0.005846
  35 H :   -0.016349
  36 H :    0.036687
Sum of atomic charges:   -0.0000000

LOEWDIN ATOMIC CHARGES
----------------------
   0 C :    0.017987
   1 C :   -0.016728
   2 C :    0.068026
   3 H :    0.038331
   4 H :    0.054541
   5 C :    0.067784
   6 C :   -0.263691
   7 C :    0.168742
   8 N :    0.195263
   9 H :   -0.109544
  10 H :    0.017447
  11 H :   -0.078239
  12 H :   -0.147203
  13 O :   -0.137899
  14 F :   -0.033196
  15 C :   -0.019613
  16 C :   -0.034037
  17 C :   -0.030881
  18 H :    0.034695
  19 H :    0.009212
  20 H :    0.034815
  21 H :    0.029833
  22 C :   -0.031913
  23 H :    0.017504
  24 H :    0.023826
  25 C :   -0.040159
  26 H :   -0.015767
  27 H :    0.036657
  28 C :   -0.030879
  29 H :    0.016929
  30 H :    0.025197
  31 H :    0.009451
  32 H :    0.027846
  33 H :    0.022999
  34 H :    0.024038
  35 H :    0.020677
  36 H :    0.027950

  Mayer bond orders larger than 0.100000
B(  0-C ,  6-C ) :   1.2359 B(  0-C , 15-C ) :   1.0905 B(  0-C , 35-H ) :   0.5450
B(  0-C , 36-H ) :   0.6580 B(  1-C ,  2-C ) :   1.1893 B(  1-C ,  4-H ) :   0.1632
B(  1-C , 17-C ) :   1.2325 B(  1-C , 20-H ) :   0.7922 B(  1-C , 21-H ) :   0.6710
B(  2-C ,  3-H ) :   0.8411 B(  2-C ,  4-H ) :   0.7464 B(  2-C ,  5-C ) :   1.2035
B(  2-C , 20-H ) :   0.1339 B(  2-C , 21-H ) :   0.1011 B(  3-H ,  5-C ) :   0.1250
B(  4-H ,  5-C ) :   0.2395 B(  5-C , 13-O ) :   1.6197 B(  5-C , 14-F ) :   0.6080
B(  6-C ,  7-C ) :   2.0492 B(  6-C ,  8-N ) :   0.9077 B(  6-C , 10-H ) :   0.1437
B(  6-C , 12-H ) :   0.3590 B(  6-C , 15-C ) :   0.1179 B(  6-C , 35-H ) :   0.3408
B(  6-C , 36-H ) :   0.2311 B(  7-C ,  8-N ) :   0.3931 B(  7-C , 11-H ) :   0.6442
B(  7-C , 12-H ) :  -0.1715 B(  8-N ,  9-H ) :   1.0039 B(  8-N , 10-H ) :   0.8859
B(  8-N , 11-H ) :   0.2319 B(  8-N , 12-H ) :  -0.1972 B(  9-H , 10-H ) :  -0.2351
B(  9-H , 13-O ) :   0.1521 B( 12-H , 14-F ) :   0.2689 B( 15-C , 22-C ) :   1.1302
B( 15-C , 23-H ) :   0.8681 B( 15-C , 24-H ) :   0.9613 B( 15-C , 26-H ) :   0.1396
B( 15-C , 27-H ) :   0.1073 B( 15-C , 35-H ) :   0.1994 B( 15-C , 36-H ) :   0.1571
B( 16-C , 17-C ) :   1.2710 B( 16-C , 18-H ) :   0.1774 B( 16-C , 19-H ) :   0.1241
B( 16-C , 25-C ) :   0.1196 B( 16-C , 28-C ) :   1.0716 B( 16-C , 31-H ) :   0.8110
B( 16-C , 32-H ) :   1.1815 B( 16-C , 33-H ) :   0.1473 B( 16-C , 34-H ) :   0.2611
B( 17-C , 18-H ) :   0.9032 B( 17-C , 19-H ) :   0.9280 B( 17-C , 20-H ) :   0.1911
B( 17-C , 21-H ) :   0.2357 B( 17-C , 32-H ) :   0.1250 B( 20-H , 21-H ) :  -0.1116
B( 22-C , 23-H ) :   0.1311 B( 22-C , 24-H ) :   0.2298 B( 22-C , 25-C ) :   1.1932
B( 22-C , 26-H ) :   0.9784 B( 22-C , 27-H ) :   0.7374 B( 22-C , 29-H ) :   0.1210
B( 22-C , 30-H ) :   0.2286 B( 25-C , 27-H ) :   0.1013 B( 25-C , 28-C ) :   1.1455
B( 25-C , 29-H ) :   0.8141 B( 25-C , 30-H ) :   0.9853 B( 25-C , 33-H ) :   0.2105
B( 25-C , 34-H ) :   0.1595 B( 26-H , 27-H ) :   0.1672 B( 26-H , 31-H ) :   0.1818
B( 26-H , 32-H ) :  -0.1028 B( 28-C , 33-H ) :   0.6553 B( 28-C , 34-H ) :   0.6429
B( 33-H , 34-H ) :  -0.1069

Dispersion correction           -0.019741224
FINAL SINGLE POINT ENERGY      -699.674130270564

DIPOLE MOMENT
-------------
                                X             Y             Z
Electronic contribution:     -1.54780       4.98662      15.61484
Nuclear contribution   :      0.05905      -3.94566     -16.70013
                        -----------------------------------------
Total Dipole Moment    :     -1.48876       1.04096      -1.08529
                        -----------------------------------------
Magnitude (a.u.)       :      2.11609
Magnitude (Debye)      :      5.37868

Rotational constants in cm-1:     0.021602     0.017295     0.011353
Rotational constants in MHz :   647.614981   518.478934   340.359556

                             ****ORCA TERMINATED NORMALLY****
TOTAL RUN TIME: 0 days 0 hours 1 minutes 37 seconds 179 msec
