                         Program Version 5.0.0 -  RELEASE  -
|  1> !wB97X-D3 RIJCOSX def2-SVPD def2/J TightSCF CPCM(Water) xyzfile
|  2>
|  3> *xyzfile 0 1 D4.xyz
|  4>
|  5> %MaxCore 64000
|  6>
|  7> %pal nprocs 18
|  8> end
|  9>
| 10> %scf
| 11>   MaxIter 150
| 12> end
| 13>
| 14>
| 15>                          ****END OF INPUT****

CARTESIAN COORDINATES (ANGSTROEM)
---------------------------------
  C      4.602954   -2.440100    2.634780
  C     -0.914947    0.615112    2.505538
  C     -0.059146    1.503524    3.410578
  H      0.365364    2.344315    2.861161
  H     -0.692261    1.920207    4.198985
  C      1.083027    0.749640    4.085705
  C      3.860851   -1.591565    3.622893
  N      2.756502   -2.046159    4.166333
  C      4.254325   -0.362905    3.860455
  H      3.565256    0.310994    4.168983
  H      5.054292   -0.016059    3.337838
  H      2.439696   -2.973894    3.897395
  H      2.066869   -1.412532    4.549813
  O      2.228167    1.263475    4.019826
  F      0.810034   -0.345411    4.636269
  C      3.744685   -2.580557    1.361882
  C      0.772139    0.636882    0.562129
  C     -0.130740   -0.193985    1.470763
  H     -0.840563   -0.760165    0.856377
  H      0.466691   -0.938942    2.006959
  H     -1.647961    1.245963    1.991076
  H     -1.478180   -0.081046    3.130424
  C      3.203721   -1.256004    0.826211
  H      2.898939   -3.239289    1.583074
  H      4.334962   -3.095523    0.600188
  C      2.107815   -1.442385   -0.216865
  H      2.786775   -0.672760    1.650711
  H      4.021008   -0.652993    0.414046
  C      1.390662   -0.145912   -0.602422
  H      1.372179   -2.152184    0.176151
  H      2.523302   -1.906787   -1.117115
  H      1.561361    1.100094    1.161831
  H      0.195516    1.468325    0.142758
  H      0.602893   -0.398214   -1.319716
  H      2.087247    0.508272   -1.137335
  H      5.561557   -1.971347    2.407084
  H      4.810498   -3.422552    3.063099

 Total Charge           Charge          ....    0
 Multiplicity           Mult            ....    1
 Number of Electrons    NEL             ....  118
 Basis Dimension        Dim             ....  482

ORBITAL ENERGIES
----------------

  NO   OCC          E(Eh)            E(eV)
   0   2.0000     -24.894526      -677.4145
   1   2.0000     -19.267029      -524.2825
   2   2.0000     -14.421742      -392.4356
   3   2.0000     -10.488669      -285.4112
   4   2.0000     -10.311529      -280.5910
   5   2.0000     -10.302621      -280.3486
   6   2.0000     -10.293565      -280.1021
   7   2.0000     -10.283008      -279.8149
   8   2.0000     -10.280144      -279.7369
   9   2.0000     -10.279666      -279.7239
  10   2.0000     -10.278097      -279.6812
  11   2.0000     -10.276629      -279.6413
  12   2.0000     -10.273730      -279.5624
  13   2.0000     -10.270984      -279.4877
  14   2.0000     -10.199290      -277.5368
  15   2.0000      -1.446336       -39.3568
  16   2.0000      -1.161077       -31.5945
  17   2.0000      -1.033093       -28.1119
  18   2.0000      -0.934711       -25.4348
  19   2.0000      -0.912917       -24.8417
  20   2.0000      -0.888281       -24.1714
  21   2.0000      -0.849968       -23.1288
  22   2.0000      -0.826414       -22.4879
  23   2.0000      -0.803424       -21.8623
  24   2.0000      -0.782180       -21.2842
  25   2.0000      -0.749940       -20.4069
  26   2.0000      -0.715096       -19.4588
  27   2.0000      -0.690759       -18.7965
  28   2.0000      -0.685470       -18.6526
  29   2.0000      -0.672516       -18.3001
  30   2.0000      -0.653495       -17.7825
  31   2.0000      -0.652580       -17.7576
  32   2.0000      -0.619426       -16.8554
  33   2.0000      -0.608642       -16.5620
  34   2.0000      -0.580434       -15.7944
  35   2.0000      -0.575902       -15.6711
  36   2.0000      -0.556411       -15.1407
  37   2.0000      -0.548559       -14.9271
  38   2.0000      -0.537344       -14.6219
  39   2.0000      -0.532548       -14.4914
  40   2.0000      -0.521656       -14.1950
  41   2.0000      -0.509263       -13.8578
  42   2.0000      -0.500652       -13.6234
  43   2.0000      -0.487104       -13.2548
  44   2.0000      -0.477531       -12.9943
  45   2.0000      -0.475966       -12.9517
  46   2.0000      -0.464535       -12.6406
  47   2.0000      -0.459867       -12.5136
  48   2.0000      -0.445485       -12.1223
  49   2.0000      -0.438533       -11.9331
  50   2.0000      -0.436479       -11.8772
  51   2.0000      -0.423286       -11.5182
  52   2.0000      -0.413041       -11.2394
  53   2.0000      -0.411847       -11.2069
  54   2.0000      -0.399804       -10.8792
  55   2.0000      -0.396013       -10.7761
  56   2.0000      -0.392539       -10.6815
  57   2.0000      -0.370945       -10.0939
  58   2.0000      -0.274048        -7.4572
  59   0.0000       0.040838         1.1113
  60   0.0000       0.089771         2.4428
  61   0.0000       0.100552         2.7362
  62   0.0000       0.105465         2.8698
  63   0.0000       0.108665         2.9569

MULLIKEN ATOMIC CHARGES
-----------------------
   0 C :    0.565311
   1 C :    0.440745
   2 C :    0.053956
   3 H :    0.217533
   4 H :   -0.054291
   5 C :    0.716404
   6 C :   -0.526741
   7 N :    0.388273
   8 C :    0.945620
   9 H :   -0.762551
  10 H :   -0.130810
  11 H :    0.091041
  12 H :   -0.487298
  13 O :   -0.534419
  14 F :   -0.479488
  15 C :    0.117624
  16 C :   -0.234535
  17 C :   -0.180562
  18 H :   -0.152956
  19 H :   -0.066123
  20 H :   -0.028509
  21 H :    0.053409
  22 C :    0.224622
  23 H :    0.081734
  24 H :   -0.286899
  25 C :   -0.035081
  26 H :   -0.464849
  27 H :    0.003031
  28 C :    0.761657
  29 H :    0.152730
  30 H :   -0.321288
  31 H :    0.159983
  32 H :   -0.450492
  33 H :    0.096788
  34 H :    0.005873
  35 H :    0.163225
  36 H :   -0.042666
Sum of atomic charges:   -0.0000000

LOEWDIN ATOMIC CHARGES
----------------------
   0 C :    0.014764
   1 C :   -0.018186
   2 C :    0.067202
   3 H :    0.038010
   4 H :    0.053710
   5 C :    0.065561
   6 C :   -0.269887
   7 N :    0.209179
   8 C :    0.154739
   9 H :   -0.183172
  10 H :   -0.081884
  11 H :    0.022436
  12 H :   -0.065330
  13 O :   -0.147404
  14 F :   -0.018473
  15 C :   -0.018764
  16 C :   -0.034010
  17 C :   -0.031512
  18 H :    0.034502
  19 H :    0.009962
  20 H :    0.034361
  21 H :    0.029554
  22 C :   -0.030341
  23 H :    0.017308
  24 H :    0.024597
  25 C :   -0.041456
  26 H :   -0.016425
  27 H :    0.038006
  28 C :   -0.031062
  29 H :    0.016612
  30 H :    0.024561
  31 H :    0.009544
  32 H :    0.027867
  33 H :    0.022889
  34 H :    0.023975
  35 H :    0.024254
  36 H :    0.024311

  Mayer bond orders larger than 0.100000
B(  0-C ,  6-C ) :   1.3217 B(  0-C ,  8-C ) :   0.1059 B(  0-C , 15-C ) :   1.1062
B(  0-C , 23-H ) :   0.1073 B(  0-C , 24-H ) :   0.1217 B(  0-C , 35-H ) :   0.7436
B(  0-C , 36-H ) :   0.5755 B(  1-C ,  2-C ) :   1.1892 B(  1-C ,  4-H ) :   0.1585
B(  1-C , 17-C ) :   1.2314 B(  1-C , 20-H ) :   0.7931 B(  1-C , 21-H ) :   0.6763
B(  2-C ,  3-H ) :   0.8604 B(  2-C ,  4-H ) :   0.7407 B(  2-C ,  5-C ) :   1.1710
B(  2-C , 20-H ) :   0.1360 B(  2-C , 21-H ) :   0.1057 B(  3-H ,  5-C ) :   0.1140
B(  4-H ,  5-C ) :   0.2361 B(  5-C , 13-O ) :   1.7220 B(  5-C , 14-F ) :   0.5435
B(  6-C ,  7-N ) :   0.9552 B(  6-C ,  8-C ) :   2.0753 B(  6-C ,  9-H ) :   0.3912
B(  6-C , 10-H ) :   0.2925 B(  6-C , 24-H ) :  -0.1025 B(  6-C , 35-H ) :   0.1522
B(  6-C , 36-H ) :   0.2912 B(  7-N ,  8-C ) :   0.3608 B(  7-N , 11-H ) :   0.9887
B(  7-N , 12-H ) :   1.0362 B(  8-C , 10-H ) :   0.6827 B(  9-H , 13-O ) :   0.1928
B( 11-H , 12-H ) :  -0.2271 B( 12-H , 14-F ) :   0.1277 B( 15-C , 22-C ) :   1.1058
B( 15-C , 23-H ) :   0.8361 B( 15-C , 24-H ) :   0.9493 B( 15-C , 26-H ) :   0.1250
B( 15-C , 27-H ) :   0.1039 B( 15-C , 35-H ) :   0.1436 B( 15-C , 36-H ) :   0.1745
B( 16-C , 17-C ) :   1.2675 B( 16-C , 18-H ) :   0.1762 B( 16-C , 19-H ) :   0.1217
B( 16-C , 25-C ) :   0.1208 B( 16-C , 28-C ) :   1.0763 B( 16-C , 31-H ) :   0.8214
B( 16-C , 32-H ) :   1.1626 B( 16-C , 33-H ) :   0.1461 B( 16-C , 34-H ) :   0.2651
B( 17-C , 18-H ) :   0.9093 B( 17-C , 19-H ) :   0.9272 B( 17-C , 20-H ) :   0.1922
B( 17-C , 21-H ) :   0.2317 B( 17-C , 32-H ) :   0.1265 B( 20-H , 21-H ) :  -0.1119
B( 22-C , 23-H ) :   0.1142 B( 22-C , 24-H ) :   0.1956 B( 22-C , 25-C ) :   1.1780
B( 22-C , 26-H ) :   0.9286 B( 22-C , 27-H ) :   0.7360 B( 22-C , 29-H ) :   0.1230
B( 22-C , 30-H ) :   0.2347 B( 25-C , 27-H ) :   0.1124 B( 25-C , 28-C ) :   1.1487
B( 25-C , 29-H ) :   0.8188 B( 25-C , 30-H ) :   0.9800 B( 25-C , 33-H ) :   0.2061
B( 25-C , 34-H ) :   0.1532 B( 26-H , 27-H ) :   0.1984 B( 26-H , 31-H ) :   0.1807
B( 28-C , 33-H ) :   0.6590 B( 28-C , 34-H ) :   0.6396 B( 33-H , 34-H ) :  -0.1043

Dispersion correction           -0.019740342
FINAL SINGLE POINT ENERGY      -699.664472785567

DIPOLE MOMENT
-------------
                                X             Y             Z
Electronic contribution:     -3.07518       3.24747      15.96830
Nuclear contribution   :      0.32481      -3.64700     -16.75441
                        -----------------------------------------
Total Dipole Moment    :     -2.75038      -0.39953      -0.78611
                        -----------------------------------------
Magnitude (a.u.)       :      2.88828
Magnitude (Debye)      :      7.34142

Rotational constants in cm-1:     0.021629     0.017327     0.011372
Rotational constants in MHz :   648.414821   519.443407   340.925013

                             ****ORCA TERMINATED NORMALLY****
TOTAL RUN TIME: 0 days 0 hours 1 minutes 34 seconds 995 msec
