                         Program Version 5.0.0 -  RELEASE  -
|  1> !PBE D3BJ RIJCOSX def2-SVPD def2/J TightSCF
|  2> *xyz -1 1
|  3> C         -0.01741        0.08059       -2.77841
|  4> C         -0.90349       -0.87394       -1.98739
|  5> H         -0.50255       -1.89210       -2.08120
|  6> H         -1.91704       -0.89543       -2.40628
|  7> C         -0.96015       -0.52236       -0.48987
|  8> H         -1.69039       -1.20813       -0.02168
|  9> H         -1.41449        0.48633       -0.40668
| 10> O          0.26170       -0.58031        0.13861
| 11> H         -0.01329       -0.20776       -3.80881
| 12> H          0.98025        0.04284       -2.39348
| 13> H         -0.39697        1.07694       -2.68836
| 14> *
| 15>
| 16> %MaxCore 64000
| 17>
| 18> %pal nprocs 4
| 19> end
| 20>
| 21> %scf
| 22>   MaxIter 150
| 23> end
| 24>
| 25>
| 26>                          ****END OF INPUT****

CARTESIAN COORDINATES (ANGSTROEM)
---------------------------------
  C     -0.017410    0.080590   -2.778410
  C     -0.903490   -0.873940   -1.987390
  H     -0.502550   -1.892100   -2.081200
  H     -1.917040   -0.895430   -2.406280
  C     -0.960150   -0.522360   -0.489870
  H     -1.690390   -1.208130   -0.021680
  H     -1.414490    0.486330   -0.406680
  O      0.261700   -0.580310    0.138610
  H     -0.013290   -0.207760   -3.808810
  H      0.980250    0.042840   -2.393480
  H     -0.396970    1.076940   -2.688360

 Total Charge           Charge          ....   -1
 Multiplicity           Mult            ....    1
 Number of Electrons    NEL             ....   34
 Basis Dimension        Dim             ....  139

ORBITAL ENERGIES
----------------

  NO   OCC          E(Eh)            E(eV)
   0   2.0000     -18.447387      -501.9789
   1   2.0000      -9.713950      -264.3300
   2   2.0000      -9.712734      -264.2969
   3   2.0000      -9.706709      -264.1330
   4   2.0000      -0.598001       -16.2724
   5   2.0000      -0.508385       -13.8338
   6   2.0000      -0.398740       -10.8503
   7   2.0000      -0.305636        -8.3168
   8   2.0000      -0.226671        -6.1680
   9   2.0000      -0.220136        -5.9902
  10   2.0000      -0.175632        -4.7792
  11   2.0000      -0.144564        -3.9338
  12   2.0000      -0.121379        -3.3029
  13   2.0000      -0.112791        -3.0692
  14   2.0000      -0.073907        -2.0111
  15   2.0000       0.061161         1.6643
  16   2.0000       0.066745         1.8162
  17   0.0000       0.148996         4.0544
  18   0.0000       0.174186         4.7399
  19   0.0000       0.188693         5.1346
  20   0.0000       0.215050         5.8518
  21   0.0000       0.230078         6.2607

MULLIKEN ATOMIC CHARGES
-----------------------
   0 C :    0.590472
   1 C :   -0.616651
   2 H :   -0.028389
   3 H :   -0.047155
   4 C :    0.420012
   5 H :   -0.176155
   6 H :   -0.102849
   7 O :   -0.858607
   8 H :   -0.094503
   9 H :   -0.020934
  10 H :   -0.065241
Sum of atomic charges:   -1.0000000

LOEWDIN ATOMIC CHARGES
----------------------
   0 C :    0.079845
   1 C :   -0.122959
   2 H :    0.002705
   3 H :   -0.015880
   4 C :   -0.225960
   5 H :   -0.039253
   6 H :   -0.032796
   7 O :   -0.526374
   8 H :   -0.049941
   9 H :   -0.032933
  10 H :   -0.036453

  Mayer bond orders larger than 0.100000
B(  0-C ,  1-C ) :   1.3012 B(  0-C ,  8-H ) :   0.7952 B(  0-C ,  9-H ) :   0.8251
B(  0-C , 10-H ) :   0.8313 B(  1-C ,  2-H ) :   0.9809 B(  1-C ,  3-H ) :   1.0223
B(  1-C ,  4-C ) :   1.0516 B(  1-C ,  5-H ) :   0.1640 B(  1-C ,  6-H ) :   0.1506
B(  1-C ,  7-O ) :   0.2242 B(  1-C ,  8-H ) :   0.2102 B(  1-C ,  9-H ) :   0.2198
B(  1-C , 10-H ) :   0.2063 B(  2-H ,  4-C ) :   0.1357 B(  3-H ,  4-C ) :   0.1065
B(  4-C ,  5-H ) :   0.9618 B(  4-C ,  6-H ) :   0.9451 B(  4-C ,  7-O ) :   1.0987

Dispersion correction           -0.006627459
FINAL SINGLE POINT ENERGY      -193.369823347971

DIPOLE MOMENT
-------------
                                X             Y             Z
Electronic contribution:      1.32521      -0.48853       2.80085
Nuclear contribution   :     -2.03764       0.64089      -4.61583
                        -----------------------------------------
Total Dipole Moment    :     -0.71243       0.15237      -1.81498
                        -----------------------------------------
Magnitude (a.u.)       :      1.95574
Magnitude (Debye)      :      4.97110

Rotational constants in cm-1:     0.508897     0.174909     0.148249
Rotational constants in MHz : 15256.351998  5243.652192  4444.387232

                             ****ORCA TERMINATED NORMALLY****
TOTAL RUN TIME: 0 days 0 hours 0 minutes 4 seconds 394 msec
