                         Program Version 5.0.0 -  RELEASE  -
|  1> !PBE D3BJ RIJCOSX def2-SVPD def2/J TightSCF
|  2> *xyz 1 1
|  3> C          4.36645       -0.13321       -1.41606
|  4> C          4.50829       -0.93187       -2.72425
|  5> H          4.75372       -1.97205       -2.48841
|  6> C          3.29416       -0.91821       -3.65657
|  7> H          5.38564       -0.53624       -3.24264
|  8> C          3.05650       -0.32080       -0.70738
|  9> N          2.38983        0.71129       -0.24391
| 10> N          2.51600       -1.50772       -0.55023
| 11> H          2.96768       -2.32291       -0.95631
| 12> H          1.54987       -1.49063       -0.24988
| 13> H          2.74307        1.64947       -0.41280
| 14> H          1.44036        0.50278        0.03703
| 15> H          4.48784        0.93300       -1.61157
| 16> H          5.16967       -0.41443       -0.72982
| 17> H          3.50670       -1.50229       -4.52754
| 18> H          3.07837        0.08892       -3.94644
| 19> H          2.44880       -1.33173       -3.14739
| 20> *
| 21>
| 22> %MaxCore 64000
| 23>
| 24> %pal nprocs 4
| 25> end
| 26>
| 27> %scf
| 28>   MaxIter 150
| 29> end
| 30>
| 31>
| 32>                          ****END OF INPUT****

CARTESIAN COORDINATES (ANGSTROEM)
---------------------------------
  C      4.366450   -0.133210   -1.416060
  C      4.508290   -0.931870   -2.724250
  H      4.753720   -1.972050   -2.488410
  C      3.294160   -0.918210   -3.656570
  H      5.385640   -0.536240   -3.242640
  C      3.056500   -0.320800   -0.707380
  N      2.389830    0.711290   -0.243910
  N      2.516000   -1.507720   -0.550230
  H      2.967680   -2.322910   -0.956310
  H      1.549870   -1.490630   -0.249880
  H      2.743070    1.649470   -0.412800
  H      1.440360    0.502780    0.037030
  H      4.487840    0.933000   -1.611570
  H      5.169670   -0.414430   -0.729820
  H      3.506700   -1.502290   -4.527540
  H      3.078370    0.088920   -3.946440
  H      2.448800   -1.331730   -3.147390

 Total Charge           Charge          ....    1
 Multiplicity           Mult            ....    1
 Number of Electrons    NEL             ....   48
 Basis Dimension        Dim             ....  208

ORBITAL ENERGIES
----------------

  NO   OCC          E(Eh)            E(eV)
   0   2.0000     -14.244297      -387.6070
   1   2.0000     -14.242950      -387.5704
   2   2.0000     -10.205566      -277.7076
   3   2.0000     -10.092884      -274.6413
   4   2.0000     -10.061038      -273.7748
   5   2.0000     -10.026658      -272.8392
   6   2.0000      -1.120296       -30.4848
   7   2.0000      -1.020685       -27.7743
   8   2.0000      -0.897260       -24.4157
   9   2.0000      -0.817489       -22.2450
  10   2.0000      -0.770659       -20.9707
  11   2.0000      -0.732914       -19.9436
  12   2.0000      -0.713813       -19.4238
  13   2.0000      -0.675618       -18.3845
  14   2.0000      -0.654905       -17.8209
  15   2.0000      -0.610042       -16.6001
  16   2.0000      -0.584184       -15.8965
  17   2.0000      -0.549372       -14.9492
  18   2.0000      -0.535427       -14.5697
  19   2.0000      -0.516907       -14.0658
  20   2.0000      -0.469034       -12.7631
  21   2.0000      -0.463134       -12.6025
  22   2.0000      -0.455749       -12.4016
  23   2.0000      -0.447121       -12.1668
  24   0.0000      -0.247024        -6.7219
  25   0.0000      -0.185275        -5.0416
  26   0.0000      -0.144075        -3.9205
  27   0.0000      -0.138942        -3.7808
  28   0.0000      -0.106607        -2.9009

MULLIKEN ATOMIC CHARGES
-----------------------
   0 C :    0.253883
   1 C :   -0.413179
   2 H :   -0.004292
   3 C :    0.777438
   4 H :   -0.184626
   5 C :    0.516921
   6 N :    0.124353
   7 N :    0.107246
   8 H :    0.028641
   9 H :   -0.099897
  10 H :   -0.009361
  11 H :   -0.092720
  12 H :    0.165689
  13 H :   -0.022516
  14 H :   -0.060259
  15 H :   -0.012991
  16 H :   -0.074330
Sum of atomic charges:    1.0000000

LOEWDIN ATOMIC CHARGES
----------------------
   0 C :    0.052604
   1 C :   -0.049561
   2 H :    0.026210
   3 C :    0.144473
   4 H :    0.041327
   5 C :   -0.067206
   6 N :    0.296035
   7 N :    0.300571
   8 H :    0.053719
   9 H :    0.044107
  10 H :    0.056862
  11 H :    0.041934
  12 H :    0.038746
  13 H :    0.057427
  14 H :    0.002854
  15 H :   -0.004277
  16 H :   -0.035825

  Mayer bond orders larger than 0.100000
B(  0-C ,  1-C ) :   1.2647 B(  0-C ,  2-H ) :   0.1241 B(  0-C ,  4-H ) :   0.1372
B(  0-C ,  5-C ) :   1.1823 B(  0-C , 12-H ) :   0.7577 B(  0-C , 13-H ) :   0.7429
B(  1-C ,  2-H ) :   0.8808 B(  1-C ,  3-C ) :   1.4037 B(  1-C ,  4-H ) :   0.9578
B(  1-C , 12-H ) :   0.1475 B(  1-C , 13-H ) :   0.1187 B(  1-C , 14-H ) :   0.2342
B(  1-C , 15-H ) :   0.2234 B(  1-C , 16-H ) :   0.2264 B(  3-C , 14-H ) :   0.7338
B(  3-C , 15-H ) :   0.7698 B(  3-C , 16-H ) :   0.8101 B(  5-C ,  6-N ) :   1.0706
B(  5-C ,  7-N ) :   1.1403 B(  5-C ,  9-H ) :  -0.1476 B(  5-C , 11-H ) :  -0.1118
B(  5-C , 12-H ) :   0.1481 B(  5-C , 13-H ) :   0.1795 B(  6-N ,  7-N ) :   0.2531
B(  6-N , 10-H ) :   1.1312 B(  6-N , 11-H ) :   1.1914 B(  7-N ,  8-H ) :   1.0302
B(  7-N ,  9-H ) :   1.2614 B(  8-H ,  9-H ) :  -0.1790 B( 10-H , 11-H ) :  -0.1519

Dispersion correction           -0.013836972
FINAL SINGLE POINT ENERGY      -267.820905793707

DIPOLE MOMENT
-------------
                                X             Y             Z
Electronic contribution:     -1.79493       0.88713       5.03634
Nuclear contribution   :      0.92830      -0.63755      -3.99475
                        -----------------------------------------
Total Dipole Moment    :     -0.86662       0.24958       1.04159
                        -----------------------------------------
Magnitude (a.u.)       :      1.37777
Magnitude (Debye)      :      3.50200

Rotational constants in cm-1:     0.183706     0.077449     0.071296
Rotational constants in MHz :  5507.368439  2321.870034  2137.394204

                             ****ORCA TERMINATED NORMALLY****
TOTAL RUN TIME: 0 days 0 hours 0 minutes 8 seconds 224 msec
