                         Program Version 5.0.0 -  RELEASE  -
|  1> !PBE D3BJ RIJCOSX def2-SVPD def2/J TightSCF xyzfile
|  2>
|  3> *xyzfile 0 1 B.xyz
|  4>
|  5> %MaxCore 64000
|  6>
|  7> %pal nprocs 4
|  8> end
|  9>
| 10> %scf
| 11>   MaxIter 150
| 12> end
| 13>
| 14>
| 15>                          ****END OF INPUT****

CARTESIAN COORDINATES (ANGSTROEM)
---------------------------------
  C      4.366454   -0.133215   -1.416062
  C      4.508292   -0.931872   -2.724249
  H      4.753716   -1.972051   -2.488408
  C      3.294164   -0.918214   -3.656570
  H      5.385637   -0.536236   -3.242640
  H      2.483463   -1.477378   -3.185764
  H      3.553092   -1.478495   -4.560331
  C      2.772335    0.460100   -4.051448
  H      2.608762    1.065107   -3.155194
  C      1.465354    0.410537   -4.853644
  H      3.532940    0.988848   -4.635671
  C      0.326171   -0.375613   -4.192580
  H      1.666704   -0.022269   -5.839323
  H      1.138198    1.439246   -5.035449
  C     -0.017405    0.080588   -2.778406
  H      0.585573   -1.439385   -4.168057
  H     -0.560005   -0.311425   -4.831461
  H      0.902090    0.201296   -2.206729
  C     -0.903495   -0.873945   -1.987388
  H     -0.479549    1.074657   -2.811915
  H     -0.502554   -1.892096   -2.081204
  H     -1.917039   -0.895427   -2.406277
  C     -0.960148   -0.522365   -0.489867
  H     -1.690392   -1.208130   -0.021677
  H     -1.414490    0.486329   -0.406677
  O      0.261703   -0.580307    0.138611
  C      3.056503   -0.320797   -0.707384
  N      2.389825    0.711285   -0.243909
  N      2.515999   -1.507721   -0.550229
  H      2.967683   -2.322915   -0.956305
  H      1.549872   -1.490634   -0.249876
  H      2.743071    1.649471   -0.412802
  H      1.440364    0.502778    0.037031
  H      4.487835    0.932997   -1.611569
  H      5.169672   -0.414432   -0.729817

 Total Charge           Charge          ....    0
 Multiplicity           Mult            ....    1
 Number of Electrons    NEL             ....  104
 Basis Dimension        Dim             ....  439

ORBITAL ENERGIES
----------------

  NO   OCC          E(Eh)            E(eV)
   0   2.0000     -18.651148      -507.5235
   1   2.0000     -14.027877      -381.7179
   2   2.0000     -14.027551      -381.7091
   3   2.0000     -10.008657      -272.3494
   4   2.0000      -9.938708      -270.4460
   5   2.0000      -9.925077      -270.0751
   6   2.0000      -9.905026      -269.5295
   7   2.0000      -9.899214      -269.3713
   8   2.0000      -9.890886      -269.1447
   9   2.0000      -9.880948      -268.8743
  10   2.0000      -9.880513      -268.8624
  11   2.0000      -9.868415      -268.5332
  12   2.0000      -9.856425      -268.2070
  13   2.0000      -0.916583       -24.9415
  14   2.0000      -0.816198       -22.2099
  15   2.0000      -0.802222       -21.8296
  16   2.0000      -0.754209       -20.5231
  17   2.0000      -0.720379       -19.6025
  18   2.0000      -0.683398       -18.5962
  19   2.0000      -0.646721       -17.5982
  20   2.0000      -0.611615       -16.6429
  21   2.0000      -0.577053       -15.7024
  22   2.0000      -0.559349       -15.2207
  23   2.0000      -0.548660       -14.9298
  24   2.0000      -0.511738       -13.9251
  25   2.0000      -0.497211       -13.5298
  26   2.0000      -0.491379       -13.3711
  27   2.0000      -0.467591       -12.7238
  28   2.0000      -0.455170       -12.3858
  29   2.0000      -0.452233       -12.3059
  30   2.0000      -0.434612       -11.8264
  31   2.0000      -0.415754       -11.3132
  32   2.0000      -0.400638       -10.9019
  33   2.0000      -0.384761       -10.4699
  34   2.0000      -0.375433       -10.2161
  35   2.0000      -0.368921       -10.0389
  36   2.0000      -0.363198        -9.8831
  37   2.0000      -0.358464        -9.7543
  38   2.0000      -0.337440        -9.1822
  39   2.0000      -0.329376        -8.9628
  40   2.0000      -0.320615        -8.7244
  41   2.0000      -0.312416        -8.5013
  42   2.0000      -0.302726        -8.2376
  43   2.0000      -0.298702        -8.1281
  44   2.0000      -0.281385        -7.6569
  45   2.0000      -0.274991        -7.4829
  46   2.0000      -0.265766        -7.2319
  47   2.0000      -0.263159        -7.1609
  48   2.0000      -0.257729        -7.0132
  49   2.0000      -0.249116        -6.7788
  50   2.0000      -0.146457        -3.9853
  51   2.0000      -0.141124        -3.8402
  52   0.0000      -0.057087        -1.5534
  53   0.0000      -0.022817        -0.6209
  54   0.0000      -0.006801        -0.1851
  55   0.0000       0.010106         0.2750
  56   0.0000       0.016087         0.4378

MULLIKEN ATOMIC CHARGES
-----------------------
   0 C :    0.334404
   1 C :    0.426553
   2 H :    0.003729
   3 C :   -0.112348
   4 H :   -0.152305
   5 H :    0.037088
   6 H :   -0.150695
   7 C :   -0.073160
   8 H :    0.115435
   9 C :    0.740784
  10 H :   -0.398978
  11 C :    0.078121
  12 H :   -0.030686
  13 H :    0.001883
  14 C :    0.468166
  15 H :    0.171987
  16 H :   -0.460215
  17 H :   -0.784368
  18 C :    0.088502
  19 H :    0.013676
  20 H :   -0.002103
  21 H :   -0.205740
  22 C :    0.907963
  23 H :   -0.170876
  24 H :   -0.081792
  25 O :   -1.074463
  26 C :    0.157795
  27 N :    0.419187
  28 N :    0.452016
  29 H :   -0.087649
  30 H :   -0.289698
  31 H :   -0.094201
  32 H :   -0.212258
  33 H :    0.255313
  34 H :   -0.291066
Sum of atomic charges:    0.0000000

LOEWDIN ATOMIC CHARGES
----------------------
   0 C :    0.037392
   1 C :   -0.019544
   2 H :    0.018402
   3 C :   -0.030584
   4 H :    0.026423
   5 H :   -0.005763
   6 H :    0.032873
   7 C :   -0.034298
   8 H :   -0.000427
   9 C :   -0.028293
  10 H :    0.024803
  11 C :   -0.039598
  12 H :    0.021019
  13 H :    0.023002
  14 C :   -0.037915
  15 H :    0.010112
  16 H :    0.022691
  17 H :   -0.029260
  18 C :   -0.035888
  19 H :    0.034950
  20 H :    0.018450
  21 H :    0.019191
  22 C :   -0.062663
  23 H :    0.006914
  24 H :    0.011505
  25 O :   -0.398811
  26 C :   -0.089885
  27 N :    0.293273
  28 N :    0.304775
  29 H :    0.027153
  30 H :   -0.099838
  31 H :    0.029804
  32 H :   -0.105838
  33 H :    0.020577
  34 H :    0.035296

  Mayer bond orders larger than 0.100000
B(  0-C ,  1-C ) :   1.2257 B(  0-C ,  2-H ) :   0.1040 B(  0-C ,  3-C ) :   0.1163
B(  0-C ,  4-H ) :   0.1768 B(  0-C , 26-C ) :   1.1528 B(  0-C , 27-N ) :   0.1040
B(  0-C , 33-H ) :   0.6913 B(  0-C , 34-H ) :   0.6600 B(  1-C ,  2-H ) :   0.6489
B(  1-C ,  3-C ) :   1.3000 B(  1-C ,  4-H ) :   0.7678 B(  1-C ,  5-H ) :   0.1310
B(  1-C ,  6-H ) :   0.1201 B(  1-C , 33-H ) :   0.1464 B(  1-C , 34-H ) :   0.1267
B(  2-H ,  3-C ) :   0.2608 B(  2-H ,  4-H ) :  -0.1509 B(  3-C ,  4-H ) :   0.1888
B(  3-C ,  5-H ) :   0.8056 B(  3-C ,  6-H ) :   0.8084 B(  3-C ,  7-C ) :   1.2912
B(  3-C ,  8-H ) :   0.1297 B(  3-C , 10-H ) :   0.1794 B(  5-H ,  7-C ) :   0.1480
B(  5-H , 15-H ) :   0.1908 B(  5-H , 16-H ) :  -0.1049 B(  6-H ,  7-C ) :   0.1565
B(  7-C ,  8-H ) :   0.8023 B(  7-C ,  9-C ) :   1.1356 B(  7-C , 10-H ) :   0.9782
B(  7-C , 11-C ) :   0.1917 B(  7-C , 12-H ) :   0.1334 B(  7-C , 13-H ) :   0.2662
B(  8-H , 17-H ) :   0.2278 B(  9-C , 11-C ) :   1.1423 B(  9-C , 12-H ) :   0.6778
B(  9-C , 13-H ) :   0.6356 B( 11-C , 12-H ) :   0.2023 B( 11-C , 13-H ) :   0.1559
B( 11-C , 14-C ) :   1.1337 B( 11-C , 15-H ) :   0.7899 B( 11-C , 16-H ) :   0.9753
B( 11-C , 17-H ) :   0.2088 B( 11-C , 19-H ) :   0.1237 B( 12-H , 13-H ) :  -0.1233
B( 14-C , 15-H ) :   0.1500 B( 14-C , 16-H ) :   0.2530 B( 14-C , 17-H ) :   0.3749
B( 14-C , 18-C ) :   1.1877 B( 14-C , 19-H ) :   0.6470 B( 14-C , 20-H ) :   0.1448
B( 14-C , 21-H ) :   0.2772 B( 14-C , 22-C ) :   0.1270 B( 15-H , 16-H ) :  -0.1067
B( 17-H , 18-C ) :   0.2209 B( 17-H , 19-H ) :   0.2019 B( 17-H , 26-C ) :   0.1292
B( 18-C , 19-H ) :   0.1161 B( 18-C , 20-H ) :   0.8912 B( 18-C , 21-H ) :   0.8393
B( 18-C , 22-C ) :   1.0392 B( 18-C , 23-H ) :   0.2274 B( 18-C , 24-H ) :   0.1189
B( 18-C , 25-O ) :   0.1328 B( 20-H , 22-C ) :   0.1070 B( 22-C , 23-H ) :   0.7109
B( 22-C , 24-H ) :   0.7886 B( 22-C , 25-O ) :   1.0455 B( 23-H , 25-O ) :   0.1038
B( 24-H , 25-O ) :   0.1887 B( 25-O , 26-C ) :   0.1254 B( 25-O , 30-H ) :   0.3415
B( 25-O , 32-H ) :   0.3158 B( 26-C , 27-N ) :   1.0621 B( 26-C , 28-N ) :   1.0764
B( 26-C , 31-H ) :  -0.1059 B( 26-C , 33-H ) :   0.1992 B( 26-C , 34-H ) :   0.3122
B( 27-N , 28-N ) :   0.2463 B( 27-N , 31-H ) :   1.1293 B( 27-N , 32-H ) :   1.0293
B( 28-N , 29-H ) :   1.0897 B( 28-N , 30-H ) :   1.0943 B( 29-H , 30-H ) :  -0.2473
B( 31-H , 32-H ) :  -0.1815

Dispersion correction           -0.039736863
FINAL SINGLE POINT ENERGY      -577.932831991288

DIPOLE MOMENT
-------------
                                X             Y             Z
Electronic contribution:      2.64045      -0.28138       7.61096
Nuclear contribution   :     -0.17996       0.53390      -8.68067
                        -----------------------------------------
Total Dipole Moment    :      2.46049       0.25253      -1.06971
                        -----------------------------------------
Magnitude (a.u.)       :      2.69482
Magnitude (Debye)      :      6.84970

Rotational constants in cm-1:     0.028240     0.022734     0.014600
Rotational constants in MHz :   846.611263   681.554306   437.693928

                             ****ORCA TERMINATED NORMALLY****
TOTAL RUN TIME: 0 days 0 hours 0 minutes 51 seconds 456 msec
