                         Program Version 5.0.0 -  RELEASE  -
|  1> !PBE D3BJ RIJCOSX def2-SVPD def2/J TightSCF
|  2> *xyz 0 1
|  3> C         -0.01741        0.08059       -2.77841
|  4> C         -0.90349       -0.87394       -1.98739
|  5> H         -0.50255       -1.89210       -2.08120
|  6> H         -1.91704       -0.89543       -2.40628
|  7> C         -0.96015       -0.52236       -0.48987
|  8> H         -1.69039       -1.20813       -0.02168
|  9> H         -1.41449        0.48633       -0.40668
| 10> F          0.26170       -0.58031        0.13861
| 11> H         -0.01329       -0.20776       -3.80881
| 12> H          0.98025        0.04284       -2.39348
| 13> H         -0.39697        1.07694       -2.68836
| 14> *
| 15>
| 16> %MaxCore 64000
| 17>
| 18> %pal nprocs 4
| 19> end
| 20>
| 21> %scf
| 22>   MaxIter 150
| 23> end
| 24>
| 25>
| 26>                          ****END OF INPUT****

CARTESIAN COORDINATES (ANGSTROEM)
---------------------------------
  C     -0.017410    0.080590   -2.778410
  C     -0.903490   -0.873940   -1.987390
  H     -0.502550   -1.892100   -2.081200
  H     -1.917040   -0.895430   -2.406280
  C     -0.960150   -0.522360   -0.489870
  H     -1.690390   -1.208130   -0.021680
  H     -1.414490    0.486330   -0.406680
  F      0.261700   -0.580310    0.138610
  H     -0.013290   -0.207760   -3.808810
  H      0.980250    0.042840   -2.393480
  H     -0.396970    1.076940   -2.688360

 Total Charge           Charge          ....    0
 Multiplicity           Mult            ....    1
 Number of Electrons    NEL             ....   34
 Basis Dimension        Dim             ....  139

ORBITAL ENERGIES
----------------

  NO   OCC          E(Eh)            E(eV)
   0   2.0000     -24.264799      -660.2788
   1   2.0000      -9.971076      -271.3268
   2   2.0000      -9.904021      -269.5021
   3   2.0000      -9.883386      -268.9406
   4   2.0000      -1.084073       -29.4991
   5   2.0000      -0.712909       -19.3992
   6   2.0000      -0.618718       -16.8362
   7   2.0000      -0.533898       -14.5281
   8   2.0000      -0.457923       -12.4607
   9   2.0000      -0.438162       -11.9230
  10   2.0000      -0.418321       -11.3831
  11   2.0000      -0.387875       -10.5546
  12   2.0000      -0.351010        -9.5515
  13   2.0000      -0.331577        -9.0227
  14   2.0000      -0.310472        -8.4484
  15   2.0000      -0.282211        -7.6794
  16   2.0000      -0.281999        -7.6736
  17   0.0000       0.003251         0.0885
  18   0.0000       0.030500         0.8299
  19   0.0000       0.038044         1.0352
  20   0.0000       0.044957         1.2233
  21   0.0000       0.066966         1.8222

MULLIKEN ATOMIC CHARGES
-----------------------
   0 C :    0.641398
   1 C :   -0.520558
   2 H :   -0.054188
   3 H :   -0.066891
   4 C :    0.735654
   5 H :   -0.103377
   6 H :   -0.044243
   7 F :   -0.416616
   8 H :   -0.079394
   9 H :   -0.031546
  10 H :   -0.060238
Sum of atomic charges:    0.0000000

LOEWDIN ATOMIC CHARGES
----------------------
   0 C :    0.118784
   1 C :   -0.072845
   2 H :    0.025954
   3 H :    0.027931
   4 C :    0.083710
   5 H :    0.027177
   6 H :    0.032028
   7 F :   -0.191831
   8 H :   -0.018681
   9 H :   -0.015064
  10 H :   -0.017161

  Mayer bond orders larger than 0.100000
B(  0-C ,  1-C ) :   1.3491 B(  0-C ,  8-H ) :   0.8065 B(  0-C ,  9-H ) :   0.8146
B(  0-C , 10-H ) :   0.8161 B(  1-C ,  2-H ) :   0.9499 B(  1-C ,  3-H ) :   0.9570
B(  1-C ,  4-C ) :   1.1995 B(  1-C ,  5-H ) :   0.1239 B(  1-C ,  6-H ) :   0.1091
B(  1-C ,  8-H ) :   0.1978 B(  1-C ,  9-H ) :   0.1983 B(  1-C , 10-H ) :   0.1838
B(  4-C ,  5-H ) :   0.8996 B(  4-C ,  6-H ) :   0.8951 B(  4-C ,  7-F ) :   0.7527

Dispersion correction           -0.006268271
FINAL SINGLE POINT ENERGY      -217.960853968920

DIPOLE MOMENT
-------------
                                X             Y             Z
Electronic contribution:      2.27978      -0.77970       5.90222
Nuclear contribution   :     -2.83598       0.77614      -6.32113
                        -----------------------------------------
Total Dipole Moment    :     -0.55621      -0.00356      -0.41891
                        -----------------------------------------
Magnitude (a.u.)       :      0.69632
Magnitude (Debye)      :      1.76991

Rotational constants in cm-1:     0.494803     0.164634     0.139827
Rotational constants in MHz : 14833.819345  4935.593559  4191.919783

                             ****ORCA TERMINATED NORMALLY****
TOTAL RUN TIME: 0 days 0 hours 0 minutes 3 seconds 720 msec
