                         Program Version 5.0.0 -  RELEASE  -
|  1> !PBE D3BJ RIJCOSX def2-SVPD def2/J TightSCF
|  2> *xyz 0 1
|  3> C          4.36645       -0.13321       -1.41606
|  4> C          4.50829       -0.93187       -2.72425
|  5> H          4.75372       -1.97205       -2.48841
|  6> C          3.29416       -0.91821       -3.65657
|  7> H          5.38564       -0.53624       -3.24264
|  8> C          3.05650       -0.32080       -0.70738
|  9> C          2.38983        0.71129       -0.24391
| 10> N          2.51600       -1.50772       -0.55023
| 11> H          2.96768       -2.32291       -0.95631
| 12> H          1.54987       -1.49063       -0.24988
| 13> H          2.74307        1.64947       -0.41280
| 14> H          1.44036        0.50278        0.03703
| 15> H          4.48784        0.93300       -1.61157
| 16> H          5.16967       -0.41443       -0.72982
| 17> H          3.50670       -1.50229       -4.52754
| 18> H          3.07837        0.08892       -3.94644
| 19> H          2.44880       -1.33173       -3.14739
| 20> *
| 21>
| 22> %MaxCore 64000
| 23>
| 24> %pal nprocs 4
| 25> end
| 26>
| 27> %scf
| 28>   MaxIter 150
| 29> end
| 30>
| 31>
| 32>                          ****END OF INPUT****

CARTESIAN COORDINATES (ANGSTROEM)
---------------------------------
  C      4.366450   -0.133210   -1.416060
  C      4.508290   -0.931870   -2.724250
  H      4.753720   -1.972050   -2.488410
  C      3.294160   -0.918210   -3.656570
  H      5.385640   -0.536240   -3.242640
  C      3.056500   -0.320800   -0.707380
  C      2.389830    0.711290   -0.243910
  N      2.516000   -1.507720   -0.550230
  H      2.967680   -2.322910   -0.956310
  H      1.549870   -1.490630   -0.249880
  H      2.743070    1.649470   -0.412800
  H      1.440360    0.502780    0.037030
  H      4.487840    0.933000   -1.611570
  H      5.169670   -0.414430   -0.729820
  H      3.506700   -1.502290   -4.527540
  H      3.078370    0.088920   -3.946440
  H      2.448800   -1.331730   -3.147390

 Total Charge           Charge          ....    0
 Multiplicity           Mult            ....    1
 Number of Electrons    NEL             ....   48
 Basis Dimension        Dim             ....  208

ORBITAL ENERGIES
----------------

  NO   OCC          E(Eh)            E(eV)
   0   2.0000     -14.001863      -381.0101
   1   2.0000      -9.909887      -269.6617
   2   2.0000      -9.898766      -269.3591
   3   2.0000      -9.895860      -269.2801
   4   2.0000      -9.878752      -268.8145
   5   2.0000      -9.828526      -267.4478
   6   2.0000      -0.847469       -23.0608
   7   2.0000      -0.714386       -19.4394
   8   2.0000      -0.661378       -17.9970
   9   2.0000      -0.614286       -16.7156
  10   2.0000      -0.539679       -14.6854
  11   2.0000      -0.503732       -13.7073
  12   2.0000      -0.481380       -13.0990
  13   2.0000      -0.411311       -11.1923
  14   2.0000      -0.408305       -11.1106
  15   2.0000      -0.404152       -10.9975
  16   2.0000      -0.350256        -9.5309
  17   2.0000      -0.348055        -9.4711
  18   2.0000      -0.336893        -9.1673
  19   2.0000      -0.321297        -8.7429
  20   2.0000      -0.293260        -7.9800
  21   2.0000      -0.292063        -7.9474
  22   2.0000      -0.280083        -7.6215
  23   2.0000      -0.159713        -4.3460
  24   0.0000      -0.006873        -0.1870
  25   0.0000       0.006427         0.1749
  26   0.0000       0.029664         0.8072
  27   0.0000       0.032902         0.8953
  28   0.0000       0.040936         1.1139

MULLIKEN ATOMIC CHARGES
-----------------------
   0 C :    0.397462
   1 C :   -0.425946
   2 H :   -0.034439
   3 C :    0.777522
   4 H :   -0.189391
   5 C :   -0.386605
   6 C :    0.399530
   7 N :    0.278409
   8 H :   -0.089020
   9 H :   -0.136468
  10 H :   -0.148294
  11 H :   -0.371274
  12 H :    0.222419
  13 H :   -0.099430
  14 H :   -0.050158
  15 H :   -0.044393
  16 H :   -0.099923
Sum of atomic charges:    0.0000000

LOEWDIN ATOMIC CHARGES
----------------------
   0 C :    0.012572
   1 C :   -0.075325
   2 H :    0.010125
   3 C :    0.125602
   4 H :    0.017390
   5 C :   -0.275477
   6 C :    0.174520
   7 N :    0.185514
   8 H :    0.002155
   9 H :    0.005085
  10 H :   -0.077563
  11 H :   -0.084155
  12 H :    0.023524
  13 H :    0.026231
  14 H :   -0.019247
  15 H :   -0.013855
  16 H :   -0.037096

  Mayer bond orders larger than 0.100000
B(  0-C ,  1-C ) :   1.2400 B(  0-C ,  2-H ) :   0.1587 B(  0-C ,  4-H ) :   0.1742
B(  0-C ,  5-C ) :   1.2339 B(  0-C , 10-H ) :  -0.1012 B(  0-C , 12-H ) :   0.7602
B(  0-C , 13-H ) :   0.6779 B(  1-C ,  2-H ) :   0.8591 B(  1-C ,  3-C ) :   1.3794
B(  1-C ,  4-H ) :   0.9278 B(  1-C ,  5-C ) :   0.1176 B(  1-C , 12-H ) :   0.1578
B(  1-C , 13-H ) :   0.1119 B(  1-C , 14-H ) :   0.2406 B(  1-C , 15-H ) :   0.2306
B(  1-C , 16-H ) :   0.2319 B(  3-C , 14-H ) :   0.7074 B(  3-C , 15-H ) :   0.7671
B(  3-C , 16-H ) :   0.8219 B(  5-C ,  6-C ) :   1.7527 B(  5-C ,  7-N ) :   1.2176
B(  5-C , 11-H ) :   0.3726 B(  5-C , 13-H ) :   0.2714 B(  6-C ,  7-N ) :   0.3666
B(  6-C , 10-H ) :   0.9733 B(  6-C , 11-H ) :   0.5870 B(  7-N ,  8-H ) :   1.0182
B(  7-N ,  9-H ) :   1.1388 B(  8-H ,  9-H ) :  -0.1537

Dispersion correction           -0.014232802
FINAL SINGLE POINT ENERGY      -251.365371522289

DIPOLE MOMENT
-------------
                                X             Y             Z
Electronic contribution:     -0.65143      -0.30208       3.31642
Nuclear contribution   :      0.70803      -0.34641      -3.68680
                        -----------------------------------------
Total Dipole Moment    :      0.05660      -0.64849      -0.37038
                        -----------------------------------------
Magnitude (a.u.)       :      0.74895
Magnitude (Debye)      :      1.90368

Rotational constants in cm-1:     0.186653     0.080341     0.073591
Rotational constants in MHz :  5595.710092  2408.571280  2206.200061

                             ****ORCA TERMINATED NORMALLY****
TOTAL RUN TIME: 0 days 0 hours 0 minutes 8 seconds 911 msec
