                         Program Version 5.0.0 -  RELEASE  -
|  1> !PBE D3BJ RIJCOSX def2-SVPD def2/J TightSCF
|  2> *xyz 0 1
|  3> C          4.36645       -0.13321       -1.41606
|  4> C          4.50829       -0.93187       -2.72425
|  5> H          4.75372       -1.97205       -2.48841
|  6> C          3.29416       -0.91821       -3.65657
|  7> H          5.38564       -0.53624       -3.24264
|  8> C          3.05650       -0.32080       -0.70738
|  9> N          2.38983        0.71129       -0.24391
| 10> C          2.51600       -1.50772       -0.55023
| 11> H          2.96768       -2.32291       -0.95631
| 12> H          1.54987       -1.49063       -0.24988
| 13> H          2.74307        1.64947       -0.41280
| 14> H          1.44036        0.50278        0.03703
| 15> H          4.48784        0.93300       -1.61157
| 16> H          5.16967       -0.41443       -0.72982
| 17> H          3.50670       -1.50229       -4.52754
| 18> H          3.07837        0.08892       -3.94644
| 19> H          2.44880       -1.33173       -3.14739
| 20> *
| 21>
| 22> %MaxCore 64000
| 23>
| 24> %pal nprocs 4
| 25> end
| 26>
| 27> %scf
| 28>   MaxIter 150
| 29> end
| 30>
| 31>
| 32>                          ****END OF INPUT****

CARTESIAN COORDINATES (ANGSTROEM)
---------------------------------
  C      4.366450   -0.133210   -1.416060
  C      4.508290   -0.931870   -2.724250
  H      4.753720   -1.972050   -2.488410
  C      3.294160   -0.918210   -3.656570
  H      5.385640   -0.536240   -3.242640
  C      3.056500   -0.320800   -0.707380
  N      2.389830    0.711290   -0.243910
  C      2.516000   -1.507720   -0.550230
  H      2.967680   -2.322910   -0.956310
  H      1.549870   -1.490630   -0.249880
  H      2.743070    1.649470   -0.412800
  H      1.440360    0.502780    0.037030
  H      4.487840    0.933000   -1.611570
  H      5.169670   -0.414430   -0.729820
  H      3.506700   -1.502290   -4.527540
  H      3.078370    0.088920   -3.946440
  H      2.448800   -1.331730   -3.147390

 Total Charge           Charge          ....    0
 Multiplicity           Mult            ....    1
 Number of Electrons    NEL             ....   48
 Basis Dimension        Dim             ....  208

ORBITAL ENERGIES
----------------

  NO   OCC          E(Eh)            E(eV)
   0   2.0000     -14.002180      -381.0187
   1   2.0000      -9.909948      -269.6634
   2   2.0000      -9.897742      -269.3313
   3   2.0000      -9.893581      -269.2180
   4   2.0000      -9.871537      -268.6182
   5   2.0000      -9.826908      -267.4038
   6   2.0000      -0.847401       -23.0590
   7   2.0000      -0.714790       -19.4504
   8   2.0000      -0.650207       -17.6930
   9   2.0000      -0.618345       -16.8260
  10   2.0000      -0.543395       -14.7865
  11   2.0000      -0.494373       -13.4526
  12   2.0000      -0.476070       -12.9545
  13   2.0000      -0.431290       -11.7360
  14   2.0000      -0.405463       -11.0332
  15   2.0000      -0.382013       -10.3951
  16   2.0000      -0.358715        -9.7611
  17   2.0000      -0.345188        -9.3931
  18   2.0000      -0.326483        -8.8840
  19   2.0000      -0.317695        -8.6449
  20   2.0000      -0.296116        -8.0577
  21   2.0000      -0.283980        -7.7275
  22   2.0000      -0.282202        -7.6791
  23   2.0000      -0.157492        -4.2856
  24   0.0000      -0.001222        -0.0332
  25   0.0000       0.004249         0.1156
  26   0.0000       0.023654         0.6437
  27   0.0000       0.034324         0.9340
  28   0.0000       0.046396         1.2625

MULLIKEN ATOMIC CHARGES
-----------------------
   0 C :    0.556879
   1 C :   -0.459544
   2 H :    0.018036
   3 C :    0.765889
   4 H :   -0.207889
   5 C :   -0.280613
   6 N :    0.226264
   7 C :    0.517081
   8 H :   -0.102811
   9 H :   -0.534268
  10 H :   -0.159843
  11 H :   -0.095969
  12 H :    0.042002
  13 H :   -0.110340
  14 H :   -0.081215
  15 H :   -0.041954
  16 H :   -0.051705
Sum of atomic charges:   -0.0000000

LOEWDIN ATOMIC CHARGES
----------------------
   0 C :    0.012183
   1 C :   -0.069727
   2 H :    0.017218
   3 C :    0.126905
   4 H :    0.016151
   5 C :   -0.265722
   6 N :    0.180900
   7 C :    0.168236
   8 H :   -0.073393
   9 H :   -0.083058
  10 H :   -0.000385
  11 H :    0.002812
  12 H :    0.011712
  13 H :    0.029061
  14 H :   -0.019565
  15 H :   -0.017666
  16 H :   -0.035662

  Mayer bond orders larger than 0.100000
B(  0-C ,  1-C ) :   1.2550 B(  0-C ,  2-H ) :   0.1213 B(  0-C ,  4-H ) :   0.1799
B(  0-C ,  5-C ) :   1.0724 B(  0-C , 12-H ) :   0.6122 B(  0-C , 13-H ) :   0.7634
B(  1-C ,  2-H ) :   0.8576 B(  1-C ,  3-C ) :   1.3957 B(  1-C ,  4-H ) :   0.9284
B(  1-C , 12-H ) :   0.1457 B(  1-C , 13-H ) :   0.1462 B(  1-C , 14-H ) :   0.2502
B(  1-C , 15-H ) :   0.2355 B(  1-C , 16-H ) :   0.2476 B(  3-C , 14-H ) :   0.7112
B(  3-C , 15-H ) :   0.7726 B(  3-C , 16-H ) :   0.8100 B(  5-C ,  6-N ) :   1.1581
B(  5-C ,  7-C ) :   1.8554 B(  5-C ,  8-H ) :   0.1684 B(  5-C ,  9-H ) :   0.3122
B(  5-C , 12-H ) :   0.2282 B(  5-C , 13-H ) :   0.1617 B(  6-N ,  7-C ) :   0.3137
B(  6-N , 10-H ) :   1.1532 B(  6-N , 11-H ) :   1.1049 B(  7-C ,  8-H ) :   0.7106
B(  7-C ,  9-H ) :   0.6995 B(  8-H ,  9-H ) :  -0.1180 B( 10-H , 11-H ) :  -0.1259

Dispersion correction           -0.014285630
FINAL SINGLE POINT ENERGY      -251.364005361048

DIPOLE MOMENT
-------------
                                X             Y             Z
Electronic contribution:     -0.76236       1.58088       3.60705
Nuclear contribution   :      0.73787      -0.87128      -3.75926
                        -----------------------------------------
Total Dipole Moment    :     -0.02449       0.70960      -0.15221
                        -----------------------------------------
Magnitude (a.u.)       :      0.72615
Magnitude (Debye)      :      1.84574

Rotational constants in cm-1:     0.191039     0.078358     0.072723
Rotational constants in MHz :  5727.202281  2349.118247  2180.181745

                             ****ORCA TERMINATED NORMALLY****
TOTAL RUN TIME: 0 days 0 hours 0 minutes 8 seconds 905 msec
