                         Program Version 5.0.0 -  RELEASE  -
|  1> !PBE D3BJ RIJCOSX def2-SVPD def2/J TightSCF xyzfile
|  2>
|  3> *xyzfile 0 1 D1.xyz
|  4>
|  5> %MaxCore 64000
|  6>
|  7> %pal nprocs 4
|  8> end
|  9>
| 10> %scf
| 11>   MaxIter 150
| 12> end
| 13>
| 14>
| 15>                          ****END OF INPUT****

CARTESIAN COORDINATES (ANGSTROEM)
---------------------------------
  C      4.366454   -0.133215   -1.416062
  C      4.508292   -0.931872   -2.724249
  H      4.753716   -1.972051   -2.488408
  C      3.294164   -0.918214   -3.656570
  H      5.385637   -0.536236   -3.242640
  H      2.483463   -1.477378   -3.185764
  H      3.553092   -1.478495   -4.560331
  C      2.772335    0.460100   -4.051448
  H      2.608762    1.065107   -3.155194
  C      1.465354    0.410537   -4.853644
  H      3.532940    0.988848   -4.635671
  C      0.326171   -0.375613   -4.192580
  H      1.666704   -0.022269   -5.839323
  H      1.138198    1.439246   -5.035449
  C     -0.017405    0.080588   -2.778406
  H      0.585573   -1.439385   -4.168057
  H     -0.560005   -0.311425   -4.831461
  H      0.902090    0.201296   -2.206729
  C     -0.903495   -0.873945   -1.987388
  H     -0.479549    1.074657   -2.811915
  H     -0.502554   -1.892096   -2.081204
  H     -1.917039   -0.895427   -2.406277
  C     -0.960148   -0.522365   -0.489867
  H     -1.690392   -1.208130   -0.021677
  H     -1.414490    0.486329   -0.406677
  F      0.261703   -0.580307    0.138611
  C      3.056503   -0.320797   -0.707384
  C      2.389825    0.711285   -0.243909
  N      2.515999   -1.507721   -0.550229
  H      2.967683   -2.322915   -0.956305
  H      1.549872   -1.490634   -0.249876
  H      2.743071    1.649471   -0.412802
  H      1.440364    0.502778    0.037031
  H      4.487835    0.932997   -1.611569
  H      5.169672   -0.414432   -0.729817

 Total Charge           Charge          ....    0
 Multiplicity           Mult            ....    1
 Number of Electrons    NEL             ....  104
 Basis Dimension        Dim             ....  439

ORBITAL ENERGIES
----------------

  NO   OCC          E(Eh)            E(eV)
   0   2.0000     -24.296326      -661.1366
   1   2.0000     -13.978753      -380.3812
   2   2.0000      -9.985827      -271.7282
   3   2.0000      -9.909205      -269.6432
   4   2.0000      -9.894629      -269.2466
   5   2.0000      -9.889992      -269.1204
   6   2.0000      -9.889791      -269.1149
   7   2.0000      -9.887794      -269.0606
   8   2.0000      -9.887330      -269.0479
   9   2.0000      -9.884473      -268.9702
  10   2.0000      -9.883181      -268.9350
  11   2.0000      -9.881248      -268.8824
  12   2.0000      -9.804872      -266.8041
  13   2.0000      -1.123487       -30.5716
  14   2.0000      -0.830512       -22.5994
  15   2.0000      -0.739354       -20.1188
  16   2.0000      -0.718542       -19.5525
  17   2.0000      -0.694168       -18.8893
  18   2.0000      -0.658253       -17.9120
  19   2.0000      -0.632948       -17.2234
  20   2.0000      -0.615366       -16.7449
  21   2.0000      -0.570843       -15.5334
  22   2.0000      -0.552717       -15.0402
  23   2.0000      -0.523432       -14.2433
  24   2.0000      -0.499632       -13.5957
  25   2.0000      -0.485393       -13.2082
  26   2.0000      -0.480935       -13.0869
  27   2.0000      -0.472124       -12.8472
  28   2.0000      -0.458225       -12.4689
  29   2.0000      -0.436396       -11.8749
  30   2.0000      -0.421122       -11.4593
  31   2.0000      -0.411129       -11.1874
  32   2.0000      -0.395731       -10.7684
  33   2.0000      -0.391052       -10.6411
  34   2.0000      -0.381815       -10.3897
  35   2.0000      -0.376306       -10.2398
  36   2.0000      -0.351595        -9.5674
  37   2.0000      -0.344745        -9.3810
  38   2.0000      -0.336069        -9.1449
  39   2.0000      -0.329371        -8.9626
  40   2.0000      -0.323113        -8.7924
  41   2.0000      -0.312722        -8.5096
  42   2.0000      -0.306784        -8.3480
  43   2.0000      -0.301511        -8.2045
  44   2.0000      -0.296743        -8.0748
  45   2.0000      -0.290337        -7.9005
  46   2.0000      -0.274919        -7.4809
  47   2.0000      -0.271586        -7.3902
  48   2.0000      -0.266633        -7.2555
  49   2.0000      -0.263865        -7.1801
  50   2.0000      -0.259013        -7.0481
  51   2.0000      -0.144074        -3.9205
  52   0.0000      -0.003889        -0.1058
  53   0.0000       0.004900         0.1333
  54   0.0000       0.013550         0.3687
  55   0.0000       0.015212         0.4140
  56   0.0000       0.021801         0.5932

MULLIKEN ATOMIC CHARGES
-----------------------
   0 C :    0.485968
   1 C :    0.531093
   2 H :   -0.001556
   3 C :   -0.154384
   4 H :   -0.144049
   5 H :    0.054238
   6 H :   -0.207483
   7 C :   -0.108071
   8 H :    0.182481
   9 C :    0.711783
  10 H :   -0.396524
  11 C :    0.043852
  12 H :   -0.020077
  13 H :   -0.002036
  14 C :    0.326909
  15 H :    0.188686
  16 H :   -0.452823
  17 H :   -0.686566
  18 C :    0.020129
  19 H :   -0.003582
  20 H :    0.009726
  21 H :   -0.178668
  22 C :    1.107151
  23 H :   -0.147310
  24 H :   -0.026048
  25 F :   -0.771989
  26 C :   -0.680778
  27 C :    0.678629
  28 N :    0.535434
  29 H :   -0.131615
  30 H :   -0.326594
  31 H :   -0.266019
  32 H :   -0.229335
  33 H :    0.405943
  34 H :   -0.346515
Sum of atomic charges:   -0.0000000

LOEWDIN ATOMIC CHARGES
----------------------
   0 C :    0.018556
   1 C :   -0.026264
   2 H :    0.012856
   3 C :   -0.033222
   4 H :    0.019394
   5 H :   -0.010471
   6 H :    0.026446
   7 C :   -0.028943
   8 H :    0.005929
   9 C :   -0.027578
  10 H :    0.024826
  11 C :   -0.036866
  12 H :    0.021167
  13 H :    0.022216
  14 C :   -0.028757
  15 H :    0.011856
  16 H :    0.020891
  17 H :   -0.024134
  18 C :   -0.017137
  19 H :    0.038777
  20 H :    0.027566
  21 H :    0.034201
  22 C :    0.153408
  23 H :    0.033487
  24 H :    0.043638
  25 F :   -0.200416
  26 C :   -0.251327
  27 C :    0.183951
  28 N :    0.213530
  29 H :    0.001109
  30 H :   -0.065678
  31 H :   -0.072060
  32 H :   -0.134753
  33 H :    0.020167
  34 H :    0.023636

  Mayer bond orders larger than 0.100000
B(  0-C ,  1-C ) :   1.2198 B(  0-C ,  2-H ) :   0.1641 B(  0-C ,  4-H ) :   0.2386
B(  0-C , 26-C ) :   1.1874 B(  0-C , 27-C ) :   0.1366 B(  0-C , 31-H ) :  -0.1303
B(  0-C , 33-H ) :   0.7357 B(  0-C , 34-H ) :   0.5676 B(  1-C ,  2-H ) :   0.5784
B(  1-C ,  3-C ) :   1.2842 B(  1-C ,  4-H ) :   0.7058 B(  1-C ,  5-H ) :   0.1074
B(  1-C ,  6-H ) :   0.1053 B(  1-C , 26-C ) :   0.2297 B(  1-C , 33-H ) :   0.1462
B(  2-H ,  3-C ) :   0.3077 B(  2-H ,  4-H ) :  -0.1628 B(  3-C ,  4-H ) :   0.2049
B(  3-C ,  5-H ) :   0.8111 B(  3-C ,  6-H ) :   0.8445 B(  3-C ,  7-C ) :   1.2950
B(  3-C ,  8-H ) :   0.1265 B(  3-C , 10-H ) :   0.1897 B(  5-H ,  7-C ) :   0.1383
B(  5-H , 15-H ) :   0.1714 B(  5-H , 16-H ) :  -0.1144 B(  6-H ,  7-C ) :   0.1483
B(  7-C ,  8-H ) :   0.8179 B(  7-C ,  9-C ) :   1.1395 B(  7-C , 10-H ) :   0.9634
B(  7-C , 11-C ) :   0.1842 B(  7-C , 12-H ) :   0.1320 B(  7-C , 13-H ) :   0.2680
B(  8-H , 17-H ) :   0.1788 B(  9-C , 11-C ) :   1.1461 B(  9-C , 12-H ) :   0.6887
B(  9-C , 13-H ) :   0.6253 B( 11-C , 12-H ) :   0.2017 B( 11-C , 13-H ) :   0.1571
B( 11-C , 14-C ) :   1.2010 B( 11-C , 15-H ) :   0.7780 B( 11-C , 16-H ) :   0.9873
B( 11-C , 17-H ) :   0.1723 B( 11-C , 19-H ) :   0.1283 B( 12-H , 13-H ) :  -0.1186
B( 14-C , 15-H ) :   0.1587 B( 14-C , 16-H ) :   0.2634 B( 14-C , 17-H ) :   0.5887
B( 14-C , 18-C ) :   1.2002 B( 14-C , 19-H ) :   0.6450 B( 14-C , 20-H ) :   0.1376
B( 14-C , 21-H ) :   0.2645 B( 14-C , 22-C ) :   0.1143 B( 14-C , 27-C ) :   0.2158
B( 15-H , 16-H ) :  -0.1063 B( 17-H , 18-C ) :   0.1641 B( 17-H , 19-H ) :   0.2437
B( 17-H , 26-C ) :   0.1316 B( 17-H , 27-C ) :  -0.1620 B( 17-H , 32-H ) :   0.1634
B( 18-C , 19-H ) :   0.1215 B( 18-C , 20-H ) :   0.8984 B( 18-C , 21-H ) :   0.8132
B( 18-C , 22-C ) :   1.1500 B( 18-C , 23-H ) :   0.2281 B( 18-C , 24-H ) :   0.1305
B( 18-C , 25-F ) :   0.1491 B( 22-C , 23-H ) :   0.6954 B( 22-C , 24-H ) :   0.7703
B( 22-C , 25-F ) :   0.6734 B( 24-H , 25-F ) :   0.1610 B( 25-F , 26-C ) :   0.1134
B( 25-F , 27-C ) :  -0.1100 B( 25-F , 30-H ) :   0.1499 B( 25-F , 32-H ) :   0.1429
B( 26-C , 27-C ) :   2.0379 B( 26-C , 28-N ) :   1.0180 B( 26-C , 31-H ) :   0.2111
B( 26-C , 32-H ) :   0.6227 B( 26-C , 34-H ) :   0.4289 B( 27-C , 28-N ) :   0.4192
B( 27-C , 31-H ) :   0.9860 B( 28-N , 29-H ) :   1.0873 B( 28-N , 30-H ) :   1.0630
B( 28-N , 31-H ) :   0.1425 B( 29-H , 30-H ) :  -0.2369 B( 31-H , 32-H ) :  -0.2043
B( 33-H , 34-H ) :  -0.1307

Dispersion correction           -0.039649771
FINAL SINGLE POINT ENERGY      -585.828899226874

DIPOLE MOMENT
-------------
                                X             Y             Z
Electronic contribution:     -2.67740      -1.61118      10.49195
Nuclear contribution   :      1.82572       1.04089     -11.09065
                        -----------------------------------------
Total Dipole Moment    :     -0.85168      -0.57028      -0.59870
                        -----------------------------------------
Magnitude (a.u.)       :      1.18702
Magnitude (Debye)      :      3.01718

Rotational constants in cm-1:     0.028436     0.022359     0.014416
Rotational constants in MHz :   852.496561   670.291843   432.183951

                             ****ORCA TERMINATED NORMALLY****
TOTAL RUN TIME: 0 days 0 hours 0 minutes 45 seconds 857 msec
