                         Program Version 5.0.0 -  RELEASE  -
|  1> !PBE0 D3BJ RIJCOSX def2-SVPD def2/J TightSCF
|  2> *xyz -1 1
|  3> C          0.70466        1.44313       -4.50363
|  4> C          1.72854        1.42432       -5.63944
|  5> H          2.64672        1.95379       -5.38105
|  6> H          1.29992        1.93061       -6.50361
|  7> S          2.25263       -0.18811       -6.27184
|  8> O          3.56261       -0.44446       -5.63155
|  9> O          2.34494       -0.03374       -7.69650
| 10> O          1.26606       -1.15918       -5.80536
| 11> H         -0.17385        0.91270       -4.80656
| 12> H          0.44778        2.45562       -4.27173
| 13> H          1.12367        0.97423       -3.63791
| 14> *
| 15>
| 16> %MaxCore 64000
| 17>
| 18> %pal nprocs 4
| 19> end
| 20>
| 21> %scf
| 22>   MaxIter 150
| 23> end
| 24>
| 25>
| 26>                          ****END OF INPUT****

CARTESIAN COORDINATES (ANGSTROEM)
---------------------------------
  C      0.704660    1.443130   -4.503630
  C      1.728540    1.424320   -5.639440
  H      2.646720    1.953790   -5.381050
  H      1.299920    1.930610   -6.503610
  S      2.252630   -0.188110   -6.271840
  O      3.562610   -0.444460   -5.631550
  O      2.344940   -0.033740   -7.696500
  O      1.266060   -1.159180   -5.805360
  H     -0.173850    0.912700   -4.806560
  H      0.447780    2.455620   -4.271730
  H      1.123670    0.974230   -3.637910

 Total Charge           Charge          ....   -1
 Multiplicity           Mult            ....    1
 Number of Electrons    NEL             ....   58
 Basis Dimension        Dim             ....  176

ORBITAL ENERGIES
----------------

  NO   OCC          E(Eh)            E(eV)
   0   2.0000     -89.036595     -2422.8089
   1   2.0000     -18.999951      -517.0149
   2   2.0000     -18.993018      -516.8263
   3   2.0000     -18.984471      -516.5937
   4   2.0000     -10.096880      -274.7501
   5   2.0000     -10.093176      -274.6493
   6   2.0000      -7.996132      -217.5858
   7   2.0000      -5.938359      -161.5910
   8   2.0000      -5.938238      -161.5877
   9   2.0000      -5.937826      -161.5765
  10   2.0000      -0.957159       -26.0456
  11   2.0000      -0.816931       -22.2298
  12   2.0000      -0.793059       -21.5802
  13   2.0000      -0.651567       -17.7300
  14   2.0000      -0.525618       -14.3028
  15   2.0000      -0.398746       -10.8504
  16   2.0000      -0.334799        -9.1104
  17   2.0000      -0.332454        -9.0465
  18   2.0000      -0.294411        -8.0113
  19   2.0000      -0.277762        -7.5583
  20   2.0000      -0.276246        -7.5170
  21   2.0000      -0.243121        -6.6156
  22   2.0000      -0.232976        -6.3396
  23   2.0000      -0.165418        -4.5013
  24   2.0000      -0.164078        -4.4648
  25   2.0000      -0.128900        -3.5075
  26   2.0000      -0.121417        -3.3039
  27   2.0000      -0.112259        -3.0547
  28   2.0000      -0.077052        -2.0967
  29   0.0000       0.146625         3.9899
  30   0.0000       0.176141         4.7930
  31   0.0000       0.183501         4.9933
  32   0.0000       0.189060         5.1446
  33   0.0000       0.209937         5.7127

MULLIKEN ATOMIC CHARGES
-----------------------
   0 C :    0.583657
   1 C :   -0.503166
   2 H :    0.027146
   3 H :    0.076086
   4 S :    1.416766
   5 O :   -0.865649
   6 O :   -0.812302
   7 O :   -0.854731
   8 H :    0.010563
   9 H :   -0.068733
  10 H :   -0.009636
Sum of atomic charges:   -1.0000000

LOEWDIN ATOMIC CHARGES
----------------------
   0 C :    0.094353
   1 C :   -0.126678
   2 H :    0.001635
   3 H :   -0.006225
   4 S :    0.875651
   5 O :   -0.606759
   6 O :   -0.579161
   7 O :   -0.585622
   8 H :   -0.020610
   9 H :   -0.032581
  10 H :   -0.014002

  Mayer bond orders larger than 0.100000
B(  0-C ,  1-C ) :   1.3132 B(  0-C ,  8-H ) :   0.8354 B(  0-C ,  9-H ) :   0.8060
B(  0-C , 10-H ) :   0.8476 B(  1-C ,  2-H ) :   0.9934 B(  1-C ,  3-H ) :   0.9758
B(  1-C ,  4-S ) :   0.8964 B(  1-C ,  8-H ) :   0.1867 B(  1-C ,  9-H ) :   0.1840
B(  1-C , 10-H ) :   0.1698 B(  4-S ,  5-O ) :   1.2527 B(  4-S ,  6-O ) :   1.3123
B(  4-S ,  7-O ) :   1.2608

Dispersion correction           -0.008177682
FINAL SINGLE POINT ENERGY      -702.316331802851

DIPOLE MOMENT
-------------
                                X             Y             Z
Electronic contribution:      3.62364      -5.57104      -4.27729
Nuclear contribution   :     -4.50297       7.24642       5.01775
                        -----------------------------------------
Total Dipole Moment    :     -0.87933       1.67538       0.74046
                        -----------------------------------------
Magnitude (a.u.)       :      2.03184
Magnitude (Debye)      :      5.16454

Rotational constants in cm-1:     0.162459     0.081286     0.079601
Rotational constants in MHz :  4870.394399  2436.893583  2386.374948

                             ****ORCA TERMINATED NORMALLY****
TOTAL RUN TIME: 0 days 0 hours 0 minutes 22 seconds 798 msec
