                         Program Version 5.0.0 -  RELEASE  -
|  1> !PBE0 D3BJ RIJCOSX def2-SVPD def2/J TightSCF
|  2> *xyz 1 1
|  3> C          2.91632       -1.24259       -1.54313
|  4> C          3.46659       -1.59097       -2.88908
|  5> N          4.65227       -1.14316       -3.25969
|  6> N          2.75226       -2.29204       -3.72803
|  7> H          1.77836       -2.48960       -3.51274
|  8> H          2.94861       -2.20854       -4.71681
|  9> H          5.14672       -0.51251       -2.63385
| 10> H          4.78303       -1.00720       -4.25350
| 11> C          2.80408        0.29070       -1.35924
| 12> H          1.94047       -1.71653       -1.44116
| 13> H          3.55857       -1.66343       -0.76637
| 14> H          2.17393        0.69633       -2.12297
| 15> H          3.77707        0.73043       -1.42880
| 16> H          2.38369        0.50492       -0.39889
| 17> *
| 18>
| 19> %MaxCore 64000
| 20>
| 21> %pal nprocs 4
| 22> end
| 23>
| 24> %scf
| 25>   MaxIter 150
| 26> end
| 27>
| 28>
| 29>                          ****END OF INPUT****

CARTESIAN COORDINATES (ANGSTROEM)
---------------------------------
  C      2.916320   -1.242590   -1.543130
  C      3.466590   -1.590970   -2.889080
  N      4.652270   -1.143160   -3.259690
  N      2.752260   -2.292040   -3.728030
  H      1.778360   -2.489600   -3.512740
  H      2.948610   -2.208540   -4.716810
  H      5.146720   -0.512510   -2.633850
  H      4.783030   -1.007200   -4.253500
  C      2.804080    0.290700   -1.359240
  H      1.940470   -1.716530   -1.441160
  H      3.558570   -1.663430   -0.766370
  H      2.173930    0.696330   -2.122970
  H      3.777070    0.730430   -1.428800
  H      2.383690    0.504920   -0.398890

 Total Charge           Charge          ....    1
 Multiplicity           Mult            ....    1
 Number of Electrons    NEL             ....   40
 Basis Dimension        Dim             ....  172

ORBITAL ENERGIES
----------------

  NO   OCC          E(Eh)            E(eV)
   0   2.0000     -14.646706      -398.5571
   1   2.0000     -14.641308      -398.4103
   2   2.0000     -10.558870      -287.3215
   3   2.0000     -10.436787      -283.9994
   4   2.0000     -10.396674      -282.9079
   5   2.0000      -1.232196       -33.5298
   6   2.0000      -1.130511       -30.7628
   7   2.0000      -0.989939       -26.9376
   8   2.0000      -0.881272       -23.9806
   9   2.0000      -0.835377       -22.7318
  10   2.0000      -0.788923       -21.4677
  11   2.0000      -0.769271       -20.9329
  12   2.0000      -0.716265       -19.4906
  13   2.0000      -0.681312       -18.5394
  14   2.0000      -0.641047       -17.4438
  15   2.0000      -0.616414       -16.7735
  16   2.0000      -0.568296       -15.4641
  17   2.0000      -0.556928       -15.1548
  18   2.0000      -0.543802       -14.7976
  19   2.0000      -0.513343       -13.9688
  20   0.0000      -0.219060        -5.9609
  21   0.0000      -0.152831        -4.1587
  22   0.0000      -0.110051        -2.9946
  23   0.0000      -0.108501        -2.9525
  24   0.0000      -0.076996        -2.0952

MULLIKEN ATOMIC CHARGES
-----------------------
   0 C :   -0.351376
   1 C :    0.665170
   2 N :   -0.021697
   3 N :   -0.055924
   4 H :    0.064582
   5 H :   -0.065847
   6 H :    0.062121
   7 H :   -0.036804
   8 C :    0.536960
   9 H :    0.091553
  10 H :    0.105183
  11 H :   -0.010099
  12 H :   -0.042223
  13 H :    0.058401
Sum of atomic charges:    1.0000000

LOEWDIN ATOMIC CHARGES
----------------------
   0 C :    0.017392
   1 C :   -0.047938
   2 N :    0.283162
   3 N :    0.280197
   4 H :    0.057463
   5 H :    0.050271
   6 H :    0.047850
   7 H :    0.048135
   8 C :    0.172730
   9 H :    0.036943
  10 H :    0.056400
  11 H :    0.002204
  12 H :   -0.015457
  13 H :    0.010647

  Mayer bond orders larger than 0.100000
B(  0-C ,  1-C ) :   1.2253 B(  0-C ,  8-C ) :   1.2768 B(  0-C ,  9-H ) :   0.8979
B(  0-C , 10-H ) :   0.8464 B(  0-C , 11-H ) :   0.1360 B(  0-C , 12-H ) :   0.1564
B(  0-C , 13-H ) :   0.1270 B(  1-C ,  2-N ) :   1.0480 B(  1-C ,  3-N ) :   1.0368
B(  1-C ,  5-H ) :  -0.1210 B(  1-C ,  9-H ) :   0.1247 B(  1-C , 10-H ) :   0.1296
B(  2-N ,  3-N ) :   0.1763 B(  2-N ,  6-H ) :   0.9876 B(  2-N ,  7-H ) :   1.1949
B(  3-N ,  4-H ) :   1.0362 B(  3-N ,  5-H ) :   1.2086 B(  4-H ,  5-H ) :  -0.1283
B(  6-H ,  7-H ) :  -0.1225 B(  8-C , 11-H ) :   0.8576 B(  8-C , 12-H ) :   0.8409
B(  8-C , 13-H ) :   0.8671

Dispersion correction           -0.008578627
FINAL SINGLE POINT ENERGY      -228.611987449930

DIPOLE MOMENT
-------------
                                X             Y             Z
Electronic contribution:      1.31251      -2.85288      -2.77643
Nuclear contribution   :     -1.30215       2.77761       1.84194
                        -----------------------------------------
Total Dipole Moment    :      0.01036      -0.07527      -0.93450
                        -----------------------------------------
Magnitude (a.u.)       :      0.93758
Magnitude (Debye)      :      2.38315

Rotational constants in cm-1:     0.267442     0.127541     0.099068
Rotational constants in MHz :  8017.703171  3823.592522  2969.992494

                             ****ORCA TERMINATED NORMALLY****
TOTAL RUN TIME: 0 days 0 hours 0 minutes 21 seconds 462 msec
