                         Program Version 5.0.0 -  RELEASE  -
|  1> !PBE0 D3BJ RIJCOSX def2-SVPD def2/J TightSCF xyzfile
|  2>
|  3> *xyzfile 0 1 B.xyz
|  4>
|  5> %MaxCore 64000
|  6>
|  7> %pal nprocs 4
|  8> end
|  9>
| 10> %scf
| 11>   MaxIter 150
| 12> end
| 13>
| 14>
| 15>                          ****END OF INPUT****

CARTESIAN COORDINATES (ANGSTROEM)
---------------------------------
  C      2.916324   -1.242589   -1.543125
  C      0.704661    1.443129   -4.503630
  C      1.728539    1.424320   -5.639443
  H      2.646718    1.953794   -5.381054
  H      1.299916    1.930613   -6.503614
  S      2.252625   -0.188115   -6.271840
  C      3.466585   -1.590971   -2.889082
  N      4.652275   -1.143164   -3.259692
  N      2.752264   -2.292043   -3.728029
  H      1.778364   -2.489604   -3.512738
  H      2.948612   -2.208544   -4.716813
  H      5.146723   -0.512508   -2.633852
  H      4.783030   -1.007203   -4.253498
  O      3.562607   -0.444464   -5.631552
  O      2.344944   -0.033742   -7.696501
  C      2.804084    0.290698   -1.359243
  C      1.052550    0.695659   -3.214915
  H     -0.232483    1.032925   -4.884449
  H      0.511700    2.495794   -4.267966
  C      2.388380    1.093669   -2.597108
  H      3.763425    0.674718   -0.999889
  H      2.094788    0.461222   -0.545756
  O      1.266058   -1.159177   -5.805365
  H      3.167316    1.013242   -3.359430
  H      2.357690    2.149375   -2.310997
  H      1.039284   -0.368429   -3.449329
  H      0.250787    0.865605   -2.488283
  H      1.940472   -1.716529   -1.441161
  H      3.558569   -1.663433   -0.766371

 Total Charge           Charge          ....    0
 Multiplicity           Mult            ....    1
 Number of Electrons    NEL             ....  112
 Basis Dimension        Dim             ....  404

ORBITAL ENERGIES
----------------

  NO   OCC          E(Eh)            E(eV)
   0   2.0000     -89.193697     -2427.0839
   1   2.0000     -19.159007      -521.3431
   2   2.0000     -19.151526      -521.1395
   3   2.0000     -19.142424      -520.8918
   4   2.0000     -14.470674      -393.7671
   5   2.0000     -14.470094      -393.7513
   6   2.0000     -10.394021      -282.8357
   7   2.0000     -10.299188      -280.2552
   8   2.0000     -10.278879      -279.7025
   9   2.0000     -10.250168      -278.9213
  10   2.0000     -10.237529      -278.5773
  11   2.0000     -10.234038      -278.4823
  12   2.0000     -10.232144      -278.4308
  13   2.0000      -8.152064      -221.8289
  14   2.0000      -6.095063      -165.8551
  15   2.0000      -6.094127      -165.8296
  16   2.0000      -6.093196      -165.8043
  17   2.0000      -1.114995       -30.3406
  18   2.0000      -1.062100       -28.9012
  19   2.0000      -0.968666       -26.3587
  20   2.0000      -0.964260       -26.2389
  21   2.0000      -0.958677       -26.0869
  22   2.0000      -0.866228       -23.5713
  23   2.0000      -0.819882       -22.3101
  24   2.0000      -0.772447       -21.0193
  25   2.0000      -0.718921       -19.5628
  26   2.0000      -0.690282       -18.7835
  27   2.0000      -0.655896       -17.8478
  28   2.0000      -0.621355       -16.9079
  29   2.0000      -0.609624       -16.5887
  30   2.0000      -0.597593       -16.2613
  31   2.0000      -0.553923       -15.0730
  32   2.0000      -0.542424       -14.7601
  33   2.0000      -0.532159       -14.4808
  34   2.0000      -0.513095       -13.9620
  35   2.0000      -0.488865       -13.3027
  36   2.0000      -0.482616       -13.1326
  37   2.0000      -0.464546       -12.6409
  38   2.0000      -0.452967       -12.3259
  39   2.0000      -0.449236       -12.2243
  40   2.0000      -0.443530       -12.0691
  41   2.0000      -0.432143       -11.7592
  42   2.0000      -0.423577       -11.5261
  43   2.0000      -0.401207       -10.9174
  44   2.0000      -0.392727       -10.6866
  45   2.0000      -0.388299       -10.5661
  46   2.0000      -0.360373        -9.8062
  47   2.0000      -0.354412        -9.6440
  48   2.0000      -0.341134        -9.2827
  49   2.0000      -0.339099        -9.2274
  50   2.0000      -0.322140        -8.7659
  51   2.0000      -0.318801        -8.6750
  52   2.0000      -0.282763        -7.6944
  53   2.0000      -0.276871        -7.5341
  54   2.0000      -0.267470        -7.2782
  55   2.0000      -0.240219        -6.5367
  56   0.0000      -0.056587        -1.5398
  57   0.0000      -0.011610        -0.3159
  58   0.0000       0.012943         0.3522
  59   0.0000       0.029012         0.7895
  60   0.0000       0.033181         0.9029

MULLIKEN ATOMIC CHARGES
-----------------------
   0 C :    0.273252
   1 C :    0.357140
   2 C :   -0.008784
   3 H :    0.168935
   4 H :   -0.120619
   5 S :    1.465568
   6 C :    0.516518
   7 N :    0.082105
   8 N :    0.124308
   9 H :    0.072615
  10 H :   -0.136337
  11 H :    0.058214
  12 H :   -0.191563
  13 O :   -0.893512
  14 O :   -0.816399
  15 C :    0.270876
  16 C :    0.023609
  17 H :    0.087091
  18 H :   -0.014937
  19 C :   -0.198555
  20 H :    0.045145
  21 H :   -0.052437
  22 O :   -0.911186
  23 H :    0.103809
  24 H :   -0.124812
  25 H :   -0.210839
  26 H :   -0.020938
  27 H :    0.187156
  28 H :   -0.135422
Sum of atomic charges:    0.0000000

LOEWDIN ATOMIC CHARGES
----------------------
   0 C :    0.048488
   1 C :   -0.034748
   2 C :   -0.057040
   3 H :    0.008012
   4 H :    0.012480
   5 S :    0.944507
   6 C :   -0.061629
   7 N :    0.285349
   8 N :    0.299327
   9 H :    0.041294
  10 H :   -0.022521
  11 H :    0.039996
  12 H :   -0.032748
  13 O :   -0.573468
  14 O :   -0.515707
  15 C :   -0.008390
  16 C :   -0.024274
  17 H :    0.031931
  18 H :    0.027735
  19 C :   -0.024909
  20 H :    0.020091
  21 H :    0.029297
  22 O :   -0.550124
  23 H :    0.000448
  24 H :    0.034169
  25 H :   -0.016513
  26 H :    0.031168
  27 H :    0.029417
  28 H :    0.038363

  Mayer bond orders larger than 0.100000
B(  0-C ,  6-C ) :   1.1561 B(  0-C , 15-C ) :   1.1866 B(  0-C , 27-H ) :   0.7506
B(  0-C , 28-H ) :   0.7677 B(  1-C ,  2-C ) :   1.2594 B(  1-C ,  4-H ) :   0.1876
B(  1-C , 16-C ) :   1.2795 B(  1-C , 17-H ) :   0.6985 B(  1-C , 18-H ) :   0.7750
B(  2-C ,  3-H ) :   0.8730 B(  2-C ,  4-H ) :   0.9222 B(  2-C ,  5-S ) :   0.9262
B(  2-C , 14-O ) :   0.1129 B(  2-C , 17-H ) :   0.1184 B(  2-C , 18-H ) :   0.1474
B(  5-S , 13-O ) :   1.1011 B(  5-S , 14-O ) :   1.3433 B(  5-S , 22-O ) :   1.1845
B(  6-C ,  7-N ) :   0.9812 B(  6-C ,  8-N ) :   1.0945 B(  6-C , 27-H ) :   0.1508
B(  6-C , 28-H ) :   0.2309 B(  7-N ,  8-N ) :   0.1810 B(  7-N , 11-H ) :   1.0032
B(  7-N , 12-H ) :   1.1191 B(  8-N ,  9-H ) :   0.9673 B(  8-N , 10-H ) :   1.1065
B(  9-H , 10-H ) :  -0.1283 B( 10-H , 13-O ) :   0.1224 B( 11-H , 12-H ) :  -0.1467
B( 12-H , 13-O ) :   0.1507 B( 15-C , 19-C ) :   1.2772 B( 15-C , 20-H ) :   0.7346
B( 15-C , 21-H ) :   0.8679 B( 15-C , 23-H ) :   0.1171 B( 15-C , 27-H ) :   0.1062
B( 16-C , 17-H ) :   0.2355 B( 16-C , 19-C ) :   1.2784 B( 16-C , 23-H ) :   0.1190
B( 16-C , 24-H ) :   0.1674 B( 16-C , 25-H ) :   0.9607 B( 16-C , 26-H ) :   0.7425
B( 19-C , 20-H ) :   0.2171 B( 19-C , 21-H ) :   0.1551 B( 19-C , 23-H ) :   0.8615
B( 19-C , 24-H ) :   0.8746 B( 19-C , 26-H ) :   0.1982 B( 20-H , 21-H ) :  -0.1036

Dispersion correction           -0.032333475
FINAL SINGLE POINT ENERGY     -1008.396873286348

DIPOLE MOMENT
-------------
                                X             Y             Z
Electronic contribution:      2.74814      -6.25655     -13.29662
Nuclear contribution   :     -1.90023       6.18953      17.82209
                        -----------------------------------------
Total Dipole Moment    :      0.84791      -0.06702       4.52547
                        -----------------------------------------
Magnitude (a.u.)       :      4.60471
Magnitude (Debye)      :     11.70424

Rotational constants in cm-1:     0.036337     0.018755     0.015005
Rotational constants in MHz :  1089.341704   562.266628   449.834770

                             ****ORCA TERMINATED NORMALLY****
TOTAL RUN TIME: 0 days 0 hours 2 minutes 17 seconds 276 msec
