                         Program Version 5.0.0 -  RELEASE  -
|  1> !PBE0 D3BJ RIJCOSX def2-SVPD def2/J TightSCF
|  2> *xyz 0 1
|  3> C          0.70466        1.44313       -4.50363
|  4> C          1.72854        1.42432       -5.63944
|  5> H          2.64672        1.95379       -5.38105
|  6> H          1.29992        1.93061       -6.50361
|  7> S          2.25263       -0.18811       -6.27184
|  8> F          3.56261       -0.44446       -5.63155
|  9> O          2.34494       -0.03374       -7.69650
| 10> O          1.26606       -1.15918       -5.80536
| 11> H         -0.17385        0.91270       -4.80656
| 12> H          0.44778        2.45562       -4.27173
| 13> H          1.12367        0.97423       -3.63791
| 14> *
| 15>
| 16> %MaxCore 64000
| 17>
| 18> %pal nprocs 4
| 19> end
| 20>
| 21> %scf
| 22>   MaxIter 150
| 23> end
| 24>
| 25>
| 26>                          ****END OF INPUT****

CARTESIAN COORDINATES (ANGSTROEM)
---------------------------------
  C      0.704660    1.443130   -4.503630
  C      1.728540    1.424320   -5.639440
  H      2.646720    1.953790   -5.381050
  H      1.299920    1.930610   -6.503610
  S      2.252630   -0.188110   -6.271840
  F      3.562610   -0.444460   -5.631550
  O      2.344940   -0.033740   -7.696500
  O      1.266060   -1.159180   -5.805360
  H     -0.173850    0.912700   -4.806560
  H      0.447780    2.455620   -4.271730
  H      1.123670    0.974230   -3.637910

 Total Charge           Charge          ....    0
 Multiplicity           Mult            ....    1
 Number of Electrons    NEL             ....   58
 Basis Dimension        Dim             ....  176

ORBITAL ENERGIES
----------------

  NO   OCC          E(Eh)            E(eV)
   0   2.0000     -89.295743     -2429.8607
   1   2.0000     -24.884956      -677.1541
   2   2.0000     -19.235283      -523.4187
   3   2.0000     -19.227848      -523.2163
   4   2.0000     -10.299114      -280.2531
   5   2.0000     -10.254841      -279.0484
   6   2.0000      -8.256093      -224.6597
   7   2.0000      -6.202147      -168.7690
   8   2.0000      -6.196143      -168.6056
   9   2.0000      -6.194957      -168.5733
  10   2.0000      -1.378115       -37.5004
  11   2.0000      -1.144884       -31.1539
  12   2.0000      -1.046719       -28.4827
  13   2.0000      -0.842726       -22.9317
  14   2.0000      -0.747484       -20.3401
  15   2.0000      -0.691785       -18.8244
  16   2.0000      -0.598138       -16.2762
  17   2.0000      -0.586241       -15.9524
  18   2.0000      -0.571747       -15.5580
  19   2.0000      -0.510969       -13.9042
  20   2.0000      -0.500023       -13.6063
  21   2.0000      -0.476264       -12.9598
  22   2.0000      -0.450170       -12.2498
  23   2.0000      -0.420380       -11.4391
  24   2.0000      -0.416216       -11.3258
  25   2.0000      -0.400345       -10.8940
  26   2.0000      -0.354055        -9.6343
  27   2.0000      -0.347217        -9.4483
  28   2.0000      -0.334298        -9.0967
  29   0.0000       0.001889         0.0514
  30   0.0000       0.025214         0.6861
  31   0.0000       0.038763         1.0548
  32   0.0000       0.045803         1.2464
  33   0.0000       0.051859         1.4112

MULLIKEN ATOMIC CHARGES
-----------------------
   0 C :    0.607039
   1 C :   -0.521338
   2 H :    0.068498
   3 H :    0.120229
   4 S :    1.574721
   5 F :   -0.439834
   6 O :   -0.686720
   7 O :   -0.727926
   8 H :    0.036167
   9 H :   -0.031484
  10 H :    0.000649
Sum of atomic charges:   -0.0000000

LOEWDIN ATOMIC CHARGES
----------------------
   0 C :    0.130910
   1 C :   -0.085516
   2 H :    0.019179
   3 H :    0.024057
   4 S :    1.138203
   5 F :   -0.279646
   6 O :   -0.464717
   7 O :   -0.473252
   8 H :   -0.003212
   9 H :   -0.003474
  10 H :   -0.002532

  Mayer bond orders larger than 0.100000
B(  0-C ,  1-C ) :   1.3585 B(  0-C ,  8-H ) :   0.8355 B(  0-C ,  9-H ) :   0.8003
B(  0-C , 10-H ) :   0.8449 B(  1-C ,  2-H ) :   0.9628 B(  1-C ,  3-H ) :   0.9676
B(  1-C ,  4-S ) :   0.9666 B(  1-C ,  8-H ) :   0.1798 B(  1-C ,  9-H ) :   0.1785
B(  1-C , 10-H ) :   0.1658 B(  4-S ,  5-F ) :   0.6041 B(  4-S ,  6-O ) :   1.5255
B(  4-S ,  7-O ) :   1.4767

Dispersion correction           -0.007800786
FINAL SINGLE POINT ENERGY      -726.805702765108

DIPOLE MOMENT
-------------
                                X             Y             Z
Electronic contribution:      6.28020      -6.44470      -3.68756
Nuclear contribution   :     -6.09914       7.80989       4.64238
                        -----------------------------------------
Total Dipole Moment    :      0.18107       1.36519       0.95483
                        -----------------------------------------
Magnitude (a.u.)       :      1.67577
Magnitude (Debye)      :      4.25948

Rotational constants in cm-1:     0.154372     0.078826     0.078033
Rotational constants in MHz :  4627.943144  2363.154585  2339.382767

                             ****ORCA TERMINATED NORMALLY****
TOTAL RUN TIME: 0 days 0 hours 0 minutes 22 seconds 34 msec
