                         Program Version 5.0.0 -  RELEASE  -
|  1> !PBE0 D3BJ RIJCOSX def2-SVPD def2/J TightSCF
|  2> *xyz 0 1
|  3> C          2.91632       -1.24259       -1.54313
|  4> C          3.46659       -1.59097       -2.88908
|  5> C          4.65227       -1.14316       -3.25969
|  6> N          2.75226       -2.29204       -3.72803
|  7> H          1.77836       -2.48960       -3.51274
|  8> H          2.94861       -2.20854       -4.71681
|  9> H          5.14672       -0.51251       -2.63385
| 10> H          4.78303       -1.00720       -4.25350
| 11> C          2.80408        0.29070       -1.35924
| 12> H          1.94047       -1.71653       -1.44116
| 13> H          3.55857       -1.66343       -0.76637
| 14> H          2.17393        0.69633       -2.12297
| 15> H          3.77707        0.73043       -1.42880
| 16> H          2.38369        0.50492       -0.39889
| 17> *
| 18>
| 19> %MaxCore 64000
| 20>
| 21> %pal nprocs 4
| 22> end
| 23>
| 24> %scf
| 25>   MaxIter 150
| 26> end
| 27>
| 28>
| 29>                          ****END OF INPUT****

CARTESIAN COORDINATES (ANGSTROEM)
---------------------------------
  C      2.916320   -1.242590   -1.543130
  C      3.466590   -1.590970   -2.889080
  C      4.652270   -1.143160   -3.259690
  N      2.752260   -2.292040   -3.728030
  H      1.778360   -2.489600   -3.512740
  H      2.948610   -2.208540   -4.716810
  H      5.146720   -0.512510   -2.633850
  H      4.783030   -1.007200   -4.253500
  C      2.804080    0.290700   -1.359240
  H      1.940470   -1.716530   -1.441160
  H      3.558570   -1.663430   -0.766370
  H      2.173930    0.696330   -2.122970
  H      3.777070    0.730430   -1.428800
  H      2.383690    0.504920   -0.398890

 Total Charge           Charge          ....    0
 Multiplicity           Mult            ....    1
 Number of Electrons    NEL             ....   40
 Basis Dimension        Dim             ....  172

ORBITAL ENERGIES
----------------

  NO   OCC          E(Eh)            E(eV)
   0   2.0000     -14.400547      -391.8588
   1   2.0000     -10.254103      -279.0283
   2   2.0000     -10.236785      -278.5571
   3   2.0000     -10.220520      -278.1145
   4   2.0000     -10.161970      -276.5213
   5   2.0000      -0.956883       -26.0381
   6   2.0000      -0.799113       -21.7450
   7   2.0000      -0.728770       -19.8308
   8   2.0000      -0.659320       -17.9410
   9   2.0000      -0.581698       -15.8288
  10   2.0000      -0.538562       -14.6550
  11   2.0000      -0.494641       -13.4599
  12   2.0000      -0.463951       -12.6247
  13   2.0000      -0.424292       -11.5456
  14   2.0000      -0.404477       -11.0064
  15   2.0000      -0.390597       -10.6287
  16   2.0000      -0.370141       -10.0720
  17   2.0000      -0.356476        -9.7002
  18   2.0000      -0.340548        -9.2668
  19   2.0000      -0.201289        -5.4773
  20   0.0000       0.024730         0.6729
  21   0.0000       0.034880         0.9491
  22   0.0000       0.057034         1.5520
  23   0.0000       0.065362         1.7786
  24   0.0000       0.077350         2.1048

MULLIKEN ATOMIC CHARGES
-----------------------
   0 C :   -0.173203
   1 C :   -0.098622
   2 C :    0.322949
   3 N :    0.012670
   4 H :   -0.061397
   5 H :   -0.093556
   6 H :   -0.056651
   7 H :   -0.328118
   8 C :    0.519785
   9 H :   -0.001969
  10 H :    0.043304
  11 H :   -0.056006
  12 H :   -0.065577
  13 H :    0.036389
Sum of atomic charges:   -0.0000000

LOEWDIN ATOMIC CHARGES
----------------------
   0 C :   -0.024812
   1 C :   -0.264297
   2 C :    0.165668
   3 N :    0.162152
   4 H :    0.002295
   5 H :    0.009740
   6 H :   -0.083115
   7 H :   -0.084474
   8 C :    0.135361
   9 H :    0.009649
  10 H :    0.030130
  11 H :   -0.012392
  12 H :   -0.026086
  13 H :   -0.019820

  Mayer bond orders larger than 0.100000
B(  0-C ,  1-C ) :   1.1805 B(  0-C ,  8-C ) :   1.2920 B(  0-C ,  9-H ) :   0.8416
B(  0-C , 10-H ) :   0.8580 B(  0-C , 11-H ) :   0.1499 B(  0-C , 12-H ) :   0.1648
B(  0-C , 13-H ) :   0.1415 B(  1-C ,  2-C ) :   1.9345 B(  1-C ,  3-N ) :   1.0109
B(  1-C ,  6-H ) :   0.1404 B(  1-C ,  7-H ) :   0.1898 B(  1-C ,  9-H ) :   0.1628
B(  1-C , 10-H ) :   0.1565 B(  2-C ,  3-N ) :   0.2488 B(  2-C ,  6-H ) :   0.7259
B(  2-C ,  7-H ) :   0.8963 B(  3-N ,  4-H ) :   1.0537 B(  3-N ,  5-H ) :   1.1293
B(  4-H ,  5-H ) :  -0.1155 B(  6-H ,  7-H ) :   0.1257 B(  8-C , 11-H ) :   0.8728
B(  8-C , 12-H ) :   0.8769 B(  8-C , 13-H ) :   0.8269

Dispersion correction           -0.008937022
FINAL SINGLE POINT ENERGY      -212.161034860804

DIPOLE MOMENT
-------------
                                X             Y             Z
Electronic contribution:      0.09729      -2.73640      -1.82145
Nuclear contribution   :     -0.99366       2.78648       1.68526
                        -----------------------------------------
Total Dipole Moment    :     -0.89637       0.05008      -0.13618
                        -----------------------------------------
Magnitude (a.u.)       :      0.90803
Magnitude (Debye)      :      2.30804

Rotational constants in cm-1:     0.282898     0.128664     0.101801
Rotational constants in MHz :  8481.061354  3857.240210  3051.924245

                             ****ORCA TERMINATED NORMALLY****
TOTAL RUN TIME: 0 days 0 hours 0 minutes 21 seconds 322 msec
