                         Program Version 5.0.0 -  RELEASE  -
|  1> !PBE0 D3BJ RIJCOSX def2-SVPD def2/J TightSCF
|  2> *xyz 0 1
|  3> C          0.70466        1.44313       -4.50363
|  4> C          1.72854        1.42432       -5.63944
|  5> H          2.64672        1.95379       -5.38105
|  6> H          1.29992        1.93061       -6.50361
|  7> S          2.25263       -0.18811       -6.27184
|  8> O          3.56261       -0.44446       -5.63155
|  9> F          2.34494       -0.03374       -7.69650
| 10> O          1.26606       -1.15918       -5.80536
| 11> H         -0.17385        0.91270       -4.80656
| 12> H          0.44778        2.45562       -4.27173
| 13> H          1.12367        0.97423       -3.63791
| 14> *
| 15>
| 16> %MaxCore 64000
| 17>
| 18> %pal nprocs 4
| 19> end
| 20>
| 21> %scf
| 22>   MaxIter 150
| 23> end
| 24>
| 25>
| 26>                          ****END OF INPUT****

CARTESIAN COORDINATES (ANGSTROEM)
---------------------------------
  C      0.704660    1.443130   -4.503630
  C      1.728540    1.424320   -5.639440
  H      2.646720    1.953790   -5.381050
  H      1.299920    1.930610   -6.503610
  S      2.252630   -0.188110   -6.271840
  O      3.562610   -0.444460   -5.631550
  F      2.344940   -0.033740   -7.696500
  O      1.266060   -1.159180   -5.805360
  H     -0.173850    0.912700   -4.806560
  H      0.447780    2.455620   -4.271730
  H      1.123670    0.974230   -3.637910

 Total Charge           Charge          ....    0
 Multiplicity           Mult            ....    1
 Number of Electrons    NEL             ....   58
 Basis Dimension        Dim             ....  176

ORBITAL ENERGIES
----------------

  NO   OCC          E(Eh)            E(eV)
   0   2.0000     -89.297914     -2429.9198
   1   2.0000     -24.908010      -677.7814
   2   2.0000     -19.228190      -523.2257
   3   2.0000     -19.219907      -523.0002
   4   2.0000     -10.300303      -280.2855
   5   2.0000     -10.255526      -279.0671
   6   2.0000      -8.258330      -224.7206
   7   2.0000      -6.204598      -168.8357
   8   2.0000      -6.198152      -168.6603
   9   2.0000      -6.196964      -168.6280
  10   2.0000      -1.416833       -38.5540
  11   2.0000      -1.130647       -30.7665
  12   2.0000      -1.026176       -27.9237
  13   2.0000      -0.843917       -22.9641
  14   2.0000      -0.763334       -20.7714
  15   2.0000      -0.699761       -19.0415
  16   2.0000      -0.614603       -16.7242
  17   2.0000      -0.612171       -16.6580
  18   2.0000      -0.576086       -15.6761
  19   2.0000      -0.510920       -13.9028
  20   2.0000      -0.502185       -13.6651
  21   2.0000      -0.464624       -12.6431
  22   2.0000      -0.447813       -12.1856
  23   2.0000      -0.423166       -11.5149
  24   2.0000      -0.405869       -11.0442
  25   2.0000      -0.399653       -10.8751
  26   2.0000      -0.346689        -9.4339
  27   2.0000      -0.336635        -9.1603
  28   2.0000      -0.318480        -8.6663
  29   0.0000       0.001494         0.0407
  30   0.0000       0.020762         0.5650
  31   0.0000       0.039737         1.0813
  32   0.0000       0.044305         1.2056
  33   0.0000       0.051982         1.4145

MULLIKEN ATOMIC CHARGES
-----------------------
   0 C :    0.580797
   1 C :   -0.521493
   2 H :    0.067540
   3 H :    0.122323
   4 S :    1.572629
   5 O :   -0.724737
   6 F :   -0.406819
   7 O :   -0.716664
   8 H :    0.035832
   9 H :   -0.029602
  10 H :    0.020194
Sum of atomic charges:    0.0000000

LOEWDIN ATOMIC CHARGES
----------------------
   0 C :    0.138059
   1 C :   -0.090532
   2 H :    0.024365
   3 H :    0.011622
   4 S :    1.141551
   5 O :   -0.489003
   6 F :   -0.259013
   7 O :   -0.473884
   8 H :   -0.004499
   9 H :   -0.002142
  10 H :    0.003477

  Mayer bond orders larger than 0.100000
B(  0-C ,  1-C ) :   1.3727 B(  0-C ,  8-H ) :   0.8311 B(  0-C ,  9-H ) :   0.8027
B(  0-C , 10-H ) :   0.8485 B(  1-C ,  2-H ) :   0.9884 B(  1-C ,  3-H ) :   0.9306
B(  1-C ,  4-S ) :   0.9548 B(  1-C ,  8-H ) :   0.1818 B(  1-C ,  9-H ) :   0.1756
B(  1-C , 10-H ) :   0.1604 B(  4-S ,  5-O ) :   1.4684 B(  4-S ,  6-F ) :   0.6665
B(  4-S ,  7-O ) :   1.4743

Dispersion correction           -0.007812959
FINAL SINGLE POINT ENERGY      -726.785548353156

DIPOLE MOMENT
-------------
                                X             Y             Z
Electronic contribution:      4.18740      -5.74868      -7.18655
Nuclear contribution   :     -4.83029       7.38191       6.79413
                        -----------------------------------------
Total Dipole Moment    :     -0.64289       1.63322      -0.39242
                        -----------------------------------------
Magnitude (a.u.)       :      1.79853
Magnitude (Debye)      :      4.57151

Rotational constants in cm-1:     0.156575     0.079070     0.076729
Rotational constants in MHz :  4694.010604  2370.444114  2300.280155

                             ****ORCA TERMINATED NORMALLY****
TOTAL RUN TIME: 0 days 0 hours 0 minutes 21 seconds 712 msec
