                         Program Version 5.0.0 -  RELEASE  -
|  1> !PBE0 D3BJ RIJCOSX def2-SVPD def2/J TightSCF
|  2> *xyz 0 1
|  3> C          2.91632       -1.24259       -1.54313
|  4> C          3.46659       -1.59097       -2.88908
|  5> N          4.65227       -1.14316       -3.25969
|  6> C          2.75226       -2.29204       -3.72803
|  7> H          1.77836       -2.48960       -3.51274
|  8> H          2.94861       -2.20854       -4.71681
|  9> H          5.14672       -0.51251       -2.63385
| 10> H          4.78303       -1.00720       -4.25350
| 11> C          2.80408        0.29070       -1.35924
| 12> H          1.94047       -1.71653       -1.44116
| 13> H          3.55857       -1.66343       -0.76637
| 14> H          2.17393        0.69633       -2.12297
| 15> H          3.77707        0.73043       -1.42880
| 16> H          2.38369        0.50492       -0.39889
| 17> *
| 18>
| 19> %MaxCore 64000
| 20>
| 21> %pal nprocs 4
| 22> end
| 23>
| 24> %scf
| 25>   MaxIter 150
| 26> end
| 27>
| 28>
| 29>                          ****END OF INPUT****

CARTESIAN COORDINATES (ANGSTROEM)
---------------------------------
  C      2.916320   -1.242590   -1.543130
  C      3.466590   -1.590970   -2.889080
  N      4.652270   -1.143160   -3.259690
  C      2.752260   -2.292040   -3.728030
  H      1.778360   -2.489600   -3.512740
  H      2.948610   -2.208540   -4.716810
  H      5.146720   -0.512510   -2.633850
  H      4.783030   -1.007200   -4.253500
  C      2.804080    0.290700   -1.359240
  H      1.940470   -1.716530   -1.441160
  H      3.558570   -1.663430   -0.766370
  H      2.173930    0.696330   -2.122970
  H      3.777070    0.730430   -1.428800
  H      2.383690    0.504920   -0.398890

 Total Charge           Charge          ....    0
 Multiplicity           Mult            ....    1
 Number of Electrons    NEL             ....   40
 Basis Dimension        Dim             ....  172

ORBITAL ENERGIES
----------------

  NO   OCC          E(Eh)            E(eV)
   0   2.0000     -14.396713      -391.7545
   1   2.0000     -10.252565      -278.9865
   2   2.0000     -10.235161      -278.5129
   3   2.0000     -10.225551      -278.2514
   4   2.0000     -10.165520      -276.6179
   5   2.0000      -0.951648       -25.8957
   6   2.0000      -0.796503       -21.6739
   7   2.0000      -0.740078       -20.1386
   8   2.0000      -0.651612       -17.7313
   9   2.0000      -0.581012       -15.8101
  10   2.0000      -0.542648       -14.7662
  11   2.0000      -0.491440       -13.3728
  12   2.0000      -0.451702       -12.2914
  13   2.0000      -0.448853       -12.2139
  14   2.0000      -0.402178       -10.9438
  15   2.0000      -0.394490       -10.7346
  16   2.0000      -0.369978       -10.0676
  17   2.0000      -0.356230        -9.6935
  18   2.0000      -0.334891        -9.1129
  19   2.0000      -0.208246        -5.6666
  20   0.0000       0.021944         0.5971
  21   0.0000       0.037978         1.0334
  22   0.0000       0.061444         1.6720
  23   0.0000       0.066392         1.8066
  24   0.0000       0.074893         2.0379

MULLIKEN ATOMIC CHARGES
-----------------------
   0 C :   -0.292555
   1 C :   -0.205281
   2 N :    0.073951
   3 C :    0.253172
   4 H :    0.020707
   5 H :   -0.313900
   6 H :   -0.071068
   7 H :   -0.078415
   8 C :    0.549269
   9 H :    0.158201
  10 H :    0.002575
  11 H :   -0.002259
  12 H :   -0.058348
  13 H :   -0.036049
Sum of atomic charges:    0.0000000

LOEWDIN ATOMIC CHARGES
----------------------
   0 C :   -0.026495
   1 C :   -0.272172
   2 N :    0.168744
   3 C :    0.165378
   4 H :   -0.077078
   5 H :   -0.081079
   6 H :   -0.003347
   7 H :    0.008040
   8 C :    0.133083
   9 H :    0.021919
  10 H :    0.024324
  11 H :   -0.010265
  12 H :   -0.032958
  13 H :   -0.018095

  Mayer bond orders larger than 0.100000
B(  0-C ,  1-C ) :   1.2787 B(  0-C ,  8-C ) :   1.2750 B(  0-C ,  9-H ) :   0.8883
B(  0-C , 10-H ) :   0.8515 B(  0-C , 11-H ) :   0.1412 B(  0-C , 12-H ) :   0.1840
B(  0-C , 13-H ) :   0.1802 B(  1-C ,  2-N ) :   1.0076 B(  1-C ,  3-C ) :   2.0065
B(  1-C ,  5-H ) :   0.2560 B(  1-C , 10-H ) :   0.1970 B(  2-N ,  3-C ) :   0.2739
B(  2-N ,  6-H ) :   1.0034 B(  2-N ,  7-H ) :   1.0978 B(  3-C ,  4-H ) :   0.8918
B(  3-C ,  5-H ) :   0.7523 B(  4-H ,  5-H ) :   0.1487 B(  6-H ,  7-H ) :  -0.1017
B(  8-C , 11-H ) :   0.8531 B(  8-C , 12-H ) :   0.8286 B(  8-C , 13-H ) :   0.8631

Dispersion correction           -0.008917335
FINAL SINGLE POINT ENERGY      -212.164598845657

DIPOLE MOMENT
-------------
                                X             Y             Z
Electronic contribution:      1.73226      -1.73708      -1.41396
Nuclear contribution   :     -1.43372       2.52039       1.57679
                        -----------------------------------------
Total Dipole Moment    :      0.29854       0.78331       0.16283
                        -----------------------------------------
Magnitude (a.u.)       :      0.85394
Magnitude (Debye)      :      2.17054

Rotational constants in cm-1:     0.274962     0.131786     0.102554
Rotational constants in MHz :  8243.150005  3950.846092  3074.493018

                             ****ORCA TERMINATED NORMALLY****
TOTAL RUN TIME: 0 days 0 hours 0 minutes 21 seconds 680 msec
