                         Program Version 5.0.0 -  RELEASE  -
|  1> !PBE0 D3BJ RIJCOSX def2-SVPD def2/J TightSCF
|  2> *xyz 0 1
|  3> C          0.70466        1.44313       -4.50363
|  4> C          1.72854        1.42432       -5.63944
|  5> H          2.64672        1.95379       -5.38105
|  6> H          1.29992        1.93061       -6.50361
|  7> S          2.25263       -0.18811       -6.27184
|  8> O          3.56261       -0.44446       -5.63155
|  9> O          2.34494       -0.03374       -7.69650
| 10> F          1.26606       -1.15918       -5.80536
| 11> H         -0.17385        0.91270       -4.80656
| 12> H          0.44778        2.45562       -4.27173
| 13> H          1.12367        0.97423       -3.63791
| 14> *
| 15>
| 16> %MaxCore 64000
| 17>
| 18> %pal nprocs 4
| 19> end
| 20>
| 21> %scf
| 22>   MaxIter 150
| 23> end
| 24>
| 25>
| 26>                          ****END OF INPUT****

CARTESIAN COORDINATES (ANGSTROEM)
---------------------------------
  C      0.704660    1.443130   -4.503630
  C      1.728540    1.424320   -5.639440
  H      2.646720    1.953790   -5.381050
  H      1.299920    1.930610   -6.503610
  S      2.252630   -0.188110   -6.271840
  O      3.562610   -0.444460   -5.631550
  O      2.344940   -0.033740   -7.696500
  F      1.266060   -1.159180   -5.805360
  H     -0.173850    0.912700   -4.806560
  H      0.447780    2.455620   -4.271730
  H      1.123670    0.974230   -3.637910

 Total Charge           Charge          ....    0
 Multiplicity           Mult            ....    1
 Number of Electrons    NEL             ....   58
 Basis Dimension        Dim             ....  176

ORBITAL ENERGIES
----------------

  NO   OCC          E(Eh)            E(eV)
   0   2.0000     -89.296475     -2429.8806
   1   2.0000     -24.895704      -677.4465
   2   2.0000     -19.235395      -523.4217
   3   2.0000     -19.219439      -522.9875
   4   2.0000     -10.299145      -280.2540
   5   2.0000     -10.262613      -279.2599
   6   2.0000      -8.256867      -224.6808
   7   2.0000      -6.203114      -168.7953
   8   2.0000      -6.196811      -168.6238
   9   2.0000      -6.195547      -168.5894
  10   2.0000      -1.395001       -37.9599
  11   2.0000      -1.140893       -31.0453
  12   2.0000      -1.034690       -28.1554
  13   2.0000      -0.846731       -23.0407
  14   2.0000      -0.751718       -20.4553
  15   2.0000      -0.700492       -19.0613
  16   2.0000      -0.613480       -16.6936
  17   2.0000      -0.598857       -16.2957
  18   2.0000      -0.565543       -15.3892
  19   2.0000      -0.514578       -14.0024
  20   2.0000      -0.495697       -13.4886
  21   2.0000      -0.469583       -12.7780
  22   2.0000      -0.463516       -12.6129
  23   2.0000      -0.429833       -11.6964
  24   2.0000      -0.412165       -11.2156
  25   2.0000      -0.403454       -10.9785
  26   2.0000      -0.352285        -9.5862
  27   2.0000      -0.337860        -9.1936
  28   2.0000      -0.324974        -8.8430
  29   0.0000      -0.005312        -0.1445
  30   0.0000       0.034091         0.9277
  31   0.0000       0.041917         1.1406
  32   0.0000       0.046013         1.2521
  33   0.0000       0.048745         1.3264

MULLIKEN ATOMIC CHARGES
-----------------------
   0 C :    0.583731
   1 C :   -0.491735
   2 H :    0.070610
   3 H :    0.125829
   4 S :    1.555293
   5 O :   -0.728641
   6 O :   -0.676234
   7 F :   -0.441134
   8 H :    0.017336
   9 H :   -0.024352
  10 H :    0.009297
Sum of atomic charges:   -0.0000000

LOEWDIN ATOMIC CHARGES
----------------------
   0 C :    0.125160
   1 C :   -0.079135
   2 H :    0.032428
   3 H :    0.018961
   4 S :    1.137794
   5 O :   -0.490004
   6 O :   -0.463963
   7 F :   -0.267824
   8 H :   -0.008807
   9 H :   -0.002824
  10 H :   -0.001788

  Mayer bond orders larger than 0.100000
B(  0-C ,  1-C ) :   1.3305 B(  0-C ,  8-H ) :   0.8387 B(  0-C ,  9-H ) :   0.8031
B(  0-C , 10-H ) :   0.8536 B(  1-C ,  2-H ) :   0.9794 B(  1-C ,  3-H ) :   0.9627
B(  1-C ,  4-S ) :   0.9733 B(  1-C ,  8-H ) :   0.1687 B(  1-C ,  9-H ) :   0.1811
B(  1-C , 10-H ) :   0.1534 B(  4-S ,  5-O ) :   1.4675 B(  4-S ,  6-O ) :   1.5261
B(  4-S ,  7-F ) :   0.6294

Dispersion correction           -0.007766375
FINAL SINGLE POINT ENERGY      -726.795736219711

DIPOLE MOMENT
-------------
                                X             Y             Z
Electronic contribution:      2.36350      -7.61991      -3.98379
Nuclear contribution   :     -3.70606       8.55465       4.82350
                        -----------------------------------------
Total Dipole Moment    :     -1.34256       0.93474       0.83971
                        -----------------------------------------
Magnitude (a.u.)       :      1.83883
Magnitude (Debye)      :      4.67395

Rotational constants in cm-1:     0.153201     0.080978     0.077494
Rotational constants in MHz :  4592.852844  2427.650814  2323.207507

                             ****ORCA TERMINATED NORMALLY****
TOTAL RUN TIME: 0 days 0 hours 0 minutes 21 seconds 496 msec
