                         Program Version 5.0.0 -  RELEASE  -
|  1> !PBE0 D3BJ RIJCOSX def2-SVPD def2/J TightSCF xyzfile
|  2>
|  3> *xyzfile 0 1 D4.xyz
|  4>
|  5> %MaxCore 64000
|  6>
|  7> %pal nprocs 4
|  8> end
|  9>
| 10> %scf
| 11>   MaxIter 150
| 12> end
| 13>
| 14>
| 15>                          ****END OF INPUT****

CARTESIAN COORDINATES (ANGSTROEM)
---------------------------------
  C      2.916324   -1.242589   -1.543125
  C      0.704661    1.443129   -4.503630
  C      1.728539    1.424320   -5.639443
  H      2.646718    1.953794   -5.381054
  H      1.299916    1.930613   -6.503614
  S      2.252625   -0.188115   -6.271840
  C      3.466585   -1.590971   -2.889082
  N      4.652275   -1.143164   -3.259692
  C      2.752264   -2.292043   -3.728029
  H      1.778364   -2.489604   -3.512738
  H      2.948612   -2.208544   -4.716813
  H      5.146723   -0.512508   -2.633852
  H      4.783030   -1.007203   -4.253498
  O      3.562607   -0.444464   -5.631552
  F      2.344944   -0.033742   -7.696501
  C      2.804084    0.290698   -1.359243
  C      1.052550    0.695659   -3.214915
  H     -0.232483    1.032925   -4.884449
  H      0.511700    2.495794   -4.267966
  C      2.388380    1.093669   -2.597108
  H      3.763425    0.674718   -0.999889
  H      2.094788    0.461222   -0.545756
  O      1.266058   -1.159177   -5.805365
  H      3.167316    1.013242   -3.359430
  H      2.357690    2.149375   -2.310997
  H      1.039284   -0.368429   -3.449329
  H      0.250787    0.865605   -2.488283
  H      1.940472   -1.716529   -1.441161
  H      3.558569   -1.663433   -0.766371

 Total Charge           Charge          ....    0
 Multiplicity           Mult            ....    1
 Number of Electrons    NEL             ....  112
 Basis Dimension        Dim             ....  404

ORBITAL ENERGIES
----------------

  NO   OCC          E(Eh)            E(eV)
   0   2.0000     -89.306988     -2430.1667
   1   2.0000     -24.913736      -677.9372
   2   2.0000     -19.233514      -523.3705
   3   2.0000     -19.230525      -523.2892
   4   2.0000     -14.368543      -390.9879
   5   2.0000     -10.301038      -280.3055
   6   2.0000     -10.262943      -279.2689
   7   2.0000     -10.230726      -278.3922
   8   2.0000     -10.230029      -278.3732
   9   2.0000     -10.228857      -278.3414
  10   2.0000     -10.228089      -278.3204
  11   2.0000     -10.220190      -278.1055
  12   2.0000     -10.138838      -275.8918
  13   2.0000      -8.265910      -224.9269
  14   2.0000      -6.212210      -169.0428
  15   2.0000      -6.206024      -168.8745
  16   2.0000      -6.204543      -168.8342
  17   2.0000      -1.421617       -38.6842
  18   2.0000      -1.139549       -31.0087
  19   2.0000      -1.036428       -28.2026
  20   2.0000      -0.927045       -25.2262
  21   2.0000      -0.857589       -23.3362
  22   2.0000      -0.814058       -22.1516
  23   2.0000      -0.779643       -21.2152
  24   2.0000      -0.748288       -20.3620
  25   2.0000      -0.724446       -19.7132
  26   2.0000      -0.689407       -18.7597
  27   2.0000      -0.645801       -17.5731
  28   2.0000      -0.621569       -16.9138
  29   2.0000      -0.613219       -16.6865
  30   2.0000      -0.587777       -15.9942
  31   2.0000      -0.579941       -15.7810
  32   2.0000      -0.550701       -14.9853
  33   2.0000      -0.524431       -14.2705
  34   2.0000      -0.514041       -13.9878
  35   2.0000      -0.510058       -13.8794
  36   2.0000      -0.488611       -13.2958
  37   2.0000      -0.471637       -12.8339
  38   2.0000      -0.468169       -12.7395
  39   2.0000      -0.456737       -12.4285
  40   2.0000      -0.443171       -12.0593
  41   2.0000      -0.423761       -11.5311
  42   2.0000      -0.415479       -11.3058
  43   2.0000      -0.398777       -10.8513
  44   2.0000      -0.392605       -10.6833
  45   2.0000      -0.383518       -10.4361
  46   2.0000      -0.371483       -10.1086
  47   2.0000      -0.364386        -9.9154
  48   2.0000      -0.354620        -9.6497
  49   2.0000      -0.341367        -9.2891
  50   2.0000      -0.337486        -9.1834
  51   2.0000      -0.331203        -9.0125
  52   2.0000      -0.328268        -8.9326
  53   2.0000      -0.318011        -8.6535
  54   2.0000      -0.308796        -8.4028
  55   2.0000      -0.183081        -4.9819
  56   0.0000      -0.001052        -0.0286
  57   0.0000       0.014835         0.4037
  58   0.0000       0.027153         0.7389
  59   0.0000       0.034816         0.9474
  60   0.0000       0.038622         1.0510

MULLIKEN ATOMIC CHARGES
-----------------------
   0 C :    0.313521
   1 C :    0.312764
   2 C :   -0.062482
   3 H :    0.225421
   4 H :   -0.090397
   5 S :    1.708602
   6 C :   -0.532007
   7 N :    0.198175
   8 C :    0.583488
   9 H :    0.000189
  10 H :   -0.364014
  11 H :   -0.020701
  12 H :   -0.220489
  13 O :   -0.785737
  14 F :   -0.512001
  15 C :    0.331695
  16 C :    0.038918
  17 H :    0.092329
  18 H :    0.002545
  19 C :   -0.224199
  20 H :    0.041610
  21 H :   -0.065066
  22 O :   -0.776459
  23 H :    0.104046
  24 H :   -0.170612
  25 H :   -0.248818
  26 H :   -0.009948
  27 H :    0.322589
  28 H :   -0.192962
Sum of atomic charges:   -0.0000000

LOEWDIN ATOMIC CHARGES
----------------------
   0 C :    0.020856
   1 C :   -0.023785
   2 C :   -0.037942
   3 H :    0.021319
   4 H :    0.013192
   5 S :    1.186752
   6 C :   -0.258404
   7 N :    0.189517
   8 C :    0.166143
   9 H :   -0.066605
  10 H :   -0.118047
  11 H :    0.003542
  12 H :   -0.051938
  13 O :   -0.484880
  14 F :   -0.250216
  15 C :   -0.017269
  16 C :   -0.013657
  17 H :    0.033089
  18 H :    0.037379
  19 C :   -0.027582
  20 H :    0.014338
  21 H :    0.018670
  22 O :   -0.450600
  23 H :   -0.001989
  24 H :    0.025280
  25 H :   -0.006442
  26 H :    0.034865
  27 H :    0.022696
  28 H :    0.021715

  Mayer bond orders larger than 0.100000
B(  0-C ,  6-C ) :   1.3231 B(  0-C , 15-C ) :   1.1728 B(  0-C , 20-H ) :   0.1182
B(  0-C , 21-H ) :   0.1899 B(  0-C , 27-H ) :   0.7794 B(  0-C , 28-H ) :   0.6638
B(  1-C ,  2-C ) :   1.3125 B(  1-C ,  4-H ) :   0.2183 B(  1-C , 16-C ) :   1.2883
B(  1-C , 17-H ) :   0.7053 B(  1-C , 18-H ) :   0.7709 B(  2-C ,  3-H ) :   0.8612
B(  2-C ,  4-H ) :   0.8622 B(  2-C ,  5-S ) :   0.9876 B(  2-C , 17-H ) :   0.1079
B(  2-C , 18-H ) :   0.1409 B(  5-S , 13-O ) :   1.3144 B(  5-S , 14-F ) :   0.5033
B(  5-S , 22-O ) :   1.4254 B(  6-C ,  7-N ) :   0.8659 B(  6-C ,  8-C ) :   2.0830
B(  6-C ,  9-H ) :   0.1389 B(  6-C , 10-H ) :   0.4964 B(  6-C , 15-C ) :   0.1322
B(  6-C , 28-H ) :   0.3698 B(  7-N ,  8-C ) :   0.4302 B(  7-N ,  9-H ) :   0.1124
B(  7-N , 11-H ) :   0.9853 B(  7-N , 12-H ) :   0.9408 B(  8-C ,  9-H ) :   0.6254
B(  8-C , 10-H ) :   0.2547 B(  9-H , 10-H ) :   0.1105 B( 10-H , 12-H ) :   0.1552
B( 11-H , 12-H ) :  -0.1415 B( 12-H , 13-O ) :   0.1108 B( 13-O , 22-O ) :   0.1343
B( 15-C , 19-C ) :   1.2505 B( 15-C , 20-H ) :   0.7070 B( 15-C , 21-H ) :   0.8340
B( 16-C , 17-H ) :   0.2343 B( 16-C , 19-C ) :   1.2901 B( 16-C , 23-H ) :   0.1082
B( 16-C , 24-H ) :   0.1615 B( 16-C , 25-H ) :   1.0108 B( 16-C , 26-H ) :   0.7144
B( 19-C , 20-H ) :   0.2374 B( 19-C , 21-H ) :   0.1654 B( 19-C , 23-H ) :   0.8621
B( 19-C , 24-H ) :   0.9027 B( 19-C , 25-H ) :   0.1207 B( 19-C , 26-H ) :   0.1849
B( 20-H , 21-H ) :  -0.1098

Dispersion correction           -0.032541314
FINAL SINGLE POINT ENERGY     -1016.244301600642

DIPOLE MOMENT
-------------
                                X             Y             Z
Electronic contribution:      1.32323      -3.42456     -22.17281
Nuclear contribution   :     -1.74760       5.67788      21.66873
                        -----------------------------------------
Total Dipole Moment    :     -0.42437       2.25332      -0.50408
                        -----------------------------------------
Magnitude (a.u.)       :      2.34769
Magnitude (Debye)      :      5.96736

Rotational constants in cm-1:     0.036818     0.018222     0.014682
Rotational constants in MHz :  1103.783048   546.296792   440.157914

                             ****ORCA TERMINATED NORMALLY****
TOTAL RUN TIME: 0 days 0 hours 2 minutes 37 seconds 81 msec
