                         Program Version 5.0.0 -  RELEASE  -
|  1> !PBE0 D3BJ RIJCOSX def2-TZVPD def2/J TightSCF
|  2> *xyz -1 1
|  3> C          0.13297        2.38587       -4.02462
|  4> C         -1.36646        2.47911       -4.31393
|  5> C         -2.35773        2.30686       -3.13675
|  6> H         -1.63680        1.72709       -5.06399
|  7> H         -1.58235        3.44561       -4.76869
|  8> O         -3.44376        2.84652       -3.25274
|  9> O         -1.97092        1.58304       -2.15123
| 10> H          0.68084        2.52514       -4.93310
| 11> H          0.35823        1.42282       -3.61633
| 12> H          0.40851        3.14443       -3.32208
| 13> *
| 14> %MaxCore 64000
| 15>
| 16> %pal nprocs 4
| 17> end
| 18>
| 19> %scf
| 20>   MaxIter 150
| 21> end
| 22>
| 23>
| 24>                          ****END OF INPUT****

CARTESIAN COORDINATES (ANGSTROEM)
---------------------------------
  C      0.132970    2.385870   -4.024620
  C     -1.366460    2.479110   -4.313930
  C     -2.357730    2.306860   -3.136750
  H     -1.636800    1.727090   -5.063990
  H     -1.582350    3.445610   -4.768690
  O     -3.443760    2.846520   -3.252740
  O     -1.970920    1.583040   -2.151230
  H      0.680840    2.525140   -4.933100
  H      0.358230    1.422820   -3.616330
  H      0.408510    3.144430   -3.322080

 Total Charge           Charge          ....   -1
 Multiplicity           Mult            ....    1
 Number of Electrons    NEL             ....   40
 Basis Dimension        Dim             ....  236

ORBITAL ENERGIES
----------------

  NO   OCC          E(Eh)            E(eV)
   0   2.0000     -18.945119      -515.5229
   1   2.0000     -18.935756      -515.2681
   2   2.0000     -10.101241      -274.8687
   3   2.0000     -10.052739      -273.5489
   4   2.0000     -10.045961      -273.3645
   5   2.0000      -0.855851       -23.2889
   6   2.0000      -0.754421       -20.5288
   7   2.0000      -0.624600       -16.9962
   8   2.0000      -0.491540       -13.3755
   9   2.0000      -0.330791        -9.0013
  10   2.0000      -0.306219        -8.3326
  11   2.0000      -0.275784        -7.5045
  12   2.0000      -0.242815        -6.6073
  13   2.0000      -0.227394        -6.1877
  14   2.0000      -0.222178        -6.0458
  15   2.0000      -0.191565        -5.2128
  16   2.0000      -0.173429        -4.7192
  17   2.0000      -0.061320        -1.6686
  18   2.0000      -0.053397        -1.4530
  19   2.0000      -0.041588        -1.1317
  20   0.0000       0.139617         3.7992
  21   0.0000       0.163838         4.4583
  22   0.0000       0.176690         4.8080
  23   0.0000       0.189922         5.1680
  24   0.0000       0.206602         5.6219

MULLIKEN ATOMIC CHARGES
-----------------------
   0 C :   -0.648748
   1 C :    0.044549
   2 C :    0.236284
   3 H :    0.086008
   4 H :    0.143620
   5 O :   -0.656761
   6 O :   -0.717475
   7 H :    0.187641
   8 H :    0.166027
   9 H :    0.158854
Sum of atomic charges:   -1.0000000

LOEWDIN ATOMIC CHARGES
----------------------
   0 C :   -0.142710
   1 C :   -0.209089
   2 C :   -0.779175
   3 H :    0.095275
   4 H :    0.085065
   5 O :   -0.070103
   6 O :   -0.130513
   7 H :    0.040962
   8 H :    0.053052
   9 H :    0.057236

  Mayer bond orders larger than 0.100000
B(  0-C ,  1-C ) :   0.7994 B(  0-C ,  2-C ) :   0.1031 B(  0-C ,  7-H ) :   0.9868
B(  0-C ,  8-H ) :   1.0128 B(  0-C ,  9-H ) :   1.0005 B(  1-C ,  2-C ) :   0.9760
B(  1-C ,  3-H ) :   0.9392 B(  1-C ,  4-H ) :   0.9827 B(  2-C ,  5-O ) :   1.5582
B(  2-C ,  6-O ) :   1.4823

Dispersion correction           -0.005397792
FINAL SINGLE POINT ENERGY      -267.646733049200

DIPOLE MOMENT
-------------
                                X             Y             Z
Electronic contribution:     -5.28018      -0.37391       3.21892
Nuclear contribution   :      6.75610       0.63068      -4.53972
                        -----------------------------------------
Total Dipole Moment    :      1.47592       0.25677      -1.32081
                        -----------------------------------------
Magnitude (a.u.)       :      1.99720
Magnitude (Debye)      :      5.07647

Rotational constants in cm-1:     0.335096     0.130241     0.099025
Rotational constants in MHz : 10045.924902  3904.536250  2968.708333

                             ****ORCA TERMINATED NORMALLY****
TOTAL RUN TIME: 0 days 0 hours 0 minutes 31 seconds 470 msec
