                         Program Version 5.0.0 -  RELEASE  -
|  1> !PBE0 D3BJ RIJCOSX def2-TZVPD def2/J TightSCF
|  2> *xyz 1 1
|  3> C          0.64866        1.00359       -3.64560
|  4> N          0.28128        0.67645       -2.24018
|  5> C          0.13297        2.38587       -4.02462
|  6> H          0.39079       -0.31925       -2.02649
|  7> H         -0.69269        0.99010       -2.13812
|  8> H          0.85421        1.21221       -1.57528
|  9> H          0.19099        0.23965       -4.27575
| 10> H          1.73157        0.93173       -3.75075
| 11> H          0.40589        2.60338       -5.03610
| 12> H          0.56342        3.11797       -3.37374
| 13> H         -0.93265        2.40724       -3.93025
| 14> *
| 15> %MaxCore 64000
| 16>
| 17> %pal nprocs 4
| 18> end
| 19>
| 20> %scf
| 21>   MaxIter 150
| 22> end
| 23>
| 24>
| 25>                          ****END OF INPUT****

CARTESIAN COORDINATES (ANGSTROEM)
---------------------------------
  C      0.648660    1.003590   -3.645600
  N      0.281280    0.676450   -2.240180
  C      0.132970    2.385870   -4.024620
  H      0.390790   -0.319250   -2.026490
  H     -0.692690    0.990100   -2.138120
  H      0.854210    1.212210   -1.575280
  H      0.190990    0.239650   -4.275750
  H      1.731570    0.931730   -3.750750
  H      0.405890    2.603380   -5.036100
  H      0.563420    3.117970   -3.373740
  H     -0.932650    2.407240   -3.930250

 Total Charge           Charge          ....    1
 Multiplicity           Mult            ....    1
 Number of Electrons    NEL             ....   26
 Basis Dimension        Dim             ....  183

ORBITAL ENERGIES
----------------

  NO   OCC          E(Eh)            E(eV)
   0   2.0000     -14.718424      -400.5087
   1   2.0000     -10.475517      -285.0533
   2   2.0000     -10.396955      -282.9155
   3   2.0000      -1.243476       -33.8367
   4   2.0000      -0.989127       -26.9155
   5   2.0000      -0.864589       -23.5267
   6   2.0000      -0.815974       -22.2038
   7   2.0000      -0.808993       -22.0138
   8   2.0000      -0.709443       -19.3049
   9   2.0000      -0.656257       -17.8577
  10   2.0000      -0.598100       -16.2751
  11   2.0000      -0.583838       -15.8870
  12   2.0000      -0.565691       -15.3932
  13   0.0000      -0.191093        -5.1999
  14   0.0000      -0.131434        -3.5765
  15   0.0000      -0.128977        -3.5097
  16   0.0000      -0.124690        -3.3930
  17   0.0000      -0.091823        -2.4986

MULLIKEN ATOMIC CHARGES
-----------------------
   0 C :   -0.186508
   1 N :   -0.202049
   2 C :   -0.813590
   3 H :    0.322980
   4 H :    0.316982
   5 H :    0.330923
   6 H :    0.218237
   7 H :    0.213598
   8 H :    0.200810
   9 H :    0.279200
  10 H :    0.319417
Sum of atomic charges:    1.0000000

LOEWDIN ATOMIC CHARGES
----------------------
   0 C :   -0.202474
   1 N :    0.183390
   2 C :   -0.056084
   3 H :    0.180723
   4 H :    0.175919
   5 H :    0.182683
   6 H :    0.136347
   7 H :    0.136718
   8 H :    0.094252
   9 H :    0.084737
  10 H :    0.083788

  Mayer bond orders larger than 0.100000
B(  0-C ,  1-N ) :   1.0020 B(  0-C ,  2-C ) :   0.8218 B(  0-C ,  6-H ) :   0.9491
B(  0-C ,  7-H ) :   0.9600 B(  1-N ,  3-H ) :   0.8759 B(  1-N ,  4-H ) :   0.8693
B(  1-N ,  5-H ) :   0.8731 B(  2-C ,  8-H ) :   1.0118 B(  2-C ,  9-H ) :   0.9490
B(  2-C , 10-H ) :   0.9046

Dispersion correction           -0.005040354
FINAL SINGLE POINT ENERGY      -135.423666361445

DIPOLE MOMENT
-------------
                                X             Y             Z
Electronic contribution:      0.17028      -1.29285       1.30894
Nuclear contribution   :     -0.22655       0.48066      -0.09136
                        -----------------------------------------
Total Dipole Moment    :     -0.05627      -0.81219       1.21758
                        -----------------------------------------
Magnitude (a.u.)       :      1.46469
Magnitude (Debye)      :      3.72295

Rotational constants in cm-1:     0.998155     0.284845     0.251232
Rotational constants in MHz : 29923.943568  8539.431565  7531.732866

                             ****ORCA TERMINATED NORMALLY****
TOTAL RUN TIME: 0 days 0 hours 0 minutes 17 seconds 303 msec
