                         Program Version 5.0.0 -  RELEASE  -
|  1> !PBE0 D3BJ RIJCOSX def2-TZVPD def2/J TightSCF xyzfile
|  2>
|  3> *xyzfile 0 1 B.xyz
|  4>
|  5> %MaxCore 64000
|  6>
|  7> %pal nprocs 4
|  8> end
|  9>
| 10> %scf
| 11>   MaxIter 150
| 12> end
| 13>
| 14>
| 15>                          ****END OF INPUT****

CARTESIAN COORDINATES (ANGSTROEM)
---------------------------------
  C      0.648656    1.003595   -3.645601
  N      0.281280    0.676454   -2.240179
  C      0.132968    2.385869   -4.024618
  C     -1.366462    2.479106   -4.313932
  C     -2.357732    2.306858   -3.136753
  H     -1.636802    1.727095   -5.063993
  H     -1.582347    3.445605   -4.768687
  H      0.390790   -0.319253   -2.026495
  H     -0.692686    0.990104   -2.138123
  H      0.854206    1.212214   -1.575279
  O     -3.443763    2.846518   -3.252744
  O     -1.970922    1.583042   -2.151229
  H      0.190993    0.239655   -4.275752
  H      1.731572    0.931729   -3.750751
  H      0.414839    3.102847   -3.245165
  H      0.683167    2.687560   -4.919721

 Total Charge           Charge          ....    0
 Multiplicity           Mult            ....    1
 Number of Electrons    NEL             ....   56
 Basis Dimension        Dim             ....  346

ORBITAL ENERGIES
----------------

  NO   OCC          E(Eh)            E(eV)
   0   2.0000     -19.133229      -520.6416
   1   2.0000     -19.111443      -520.0488
   2   2.0000     -14.494737      -394.4218
   3   2.0000     -10.309958      -280.5482
   4   2.0000     -10.280179      -279.7379
   5   2.0000     -10.250533      -278.9312
   6   2.0000     -10.212294      -277.8907
   7   2.0000      -1.049861       -28.5682
   8   2.0000      -1.028671       -27.9916
   9   2.0000      -0.947193       -25.7744
  10   2.0000      -0.835815       -22.7437
  11   2.0000      -0.738527       -20.0963
  12   2.0000      -0.656763       -17.8714
  13   2.0000      -0.620835       -16.8938
  14   2.0000      -0.610540       -16.6136
  15   2.0000      -0.538994       -14.6668
  16   2.0000      -0.499680       -13.5970
  17   2.0000      -0.493584       -13.4311
  18   2.0000      -0.450391       -12.2558
  19   2.0000      -0.438976       -11.9451
  20   2.0000      -0.403433       -10.9780
  21   2.0000      -0.400058       -10.8861
  22   2.0000      -0.391305       -10.6480
  23   2.0000      -0.372165       -10.1271
  24   2.0000      -0.348446        -9.4817
  25   2.0000      -0.247334        -6.7303
  26   2.0000      -0.246400        -6.7049
  27   2.0000      -0.216409        -5.8888
  28   0.0000      -0.033760        -0.9187
  29   0.0000       0.004155         0.1131
  30   0.0000       0.006584         0.1792
  31   0.0000       0.028921         0.7870
  32   0.0000       0.045151         1.2286

MULLIKEN ATOMIC CHARGES
-----------------------
   0 C :   -0.350285
   1 N :   -0.017739
   2 C :   -0.014725
   3 C :   -0.257288
   4 C :    0.351967
   5 H :    0.139776
   6 H :    0.129713
   7 H :    0.314234
   8 H :    0.118857
   9 H :    0.343739
  10 O :   -0.582332
  11 O :   -0.745715
  12 H :    0.216912
  13 H :    0.149562
  14 H :    0.102676
  15 H :    0.100648
Sum of atomic charges:   -0.0000000

LOEWDIN ATOMIC CHARGES
----------------------
   0 C :   -0.170198
   1 N :    0.146218
   2 C :   -0.192193
   3 C :   -0.117827
   4 C :   -0.670065
   5 H :    0.119332
   6 H :    0.112455
   7 H :    0.161990
   8 H :   -0.004651
   9 H :    0.166422
  10 O :    0.022522
  11 O :   -0.061792
  12 H :    0.131619
  13 H :    0.118875
  14 H :    0.123518
  15 H :    0.113772

  Mayer bond orders larger than 0.100000
B(  0-C ,  1-N ) :   1.0167 B(  0-C ,  2-C ) :   0.9052 B(  0-C ,  3-C ) :   0.1314
B(  0-C , 12-H ) :   0.9253 B(  0-C , 13-H ) :   1.0073 B(  1-N ,  7-H ) :   0.8582
B(  1-N ,  8-H ) :   0.8770 B(  1-N ,  9-H ) :   0.8362 B(  2-C ,  3-C ) :   0.9734
B(  2-C , 14-H ) :   0.9886 B(  2-C , 15-H ) :   0.9900 B(  3-C ,  4-C ) :   1.0264
B(  3-C ,  5-H ) :   0.9213 B(  3-C ,  6-H ) :   1.0111 B(  4-C , 10-O ) :   1.6354
B(  4-C , 11-O ) :   1.2772 B(  8-H , 11-O ) :   0.2258

Dispersion correction           -0.011604765
FINAL SINGLE POINT ENERGY      -362.783025641659

DIPOLE MOMENT
-------------
                                X             Y             Z
Electronic contribution:     -5.84244       0.94610       2.53924
Nuclear contribution   :      9.92875      -2.62114      -2.63866
                        -----------------------------------------
Total Dipole Moment    :      4.08631      -1.67504      -0.09942
                        -----------------------------------------
Magnitude (a.u.)       :      4.41742
Magnitude (Debye)      :     11.22818

Rotational constants in cm-1:     0.159108     0.062474     0.047603
Rotational constants in MHz :  4769.938632  1872.932224  1427.103830

                             ****ORCA TERMINATED NORMALLY****
TOTAL RUN TIME: 0 days 0 hours 1 minutes 8 seconds 196 msec
