                         Program Version 5.0.0 -  RELEASE  -
|  1> !PBE0 D3BJ RIJCOSX def2-TZVPD def2/J TightSCF
|  2> *xyz 0 1
|  3> C          0.13297        2.38587       -4.02462
|  4> C         -1.36646        2.47911       -4.31393
|  5> C         -2.35773        2.30686       -3.13675
|  6> H         -1.63680        1.72709       -5.06399
|  7> H         -1.58235        3.44561       -4.76869
|  8> F         -3.44376        2.84652       -3.25274
|  9> O         -1.97092        1.58304       -2.15123
| 10> H          0.68084        2.52514       -4.93310
| 11> H          0.35823        1.42282       -3.61633
| 12> H          0.40851        3.14443       -3.32208
| 13> *
| 14> %MaxCore 64000
| 15>
| 16> %pal nprocs 4
| 17> end
| 18>
| 19> %scf
| 20>   MaxIter 150
| 21> end
| 22>
| 23>
| 24>                          ****END OF INPUT****

CARTESIAN COORDINATES (ANGSTROEM)
---------------------------------
  C      0.132970    2.385870   -4.024620
  C     -1.366460    2.479110   -4.313930
  C     -2.357730    2.306860   -3.136750
  H     -1.636800    1.727090   -5.063990
  H     -1.582350    3.445610   -4.768690
  F     -3.443760    2.846520   -3.252740
  O     -1.970920    1.583040   -2.151230
  H      0.680840    2.525140   -4.933100
  H      0.358230    1.422820   -3.616330
  H      0.408510    3.144430   -3.322080

 Total Charge           Charge          ....    0
 Multiplicity           Mult            ....    1
 Number of Electrons    NEL             ....   40
 Basis Dimension        Dim             ....  236

ORBITAL ENERGIES
----------------

  NO   OCC          E(Eh)            E(eV)
   0   2.0000     -24.856909      -676.3909
   1   2.0000     -19.208116      -522.6794
   2   2.0000     -10.403152      -283.0842
   3   2.0000     -10.255311      -279.0612
   4   2.0000     -10.220385      -278.1108
   5   2.0000      -1.382200       -37.6116
   6   2.0000      -1.045243       -28.4425
   7   2.0000      -0.820546       -22.3282
   8   2.0000      -0.722021       -19.6472
   9   2.0000      -0.666426       -18.1344
  10   2.0000      -0.583364       -15.8741
  11   2.0000      -0.566253       -15.4085
  12   2.0000      -0.524953       -14.2847
  13   2.0000      -0.481421       -13.1001
  14   2.0000      -0.445100       -12.1118
  15   2.0000      -0.406432       -11.0596
  16   2.0000      -0.387095       -10.5334
  17   2.0000      -0.384598       -10.4654
  18   2.0000      -0.355427        -9.6717
  19   2.0000      -0.300700        -8.1825
  20   0.0000      -0.024839        -0.6759
  21   0.0000       0.007902         0.2150
  22   0.0000       0.032841         0.8936
  23   0.0000       0.045066         1.2263
  24   0.0000       0.055364         1.5065

MULLIKEN ATOMIC CHARGES
-----------------------
   0 C :   -0.710485
   1 C :    0.002729
   2 C :    0.396235
   3 H :    0.158622
   4 H :    0.195546
   5 F :   -0.161745
   6 O :   -0.477180
   7 H :    0.194261
   8 H :    0.202840
   9 H :    0.199177
Sum of atomic charges:   -0.0000000

LOEWDIN ATOMIC CHARGES
----------------------
   0 C :   -0.093741
   1 C :   -0.158374
   2 C :   -0.494166
   3 H :    0.121956
   4 H :    0.107428
   5 F :    0.249224
   6 O :    0.054440
   7 H :    0.068410
   8 H :    0.071050
   9 H :    0.073773

  Mayer bond orders larger than 0.100000
B(  0-C ,  1-C ) :   0.8864 B(  0-C ,  2-C ) :   0.1077 B(  0-C ,  7-H ) :   0.9860
B(  0-C ,  8-H ) :   0.9870 B(  0-C ,  9-H ) :   0.9720 B(  1-C ,  2-C ) :   0.9582
B(  1-C ,  3-H ) :   0.9102 B(  1-C ,  4-H ) :   0.9407 B(  2-C ,  5-F ) :   1.0961
B(  2-C ,  6-O ) :   1.7812

Dispersion correction           -0.005122514
FINAL SINGLE POINT ENERGY      -292.190874379859

DIPOLE MOMENT
-------------
                                X             Y             Z
Electronic contribution:     -8.37307       0.47453       3.57602
Nuclear contribution   :      8.54799       0.05434      -4.66633
                        -----------------------------------------
Total Dipole Moment    :      0.17492       0.52887      -1.09031
                        -----------------------------------------
Magnitude (a.u.)       :      1.22437
Magnitude (Debye)      :      3.11209

Rotational constants in cm-1:     0.325803     0.123345     0.094275
Rotational constants in MHz :  9767.324172  3697.779805  2826.305733

                             ****ORCA TERMINATED NORMALLY****
TOTAL RUN TIME: 0 days 0 hours 0 minutes 29 seconds 967 msec
