                         Program Version 5.0.0 -  RELEASE  -
|  1> !PBE0 D3BJ RIJCOSX def2-TZVPD def2/J TightSCF
|  2> *xyz 0 1
|  3> C          0.64866        1.00359       -3.64560
|  4> C          0.28128        0.67645       -2.24018
|  5> C          0.13297        2.38587       -4.02462
|  6> H          0.39079       -0.31925       -2.02649
|  7> H         -0.69269        0.99010       -2.13812
|  8> H          0.85421        1.21221       -1.57528
|  9> H          0.19099        0.23965       -4.27575
| 10> H          1.73157        0.93173       -3.75075
| 11> H          0.40589        2.60338       -5.03610
| 12> H          0.56342        3.11797       -3.37374
| 13> H         -0.93265        2.40724       -3.93025
| 14> *
| 15> %MaxCore 64000
| 16>
| 17> %pal nprocs 4
| 18> end
| 19>
| 20> %scf
| 21>   MaxIter 150
| 22> end
| 23>
| 24>
| 25>                          ****END OF INPUT****

CARTESIAN COORDINATES (ANGSTROEM)
---------------------------------
  C      0.648660    1.003590   -3.645600
  C      0.281280    0.676450   -2.240180
  C      0.132970    2.385870   -4.024620
  H      0.390790   -0.319250   -2.026490
  H     -0.692690    0.990100   -2.138120
  H      0.854210    1.212210   -1.575280
  H      0.190990    0.239650   -4.275750
  H      1.731570    0.931730   -3.750750
  H      0.405890    2.603380   -5.036100
  H      0.563420    3.117970   -3.373740
  H     -0.932650    2.407240   -3.930250

 Total Charge           Charge          ....    0
 Multiplicity           Mult            ....    1
 Number of Electrons    NEL             ....   26
 Basis Dimension        Dim             ....  183

ORBITAL ENERGIES
----------------

  NO   OCC          E(Eh)            E(eV)
   0   2.0000     -10.206451      -277.7316
   1   2.0000     -10.196926      -277.4725
   2   2.0000     -10.177194      -276.9355
   3   2.0000      -0.816395       -22.2152
   4   2.0000      -0.709496       -19.3064
   5   2.0000      -0.603272       -16.4159
   6   2.0000      -0.482005       -13.1160
   7   2.0000      -0.463365       -12.6088
   8   2.0000      -0.415053       -11.2942
   9   2.0000      -0.398678       -10.8486
  10   2.0000      -0.349360        -9.5066
  11   2.0000      -0.345381        -9.3983
  12   2.0000      -0.337657        -9.1881
  13   0.0000       0.020818         0.5665
  14   0.0000       0.044700         1.2164
  15   0.0000       0.047300         1.2871
  16   0.0000       0.067888         1.8473
  17   0.0000       0.088811         2.4167

MULLIKEN ATOMIC CHARGES
-----------------------
   0 C :    0.208440
   1 C :   -0.945929
   2 C :   -0.824099
   3 H :    0.203346
   4 H :    0.230988
   5 H :    0.254702
   6 H :    0.121830
   7 H :    0.127174
   8 H :    0.170401
   9 H :    0.218909
  10 H :    0.234238
Sum of atomic charges:   -0.0000000

LOEWDIN ATOMIC CHARGES
----------------------
   0 C :   -0.320040
   1 C :   -0.127757
   2 C :   -0.118876
   3 H :    0.051841
   4 H :    0.053660
   5 H :    0.056963
   6 H :    0.103788
   7 H :    0.103570
   8 H :    0.061490
   9 H :    0.068672
  10 H :    0.066687

  Mayer bond orders larger than 0.100000
B(  0-C ,  1-C ) :   0.7471 B(  0-C ,  2-C ) :   0.7545 B(  0-C ,  6-H ) :   0.9790
B(  0-C ,  7-H ) :   0.9620 B(  1-C ,  2-C ) :   0.2119 B(  1-C ,  3-H ) :   1.0039
B(  1-C ,  4-H ) :   0.9975 B(  1-C ,  5-H ) :   0.9792 B(  2-C ,  8-H ) :   1.0247
B(  2-C ,  9-H ) :   0.9925 B(  2-C , 10-H ) :   0.9851

Dispersion correction           -0.005059642
FINAL SINGLE POINT ENERGY      -119.019914039874

DIPOLE MOMENT
-------------
                                X             Y             Z
Electronic contribution:      0.25979      -0.28073      -0.24458
Nuclear contribution   :     -0.24754       0.26111       0.24628
                        -----------------------------------------
Total Dipole Moment    :      0.01225      -0.01962       0.00170
                        -----------------------------------------
Magnitude (a.u.)       :      0.02320
Magnitude (Debye)      :      0.05896

Rotational constants in cm-1:     1.006509     0.299509     0.263145
Rotational constants in MHz : 30174.379724  8979.049324  7888.875355

                             ****ORCA TERMINATED NORMALLY****
TOTAL RUN TIME: 0 days 0 hours 0 minutes 17 seconds 457 msec
