                         Program Version 5.0.0 -  RELEASE  -
|  1> !PBE0 D3BJ RIJCOSX def2-TZVPD def2/J TightSCF
|  2> *xyz 0 1
|  3> C          0.13297        2.38587       -4.02462
|  4> C         -1.36646        2.47911       -4.31393
|  5> C         -2.35773        2.30686       -3.13675
|  6> H         -1.63680        1.72709       -5.06399
|  7> H         -1.58235        3.44561       -4.76869
|  8> O         -3.44376        2.84652       -3.25274
|  9> F         -1.97092        1.58304       -2.15123
| 10> H          0.68084        2.52514       -4.93310
| 11> H          0.35823        1.42282       -3.61633
| 12> H          0.40851        3.14443       -3.32208
| 13> *
| 14> %MaxCore 64000
| 15>
| 16> %pal nprocs 4
| 17> end
| 18>
| 19> %scf
| 20>   MaxIter 150
| 21> end
| 22>
| 23>
| 24>                          ****END OF INPUT****

CARTESIAN COORDINATES (ANGSTROEM)
---------------------------------
  C      0.132970    2.385870   -4.024620
  C     -1.366460    2.479110   -4.313930
  C     -2.357730    2.306860   -3.136750
  H     -1.636800    1.727090   -5.063990
  H     -1.582350    3.445610   -4.768690
  O     -3.443760    2.846520   -3.252740
  F     -1.970920    1.583040   -2.151230
  H      0.680840    2.525140   -4.933100
  H      0.358230    1.422820   -3.616330
  H      0.408510    3.144430   -3.322080

 Total Charge           Charge          ....    0
 Multiplicity           Mult            ....    1
 Number of Electrons    NEL             ....   40
 Basis Dimension        Dim             ....  236

ORBITAL ENERGIES
----------------

  NO   OCC          E(Eh)            E(eV)
   0   2.0000     -24.833211      -675.7460
   1   2.0000     -19.216737      -522.9140
   2   2.0000     -10.397366      -282.9267
   3   2.0000     -10.253727      -279.0181
   4   2.0000     -10.225148      -278.2404
   5   2.0000      -1.333714       -36.2922
   6   2.0000      -1.086127       -29.5550
   7   2.0000      -0.822803       -22.3896
   8   2.0000      -0.702879       -19.1263
   9   2.0000      -0.657975       -17.9044
  10   2.0000      -0.557512       -15.1707
  11   2.0000      -0.552559       -15.0359
  12   2.0000      -0.515507       -14.0277
  13   2.0000      -0.481538       -13.1033
  14   2.0000      -0.448112       -12.1937
  15   2.0000      -0.420606       -11.4453
  16   2.0000      -0.404170       -10.9980
  17   2.0000      -0.388075       -10.5601
  18   2.0000      -0.368058       -10.0154
  19   2.0000      -0.311460        -8.4753
  20   0.0000      -0.019965        -0.5433
  21   0.0000       0.006071         0.1652
  22   0.0000       0.035623         0.9694
  23   0.0000       0.042904         1.1675
  24   0.0000       0.055618         1.5134

MULLIKEN ATOMIC CHARGES
-----------------------
   0 C :   -0.738673
   1 C :    0.074443
   2 C :    0.316025
   3 H :    0.163093
   4 H :    0.174756
   5 O :   -0.424042
   6 F :   -0.182240
   7 H :    0.187872
   8 H :    0.214469
   9 H :    0.214297
Sum of atomic charges:    0.0000000

LOEWDIN ATOMIC CHARGES
----------------------
   0 C :   -0.101273
   1 C :   -0.150373
   2 C :   -0.485207
   3 H :    0.122766
   4 H :    0.115762
   5 O :    0.111847
   6 F :    0.179012
   7 H :    0.068336
   8 H :    0.067438
   9 H :    0.071692

  Mayer bond orders larger than 0.100000
B(  0-C ,  1-C ) :   0.8335 B(  0-C ,  7-H ) :   1.0023 B(  0-C ,  8-H ) :   0.9767
B(  0-C ,  9-H ) :   0.9809 B(  1-C ,  2-C ) :   0.9389 B(  1-C ,  3-H ) :   0.9044
B(  1-C ,  4-H ) :   0.9559 B(  2-C ,  5-O ) :   1.8650 B(  2-C ,  6-F ) :   1.0520

Dispersion correction           -0.005082640
FINAL SINGLE POINT ENERGY      -292.208240321847

DIPOLE MOMENT
-------------
                                X             Y             Z
Electronic contribution:     -5.89773      -1.62706       5.39248
Nuclear contribution   :      6.94213       1.43193      -5.86732
                        -----------------------------------------
Total Dipole Moment    :      1.04440      -0.19514      -0.47484
                        -----------------------------------------
Magnitude (a.u.)       :      1.16375
Magnitude (Debye)      :      2.95802

Rotational constants in cm-1:     0.306336     0.129048     0.095707
Rotational constants in MHz :  9183.725605  3868.769583  2869.236577

                             ****ORCA TERMINATED NORMALLY****
TOTAL RUN TIME: 0 days 0 hours 0 minutes 29 seconds 833 msec
