                         Program Version 5.0.0 -  RELEASE  -
|  1> !PBE0 D3BJ RIJCOSX def2-TZVPD def2/J TightSCF xyzfile
|  2>
|  3> *xyzfile 0 1 D1.xyz
|  4>
|  5> %MaxCore 64000
|  6>
|  7> %pal nprocs 4
|  8> end
|  9>
| 10> %scf
| 11>   MaxIter 150
| 12> end
| 13>
| 14>
| 15>                          ****END OF INPUT****

CARTESIAN COORDINATES (ANGSTROEM)
---------------------------------
  C      0.648656    1.003595   -3.645601
  C      0.281280    0.676454   -2.240179
  C      0.132968    2.385869   -4.024618
  C     -1.366462    2.479106   -4.313932
  C     -2.357732    2.306858   -3.136753
  H     -1.636802    1.727095   -5.063993
  H     -1.582347    3.445605   -4.768687
  H      0.390790   -0.319253   -2.026495
  H     -0.692686    0.990104   -2.138123
  H      0.854206    1.212214   -1.575279
  F     -3.443763    2.846518   -3.252744
  O     -1.970922    1.583042   -2.151229
  H      0.190993    0.239655   -4.275752
  H      1.731572    0.931729   -3.750751
  H      0.414839    3.102847   -3.245165
  H      0.683167    2.687560   -4.919721

 Total Charge           Charge          ....    0
 Multiplicity           Mult            ....    1
 Number of Electrons    NEL             ....   56
 Basis Dimension        Dim             ....  346

ORBITAL ENERGIES
----------------

  NO   OCC          E(Eh)            E(eV)
   0   2.0000     -24.867670      -676.6837
   1   2.0000     -19.217081      -522.9234
   2   2.0000     -10.418281      -283.4958
   3   2.0000     -10.260302      -279.1970
   4   2.0000     -10.229784      -278.3666
   5   2.0000     -10.200954      -277.5821
   6   2.0000     -10.127655      -275.5875
   7   2.0000      -1.392784       -37.8996
   8   2.0000      -1.069425       -29.1005
   9   2.0000      -0.840277       -22.8651
  10   2.0000      -0.781207       -21.2577
  11   2.0000      -0.713273       -19.4091
  12   2.0000      -0.678921       -18.4744
  13   2.0000      -0.601489       -16.3673
  14   2.0000      -0.591063       -16.0836
  15   2.0000      -0.577486       -15.7142
  16   2.0000      -0.543544       -14.7906
  17   2.0000      -0.496483       -13.5100
  18   2.0000      -0.466037       -12.6815
  19   2.0000      -0.449737       -12.2380
  20   2.0000      -0.424041       -11.5388
  21   2.0000      -0.396192       -10.7809
  22   2.0000      -0.390637       -10.6298
  23   2.0000      -0.369067       -10.0428
  24   2.0000      -0.354805        -9.6547
  25   2.0000      -0.331618        -9.0238
  26   2.0000      -0.323040        -8.7904
  27   2.0000      -0.258953        -7.0465
  28   0.0000      -0.038787        -1.0554
  29   0.0000       0.006303         0.1715
  30   0.0000       0.029002         0.7892
  31   0.0000       0.035005         0.9525
  32   0.0000       0.041836         1.1384

MULLIKEN ATOMIC CHARGES
-----------------------
   0 C :    0.012905
   1 C :   -0.780660
   2 C :   -0.119399
   3 C :   -0.236354
   4 C :    0.455799
   5 H :    0.192905
   6 H :    0.174064
   7 H :    0.192733
   8 H :    0.115625
   9 H :    0.255279
  10 F :   -0.197909
  11 O :   -0.456181
  12 H :    0.172509
  13 H :    0.034947
  14 H :    0.120927
  15 H :    0.062809
Sum of atomic charges:   -0.0000000

LOEWDIN ATOMIC CHARGES
----------------------
   0 C :   -0.253344
   1 C :   -0.122905
   2 C :   -0.202368
   3 C :   -0.088658
   4 C :   -0.425529
   5 H :    0.131533
   6 H :    0.113657
   7 H :    0.057117
   8 H :   -0.052998
   9 H :    0.063156
  10 F :    0.264996
  11 O :    0.063682
  12 H :    0.111775
  13 H :    0.105351
  14 H :    0.124422
  15 H :    0.110113

  Mayer bond orders larger than 0.100000
B(  0-C ,  1-C ) :   0.8197 B(  0-C ,  2-C ) :   0.9037 B(  0-C ,  3-C ) :   0.1516
B(  0-C , 12-H ) :   0.9319 B(  0-C , 13-H ) :   1.0152 B(  1-C ,  2-C ) :   0.1894
B(  1-C ,  7-H ) :   0.9801 B(  1-C ,  8-H ) :   1.2195 B(  1-C ,  9-H ) :   0.9799
B(  2-C ,  3-C ) :   1.0112 B(  2-C , 14-H ) :   0.9794 B(  2-C , 15-H ) :   1.0103
B(  3-C ,  4-C ) :   0.9312 B(  3-C ,  5-H ) :   0.9147 B(  3-C ,  6-H ) :   0.9692
B(  4-C , 10-F ) :   1.0833 B(  4-C , 11-O ) :   1.7583 B(  7-H ,  8-H ) :   0.1090
B(  8-H , 11-O ) :  -0.2282

Dispersion correction           -0.011324148
FINAL SINGLE POINT ENERGY      -370.696989683225

DIPOLE MOMENT
-------------
                                X             Y             Z
Electronic contribution:    -13.00314       4.58309       1.42375
Nuclear contribution   :     12.79331      -3.91961      -2.45895
                        -----------------------------------------
Total Dipole Moment    :     -0.20983       0.66348      -1.03520
                        -----------------------------------------
Magnitude (a.u.)       :      1.24734
Magnitude (Debye)      :      3.17050

Rotational constants in cm-1:     0.162888     0.059977     0.046450
Rotational constants in MHz :  4883.250030  1798.063289  1392.548669

                             ****ORCA TERMINATED NORMALLY****
TOTAL RUN TIME: 0 days 0 hours 1 minutes 12 seconds 374 msec
