                         Program Version 5.0.0 -  RELEASE  -
|  1> !PBE0 D3BJ RIJCOSX def2-TZVPD def2/J TightSCF xyzfile
|  2>
|  3> *xyzfile 0 1 D2.xyz
|  4>
|  5> %MaxCore 64000
|  6>
|  7> %pal nprocs 4
|  8> end
|  9>
| 10> %scf
| 11>   MaxIter 150
| 12> end
| 13>
| 14>
| 15>                          ****END OF INPUT****

CARTESIAN COORDINATES (ANGSTROEM)
---------------------------------
  C      0.648656    1.003595   -3.645601
  C      0.281280    0.676454   -2.240179
  C      0.132968    2.385869   -4.024618
  C     -1.366462    2.479106   -4.313932
  C     -2.357732    2.306858   -3.136753
  H     -1.636802    1.727095   -5.063993
  H     -1.582347    3.445605   -4.768687
  H      0.390790   -0.319253   -2.026495
  H     -0.692686    0.990104   -2.138123
  H      0.854206    1.212214   -1.575279
  O     -3.443763    2.846518   -3.252744
  F     -1.970922    1.583042   -2.151229
  H      0.190993    0.239655   -4.275752
  H      1.731572    0.931729   -3.750751
  H      0.414839    3.102847   -3.245165
  H      0.683167    2.687560   -4.919721

 Total Charge           Charge          ....    0
 Multiplicity           Mult            ....    1
 Number of Electrons    NEL             ....   56
 Basis Dimension        Dim             ....  346

ORBITAL ENERGIES
----------------

  NO   OCC          E(Eh)            E(eV)
   0   2.0000     -24.844854      -676.0629
   1   2.0000     -19.223970      -523.1108
   2   2.0000     -10.405038      -283.1355
   3   2.0000     -10.256334      -279.0890
   4   2.0000     -10.233344      -278.4634
   5   2.0000     -10.214428      -277.9487
   6   2.0000     -10.159356      -276.4501
   7   2.0000      -1.356073       -36.9006
   8   2.0000      -1.093845       -29.7650
   9   2.0000      -0.848390       -23.0859
  10   2.0000      -0.787364       -21.4253
  11   2.0000      -0.700529       -19.0624
  12   2.0000      -0.697660       -18.9843
  13   2.0000      -0.603314       -16.4170
  14   2.0000      -0.580480       -15.7957
  15   2.0000      -0.568560       -15.4713
  16   2.0000      -0.525920       -14.3110
  17   2.0000      -0.487316       -13.2605
  18   2.0000      -0.468214       -12.7407
  19   2.0000      -0.462663       -12.5897
  20   2.0000      -0.436070       -11.8661
  21   2.0000      -0.405018       -11.0211
  22   2.0000      -0.398238       -10.8366
  23   2.0000      -0.378466       -10.2986
  24   2.0000      -0.349534        -9.5113
  25   2.0000      -0.344327        -9.3696
  26   2.0000      -0.336458        -9.1555
  27   2.0000      -0.305439        -8.3114
  28   0.0000      -0.027261        -0.7418
  29   0.0000       0.007963         0.2167
  30   0.0000       0.030045         0.8176
  31   0.0000       0.032262         0.8779
  32   0.0000       0.035681         0.9709

MULLIKEN ATOMIC CHARGES
-----------------------
   0 C :    0.047245
   1 C :   -1.016633
   2 C :   -0.151955
   3 C :   -0.178028
   4 C :    0.343914
   5 H :    0.192058
   6 H :    0.156083
   7 H :    0.210785
   8 H :    0.295522
   9 H :    0.276326
  10 O :   -0.443124
  11 F :   -0.173879
  12 H :    0.184316
  13 H :    0.051684
  14 H :    0.139575
  15 H :    0.066110
Sum of atomic charges:    0.0000000

LOEWDIN ATOMIC CHARGES
----------------------
   0 C :   -0.253682
   1 C :   -0.105414
   2 C :   -0.210041
   3 C :   -0.087396
   4 C :   -0.447879
   5 H :    0.131410
   6 H :    0.121474
   7 H :    0.060454
   8 H :   -0.012838
   9 H :    0.066106
  10 O :    0.126378
  11 F :    0.157605
  12 H :    0.112908
  13 H :    0.107880
  14 H :    0.122574
  15 H :    0.110460

  Mayer bond orders larger than 0.100000
B(  0-C ,  1-C ) :   0.7933 B(  0-C ,  2-C ) :   0.8476 B(  0-C ,  3-C ) :   0.1331
B(  0-C , 12-H ) :   0.9437 B(  0-C , 13-H ) :   1.0137 B(  1-C ,  2-C ) :   0.2579
B(  1-C ,  7-H ) :   0.9501 B(  1-C ,  8-H ) :   1.1751 B(  1-C ,  9-H ) :   0.9504
B(  1-C , 11-F ) :   0.1026 B(  2-C ,  3-C ) :   0.9767 B(  2-C , 14-H ) :   0.9950
B(  2-C , 15-H ) :   1.0181 B(  3-C ,  4-C ) :   0.9189 B(  3-C ,  5-H ) :   0.9041
B(  3-C ,  6-H ) :   1.0009 B(  4-C , 10-O ) :   1.8542 B(  4-C , 11-F ) :   1.0309
B(  8-H , 11-F ) :  -0.2248

Dispersion correction           -0.011170234
FINAL SINGLE POINT ENERGY      -370.715082590984

DIPOLE MOMENT
-------------
                                X             Y             Z
Electronic contribution:    -10.27546       2.33618       3.30284
Nuclear contribution   :     11.08738      -2.45618      -3.73478
                        -----------------------------------------
Total Dipole Moment    :      0.81192      -0.12000      -0.43194
                        -----------------------------------------
Magnitude (a.u.)       :      0.92746
Magnitude (Debye)      :      2.35742

Rotational constants in cm-1:     0.156244     0.063730     0.048063
Rotational constants in MHz :  4684.071402  1910.571278  1440.877811

                             ****ORCA TERMINATED NORMALLY****
TOTAL RUN TIME: 0 days 0 hours 1 minutes 8 seconds 61 msec
