                         Program Version 5.0.0 -  RELEASE  -
|  1> !BLYP D3BJ RIJCOSX def2-TZVP def2/J TightSCF
|  2> *xyz -1 1
|  3> C          4.93020       -7.37532       -2.64962
|  4> C          3.84189       -6.95161       -3.63283
|  5> H          3.45814       -5.95442       -3.40712
|  6> H          2.98848       -7.64361       -3.56708
|  7> S          4.31812       -6.91593       -5.36869
|  8> O          5.40615       -5.89948       -5.51297
|  9> O          3.11191       -6.44508       -6.04379
| 10> O          4.76340       -8.23942       -5.69863
| 11> H          5.27901       -8.35440       -2.90385
| 12> H          4.53000       -7.38577       -1.65734
| 13> H          5.74437       -6.68276       -2.69856
| 14> *
| 15>
| 16> %MaxCore 64000
| 17>
| 18> %pal nprocs 4
| 19> end
| 20>
| 21> %scf
| 22>   MaxIter 150
| 23> end
| 24>
| 25>
| 26>                          ****END OF INPUT****

CARTESIAN COORDINATES (ANGSTROEM)
---------------------------------
  C      4.930200   -7.375320   -2.649620
  C      3.841890   -6.951610   -3.632830
  H      3.458140   -5.954420   -3.407120
  H      2.988480   -7.643610   -3.567080
  S      4.318120   -6.915930   -5.368690
  O      5.406150   -5.899480   -5.512970
  O      3.111910   -6.445080   -6.043790
  O      4.763400   -8.239420   -5.698630
  H      5.279010   -8.354400   -2.903850
  H      4.530000   -7.385770   -1.657340
  H      5.744370   -6.682760   -2.698560

 Total Charge           Charge          ....   -1
 Multiplicity           Mult            ....    1
 Number of Electrons    NEL             ....   58
 Basis Dimension        Dim             ....  222

ORBITAL ENERGIES
----------------

  NO   OCC          E(Eh)            E(eV)
   0   2.0000     -88.070908     -2396.5312
   1   2.0000     -18.545552      -504.6501
   2   2.0000     -18.536263      -504.3974
   3   2.0000     -18.528672      -504.1908
   4   2.0000      -9.761025      -265.6110
   5   2.0000      -9.756369      -265.4843
   6   2.0000      -7.601326      -206.8426
   7   2.0000      -5.629937      -153.1984
   8   2.0000      -5.629120      -153.1761
   9   2.0000      -5.628763      -153.1664
  10   2.0000      -0.814785       -22.1714
  11   2.0000      -0.692276       -18.8378
  12   2.0000      -0.663853       -18.0643
  13   2.0000      -0.549433       -14.9508
  14   2.0000      -0.432168       -11.7599
  15   2.0000      -0.313305        -8.5254
  16   2.0000      -0.260523        -7.0892
  17   2.0000      -0.249068        -6.7775
  18   2.0000      -0.214300        -5.8314
  19   2.0000      -0.196748        -5.3538
  20   2.0000      -0.193330        -5.2608
  21   2.0000      -0.175152        -4.7661
  22   2.0000      -0.161153        -4.3852
  23   2.0000      -0.089636        -2.4391
  24   2.0000      -0.087667        -2.3855
  25   2.0000      -0.060455        -1.6451
  26   2.0000      -0.053551        -1.4572
  27   2.0000      -0.041174        -1.1204
  28   2.0000      -0.004564        -0.1242
  29   0.0000       0.152388         4.1467
  30   0.0000       0.195348         5.3157
  31   0.0000       0.209912         5.7120
  32   0.0000       0.214558         5.8384
  33   0.0000       0.240012         6.5311

MULLIKEN ATOMIC CHARGES
-----------------------
   0 C :   -0.277291
   1 C :   -0.177184
   2 H :    0.056560
   3 H :    0.046117
   4 S :    0.737527
   5 O :   -0.571797
   6 O :   -0.530509
   7 O :   -0.504471
   8 H :    0.088613
   9 H :    0.045859
  10 H :    0.086576
Sum of atomic charges:   -1.0000000

LOEWDIN ATOMIC CHARGES
----------------------
   0 C :   -0.339466
   1 C :   -0.433092
   2 H :    0.113905
   3 H :    0.113906
   4 S :    0.394571
   5 O :   -0.427414
   6 O :   -0.383684
   7 O :   -0.352915
   8 H :    0.109403
   9 H :    0.095604
  10 H :    0.109182

  Mayer bond orders larger than 0.100000
B(  0-C ,  1-C ) :   0.9321 B(  0-C ,  8-H ) :   0.9735 B(  0-C ,  9-H ) :   0.9578
B(  0-C , 10-H ) :   0.9722 B(  1-C ,  2-H ) :   0.9568 B(  1-C ,  3-H ) :   0.9504
B(  1-C ,  4-S ) :   0.8445 B(  4-S ,  5-O ) :   1.7456 B(  4-S ,  6-O ) :   1.8253
B(  4-S ,  7-O ) :   1.8084

Dispersion correction           -0.020378313
FINAL SINGLE POINT ENERGY      -703.241429391068

DIPOLE MOMENT
-------------
                                X             Y             Z
Electronic contribution:     -0.34400       0.83287      -7.98520
Nuclear contribution   :      0.07504      -1.14369       9.75001
                        -----------------------------------------
Total Dipole Moment    :     -0.26896      -0.31082       1.76481
                        -----------------------------------------
Magnitude (a.u.)       :      1.81204
Magnitude (Debye)      :      4.60584

Rotational constants in cm-1:     0.160553     0.082191     0.080550
Rotational constants in MHz :  4813.250478  2464.013016  2414.833054

                             ****ORCA TERMINATED NORMALLY****
TOTAL RUN TIME: 0 days 0 hours 0 minutes 11 seconds 9 msec
