                         Program Version 5.0.0 -  RELEASE  -
|  1> !BLYP D3BJ RIJCOSX def2-TZVP def2/J TightSCF
|  2> *xyz 1 1
|  3> C          5.55821       -1.99291       -6.21505
|  4> C          4.18188       -2.58967       -6.29891
|  5> N          3.14587       -1.76843       -6.48675
|  6> N          4.01910       -3.86431       -6.22743
|  7> H          4.76849       -4.59115       -5.99077
|  8> H          3.12241       -4.33339       -6.31462
|  9> H          3.28164       -0.77779       -6.56655
| 10> H          2.21255       -2.13419       -6.56225
| 11> C          6.41926       -2.54294       -5.07763
| 12> H          6.03683       -2.19819       -7.17685
| 13> H          5.46761       -0.90737       -6.12797
| 14> H          6.50056       -3.60553       -5.17358
| 15> H          5.96544       -2.30329       -4.13874
| 16> H          7.39438       -2.10494       -5.12457
| 17> *
| 18>
| 19> %MaxCore 64000
| 20>
| 21> %pal nprocs 4
| 22> end
| 23>
| 24> %scf
| 25>   MaxIter 150
| 26> end
| 27>
| 28>
| 29>                          ****END OF INPUT****

CARTESIAN COORDINATES (ANGSTROEM)
---------------------------------
  C      5.558210   -1.992910   -6.215050
  C      4.181880   -2.589670   -6.298910
  N      3.145870   -1.768430   -6.486750
  N      4.019100   -3.864310   -6.227430
  H      4.768490   -4.591150   -5.990770
  H      3.122410   -4.333390   -6.314620
  H      3.281640   -0.777790   -6.566550
  H      2.212550   -2.134190   -6.562250
  C      6.419260   -2.542940   -5.077630
  H      6.036830   -2.198190   -7.176850
  H      5.467610   -0.907370   -6.127970
  H      6.500560   -3.605530   -5.173580
  H      5.965440   -2.303290   -4.138740
  H      7.394380   -2.104940   -5.124570

 Total Charge           Charge          ....    1
 Multiplicity           Mult            ....    1
 Number of Electrons    NEL             ....   40
 Basis Dimension        Dim             ....  209

ORBITAL ENERGIES
----------------

  NO   OCC          E(Eh)            E(eV)
   0   2.0000     -14.254778      -387.8922
   1   2.0000     -14.244524      -387.6132
   2   2.0000     -10.218952      -278.0718
   3   2.0000     -10.101322      -274.8709
   4   2.0000     -10.058228      -273.6983
   5   2.0000      -1.111759       -30.2525
   6   2.0000      -1.021993       -27.8098
   7   2.0000      -0.889486       -24.2042
   8   2.0000      -0.798804       -21.7366
   9   2.0000      -0.750832       -20.4312
  10   2.0000      -0.716273       -19.4908
  11   2.0000      -0.688097       -18.7241
  12   2.0000      -0.645668       -17.5695
  13   2.0000      -0.599285       -16.3074
  14   2.0000      -0.572853       -15.5881
  15   2.0000      -0.551753       -15.0139
  16   2.0000      -0.502881       -13.6841
  17   2.0000      -0.493697       -13.4342
  18   2.0000      -0.479236       -13.0407
  19   2.0000      -0.449052       -12.2193
  20   0.0000      -0.235409        -6.4058
  21   0.0000      -0.184690        -5.0257
  22   0.0000      -0.149568        -4.0700
  23   0.0000      -0.137924        -3.7531
  24   0.0000      -0.115326        -3.1382

MULLIKEN ATOMIC CHARGES
-----------------------
   0 C :   -0.186506
   1 C :    0.322337
   2 N :   -0.301695
   3 N :   -0.297234
   4 H :    0.299723
   5 H :    0.266119
   6 H :    0.275544
   7 H :    0.255004
   8 C :   -0.303750
   9 H :    0.161016
  10 H :    0.121172
  11 H :    0.091916
  12 H :    0.138271
  13 H :    0.158083
Sum of atomic charges:    1.0000000

LOEWDIN ATOMIC CHARGES
----------------------
   0 C :   -0.212298
   1 C :   -0.301636
   2 N :    0.118135
   3 N :    0.126951
   4 H :    0.230797
   5 H :    0.196909
   6 H :    0.197172
   7 H :    0.188721
   8 C :   -0.256750
   9 H :    0.171688
  10 H :    0.156369
  11 H :    0.116158
  12 H :    0.129719
  13 H :    0.138064

  Mayer bond orders larger than 0.100000
B(  0-C ,  1-C ) :   0.9671 B(  0-C ,  8-C ) :   0.9665 B(  0-C ,  9-H ) :   0.9216
B(  0-C , 10-H ) :   0.9615 B(  1-C ,  2-N ) :   1.4247 B(  1-C ,  3-N ) :   1.4675
B(  2-N ,  6-H ) :   0.8966 B(  2-N ,  7-H ) :   0.9025 B(  3-N ,  4-H ) :   0.8759
B(  3-N ,  5-H ) :   0.8949 B(  8-C , 11-H ) :   0.9646 B(  8-C , 12-H ) :   0.9636
B(  8-C , 13-H ) :   0.9638

Dispersion correction           -0.020444917
FINAL SINGLE POINT ENERGY      -229.029073921548

DIPOLE MOMENT
-------------
                                X             Y             Z
Electronic contribution:     -3.79238      -0.46966      -1.56934
Nuclear contribution   :      2.76041       0.12669       1.26265
                        -----------------------------------------
Total Dipole Moment    :     -1.03197      -0.34296      -0.30669
                        -----------------------------------------
Magnitude (a.u.)       :      1.12989
Magnitude (Debye)      :      2.87194

Rotational constants in cm-1:     0.280918     0.124524     0.094121
Rotational constants in MHz :  8421.697738  3733.133254  2821.684112

                             ****ORCA TERMINATED NORMALLY****
TOTAL RUN TIME: 0 days 0 hours 0 minutes 10 seconds 42 msec
