                         Program Version 5.0.0 -  RELEASE  -
|  1> !BLYP D3BJ RIJCOSX def2-TZVP def2/J TightSCF
|  2> *xyz 0 1
|  3> C          4.93020       -7.37532       -2.64962
|  4> C          3.84189       -6.95161       -3.63283
|  5> H          3.45814       -5.95442       -3.40712
|  6> H          2.98848       -7.64361       -3.56708
|  7> S          4.31812       -6.91593       -5.36869
|  8> F          5.40615       -5.89948       -5.51297
|  9> O          3.11191       -6.44508       -6.04379
| 10> O          4.76340       -8.23942       -5.69863
| 11> H          5.27901       -8.35440       -2.90385
| 12> H          4.53000       -7.38577       -1.65734
| 13> H          5.74437       -6.68276       -2.69856
| 14> *
| 15>
| 16> %MaxCore 64000
| 17>
| 18> %pal nprocs 4
| 19> end
| 20>
| 21> %scf
| 22>   MaxIter 150
| 23> end
| 24>
| 25>
| 26>                          ****END OF INPUT****

CARTESIAN COORDINATES (ANGSTROEM)
---------------------------------
  C      4.930200   -7.375320   -2.649620
  C      3.841890   -6.951610   -3.632830
  H      3.458140   -5.954420   -3.407120
  H      2.988480   -7.643610   -3.567080
  S      4.318120   -6.915930   -5.368690
  F      5.406150   -5.899480   -5.512970
  O      3.111910   -6.445080   -6.043790
  O      4.763400   -8.239420   -5.698630
  H      5.279010   -8.354400   -2.903850
  H      4.530000   -7.385770   -1.657340
  H      5.744370   -6.682760   -2.698560

 Total Charge           Charge          ....    0
 Multiplicity           Mult            ....    1
 Number of Electrons    NEL             ....   58
 Basis Dimension        Dim             ....  222

ORBITAL ENERGIES
----------------

  NO   OCC          E(Eh)            E(eV)
   0   2.0000     -88.332074     -2403.6379
   1   2.0000     -24.375071      -663.2794
   2   2.0000     -18.784714      -511.1580
   3   2.0000     -18.775101      -510.8965
   4   2.0000      -9.964303      -271.1425
   5   2.0000      -9.923968      -270.0449
   6   2.0000      -7.863336      -213.9722
   7   2.0000      -5.895612      -160.4278
   8   2.0000      -5.888986      -160.2475
   9   2.0000      -5.888627      -160.2377
  10   2.0000      -1.228230       -33.4218
  11   2.0000      -1.013206       -27.5707
  12   2.0000      -0.924889       -25.1675
  13   2.0000      -0.742158       -20.1951
  14   2.0000      -0.645462       -17.5639
  15   2.0000      -0.600752       -16.3473
  16   2.0000      -0.509648       -13.8682
  17   2.0000      -0.486433       -13.2365
  18   2.0000      -0.479488       -13.0475
  19   2.0000      -0.438592       -11.9347
  20   2.0000      -0.420037       -11.4298
  21   2.0000      -0.398072       -10.8321
  22   2.0000      -0.381491       -10.3809
  23   2.0000      -0.359887        -9.7930
  24   2.0000      -0.354090        -9.6353
  25   2.0000      -0.328894        -8.9497
  26   2.0000      -0.290310        -7.8997
  27   2.0000      -0.280370        -7.6293
  28   2.0000      -0.266576        -7.2539
  29   0.0000      -0.022494        -0.6121
  30   0.0000       0.016200         0.4408
  31   0.0000       0.030760         0.8370
  32   0.0000       0.045871         1.2482
  33   0.0000       0.050254         1.3675

MULLIKEN ATOMIC CHARGES
-----------------------
   0 C :   -0.306808
   1 C :   -0.203829
   2 H :    0.124000
   3 H :    0.137741
   4 S :    0.790228
   5 F :   -0.122558
   6 O :   -0.397670
   7 O :   -0.374028
   8 H :    0.130600
   9 H :    0.113844
  10 H :    0.108480
Sum of atomic charges:   -0.0000000

LOEWDIN ATOMIC CHARGES
----------------------
   0 C :   -0.309960
   1 C :   -0.392490
   2 H :    0.135165
   3 H :    0.149725
   4 S :    0.519801
   5 F :    0.043723
   6 O :   -0.268946
   7 O :   -0.239344
   8 H :    0.122790
   9 H :    0.122424
  10 H :    0.117111

  Mayer bond orders larger than 0.100000
B(  0-C ,  1-C ) :   0.9431 B(  0-C ,  8-H ) :   0.9672 B(  0-C ,  9-H ) :   0.9589
B(  0-C , 10-H ) :   0.9701 B(  1-C ,  2-H ) :   0.9417 B(  1-C ,  3-H ) :   0.9401
B(  1-C ,  4-S ) :   0.8860 B(  4-S ,  5-F ) :   1.0901 B(  4-S ,  6-O ) :   1.9413
B(  4-S ,  7-O ) :   1.9406

Dispersion correction           -0.019399097
FINAL SINGLE POINT ENERGY      -727.788645736619

DIPOLE MOMENT
-------------
                                X             Y             Z
Electronic contribution:      1.29208       2.62002      -8.85056
Nuclear contribution   :     -0.98922      -2.24849      10.35711
                        -----------------------------------------
Total Dipole Moment    :      0.30286       0.37153       1.50655
                        -----------------------------------------
Magnitude (a.u.)       :      1.58096
Magnitude (Debye)      :      4.01849

Rotational constants in cm-1:     0.151436     0.080885     0.078670
Rotational constants in MHz :  4539.936009  2424.868817  2358.476812

                             ****ORCA TERMINATED NORMALLY****
TOTAL RUN TIME: 0 days 0 hours 0 minutes 11 seconds 753 msec
