                         Program Version 5.0.0 -  RELEASE  -
|  1> !BLYP D3BJ RIJCOSX def2-TZVP def2/J TightSCF
|  2> *xyz 0 1
|  3> C          5.55821       -1.99291       -6.21505
|  4> C          4.18188       -2.58967       -6.29891
|  5> C          3.14587       -1.76843       -6.48675
|  6> N          4.01910       -3.86431       -6.22743
|  7> H          4.76849       -4.59115       -5.99077
|  8> H          3.12241       -4.33339       -6.31462
|  9> H          3.28164       -0.77779       -6.56655
| 10> H          2.21255       -2.13419       -6.56225
| 11> C          6.41926       -2.54294       -5.07763
| 12> H          6.03683       -2.19819       -7.17685
| 13> H          5.46761       -0.90737       -6.12797
| 14> H          6.50056       -3.60553       -5.17358
| 15> H          5.96544       -2.30329       -4.13874
| 16> H          7.39438       -2.10494       -5.12457
| 17> *
| 18>
| 19> %MaxCore 64000
| 20>
| 21> %pal nprocs 4
| 22> end
| 23>
| 24> %scf
| 25>   MaxIter 150
| 26> end
| 27>
| 28>
| 29>                          ****END OF INPUT****

CARTESIAN COORDINATES (ANGSTROEM)
---------------------------------
  C      5.558210   -1.992910   -6.215050
  C      4.181880   -2.589670   -6.298910
  C      3.145870   -1.768430   -6.486750
  N      4.019100   -3.864310   -6.227430
  H      4.768490   -4.591150   -5.990770
  H      3.122410   -4.333390   -6.314620
  H      3.281640   -0.777790   -6.566550
  H      2.212550   -2.134190   -6.562250
  C      6.419260   -2.542940   -5.077630
  H      6.036830   -2.198190   -7.176850
  H      5.467610   -0.907370   -6.127970
  H      6.500560   -3.605530   -5.173580
  H      5.965440   -2.303290   -4.138740
  H      7.394380   -2.104940   -5.124570

 Total Charge           Charge          ....    0
 Multiplicity           Mult            ....    1
 Number of Electrons    NEL             ....   40
 Basis Dimension        Dim             ....  209

ORBITAL ENERGIES
----------------

  NO   OCC          E(Eh)            E(eV)
   0   2.0000     -14.011979      -381.2853
   1   2.0000      -9.920309      -269.9453
   2   2.0000      -9.901236      -269.4263
   3   2.0000      -9.891046      -269.1490
   4   2.0000      -9.830589      -267.5039
   5   2.0000      -0.845080       -22.9958
   6   2.0000      -0.697670       -18.9846
   7   2.0000      -0.640419       -17.4267
   8   2.0000      -0.561488       -15.2789
   9   2.0000      -0.521282       -14.1848
  10   2.0000      -0.461012       -12.5448
  11   2.0000      -0.416736       -11.3400
  12   2.0000      -0.390716       -10.6319
  13   2.0000      -0.371362       -10.1053
  14   2.0000      -0.342100        -9.3090
  15   2.0000      -0.332270        -9.0415
  16   2.0000      -0.312285        -8.4977
  17   2.0000      -0.287692        -7.8285
  18   2.0000      -0.282293        -7.6816
  19   2.0000      -0.148311        -4.0358
  20   0.0000      -0.002953        -0.0803
  21   0.0000       0.022089         0.6011
  22   0.0000       0.042495         1.1563
  23   0.0000       0.048581         1.3220
  24   0.0000       0.071177         1.9368

MULLIKEN ATOMIC CHARGES
-----------------------
   0 C :   -0.149654
   1 C :    0.243614
   2 C :   -0.412558
   3 N :   -0.401212
   4 H :    0.215328
   5 H :    0.211296
   6 H :    0.075808
   7 H :    0.066342
   8 C :   -0.290350
   9 H :    0.082137
  10 H :    0.084683
  11 H :    0.068332
  12 H :    0.104283
  13 H :    0.101951
Sum of atomic charges:    0.0000000

LOEWDIN ATOMIC CHARGES
----------------------
   0 C :   -0.231196
   1 C :   -0.375851
   2 C :   -0.277833
   3 N :    0.019754
   4 H :    0.182055
   5 H :    0.168696
   6 H :    0.096821
   7 H :    0.090467
   8 C :   -0.292197
   9 H :    0.138793
  10 H :    0.143990
  11 H :    0.105141
  12 H :    0.116780
  13 H :    0.114580

  Mayer bond orders larger than 0.100000
B(  0-C ,  1-C ) :   0.9834 B(  0-C ,  8-C ) :   0.9595 B(  0-C ,  9-H ) :   0.9549
B(  0-C , 10-H ) :   0.9660 B(  1-C ,  2-C ) :   1.6794 B(  1-C ,  3-N ) :   1.1975
B(  2-C ,  6-H ) :   0.9933 B(  2-C ,  7-H ) :   0.9928 B(  3-N ,  4-H ) :   0.9166
B(  3-N ,  5-H ) :   0.9205 B(  8-C , 11-H ) :   0.9733 B(  8-C , 12-H ) :   0.9717
B(  8-C , 13-H ) :   0.9757

Dispersion correction           -0.021294382
FINAL SINGLE POINT ENERGY      -212.543099349738

DIPOLE MOMENT
-------------
                                X             Y             Z
Electronic contribution:     -2.05033      -1.10093      -1.03250
Nuclear contribution   :      2.41345       0.31141       1.16343
                        -----------------------------------------
Total Dipole Moment    :      0.36313      -0.78952       0.13093
                        -----------------------------------------
Magnitude (a.u.)       :      0.87883
Magnitude (Debye)      :      2.23381

Rotational constants in cm-1:     0.287957     0.129204     0.097498
Rotational constants in MHz :  8632.737925  3873.424745  2922.919500

                             ****ORCA TERMINATED NORMALLY****
TOTAL RUN TIME: 0 days 0 hours 0 minutes 10 seconds 832 msec
