                         Program Version 5.0.0 -  RELEASE  -
|  1> !BLYP D3BJ RIJCOSX def2-TZVP def2/J TightSCF
|  2> *xyz 0 1
|  3> C          4.93020       -7.37532       -2.64962
|  4> C          3.84189       -6.95161       -3.63283
|  5> H          3.45814       -5.95442       -3.40712
|  6> H          2.98848       -7.64361       -3.56708
|  7> S          4.31812       -6.91593       -5.36869
|  8> O          5.40615       -5.89948       -5.51297
|  9> F          3.11191       -6.44508       -6.04379
| 10> O          4.76340       -8.23942       -5.69863
| 11> H          5.27901       -8.35440       -2.90385
| 12> H          4.53000       -7.38577       -1.65734
| 13> H          5.74437       -6.68276       -2.69856
| 14> *
| 15>
| 16> %MaxCore 64000
| 17>
| 18> %pal nprocs 4
| 19> end
| 20>
| 21> %scf
| 22>   MaxIter 150
| 23> end
| 24>
| 25>
| 26>                          ****END OF INPUT****

CARTESIAN COORDINATES (ANGSTROEM)
---------------------------------
  C      4.930200   -7.375320   -2.649620
  C      3.841890   -6.951610   -3.632830
  H      3.458140   -5.954420   -3.407120
  H      2.988480   -7.643610   -3.567080
  S      4.318120   -6.915930   -5.368690
  O      5.406150   -5.899480   -5.512970
  F      3.111910   -6.445080   -6.043790
  O      4.763400   -8.239420   -5.698630
  H      5.279010   -8.354400   -2.903850
  H      4.530000   -7.385770   -1.657340
  H      5.744370   -6.682760   -2.698560

 Total Charge           Charge          ....    0
 Multiplicity           Mult            ....    1
 Number of Electrons    NEL             ....   58
 Basis Dimension        Dim             ....  222

ORBITAL ENERGIES
----------------

  NO   OCC          E(Eh)            E(eV)
   0   2.0000     -88.333902     -2403.6877
   1   2.0000     -24.389444      -663.6705
   2   2.0000     -18.783715      -511.1309
   3   2.0000     -18.767368      -510.6860
   4   2.0000      -9.965223      -271.1675
   5   2.0000      -9.922816      -270.0135
   6   2.0000      -7.865042      -214.0187
   7   2.0000      -5.897219      -160.4715
   8   2.0000      -5.890627      -160.2921
   9   2.0000      -5.890437      -160.2869
  10   2.0000      -1.254193       -34.1283
  11   2.0000      -1.006761       -27.3953
  12   2.0000      -0.906957       -24.6796
  13   2.0000      -0.741954       -20.1896
  14   2.0000      -0.658246       -17.9118
  15   2.0000      -0.601164       -16.3585
  16   2.0000      -0.512540       -13.9469
  17   2.0000      -0.504827       -13.7370
  18   2.0000      -0.488781       -13.3004
  19   2.0000      -0.439674       -11.9641
  20   2.0000      -0.423013       -11.5108
  21   2.0000      -0.385857       -10.4997
  22   2.0000      -0.380175       -10.3451
  23   2.0000      -0.362456        -9.8629
  24   2.0000      -0.343446        -9.3456
  25   2.0000      -0.331086        -9.0093
  26   2.0000      -0.287752        -7.8301
  27   2.0000      -0.271829        -7.3968
  28   2.0000      -0.253018        -6.8850
  29   0.0000      -0.007387        -0.2010
  30   0.0000       0.003262         0.0888
  31   0.0000       0.037218         1.0128
  32   0.0000       0.040275         1.0959
  33   0.0000       0.046484         1.2649

MULLIKEN ATOMIC CHARGES
-----------------------
   0 C :   -0.309234
   1 C :   -0.188275
   2 H :    0.118986
   3 H :    0.114541
   4 S :    0.785595
   5 O :   -0.430849
   6 F :   -0.094054
   7 O :   -0.367491
   8 H :    0.127944
   9 H :    0.113783
  10 H :    0.129054
Sum of atomic charges:   -0.0000000

LOEWDIN ATOMIC CHARGES
----------------------
   0 C :   -0.296088
   1 C :   -0.397633
   2 H :    0.133513
   3 H :    0.135675
   4 S :    0.512769
   5 O :   -0.307929
   6 F :    0.085595
   7 O :   -0.238036
   8 H :    0.124174
   9 H :    0.123325
  10 H :    0.124634

  Mayer bond orders larger than 0.100000
B(  0-C ,  1-C ) :   0.9608 B(  0-C ,  8-H ) :   0.9688 B(  0-C ,  9-H ) :   0.9558
B(  0-C , 10-H ) :   0.9689 B(  1-C ,  2-H ) :   0.9339 B(  1-C ,  3-H ) :   0.9300
B(  1-C ,  4-S ) :   0.8899 B(  4-S ,  5-O ) :   1.8837 B(  4-S ,  6-F ) :   1.1320
B(  4-S ,  7-O ) :   1.9459

Dispersion correction           -0.019472208
FINAL SINGLE POINT ENERGY      -727.777804656445

DIPOLE MOMENT
-------------
                                X             Y             Z
Electronic contribution:     -2.53857       1.70467      -9.74646
Nuclear contribution   :      1.40145      -1.67996      10.91024
                        -----------------------------------------
Total Dipole Moment    :     -1.13712       0.02471       1.16378
                        -----------------------------------------
Magnitude (a.u.)       :      1.62728
Magnitude (Debye)      :      4.13622

Rotational constants in cm-1:     0.155875     0.079864     0.077188
Rotational constants in MHz :  4673.017506  2394.277415  2314.027118

                             ****ORCA TERMINATED NORMALLY****
TOTAL RUN TIME: 0 days 0 hours 0 minutes 11 seconds 576 msec
