                         Program Version 5.0.0 -  RELEASE  -
|  1> !BLYP D3BJ RIJCOSX def2-TZVP def2/J TightSCF
|  2> *xyz 0 1
|  3> C          5.55821       -1.99291       -6.21505
|  4> C          4.18188       -2.58967       -6.29891
|  5> N          3.14587       -1.76843       -6.48675
|  6> C          4.01910       -3.86431       -6.22743
|  7> H          4.76849       -4.59115       -5.99077
|  8> H          3.12241       -4.33339       -6.31462
|  9> H          3.28164       -0.77779       -6.56655
| 10> H          2.21255       -2.13419       -6.56225
| 11> C          6.41926       -2.54294       -5.07763
| 12> H          6.03683       -2.19819       -7.17685
| 13> H          5.46761       -0.90737       -6.12797
| 14> H          6.50056       -3.60553       -5.17358
| 15> H          5.96544       -2.30329       -4.13874
| 16> H          7.39438       -2.10494       -5.12457
| 17> *
| 18>
| 19> %MaxCore 64000
| 20>
| 21> %pal nprocs 4
| 22> end
| 23>
| 24> %scf
| 25>   MaxIter 150
| 26> end
| 27>
| 28>
| 29>                          ****END OF INPUT****

CARTESIAN COORDINATES (ANGSTROEM)
---------------------------------
  C      5.558210   -1.992910   -6.215050
  C      4.181880   -2.589670   -6.298910
  N      3.145870   -1.768430   -6.486750
  C      4.019100   -3.864310   -6.227430
  H      4.768490   -4.591150   -5.990770
  H      3.122410   -4.333390   -6.314620
  H      3.281640   -0.777790   -6.566550
  H      2.212550   -2.134190   -6.562250
  C      6.419260   -2.542940   -5.077630
  H      6.036830   -2.198190   -7.176850
  H      5.467610   -0.907370   -6.127970
  H      6.500560   -3.605530   -5.173580
  H      5.965440   -2.303290   -4.138740
  H      7.394380   -2.104940   -5.124570

 Total Charge           Charge          ....    0
 Multiplicity           Mult            ....    1
 Number of Electrons    NEL             ....   40
 Basis Dimension        Dim             ....  209

ORBITAL ENERGIES
----------------

  NO   OCC          E(Eh)            E(eV)
   0   2.0000     -14.001475      -380.9995
   1   2.0000      -9.918014      -269.8829
   2   2.0000      -9.902442      -269.4592
   3   2.0000      -9.884924      -268.9825
   4   2.0000      -9.836812      -267.6733
   5   2.0000      -0.835225       -22.7276
   6   2.0000      -0.700613       -19.0646
   7   2.0000      -0.636650       -17.3241
   8   2.0000      -0.571145       -15.5417
   9   2.0000      -0.497058       -13.5256
  10   2.0000      -0.466726       -12.7003
  11   2.0000      -0.429470       -11.6865
  12   2.0000      -0.394246       -10.7280
  13   2.0000      -0.367037        -9.9876
  14   2.0000      -0.335000        -9.1158
  15   2.0000      -0.323530        -8.8037
  16   2.0000      -0.304835        -8.2950
  17   2.0000      -0.290465        -7.9040
  18   2.0000      -0.278002        -7.5648
  19   2.0000      -0.154669        -4.2087
  20   0.0000       0.009260         0.2520
  21   0.0000       0.020763         0.5650
  22   0.0000       0.045728         1.2443
  23   0.0000       0.053651         1.4599
  24   0.0000       0.075688         2.0596

MULLIKEN ATOMIC CHARGES
-----------------------
   0 C :   -0.150348
   1 C :    0.264193
   2 N :   -0.406897
   3 C :   -0.406140
   4 H :    0.074659
   5 H :    0.069388
   6 H :    0.199831
   7 H :    0.200928
   8 C :   -0.286713
   9 H :    0.093740
  10 H :    0.058066
  11 H :    0.099209
  12 H :    0.096067
  13 H :    0.094017
Sum of atomic charges:   -0.0000000

LOEWDIN ATOMIC CHARGES
----------------------
   0 C :   -0.231049
   1 C :   -0.362361
   2 N :    0.006297
   3 C :   -0.277765
   4 H :    0.116196
   5 H :    0.096844
   6 H :    0.156262
   7 H :    0.162797
   8 C :   -0.283269
   9 H :    0.144885
  10 H :    0.128502
  11 H :    0.115436
  12 H :    0.115957
  13 H :    0.111269

  Mayer bond orders larger than 0.100000
B(  0-C ,  1-C ) :   0.9451 B(  0-C ,  8-C ) :   0.9764 B(  0-C ,  9-H ) :   0.9605
B(  0-C , 10-H ) :   0.9645 B(  1-C ,  2-N ) :   1.1525 B(  1-C ,  3-C ) :   1.7375
B(  2-N ,  6-H ) :   0.9312 B(  2-N ,  7-H ) :   0.9258 B(  3-C ,  4-H ) :   0.9904
B(  3-C ,  5-H ) :   0.9805 B(  8-C , 11-H ) :   0.9753 B(  8-C , 12-H ) :   0.9736
B(  8-C , 13-H ) :   0.9711

Dispersion correction           -0.021387757
FINAL SINGLE POINT ENERGY      -212.551956591138

DIPOLE MOMENT
-------------
                                X             Y             Z
Electronic contribution:     -2.84528       0.84036      -1.29751
Nuclear contribution   :      2.61570      -0.17401       1.22349
                        -----------------------------------------
Total Dipole Moment    :     -0.22957       0.66635      -0.07401
                        -----------------------------------------
Magnitude (a.u.)       :      0.70866
Magnitude (Debye)      :      1.80128

Rotational constants in cm-1:     0.298189     0.125314     0.096441
Rotational constants in MHz :  8939.495008  3756.825352  2891.223400

                             ****ORCA TERMINATED NORMALLY****
TOTAL RUN TIME: 0 days 0 hours 0 minutes 11 seconds 796 msec
