                         Program Version 5.0.0 -  RELEASE  -
|  1> !BLYP D3BJ RIJCOSX def2-TZVP def2/J TightSCF
|  2> *xyz 0 1
|  3> C          4.93020       -7.37532       -2.64962
|  4> C          3.84189       -6.95161       -3.63283
|  5> H          3.45814       -5.95442       -3.40712
|  6> H          2.98848       -7.64361       -3.56708
|  7> S          4.31812       -6.91593       -5.36869
|  8> O          5.40615       -5.89948       -5.51297
|  9> O          3.11191       -6.44508       -6.04379
| 10> F          4.76340       -8.23942       -5.69863
| 11> H          5.27901       -8.35440       -2.90385
| 12> H          4.53000       -7.38577       -1.65734
| 13> H          5.74437       -6.68276       -2.69856
| 14> *
| 15>
| 16> %MaxCore 64000
| 17>
| 18> %pal nprocs 4
| 19> end
| 20>
| 21> %scf
| 22>   MaxIter 150
| 23> end
| 24>
| 25>
| 26>                          ****END OF INPUT****

CARTESIAN COORDINATES (ANGSTROEM)
---------------------------------
  C      4.930200   -7.375320   -2.649620
  C      3.841890   -6.951610   -3.632830
  H      3.458140   -5.954420   -3.407120
  H      2.988480   -7.643610   -3.567080
  S      4.318120   -6.915930   -5.368690
  O      5.406150   -5.899480   -5.512970
  O      3.111910   -6.445080   -6.043790
  F      4.763400   -8.239420   -5.698630
  H      5.279010   -8.354400   -2.903850
  H      4.530000   -7.385770   -1.657340
  H      5.744370   -6.682760   -2.698560

 Total Charge           Charge          ....    0
 Multiplicity           Mult            ....    1
 Number of Electrons    NEL             ....   58
 Basis Dimension        Dim             ....  222

ORBITAL ENERGIES
----------------

  NO   OCC          E(Eh)            E(eV)
   0   2.0000     -88.335501     -2403.7312
   1   2.0000     -24.402948      -664.0380
   2   2.0000     -18.775193      -510.8990
   3   2.0000     -18.768460      -510.7157
   4   2.0000      -9.965303      -271.1697
   5   2.0000      -9.924881      -270.0698
   6   2.0000      -7.866549      -214.0597
   7   2.0000      -5.898889      -160.5169
   8   2.0000      -5.892022      -160.3301
   9   2.0000      -5.891839      -160.3251
  10   2.0000      -1.275886       -34.7186
  11   2.0000      -0.995729       -27.0952
  12   2.0000      -0.899994       -24.4901
  13   2.0000      -0.744328       -20.2542
  14   2.0000      -0.662225       -18.0201
  15   2.0000      -0.610364       -16.6088
  16   2.0000      -0.531048       -14.4506
  17   2.0000      -0.519044       -14.1239
  18   2.0000      -0.485682       -13.2161
  19   2.0000      -0.439393       -11.9565
  20   2.0000      -0.420196       -11.4341
  21   2.0000      -0.394906       -10.7459
  22   2.0000      -0.377648       -10.2763
  23   2.0000      -0.360342        -9.8054
  24   2.0000      -0.349849        -9.5199
  25   2.0000      -0.321292        -8.7428
  26   2.0000      -0.279531        -7.6064
  27   2.0000      -0.270529        -7.3615
  28   2.0000      -0.247656        -6.7391
  29   0.0000      -0.018015        -0.4902
  30   0.0000       0.012063         0.3283
  31   0.0000       0.030217         0.8222
  32   0.0000       0.039124         1.0646
  33   0.0000       0.046246         1.2584

MULLIKEN ATOMIC CHARGES
-----------------------
   0 C :   -0.305641
   1 C :   -0.201351
   2 H :    0.142509
   3 H :    0.119250
   4 S :    0.783407
   5 O :   -0.425913
   6 O :   -0.386467
   7 F :   -0.076776
   8 H :    0.104907
   9 H :    0.114090
  10 H :    0.131983
Sum of atomic charges:   -0.0000000

LOEWDIN ATOMIC CHARGES
----------------------
   0 C :   -0.310240
   1 C :   -0.393281
   2 H :    0.147522
   3 H :    0.137079
   4 S :    0.508847
   5 O :   -0.304275
   6 O :   -0.264008
   7 F :    0.116308
   8 H :    0.116090
   9 H :    0.122586
  10 H :    0.123373

  Mayer bond orders larger than 0.100000
B(  0-C ,  1-C ) :   0.9417 B(  0-C ,  8-H ) :   0.9699 B(  0-C ,  9-H ) :   0.9586
B(  0-C , 10-H ) :   0.9669 B(  1-C ,  2-H ) :   0.9425 B(  1-C ,  3-H ) :   0.9377
B(  1-C ,  4-S ) :   0.8847 B(  4-S ,  5-O ) :   1.8801 B(  4-S ,  6-O ) :   1.9449
B(  4-S ,  7-F ) :   1.1430

Dispersion correction           -0.019379489
FINAL SINGLE POINT ENERGY      -727.766516811219

DIPOLE MOMENT
-------------
                                X             Y             Z
Electronic contribution:      0.21268      -1.27266      -9.16820
Nuclear contribution   :     -0.31946       0.18980      10.55057
                        -----------------------------------------
Total Dipole Moment    :     -0.10677      -1.08287       1.38237
                        -----------------------------------------
Magnitude (a.u.)       :      1.75925
Magnitude (Debye)      :      4.47165

Rotational constants in cm-1:     0.151421     0.081183     0.078684
Rotational constants in MHz :  4539.489207  2433.790160  2358.892966

                             ****ORCA TERMINATED NORMALLY****
TOTAL RUN TIME: 0 days 0 hours 0 minutes 11 seconds 568 msec
