                         Program Version 5.0.0 -  RELEASE  -
|  1> !BLYP D3BJ RIJCOSX def2-TZVP def2/J TightSCF xyzfile
|  2>
|  3> *xyzfile 0 1 D1.xyz
|  4>
|  5> %MaxCore 64000
|  6>
|  7> %pal nprocs 18
|  8> end
|  9>
| 10> %scf
| 11>   MaxIter 150
| 12> end
| 13>
| 14>
| 15>                          ****END OF INPUT****

CARTESIAN COORDINATES (ANGSTROEM)
---------------------------------
  C      5.558206   -1.992914   -6.215054
  C      4.930199   -7.375319   -2.649623
  C      3.841892   -6.951611   -3.632829
  H      3.458144   -5.954425   -3.407121
  H      2.988484   -7.643606   -3.567078
  S      4.318115   -6.915930   -5.368692
  C      4.181880   -2.589671   -6.298911
  C      3.145873   -1.768431   -6.486753
  N      4.019102   -3.864307   -6.227427
  H      4.768490   -4.591153   -5.990773
  H      3.122405   -4.333392   -6.314620
  H      3.281635   -0.777786   -6.566549
  H      2.212549   -2.134193   -6.562246
  F      5.406154   -5.899480   -5.512972
  O      3.111910   -6.445079   -6.043792
  C      6.419260   -2.542944   -5.077630
  C      5.872267   -5.002756   -2.427819
  C      6.173994   -6.485522   -2.606315
  H      6.734852   -6.613767   -3.534015
  H      6.821463   -6.831018   -1.793617
  H      4.469612   -7.406168   -1.655876
  H      5.230134   -8.398678   -2.885906
  C      5.896512   -2.169314   -3.694552
  H      7.428880   -2.143665   -5.208078
  H      6.505894   -3.627541   -5.175502
  C      6.807804   -2.623428   -2.551019
  H      4.894708   -2.589732   -3.557501
  H      5.778823   -1.081255   -3.635790
  C      7.111544   -4.122463   -2.520363
  H      7.751615   -2.071393   -2.614406
  H      6.345837   -2.326401   -1.604086
  H      5.362882   -4.828697   -1.471335
  H      5.174429   -4.702577   -3.211298
  H      7.778329   -4.329347   -1.677651
  H      7.673189   -4.402845   -3.417586
  O      4.763396   -8.239424   -5.698629
  H      6.036826   -2.198189   -7.176852
  H      5.467610   -0.907371   -6.127968

 Total Charge           Charge          ....    0
 Multiplicity           Mult            ....    1
 Number of Electrons    NEL             ....  136
 Basis Dimension        Dim             ....  634

ORBITAL ENERGIES
----------------

  NO   OCC          E(Eh)            E(eV)
   0   2.0000     -88.350720     -2404.1453
   1   2.0000     -24.405829      -664.1164
   2   2.0000     -18.802656      -511.6463
   3   2.0000     -18.795395      -511.4487
   4   2.0000     -13.987071      -380.6075
   5   2.0000      -9.972533      -271.3664
   6   2.0000      -9.937961      -270.4257
   7   2.0000      -9.922287      -269.9992
   8   2.0000      -9.913522      -269.7607
   9   2.0000      -9.908429      -269.6221
  10   2.0000      -9.906735      -269.5760
  11   2.0000      -9.901535      -269.4345
  12   2.0000      -9.900027      -269.3934
  13   2.0000      -9.896325      -269.2927
  14   2.0000      -9.894605      -269.2459
  15   2.0000      -9.820876      -267.2396
  16   2.0000      -7.882657      -214.4980
  17   2.0000      -5.915311      -160.9638
  18   2.0000      -5.907861      -160.7611
  19   2.0000      -5.907763      -160.7584
  20   2.0000      -1.264677       -34.4136
  21   2.0000      -1.033656       -28.1272
  22   2.0000      -0.945604       -25.7312
  23   2.0000      -0.830601       -22.6018
  24   2.0000      -0.769087       -20.9279
  25   2.0000      -0.737678       -20.0732
  26   2.0000      -0.712138       -19.3783
  27   2.0000      -0.683025       -18.5860
  28   2.0000      -0.666715       -18.1422
  29   2.0000      -0.638264       -17.3680
  30   2.0000      -0.624244       -16.9865
  31   2.0000      -0.588986       -16.0271
  32   2.0000      -0.557114       -15.1599
  33   2.0000      -0.546661       -14.8754
  34   2.0000      -0.542286       -14.7564
  35   2.0000      -0.519380       -14.1331
  36   2.0000      -0.508985       -13.8502
  37   2.0000      -0.498089       -13.5537
  38   2.0000      -0.495287       -13.4774
  39   2.0000      -0.453366       -12.3367
  40   2.0000      -0.445953       -12.1350
  41   2.0000      -0.434865       -11.8333
  42   2.0000      -0.429958       -11.6998
  43   2.0000      -0.420248       -11.4355
  44   2.0000      -0.410716       -11.1762
  45   2.0000      -0.407724       -11.0947
  46   2.0000      -0.398069       -10.8320
  47   2.0000      -0.383932       -10.4473
  48   2.0000      -0.380635       -10.3576
  49   2.0000      -0.371262       -10.1026
  50   2.0000      -0.360792        -9.8177
  51   2.0000      -0.357835        -9.7372
  52   2.0000      -0.345148        -9.3920
  53   2.0000      -0.331677        -9.0254
  54   2.0000      -0.325503        -8.8574
  55   2.0000      -0.323055        -8.7908
  56   2.0000      -0.321128        -8.7383
  57   2.0000      -0.311022        -8.4633
  58   2.0000      -0.305456        -8.3119
  59   2.0000      -0.300007        -8.1636
  60   2.0000      -0.294612        -8.0168
  61   2.0000      -0.290920        -7.9163
  62   2.0000      -0.288861        -7.8603
  63   2.0000      -0.283615        -7.7176
  64   2.0000      -0.277112        -7.5406
  65   2.0000      -0.269351        -7.3294
  66   2.0000      -0.264347        -7.1933
  67   2.0000      -0.138036        -3.7561
  68   0.0000      -0.039216        -1.0671
  69   0.0000      -0.000453        -0.0123
  70   0.0000       0.005288         0.1439
  71   0.0000       0.013082         0.3560
  72   0.0000       0.018023         0.4904

MULLIKEN ATOMIC CHARGES
-----------------------
   0 C :   -0.115198
   1 C :   -0.125748
   2 C :   -0.256728
   3 H :    0.150081
   4 H :    0.151157
   5 S :    0.818635
   6 C :    0.191969
   7 C :   -0.424643
   8 N :   -0.401801
   9 H :    0.233271
  10 H :    0.223866
  11 H :    0.068381
  12 H :    0.069587
  13 F :   -0.128340
  14 O :   -0.412048
  15 C :   -0.213645
  16 C :   -0.228037
  17 C :   -0.170853
  18 H :    0.096060
  19 H :    0.089464
  20 H :    0.093179
  21 H :    0.116101
  22 C :   -0.159740
  23 H :    0.074465
  24 H :    0.073289
  25 C :   -0.102859
  26 H :    0.105202
  27 H :    0.073188
  28 C :   -0.137625
  29 H :    0.076507
  30 H :    0.072211
  31 H :    0.077241
  32 H :    0.072189
  33 H :    0.076724
  34 H :    0.085792
  35 O :   -0.367407
  36 H :    0.081540
  37 H :    0.074572
Sum of atomic charges:    0.0000000

LOEWDIN ATOMIC CHARGES
----------------------
   0 C :   -0.206448
   1 C :   -0.277774
   2 C :   -0.364496
   3 H :    0.139622
   4 H :    0.154335
   5 S :    0.537831
   6 C :   -0.380060
   7 C :   -0.284917
   8 N :    0.000511
   9 H :    0.147554
  10 H :    0.166749
  11 H :    0.094453
  12 H :    0.090137
  13 F :    0.070910
  14 O :   -0.252346
  15 C :   -0.261886
  16 C :   -0.266361
  17 C :   -0.267214
  18 H :    0.130941
  19 H :    0.138848
  20 H :    0.144379
  21 H :    0.142819
  22 C :   -0.259186
  23 H :    0.134308
  24 H :    0.122501
  25 C :   -0.260225
  26 H :    0.135313
  27 H :    0.136361
  28 C :   -0.261834
  29 H :    0.133539
  30 H :    0.132551
  31 H :    0.134336
  32 H :    0.126306
  33 H :    0.133111
  34 H :    0.132686
  35 O :   -0.224111
  36 H :    0.140962
  37 H :    0.145792

  Mayer bond orders larger than 0.100000
B(  0-C ,  6-C ) :   0.9827 B(  0-C , 15-C ) :   0.9528 B(  0-C , 36-H ) :   0.9512
B(  0-C , 37-H ) :   0.9653 B(  1-C ,  2-C ) :   0.9338 B(  1-C , 17-C ) :   0.9739
B(  1-C , 20-H ) :   0.9404 B(  1-C , 21-H ) :   0.9610 B(  2-C ,  3-H ) :   0.9365
B(  2-C ,  4-H ) :   0.9377 B(  2-C ,  5-S ) :   0.8923 B(  5-S , 13-F ) :   1.0204
B(  5-S , 14-O ) :   1.8637 B(  5-S , 35-O ) :   1.9763 B(  6-C ,  7-C ) :   1.6707
B(  6-C ,  8-N ) :   1.2355 B(  7-C , 11-H ) :   0.9936 B(  7-C , 12-H ) :   0.9892
B(  8-N ,  9-H ) :   0.8806 B(  8-N , 10-H ) :   0.9019 B( 15-C , 22-C ) :   0.9472
B( 15-C , 23-H ) :   0.9533 B( 15-C , 24-H ) :   0.9798 B( 16-C , 17-C ) :   0.9196
B( 16-C , 28-C ) :   0.9657 B( 16-C , 31-H ) :   0.9542 B( 16-C , 32-H ) :   0.9795
B( 17-C , 18-H ) :   0.9759 B( 17-C , 19-H ) :   0.9657 B( 22-C , 25-C ) :   0.9590
B( 22-C , 26-H ) :   0.9791 B( 22-C , 27-H ) :   0.9573 B( 25-C , 28-C ) :   0.9627
B( 25-C , 29-H ) :   0.9618 B( 25-C , 30-H ) :   0.9654 B( 28-C , 33-H ) :   0.9602
B( 28-C , 34-H ) :   0.9692

Dispersion correction           -0.091615588
FINAL SINGLE POINT ENERGY     -1135.659188452213

DIPOLE MOMENT
-------------
                                X             Y             Z
Electronic contribution:     -7.04255     -18.83868     -13.30618
Nuclear contribution   :      7.78491      18.17172      15.09294
                        -----------------------------------------
Total Dipole Moment    :      0.74236      -0.66696       1.78676
                        -----------------------------------------
Magnitude (a.u.)       :      2.04657
Magnitude (Debye)      :      5.20196

Rotational constants in cm-1:     0.018190     0.012573     0.008405
Rotational constants in MHz :   545.327178   376.916509   251.974803

                             ****ORCA TERMINATED NORMALLY****
TOTAL RUN TIME: 0 days 0 hours 0 minutes 32 seconds 746 msec
