                         Program Version 5.0.0 -  RELEASE  -
|  1> !BLYP D3BJ RIJCOSX def2-TZVP def2/J TightSCF xyzfile
|  2>
|  3> *xyzfile 0 1 D3.xyz
|  4>
|  5> %MaxCore 64000
|  6>
|  7> %pal nprocs 18
|  8> end
|  9>
| 10> %scf
| 11>   MaxIter 150
| 12> end
| 13>
| 14>
| 15>                          ****END OF INPUT****

CARTESIAN COORDINATES (ANGSTROEM)
---------------------------------
  C      5.558206   -1.992914   -6.215054
  C      4.930199   -7.375319   -2.649623
  C      3.841892   -6.951611   -3.632829
  H      3.458144   -5.954425   -3.407121
  H      2.988484   -7.643606   -3.567078
  S      4.318115   -6.915930   -5.368692
  C      4.181880   -2.589671   -6.298911
  C      3.145873   -1.768431   -6.486753
  N      4.019102   -3.864307   -6.227427
  H      4.768490   -4.591153   -5.990773
  H      3.122405   -4.333392   -6.314620
  H      3.281635   -0.777786   -6.566549
  H      2.212549   -2.134193   -6.562246
  O      5.406154   -5.899480   -5.512972
  F      3.111910   -6.445079   -6.043792
  C      6.419260   -2.542944   -5.077630
  C      5.872267   -5.002756   -2.427819
  C      6.173994   -6.485522   -2.606315
  H      6.734852   -6.613767   -3.534015
  H      6.821463   -6.831018   -1.793617
  H      4.469612   -7.406168   -1.655876
  H      5.230134   -8.398678   -2.885906
  C      5.896512   -2.169314   -3.694552
  H      7.428880   -2.143665   -5.208078
  H      6.505894   -3.627541   -5.175502
  C      6.807804   -2.623428   -2.551019
  H      4.894708   -2.589732   -3.557501
  H      5.778823   -1.081255   -3.635790
  C      7.111544   -4.122463   -2.520363
  H      7.751615   -2.071393   -2.614406
  H      6.345837   -2.326401   -1.604086
  H      5.362882   -4.828697   -1.471335
  H      5.174429   -4.702577   -3.211298
  H      7.778329   -4.329347   -1.677651
  H      7.673189   -4.402845   -3.417586
  O      4.763396   -8.239424   -5.698629
  H      6.036826   -2.198189   -7.176852
  H      5.467610   -0.907371   -6.127968

 Total Charge           Charge          ....    0
 Multiplicity           Mult            ....    1
 Number of Electrons    NEL             ....  136
 Basis Dimension        Dim             ....  634

ORBITAL ENERGIES
----------------

  NO   OCC          E(Eh)            E(eV)
   0   2.0000     -88.360597     -2404.4141
   1   2.0000     -24.414902      -664.3633
   2   2.0000     -18.807957      -511.7905
   3   2.0000     -18.801106      -511.6041
   4   2.0000     -13.975366      -380.2890
   5   2.0000      -9.977504      -271.5017
   6   2.0000      -9.940336      -270.4903
   7   2.0000      -9.911237      -269.6985
   8   2.0000      -9.902201      -269.4526
   9   2.0000      -9.901888      -269.4441
  10   2.0000      -9.896145      -269.2878
  11   2.0000      -9.892580      -269.1908
  12   2.0000      -9.886936      -269.0372
  13   2.0000      -9.886816      -269.0339
  14   2.0000      -9.886273      -269.0192
  15   2.0000      -9.815055      -267.0812
  16   2.0000      -7.892175      -214.7570
  17   2.0000      -5.924354      -161.2099
  18   2.0000      -5.917997      -161.0369
  19   2.0000      -5.917219      -161.0157
  20   2.0000      -1.281075       -34.8598
  21   2.0000      -1.035225       -28.1699
  22   2.0000      -0.945015       -25.7152
  23   2.0000      -0.822304       -22.3760
  24   2.0000      -0.767805       -20.8930
  25   2.0000      -0.730292       -19.8723
  26   2.0000      -0.707622       -19.2554
  27   2.0000      -0.681757       -18.5515
  28   2.0000      -0.661465       -17.9994
  29   2.0000      -0.634375       -17.2622
  30   2.0000      -0.615349       -16.7445
  31   2.0000      -0.583396       -15.8750
  32   2.0000      -0.553313       -15.0564
  33   2.0000      -0.539819       -14.6892
  34   2.0000      -0.534201       -14.5364
  35   2.0000      -0.524259       -14.2658
  36   2.0000      -0.513398       -13.9703
  37   2.0000      -0.497530       -13.5385
  38   2.0000      -0.488965       -13.3054
  39   2.0000      -0.461386       -12.5550
  40   2.0000      -0.449623       -12.2349
  41   2.0000      -0.439853       -11.9690
  42   2.0000      -0.424778       -11.5588
  43   2.0000      -0.411273       -11.1913
  44   2.0000      -0.405704       -11.0398
  45   2.0000      -0.401799       -10.9335
  46   2.0000      -0.392317       -10.6755
  47   2.0000      -0.380670       -10.3586
  48   2.0000      -0.371341       -10.1047
  49   2.0000      -0.365496        -9.9457
  50   2.0000      -0.360331        -9.8051
  51   2.0000      -0.354077        -9.6349
  52   2.0000      -0.342777        -9.3274
  53   2.0000      -0.331722        -9.0266
  54   2.0000      -0.324575        -8.8321
  55   2.0000      -0.316584        -8.6147
  56   2.0000      -0.313042        -8.5183
  57   2.0000      -0.307851        -8.3771
  58   2.0000      -0.303515        -8.2591
  59   2.0000      -0.293368        -7.9829
  60   2.0000      -0.288218        -7.8428
  61   2.0000      -0.283010        -7.7011
  62   2.0000      -0.280152        -7.6233
  63   2.0000      -0.271161        -7.3787
  64   2.0000      -0.266796        -7.2599
  65   2.0000      -0.259018        -7.0482
  66   2.0000      -0.255217        -6.9448
  67   2.0000      -0.131779        -3.5859
  68   0.0000      -0.033020        -0.8985
  69   0.0000      -0.010832        -0.2948
  70   0.0000       0.012127         0.3300
  71   0.0000       0.016111         0.4384
  72   0.0000       0.021296         0.5795

MULLIKEN ATOMIC CHARGES
-----------------------
   0 C :   -0.106087
   1 C :   -0.143274
   2 C :   -0.246418
   3 H :    0.144357
   4 H :    0.135665
   5 S :    0.828228
   6 C :    0.189630
   7 C :   -0.427836
   8 N :   -0.422205
   9 H :    0.274305
  10 H :    0.174090
  11 H :    0.066146
  12 H :    0.057675
  13 O :   -0.435394
  14 F :   -0.099337
  15 C :   -0.216407
  16 C :   -0.204121
  17 C :   -0.150129
  18 H :    0.114597
  19 H :    0.080611
  20 H :    0.098427
  21 H :    0.114679
  22 C :   -0.163328
  23 H :    0.066143
  24 H :    0.116227
  25 C :   -0.099659
  26 H :    0.098035
  27 H :    0.067591
  28 C :   -0.150323
  29 H :    0.073034
  30 H :    0.066869
  31 H :    0.066323
  32 H :    0.081094
  33 H :    0.069754
  34 H :    0.091886
  35 O :   -0.358558
  36 H :    0.077388
  37 H :    0.070323
Sum of atomic charges:   -0.0000000

LOEWDIN ATOMIC CHARGES
----------------------
   0 C :   -0.205201
   1 C :   -0.267391
   2 C :   -0.369695
   3 H :    0.138503
   4 H :    0.142401
   5 S :    0.546681
   6 C :   -0.379461
   7 C :   -0.295787
   8 N :   -0.007667
   9 H :    0.143506
  10 H :    0.149145
  11 H :    0.093366
  12 H :    0.086665
  13 O :   -0.258350
  14 F :    0.097243
  15 C :   -0.260170
  16 C :   -0.265100
  17 C :   -0.263713
  18 H :    0.138795
  19 H :    0.136242
  20 H :    0.146940
  21 H :    0.143795
  22 C :   -0.259703
  23 H :    0.132428
  24 H :    0.132902
  25 C :   -0.260961
  26 H :    0.133902
  27 H :    0.134207
  28 C :   -0.260587
  29 H :    0.132559
  30 H :    0.130850
  31 H :    0.130336
  32 H :    0.130124
  33 H :    0.131160
  34 H :    0.135525
  35 O :   -0.218717
  36 H :    0.140951
  37 H :    0.144275

  Mayer bond orders larger than 0.100000
B(  0-C ,  6-C ) :   0.9870 B(  0-C , 15-C ) :   0.9546 B(  0-C , 36-H ) :   0.9471
B(  0-C , 37-H ) :   0.9660 B(  1-C ,  2-C ) :   0.9513 B(  1-C , 17-C ) :   0.9826
B(  1-C , 20-H ) :   0.9414 B(  1-C , 21-H ) :   0.9590 B(  2-C ,  3-H ) :   0.9296
B(  2-C ,  4-H ) :   0.9324 B(  2-C ,  5-S ) :   0.9006 B(  5-S , 13-O ) :   1.7114
B(  5-S , 14-F ) :   1.1116 B(  5-S , 35-O ) :   1.9879 B(  6-C ,  7-C ) :   1.6669
B(  6-C ,  8-N ) :   1.2510 B(  7-C , 11-H ) :   0.9949 B(  7-C , 12-H ) :   0.9894
B(  8-N ,  9-H ) :   0.8082 B(  8-N , 10-H ) :   0.9203 B(  9-H , 13-O ) :   0.1192
B( 15-C , 22-C ) :   0.9526 B( 15-C , 23-H ) :   0.9518 B( 15-C , 24-H ) :   0.9753
B( 16-C , 17-C ) :   0.9363 B( 16-C , 28-C ) :   0.9792 B( 16-C , 31-H ) :   0.9547
B( 16-C , 32-H ) :   0.9655 B( 17-C , 18-H ) :   0.9636 B( 17-C , 19-H ) :   0.9654
B( 22-C , 25-C ) :   0.9626 B( 22-C , 26-H ) :   0.9785 B( 22-C , 27-H ) :   0.9577
B( 25-C , 28-C ) :   0.9624 B( 25-C , 29-H ) :   0.9611 B( 25-C , 30-H ) :   0.9645
B( 28-C , 33-H ) :   0.9593 B( 28-C , 34-H ) :   0.9700

Dispersion correction           -0.092274874
FINAL SINGLE POINT ENERGY     -1135.657841558182

DIPOLE MOMENT
-------------
                                X             Y             Z
Electronic contribution:    -10.95174     -20.09030     -14.30120
Nuclear contribution   :     10.48431      18.81367      15.71750
                        -----------------------------------------
Total Dipole Moment    :     -0.46743      -1.27663       1.41630
                        -----------------------------------------
Magnitude (a.u.)       :      1.96320
Magnitude (Debye)      :      4.99007

Rotational constants in cm-1:     0.017977     0.012528     0.008321
Rotational constants in MHz :   538.924099   375.570730   249.458530

                             ****ORCA TERMINATED NORMALLY****
TOTAL RUN TIME: 0 days 0 hours 0 minutes 33 seconds 416 msec
