                         Program Version 5.0.0 -  RELEASE  -
|  1> !BLYP D3BJ RIJCOSX def2-TZVP def2/J TightSCF xyzfile
|  2>
|  3> *xyzfile 0 1 D4.xyz
|  4>
|  5> %MaxCore 64000
|  6>
|  7> %pal nprocs 18
|  8> end
|  9>
| 10> %scf
| 11>   MaxIter 150
| 12> end
| 13>
| 14>
| 15>                          ****END OF INPUT****

CARTESIAN COORDINATES (ANGSTROEM)
---------------------------------
  C      5.558206   -1.992914   -6.215054
  C      4.930199   -7.375319   -2.649623
  C      3.841892   -6.951611   -3.632829
  H      3.458144   -5.954425   -3.407121
  H      2.988484   -7.643606   -3.567078
  S      4.318115   -6.915930   -5.368692
  C      4.181880   -2.589671   -6.298911
  N      3.145873   -1.768431   -6.486753
  C      4.019102   -3.864307   -6.227427
  H      4.768490   -4.591153   -5.990773
  H      3.122405   -4.333392   -6.314620
  H      3.281635   -0.777786   -6.566549
  H      2.212549   -2.134193   -6.562246
  O      5.406154   -5.899480   -5.512972
  F      3.111910   -6.445079   -6.043792
  C      6.419260   -2.542944   -5.077630
  C      5.872267   -5.002756   -2.427819
  C      6.173994   -6.485522   -2.606315
  H      6.734852   -6.613767   -3.534015
  H      6.821463   -6.831018   -1.793617
  H      4.469612   -7.406168   -1.655876
  H      5.230134   -8.398678   -2.885906
  C      5.896512   -2.169314   -3.694552
  H      7.428880   -2.143665   -5.208078
  H      6.505894   -3.627541   -5.175502
  C      6.807804   -2.623428   -2.551019
  H      4.894708   -2.589732   -3.557501
  H      5.778823   -1.081255   -3.635790
  C      7.111544   -4.122463   -2.520363
  H      7.751615   -2.071393   -2.614406
  H      6.345837   -2.326401   -1.604086
  H      5.362882   -4.828697   -1.471335
  H      5.174429   -4.702577   -3.211298
  H      7.778329   -4.329347   -1.677651
  H      7.673189   -4.402845   -3.417586
  O      4.763396   -8.239424   -5.698629
  H      6.036826   -2.198189   -7.176852
  H      5.467610   -0.907371   -6.127968

 Total Charge           Charge          ....    0
 Multiplicity           Mult            ....    1
 Number of Electrons    NEL             ....  136
 Basis Dimension        Dim             ....  634

ORBITAL ENERGIES
----------------

  NO   OCC          E(Eh)            E(eV)
   0   2.0000     -88.336367     -2403.7548
   1   2.0000     -24.388392      -663.6419
   2   2.0000     -18.785681      -511.1844
   3   2.0000     -18.770258      -510.7647
   4   2.0000     -13.990097      -380.6899
   5   2.0000      -9.960380      -271.0357
   6   2.0000      -9.927492      -270.1408
   7   2.0000      -9.902513      -269.4611
   8   2.0000      -9.900269      -269.4000
   9   2.0000      -9.892488      -269.1883
  10   2.0000      -9.890245      -269.1273
  11   2.0000      -9.889896      -269.1178
  12   2.0000      -9.889100      -269.0961
  13   2.0000      -9.884535      -268.9719
  14   2.0000      -9.884426      -268.9689
  15   2.0000      -9.805235      -266.8140
  16   2.0000      -7.867761      -214.0927
  17   2.0000      -5.899738      -160.5400
  18   2.0000      -5.893532      -160.3712
  19   2.0000      -5.893112      -160.3597
  20   2.0000      -1.254735       -34.1431
  21   2.0000      -1.010910       -27.5083
  22   2.0000      -0.917745       -24.9731
  23   2.0000      -0.823459       -22.4074
  24   2.0000      -0.752720       -20.4825
  25   2.0000      -0.724491       -19.7144
  26   2.0000      -0.699484       -19.0339
  27   2.0000      -0.676936       -18.4204
  28   2.0000      -0.646787       -17.6000
  29   2.0000      -0.629077       -17.1181
  30   2.0000      -0.606168       -16.4947
  31   2.0000      -0.579895       -15.7797
  32   2.0000      -0.548794       -14.9335
  33   2.0000      -0.531414       -14.4605
  34   2.0000      -0.511808       -13.9270
  35   2.0000      -0.501636       -13.6502
  36   2.0000      -0.496863       -13.5203
  37   2.0000      -0.488320       -13.2879
  38   2.0000      -0.476312       -12.9611
  39   2.0000      -0.456092       -12.4109
  40   2.0000      -0.437839       -11.9142
  41   2.0000      -0.434237       -11.8162
  42   2.0000      -0.421287       -11.4638
  43   2.0000      -0.409229       -11.1357
  44   2.0000      -0.400984       -10.9113
  45   2.0000      -0.392727       -10.6866
  46   2.0000      -0.389075       -10.5873
  47   2.0000      -0.373603       -10.1663
  48   2.0000      -0.363307        -9.8861
  49   2.0000      -0.357705        -9.7336
  50   2.0000      -0.352286        -9.5862
  51   2.0000      -0.344092        -9.3632
  52   2.0000      -0.335561        -9.1311
  53   2.0000      -0.317880        -8.6500
  54   2.0000      -0.314701        -8.5634
  55   2.0000      -0.310227        -8.4417
  56   2.0000      -0.303702        -8.2641
  57   2.0000      -0.294886        -8.0242
  58   2.0000      -0.289876        -7.8879
  59   2.0000      -0.286871        -7.8061
  60   2.0000      -0.278344        -7.5741
  61   2.0000      -0.276207        -7.5160
  62   2.0000      -0.272598        -7.4178
  63   2.0000      -0.264489        -7.1971
  64   2.0000      -0.259965        -7.0740
  65   2.0000      -0.255277        -6.9464
  66   2.0000      -0.221764        -6.0345
  67   2.0000      -0.140647        -3.8272
  68   0.0000      -0.009246        -0.2516
  69   0.0000       0.002308         0.0628
  70   0.0000       0.016481         0.4485
  71   0.0000       0.020474         0.5571
  72   0.0000       0.027260         0.7418

MULLIKEN ATOMIC CHARGES
-----------------------
   0 C :   -0.121367
   1 C :   -0.137898
   2 C :   -0.242798
   3 H :    0.139964
   4 H :    0.125920
   5 S :    0.826874
   6 C :    0.192297
   7 N :   -0.403907
   8 C :   -0.459394
   9 H :    0.170230
  10 H :    0.044235
  11 H :    0.192328
  12 H :    0.190301
  13 O :   -0.424553
  14 F :   -0.093231
  15 C :   -0.180293
  16 C :   -0.211214
  17 C :   -0.148856
  18 H :    0.114261
  19 H :    0.073890
  20 H :    0.091773
  21 H :    0.109706
  22 C :   -0.176632
  23 H :    0.059374
  24 H :    0.125102
  25 C :   -0.096272
  26 H :    0.100973
  27 H :    0.058627
  28 C :   -0.150993
  29 H :    0.070777
  30 H :    0.063938
  31 H :    0.059816
  32 H :    0.108917
  33 H :    0.066259
  34 H :    0.092639
  35 O :   -0.370726
  36 H :    0.089438
  37 H :    0.050494
Sum of atomic charges:   -0.0000000

LOEWDIN ATOMIC CHARGES
----------------------
   0 C :   -0.206888
   1 C :   -0.268912
   2 C :   -0.371165
   3 H :    0.137432
   4 H :    0.139151
   5 S :    0.544430
   6 C :   -0.372336
   7 N :    0.000257
   8 C :   -0.315767
   9 H :    0.096605
  10 H :    0.084014
  11 H :    0.152449
  12 H :    0.158574
  13 O :   -0.252378
  14 F :    0.104091
  15 C :   -0.248807
  16 C :   -0.264996
  17 C :   -0.264170
  18 H :    0.139310
  19 H :    0.134100
  20 H :    0.144255
  21 H :    0.142749
  22 C :   -0.261413
  23 H :    0.130959
  24 H :    0.141278
  25 C :   -0.261433
  26 H :    0.133927
  27 H :    0.129898
  28 C :   -0.260537
  29 H :    0.131581
  30 H :    0.130137
  31 H :    0.128597
  32 H :    0.134670
  33 H :    0.130341
  34 H :    0.136017
  35 O :   -0.232115
  36 H :    0.146708
  37 H :    0.129386

  Mayer bond orders larger than 0.100000
B(  0-C ,  6-C ) :   0.9550 B(  0-C , 15-C ) :   0.9726 B(  0-C , 36-H ) :   0.9514
B(  0-C , 37-H ) :   0.9623 B(  1-C ,  2-C ) :   0.9537 B(  1-C , 17-C ) :   0.9847
B(  1-C , 20-H ) :   0.9431 B(  1-C , 21-H ) :   0.9581 B(  2-C ,  3-H ) :   0.9330
B(  2-C ,  4-H ) :   0.9334 B(  2-C ,  5-S ) :   0.8980 B(  5-S , 13-O ) :   1.7528
B(  5-S , 14-F ) :   1.1259 B(  5-S , 35-O ) :   1.9760 B(  6-C ,  7-N ) :   1.1346
B(  6-C ,  8-C ) :   1.7988 B(  7-N , 11-H ) :   0.9303 B(  7-N , 12-H ) :   0.9269
B(  8-C ,  9-H ) :   0.9663 B(  8-C , 10-H ) :   0.9526 B( 15-C , 22-C ) :   0.9636
B( 15-C , 23-H ) :   0.9505 B( 15-C , 24-H ) :   0.9653 B( 16-C , 17-C ) :   0.9427
B( 16-C , 28-C ) :   0.9798 B( 16-C , 31-H ) :   0.9541 B( 16-C , 32-H ) :   0.9643
B( 17-C , 18-H ) :   0.9617 B( 17-C , 19-H ) :   0.9640 B( 22-C , 25-C ) :   0.9702
B( 22-C , 26-H ) :   0.9744 B( 22-C , 27-H ) :   0.9562 B( 25-C , 28-C ) :   0.9639
B( 25-C , 29-H ) :   0.9613 B( 25-C , 30-H ) :   0.9637 B( 28-C , 33-H ) :   0.9592
B( 28-C , 34-H ) :   0.9701

Dispersion correction           -0.092936503
FINAL SINGLE POINT ENERGY     -1135.644655387605

DIPOLE MOMENT
-------------
                                X             Y             Z
Electronic contribution:    -11.70806     -18.13527     -14.74781
Nuclear contribution   :     10.61624      18.49702      15.75668
                        -----------------------------------------
Total Dipole Moment    :     -1.09182       0.36175       1.00887
                        -----------------------------------------
Magnitude (a.u.)       :      1.52995
Magnitude (Debye)      :      3.88882

Rotational constants in cm-1:     0.017796     0.012372     0.008231
Rotational constants in MHz :   533.524905   370.895973   246.762347

                             ****ORCA TERMINATED NORMALLY****
TOTAL RUN TIME: 0 days 0 hours 0 minutes 29 seconds 314 msec
