                         Program Version 5.0.0 -  RELEASE  -
|  1> !BLYP D3BJ RIJCOSX def2-TZVP def2/J TightSCF xyzfile
|  2>
|  3> *xyzfile 0 1 D5.xyz
|  4>
|  5> %MaxCore 64000
|  6>
|  7> %pal nprocs 18
|  8> end
|  9>
| 10> %scf
| 11>   MaxIter 150
| 12> end
| 13>
| 14>
| 15>                          ****END OF INPUT****

CARTESIAN COORDINATES (ANGSTROEM)
---------------------------------
  C      5.558206   -1.992914   -6.215054
  C      4.930199   -7.375319   -2.649623
  C      3.841892   -6.951611   -3.632829
  H      3.458144   -5.954425   -3.407121
  H      2.988484   -7.643606   -3.567078
  S      4.318115   -6.915930   -5.368692
  C      4.181880   -2.589671   -6.298911
  C      3.145873   -1.768431   -6.486753
  N      4.019102   -3.864307   -6.227427
  H      4.768490   -4.591153   -5.990773
  H      3.122405   -4.333392   -6.314620
  H      3.281635   -0.777786   -6.566549
  H      2.212549   -2.134193   -6.562246
  O      5.406154   -5.899480   -5.512972
  O      3.111910   -6.445079   -6.043792
  C      6.419260   -2.542944   -5.077630
  C      5.872267   -5.002756   -2.427819
  C      6.173994   -6.485522   -2.606315
  H      6.734852   -6.613767   -3.534015
  H      6.821463   -6.831018   -1.793617
  H      4.469612   -7.406168   -1.655876
  H      5.230134   -8.398678   -2.885906
  C      5.896512   -2.169314   -3.694552
  H      7.428880   -2.143665   -5.208078
  H      6.505894   -3.627541   -5.175502
  C      6.807804   -2.623428   -2.551019
  H      4.894708   -2.589732   -3.557501
  H      5.778823   -1.081255   -3.635790
  C      7.111544   -4.122463   -2.520363
  H      7.751615   -2.071393   -2.614406
  H      6.345837   -2.326401   -1.604086
  H      5.362882   -4.828697   -1.471335
  H      5.174429   -4.702577   -3.211298
  H      7.778329   -4.329347   -1.677651
  H      7.673189   -4.402845   -3.417586
  F      4.763396   -8.239424   -5.698629
  H      6.036826   -2.198189   -7.176852
  H      5.467610   -0.907371   -6.127968

 Total Charge           Charge          ....    0
 Multiplicity           Mult            ....    1
 Number of Electrons    NEL             ....  136
 Basis Dimension        Dim             ....  634

ORBITAL ENERGIES
----------------

  NO   OCC          E(Eh)            E(eV)
   0   2.0000     -88.364390     -2404.5173
   1   2.0000     -24.426713      -664.6847
   2   2.0000     -18.802903      -511.6530
   3   2.0000     -18.802590      -511.6445
   4   2.0000     -13.959548      -379.8586
   5   2.0000      -9.978804      -271.5371
   6   2.0000      -9.942329      -270.5445
   7   2.0000      -9.914634      -269.7909
   8   2.0000      -9.902831      -269.4697
   9   2.0000      -9.896181      -269.2888
  10   2.0000      -9.891020      -269.1483
  11   2.0000      -9.890916      -269.1455
  12   2.0000      -9.883426      -268.9417
  13   2.0000      -9.882732      -268.9228
  14   2.0000      -9.879085      -268.8236
  15   2.0000      -9.804021      -266.7810
  16   2.0000      -7.895736      -214.8539
  17   2.0000      -5.927917      -161.3068
  18   2.0000      -5.921685      -161.1372
  19   2.0000      -5.920652      -161.1091
  20   2.0000      -1.299437       -35.3595
  21   2.0000      -1.030162       -28.0321
  22   2.0000      -0.937540       -25.5117
  23   2.0000      -0.807872       -21.9833
  24   2.0000      -0.771227       -20.9861
  25   2.0000      -0.729593       -19.8532
  26   2.0000      -0.706043       -19.2124
  27   2.0000      -0.680558       -18.5189
  28   2.0000      -0.662756       -18.0345
  29   2.0000      -0.633314       -17.2334
  30   2.0000      -0.611206       -16.6318
  31   2.0000      -0.581101       -15.8125
  32   2.0000      -0.558293       -15.1919
  33   2.0000      -0.546597       -14.8737
  34   2.0000      -0.538141       -14.6436
  35   2.0000      -0.526448       -14.3254
  36   2.0000      -0.509421       -13.8621
  37   2.0000      -0.493003       -13.4153
  38   2.0000      -0.483680       -13.1616
  39   2.0000      -0.453807       -12.3487
  40   2.0000      -0.450792       -12.2667
  41   2.0000      -0.446152       -12.1404
  42   2.0000      -0.425078       -11.5670
  43   2.0000      -0.409021       -11.1300
  44   2.0000      -0.407184       -11.0800
  45   2.0000      -0.397750       -10.8233
  46   2.0000      -0.386052       -10.5050
  47   2.0000      -0.380456       -10.3527
  48   2.0000      -0.369856       -10.0643
  49   2.0000      -0.367286        -9.9944
  50   2.0000      -0.352896        -9.6028
  51   2.0000      -0.348551        -9.4846
  52   2.0000      -0.343131        -9.3371
  53   2.0000      -0.327875        -8.9219
  54   2.0000      -0.318052        -8.6546
  55   2.0000      -0.312557        -8.5051
  56   2.0000      -0.309709        -8.4276
  57   2.0000      -0.302264        -8.2250
  58   2.0000      -0.299089        -8.1386
  59   2.0000      -0.293665        -7.9910
  60   2.0000      -0.285125        -7.7587
  61   2.0000      -0.279528        -7.6063
  62   2.0000      -0.276296        -7.5184
  63   2.0000      -0.269209        -7.3256
  64   2.0000      -0.264195        -7.1891
  65   2.0000      -0.252781        -6.8785
  66   2.0000      -0.247498        -6.7348
  67   2.0000      -0.119582        -3.2540
  68   0.0000      -0.038980        -1.0607
  69   0.0000      -0.009301        -0.2531
  70   0.0000       0.003380         0.0920
  71   0.0000       0.012368         0.3366
  72   0.0000       0.020178         0.5491

MULLIKEN ATOMIC CHARGES
-----------------------
   0 C :   -0.106153
   1 C :   -0.162359
   2 C :   -0.252715
   3 H :    0.163282
   4 H :    0.139869
   5 S :    0.832526
   6 C :    0.189341
   7 C :   -0.437496
   8 N :   -0.401302
   9 H :    0.260446
  10 H :    0.203961
  11 H :    0.061696
  12 H :    0.060174
  13 O :   -0.436619
  14 O :   -0.398091
  15 C :   -0.215259
  16 C :   -0.202110
  17 C :   -0.132903
  18 H :    0.098334
  19 H :    0.081650
  20 H :    0.099265
  21 H :    0.103064
  22 C :   -0.163793
  23 H :    0.063238
  24 H :    0.111087
  25 C :   -0.099367
  26 H :    0.100927
  27 H :    0.067275
  28 C :   -0.151139
  29 H :    0.072121
  30 H :    0.066570
  31 H :    0.068410
  32 H :    0.085236
  33 H :    0.069073
  34 H :    0.090938
  35 F :   -0.070201
  36 H :    0.073485
  37 H :    0.067538
Sum of atomic charges:   -0.0000000

LOEWDIN ATOMIC CHARGES
----------------------
   0 C :   -0.206752
   1 C :   -0.280367
   2 C :   -0.363538
   3 H :    0.151180
   4 H :    0.143884
   5 S :    0.545457
   6 C :   -0.381695
   7 C :   -0.302684
   8 N :    0.005149
   9 H :    0.147293
  10 H :    0.160985
  11 H :    0.091761
  12 H :    0.087219
  13 O :   -0.263089
  14 O :   -0.246819
  15 C :   -0.261155
  16 C :   -0.264071
  17 C :   -0.267639
  18 H :    0.134042
  19 H :    0.135783
  20 H :    0.145791
  21 H :    0.135706
  22 C :   -0.259424
  23 H :    0.131296
  24 H :    0.131642
  25 C :   -0.261193
  26 H :    0.134872
  27 H :    0.134352
  28 C :   -0.260850
  29 H :    0.132364
  30 H :    0.130688
  31 H :    0.131040
  32 H :    0.131821
  33 H :    0.130659
  34 H :    0.135168
  35 F :    0.128170
  36 H :    0.139653
  37 H :    0.143303

  Mayer bond orders larger than 0.100000
B(  0-C ,  6-C ) :   0.9872 B(  0-C , 15-C ) :   0.9549 B(  0-C , 36-H ) :   0.9475
B(  0-C , 37-H ) :   0.9653 B(  1-C ,  2-C ) :   0.9353 B(  1-C , 17-C ) :   0.9569
B(  1-C , 20-H ) :   0.9431 B(  1-C , 21-H ) :   0.9689 B(  2-C ,  3-H ) :   0.9349
B(  2-C ,  4-H ) :   0.9413 B(  2-C ,  5-S ) :   0.9000 B(  5-S , 13-O ) :   1.7298
B(  5-S , 14-O ) :   1.8913 B(  5-S , 35-F ) :   1.1672 B(  6-C ,  7-C ) :   1.6540
B(  6-C ,  8-N ) :   1.2597 B(  7-C ,  8-N ) :   0.1000 B(  7-C , 11-H ) :   0.9938
B(  7-C , 12-H ) :   0.9886 B(  8-N ,  9-H ) :   0.8318 B(  8-N , 10-H ) :   0.9119
B(  9-H , 13-O ) :   0.1105 B( 15-C , 22-C ) :   0.9534 B( 15-C , 23-H ) :   0.9516
B( 15-C , 24-H ) :   0.9753 B( 16-C , 17-C ) :   0.9323 B( 16-C , 28-C ) :   0.9780
B( 16-C , 31-H ) :   0.9556 B( 16-C , 32-H ) :   0.9661 B( 17-C , 18-H ) :   0.9656
B( 17-C , 19-H ) :   0.9646 B( 22-C , 25-C ) :   0.9609 B( 22-C , 26-H ) :   0.9791
B( 22-C , 27-H ) :   0.9578 B( 25-C , 28-C ) :   0.9642 B( 25-C , 29-H ) :   0.9607
B( 25-C , 30-H ) :   0.9647 B( 28-C , 33-H ) :   0.9593 B( 28-C , 34-H ) :   0.9694

Dispersion correction           -0.092453379
FINAL SINGLE POINT ENERGY     -1135.649374650895

DIPOLE MOMENT
-------------
                                X             Y             Z
Electronic contribution:     -8.11579     -23.36153     -13.70820
Nuclear contribution   :      8.54118      20.92489      15.31138
                        -----------------------------------------
Total Dipole Moment    :      0.42539      -2.43664       1.60318
                        -----------------------------------------
Magnitude (a.u.)       :      2.94760
Magnitude (Debye)      :      7.49220

Rotational constants in cm-1:     0.018156     0.012306     0.008278
Rotational constants in MHz :   544.309022   368.914527   248.178402

                             ****ORCA TERMINATED NORMALLY****
TOTAL RUN TIME: 0 days 0 hours 0 minutes 29 seconds 705 msec
