                         Program Version 5.0.0 -  RELEASE  -
|  1> !CAM-B3LYP RIJCOSX def2-TZVP def2/J TightSCF
|  2> *xyz -1 1
|  3> C         -1.10433        0.25137       -2.86006
|  4> C         -0.71189        0.84252       -4.21834
|  5> H          0.15463        1.49980       -4.13091
|  6> H         -1.53813        1.45922       -4.58267
|  7> C         -0.39762       -0.20587       -5.28802
|  8> O          0.61717       -0.00535       -5.99827
|  9> O         -1.13317       -1.22138       -5.34147
| 10> H         -1.95489       -0.38644       -2.98099
| 11> H         -1.34603        1.04362       -2.18269
| 12> H         -0.28606       -0.31581       -2.46809
| 13> *
| 14>
| 15> %MaxCore 64000
| 16>
| 17> %pal nprocs 4
| 18> end
| 19>
| 20> %scf
| 21>   MaxIter 150
| 22> end
| 23>
| 24>
| 25>                          ****END OF INPUT****

CARTESIAN COORDINATES (ANGSTROEM)
---------------------------------
  C     -1.104330    0.251370   -2.860060
  C     -0.711890    0.842520   -4.218340
  H      0.154630    1.499800   -4.130910
  H     -1.538130    1.459220   -4.582670
  C     -0.397620   -0.205870   -5.288020
  O      0.617170   -0.005350   -5.998270
  O     -1.133170   -1.221380   -5.341470
  H     -1.954890   -0.386440   -2.980990
  H     -1.346030    1.043620   -2.182690
  H     -0.286060   -0.315810   -2.468090

 Total Charge           Charge          ....   -1
 Multiplicity           Mult            ....    1
 Number of Electrons    NEL             ....   40
 Basis Dimension        Dim             ....  185

ORBITAL ENERGIES
----------------

  NO   OCC          E(Eh)            E(eV)
   0   2.0000     -18.922221      -514.8998
   1   2.0000     -18.920935      -514.8648
   2   2.0000     -10.120324      -275.3880
   3   2.0000     -10.074875      -274.1513
   4   2.0000     -10.064678      -273.8738
   5   2.0000      -0.894178       -24.3318
   6   2.0000      -0.799576       -21.7576
   7   2.0000      -0.683621       -18.6023
   8   2.0000      -0.549403       -14.9500
   9   2.0000      -0.387230       -10.5371
  10   2.0000      -0.360540        -9.8108
  11   2.0000      -0.325858        -8.8671
  12   2.0000      -0.293501        -7.9866
  13   2.0000      -0.278545        -7.5796
  14   2.0000      -0.269868        -7.3435
  15   2.0000      -0.240186        -6.5358
  16   2.0000      -0.221864        -6.0372
  17   2.0000      -0.103859        -2.8262
  18   2.0000      -0.099614        -2.7106
  19   2.0000      -0.086898        -2.3646
  20   0.0000       0.219621         5.9762
  21   0.0000       0.261302         7.1104
  22   0.0000       0.281482         7.6595
  23   0.0000       0.286430         7.7942
  24   0.0000       0.304385         8.2827

MULLIKEN ATOMIC CHARGES
-----------------------
   0 C :   -0.315515
   1 C :   -0.148527
   2 H :    0.048110
   3 H :    0.036896
   4 C :    0.179752
   5 O :   -0.517987
   6 O :   -0.519678
   7 H :    0.099821
   8 H :    0.053794
   9 H :    0.083332
Sum of atomic charges:   -1.0000000

LOEWDIN ATOMIC CHARGES
----------------------
   0 C :   -0.326992
   1 C :   -0.290730
   2 H :    0.119473
   3 H :    0.121023
   4 C :   -0.700547
   5 O :   -0.117393
   6 O :   -0.115571
   7 H :    0.111557
   8 H :    0.092098
   9 H :    0.107082

  Mayer bond orders larger than 0.100000
B(  0-C ,  1-C ) :   0.9320 B(  0-C ,  7-H ) :   0.9746 B(  0-C ,  8-H ) :   0.9745
B(  0-C ,  9-H ) :   0.9833 B(  1-C ,  2-H ) :   0.9660 B(  1-C ,  3-H ) :   0.9618
B(  1-C ,  4-C ) :   0.9369 B(  4-C ,  5-O ) :   1.9052 B(  4-C ,  6-O ) :   1.8655

FINAL SINGLE POINT ENERGY      -267.831035477943

DIPOLE MOMENT
-------------
                                X             Y             Z
Electronic contribution:      1.56238      -2.38517      -5.26454
Nuclear contribution   :     -2.09607       3.44215       6.87744
                        -----------------------------------------
Total Dipole Moment    :     -0.53369       1.05698       1.61290
                        -----------------------------------------
Magnitude (a.u.)       :      2.00086
Magnitude (Debye)      :      5.08579

Rotational constants in cm-1:     0.324698     0.133739     0.103466
Rotational constants in MHz :  9734.203431  4009.406827  3101.846422

                             ****ORCA TERMINATED NORMALLY****
TOTAL RUN TIME: 0 days 0 hours 0 minutes 27 seconds 3 msec
