                         Program Version 5.0.0 -  RELEASE  -
|  1> !CAM-B3LYP RIJCOSX def2-TZVP def2/J TightSCF
|  2> *xyz 1 1
|  3> C          2.23447       -2.98975       -2.39762
|  4> N          2.75680       -2.94555       -3.76503
|  5> C          1.98721       -2.59045       -4.81898
|  6> N          0.74322       -3.01749       -4.91352
|  7> N          2.49964       -1.84860       -5.80324
|  8> H          3.30978       -1.29282       -5.55895
|  9> H          1.80103       -1.30430       -6.28913
| 10> H          3.71612       -2.62880       -3.82953
| 11> H          0.39583       -3.62775       -4.18502
| 12> H          0.03920       -2.45438       -5.37137
| 13> C          2.19120       -1.61950       -1.71549
| 14> H          2.87278       -3.66637       -1.82801
| 15> H          1.24619       -3.44744       -2.40784
| 16> H          1.56387       -0.96046       -2.27853
| 17> H          3.18033       -1.21449       -1.66568
| 18> H          1.79916       -1.72608       -0.72562
| 19> *
| 20>
| 21> %MaxCore 64000
| 22>
| 23> %pal nprocs 4
| 24> end
| 25>
| 26> %scf
| 27>   MaxIter 150
| 28> end
| 29>
| 30>
| 31>                          ****END OF INPUT****

CARTESIAN COORDINATES (ANGSTROEM)
---------------------------------
  C      2.234470   -2.989750   -2.397620
  N      2.756800   -2.945550   -3.765030
  C      1.987210   -2.590450   -4.818980
  N      0.743220   -3.017490   -4.913520
  N      2.499640   -1.848600   -5.803240
  H      3.309780   -1.292820   -5.558950
  H      1.801030   -1.304300   -6.289130
  H      3.716120   -2.628800   -3.829530
  H      0.395830   -3.627750   -4.185020
  H      0.039200   -2.454380   -5.371370
  C      2.191200   -1.619500   -1.715490
  H      2.872780   -3.666370   -1.828010
  H      1.246190   -3.447440   -2.407840
  H      1.563870   -0.960460   -2.278530
  H      3.180330   -1.214490   -1.665680
  H      1.799160   -1.726080   -0.725620

 Total Charge           Charge          ....    1
 Multiplicity           Mult            ....    1
 Number of Electrons    NEL             ....   48
 Basis Dimension        Dim             ....  246

ORBITAL ENERGIES
----------------

  NO   OCC          E(Eh)            E(eV)
   0   2.0000     -14.619635      -397.8205
   1   2.0000     -14.615771      -397.7154
   2   2.0000     -14.612671      -397.6310
   3   2.0000     -10.588542      -288.1289
   4   2.0000     -10.453296      -284.4487
   5   2.0000     -10.383659      -282.5537
   6   2.0000      -1.306765       -35.5589
   7   2.0000      -1.190300       -32.3897
   8   2.0000      -1.186115       -32.2758
   9   2.0000      -1.011471       -27.5235
  10   2.0000      -0.921617       -25.0785
  11   2.0000      -0.882607       -24.0169
  12   2.0000      -0.859751       -23.3950
  13   2.0000      -0.815146       -22.1813
  14   2.0000      -0.773519       -21.0485
  15   2.0000      -0.755806       -20.5665
  16   2.0000      -0.720850       -19.6153
  17   2.0000      -0.692615       -18.8470
  18   2.0000      -0.673339       -18.3225
  19   2.0000      -0.638179       -17.3657
  20   2.0000      -0.603240       -16.4150
  21   2.0000      -0.583569       -15.8797
  22   2.0000      -0.555782       -15.1236
  23   2.0000      -0.515848       -14.0369
  24   0.0000      -0.146975        -3.9994
  25   0.0000      -0.116872        -3.1803
  26   0.0000      -0.085379        -2.3233
  27   0.0000      -0.070828        -1.9273
  28   0.0000      -0.051850        -1.4109

MULLIKEN ATOMIC CHARGES
-----------------------
   0 C :   -0.155835
   1 N :   -0.254971
   2 C :    0.383344
   3 N :   -0.365738
   4 N :   -0.341012
   5 H :    0.269964
   6 H :    0.267546
   7 H :    0.245483
   8 H :    0.281279
   9 H :    0.283056
  10 C :   -0.334321
  11 H :    0.178057
  12 H :    0.117760
  13 H :    0.119134
  14 H :    0.141119
  15 H :    0.165134
Sum of atomic charges:    1.0000000

LOEWDIN ATOMIC CHARGES
----------------------
   0 C :   -0.284373
   1 N :    0.151908
   2 C :   -0.395863
   3 N :    0.084949
   4 N :    0.059126
   5 H :    0.196218
   6 H :    0.199719
   7 H :    0.205660
   8 H :    0.198668
   9 H :    0.200039
  10 C :   -0.283648
  11 H :    0.150936
  12 H :    0.134092
  13 H :    0.119123
  14 H :    0.125541
  15 H :    0.137908

  Mayer bond orders larger than 0.100000
B(  0-C ,  1-N ) :   0.8674 B(  0-C , 10-C ) :   0.9434 B(  0-C , 11-H ) :   0.9645
B(  0-C , 12-H ) :   0.9824 B(  1-N ,  2-C ) :   1.3477 B(  1-N ,  7-H ) :   0.9111
B(  2-C ,  3-N ) :   1.3407 B(  2-C ,  4-N ) :   1.3298 B(  3-N ,  8-H ) :   0.8997
B(  3-N ,  9-H ) :   0.8921 B(  4-N ,  5-H ) :   0.9013 B(  4-N ,  6-H ) :   0.8989
B( 10-C , 13-H ) :   0.9635 B( 10-C , 14-H ) :   0.9682 B( 10-C , 15-H ) :   0.9682

FINAL SINGLE POINT ENERGY      -284.350749607078

DIPOLE MOMENT
-------------
                                X             Y             Z
Electronic contribution:      0.17563      -1.65961      -5.19475
Nuclear contribution   :     -0.59121       2.30298       4.63196
                        -----------------------------------------
Total Dipole Moment    :     -0.41557       0.64337      -0.56280
                        -----------------------------------------
Magnitude (a.u.)       :      0.95046
Magnitude (Debye)      :      2.41587

Rotational constants in cm-1:     0.205874     0.074757     0.066901
Rotational constants in MHz :  6171.937773  2241.151057  2005.629823

                             ****ORCA TERMINATED NORMALLY****
TOTAL RUN TIME: 0 days 0 hours 0 minutes 53 seconds 503 msec
