                         Program Version 5.0.0 -  RELEASE  -
|  1> !CAM-B3LYP RIJCOSX def2-TZVP def2/J TightSCF xyzfile
|  2>
|  3> *xyzfile 0 1 B.xyz
|  4>
|  5> %MaxCore 64000
|  6>
|  7> %pal nprocs 18
|  8> end
|  9>
| 10> %scf
| 11>   MaxIter 150
| 12> end
| 13>
| 14>
| 15>                          ****END OF INPUT****

CARTESIAN COORDINATES (ANGSTROEM)
---------------------------------
  C      2.234473   -2.989754   -2.397622
  N      2.756799   -2.945553   -3.765029
  C     -1.104325    0.251374   -2.860056
  C     -0.711893    0.842517   -4.218344
  H      0.154626    1.499800   -4.130909
  H     -1.538134    1.459222   -4.582671
  C     -0.397624   -0.205875   -5.288018
  C      1.987208   -2.590451   -4.818975
  N      0.743221   -3.017493   -4.913524
  N      2.499636   -1.848598   -5.803241
  H      3.309780   -1.292818   -5.558947
  H      1.801025   -1.304298   -6.289129
  H      3.716116   -2.628797   -3.829533
  H      0.395828   -3.627747   -4.185024
  H      0.039201   -2.454383   -5.371367
  O      0.617165   -0.005348   -5.998273
  O     -1.133173   -1.221380   -5.341465
  C      2.191199   -1.619503   -1.715492
  H      2.872783   -3.666368   -1.828014
  H      1.246188   -3.447444   -2.407842
  C      1.298729   -0.554314   -2.359773
  H      1.872917   -1.787955   -0.681310
  H      3.216809   -1.238432   -1.654428
  C     -0.196255   -0.863365   -2.325763
  H      1.612531   -0.371346   -3.393065
  H      1.480944    0.388638   -1.834444
  H     -0.404105   -1.761825   -2.909448
  H     -0.490439   -1.087880   -1.294131
  H     -1.143842    1.066711   -2.129680
  H     -2.114401   -0.156834   -2.930323

 Total Charge           Charge          ....    0
 Multiplicity           Mult            ....    1
 Number of Electrons    NEL             ....  102
 Basis Dimension        Dim             ....  505

ORBITAL ENERGIES
----------------

  NO   OCC          E(Eh)            E(eV)
   0   2.0000     -19.112443      -520.0760
   1   2.0000     -19.110981      -520.0362
   2   2.0000     -14.457585      -393.4109
   3   2.0000     -14.427015      -392.5790
   4   2.0000     -14.426308      -392.5598
   5   2.0000     -10.413848      -283.3752
   6   2.0000     -10.319316      -280.8029
   7   2.0000     -10.303145      -280.3628
   8   2.0000     -10.267998      -279.4064
   9   2.0000     -10.247743      -278.8553
  10   2.0000     -10.233788      -278.4755
  11   2.0000     -10.224158      -278.2135
  12   2.0000     -10.211090      -277.8579
  13   2.0000      -1.134729       -30.8775
  14   2.0000      -1.087833       -29.6014
  15   2.0000      -1.027419       -27.9575
  16   2.0000      -1.007152       -27.4060
  17   2.0000      -0.988616       -26.9016
  18   2.0000      -0.903453       -24.5842
  19   2.0000      -0.859572       -23.3902
  20   2.0000      -0.806846       -21.9554
  21   2.0000      -0.761015       -20.7083
  22   2.0000      -0.732164       -19.9232
  23   2.0000      -0.698846       -19.0166
  24   2.0000      -0.687409       -18.7054
  25   2.0000      -0.654775       -17.8173
  26   2.0000      -0.631824       -17.1928
  27   2.0000      -0.606793       -16.5117
  28   2.0000      -0.582427       -15.8486
  29   2.0000      -0.572167       -15.5695
  30   2.0000      -0.553549       -15.0628
  31   2.0000      -0.542645       -14.7661
  32   2.0000      -0.535436       -14.5700
  33   2.0000      -0.518975       -14.1220
  34   2.0000      -0.506756       -13.7895
  35   2.0000      -0.496309       -13.5053
  36   2.0000      -0.481337       -13.0978
  37   2.0000      -0.476523       -12.9669
  38   2.0000      -0.458495       -12.4763
  39   2.0000      -0.447779       -12.1847
  40   2.0000      -0.434347       -11.8192
  41   2.0000      -0.424433       -11.5494
  42   2.0000      -0.410208       -11.1623
  43   2.0000      -0.393286       -10.7019
  44   2.0000      -0.379581       -10.3289
  45   2.0000      -0.372942       -10.1483
  46   2.0000      -0.368700       -10.0328
  47   2.0000      -0.358575        -9.7573
  48   2.0000      -0.293174        -7.9777
  49   2.0000      -0.284170        -7.7327
  50   2.0000      -0.278667        -7.5829
  51   0.0000       0.025844         0.7032
  52   0.0000       0.030844         0.8393
  53   0.0000       0.054932         1.4948
  54   0.0000       0.069868         1.9012
  55   0.0000       0.085045         2.3142

MULLIKEN ATOMIC CHARGES
-----------------------
   0 C :   -0.188732
   1 N :   -0.245269
   2 C :   -0.163785
   3 C :   -0.199316
   4 H :    0.097071
   5 H :    0.108756
   6 C :    0.255436
   7 C :    0.255718
   8 N :   -0.328745
   9 N :   -0.321379
  10 H :    0.225670
  11 H :    0.285005
  12 H :    0.216510
  13 H :    0.233879
  14 H :    0.288833
  15 O :   -0.525957
  16 O :   -0.497865
  17 C :   -0.207420
  18 H :    0.152442
  19 H :    0.132013
  20 C :   -0.208871
  21 H :    0.115528
  22 H :    0.115678
  23 C :   -0.208065
  24 H :    0.124858
  25 H :    0.112991
  26 H :    0.083808
  27 H :    0.094830
  28 H :    0.093647
  29 H :    0.102731
Sum of atomic charges:   -0.0000000

LOEWDIN ATOMIC CHARGES
----------------------
   0 C :   -0.275128
   1 N :    0.126999
   2 C :   -0.263368
   3 C :   -0.245493
   4 H :    0.135272
   5 H :    0.145145
   6 C :   -0.650554
   7 C :   -0.424802
   8 N :    0.088714
   9 N :    0.045303
  10 H :    0.175860
  11 H :    0.174580
  12 H :    0.191877
  13 H :    0.177465
  14 H :    0.167908
  15 O :   -0.074172
  16 O :   -0.063285
  17 C :   -0.269195
  18 H :    0.139187
  19 H :    0.134138
  20 C :   -0.265997
  21 H :    0.144730
  22 H :    0.136067
  23 C :   -0.271911
  24 H :    0.142661
  25 H :    0.142173
  26 H :    0.130314
  27 H :    0.132639
  28 H :    0.131448
  29 H :    0.141425

  Mayer bond orders larger than 0.100000
B(  0-C ,  1-N ) :   0.8754 B(  0-C , 17-C ) :   0.9404 B(  0-C , 18-H ) :   0.9858
B(  0-C , 19-H ) :   0.9886 B(  1-N ,  7-C ) :   1.3013 B(  1-N , 12-H ) :   0.9196
B(  2-C ,  3-C ) :   0.9348 B(  2-C , 23-C ) :   0.9771 B(  2-C , 28-H ) :   0.9769
B(  2-C , 29-H ) :   0.9686 B(  3-C ,  4-H ) :   0.9741 B(  3-C ,  5-H ) :   0.9579
B(  3-C ,  6-C ) :   0.9462 B(  6-C , 15-O ) :   1.7387 B(  6-C , 16-O ) :   1.7460
B(  7-C ,  8-N ) :   1.4162 B(  7-C ,  9-N ) :   1.3808 B(  8-N , 13-H ) :   0.9193
B(  8-N , 14-H ) :   0.7762 B(  9-N , 10-H ) :   0.9205 B(  9-N , 11-H ) :   0.8146
B( 11-H , 15-O ) :   0.1391 B( 14-H , 16-O ) :   0.1819 B( 17-C , 20-C ) :   0.9413
B( 17-C , 21-H ) :   0.9755 B( 17-C , 22-H ) :   0.9847 B( 20-C , 23-C ) :   0.9141
B( 20-C , 24-H ) :   0.9591 B( 20-C , 25-H ) :   0.9770 B( 23-C , 26-H ) :   0.9751
B( 23-C , 27-H ) :   0.9771

FINAL SINGLE POINT ENERGY      -629.770539362320

DIPOLE MOMENT
-------------
                                X             Y             Z
Electronic contribution:      0.61558      -2.84985     -10.22959
Nuclear contribution   :      1.76912       1.50070      12.36652
                        -----------------------------------------
Total Dipole Moment    :      2.38469      -1.34915       2.13693
                        -----------------------------------------
Magnitude (a.u.)       :      3.47468
Magnitude (Debye)      :      8.83194

Rotational constants in cm-1:     0.033272     0.023886     0.017112
Rotational constants in MHz :   997.469575   716.074432   513.001395

                             ****ORCA TERMINATED NORMALLY****
TOTAL RUN TIME: 0 days 0 hours 1 minutes 21 seconds 680 msec
