                         Program Version 5.0.0 -  RELEASE  -
|  1> !CAM-B3LYP RIJCOSX def2-TZVP def2/J TightSCF
|  2> *xyz 0 1
|  3> C         -1.10433        0.25137       -2.86006
|  4> C         -0.71189        0.84252       -4.21834
|  5> H          0.15463        1.49980       -4.13091
|  6> H         -1.53813        1.45922       -4.58267
|  7> C         -0.39762       -0.20587       -5.28802
|  8> F          0.61717       -0.00535       -5.99827
|  9> O         -1.13317       -1.22138       -5.34147
| 10> H         -1.95489       -0.38644       -2.98099
| 11> H         -1.34603        1.04362       -2.18269
| 12> H         -0.28606       -0.31581       -2.46809
| 13> *
| 14>
| 15> %MaxCore 64000
| 16>
| 17> %pal nprocs 4
| 18> end
| 19>
| 20> %scf
| 21>   MaxIter 150
| 22> end
| 23>
| 24>
| 25>                          ****END OF INPUT****

CARTESIAN COORDINATES (ANGSTROEM)
---------------------------------
  C     -1.104330    0.251370   -2.860060
  C     -0.711890    0.842520   -4.218340
  H      0.154630    1.499800   -4.130910
  H     -1.538130    1.459220   -4.582670
  C     -0.397620   -0.205870   -5.288020
  F      0.617170   -0.005350   -5.998270
  O     -1.133170   -1.221380   -5.341470
  H     -1.954890   -0.386440   -2.980990
  H     -1.346030    1.043620   -2.182690
  H     -0.286060   -0.315810   -2.468090

 Total Charge           Charge          ....    0
 Multiplicity           Mult            ....    1
 Number of Electrons    NEL             ....   40
 Basis Dimension        Dim             ....  185

ORBITAL ENERGIES
----------------

  NO   OCC          E(Eh)            E(eV)
   0   2.0000     -24.827356      -675.5867
   1   2.0000     -19.205137      -522.5984
   2   2.0000     -10.426765      -283.7267
   3   2.0000     -10.277115      -279.6545
   4   2.0000     -10.245501      -278.7943
   5   2.0000      -1.403260       -38.1846
   6   2.0000      -1.116400       -30.3788
   7   2.0000      -0.883361       -24.0375
   8   2.0000      -0.771591       -20.9960
   9   2.0000      -0.715361       -19.4660
  10   2.0000      -0.625696       -17.0261
  11   2.0000      -0.611630       -16.6433
  12   2.0000      -0.582646       -15.8546
  13   2.0000      -0.537518       -14.6266
  14   2.0000      -0.505317       -13.7504
  15   2.0000      -0.464220       -12.6321
  16   2.0000      -0.445307       -12.1174
  17   2.0000      -0.442480       -12.0405
  18   2.0000      -0.414623       -11.2825
  19   2.0000      -0.362797        -9.8722
  20   0.0000       0.021037         0.5724
  21   0.0000       0.069412         1.8888
  22   0.0000       0.109554         2.9811
  23   0.0000       0.126946         3.4544
  24   0.0000       0.136325         3.7096

MULLIKEN ATOMIC CHARGES
-----------------------
   0 C :   -0.342005
   1 C :   -0.221987
   2 H :    0.117180
   3 H :    0.128231
   4 C :    0.360699
   5 F :   -0.099134
   6 O :   -0.324355
   7 H :    0.141160
   8 H :    0.121451
   9 H :    0.118760
Sum of atomic charges:   -0.0000000

LOEWDIN ATOMIC CHARGES
----------------------
   0 C :   -0.287359
   1 C :   -0.260251
   2 H :    0.139993
   3 H :    0.154576
   4 C :   -0.497694
   5 F :    0.324275
   6 O :    0.062000
   7 H :    0.125753
   8 H :    0.118695
   9 H :    0.120012

  Mayer bond orders larger than 0.100000
B(  0-C ,  1-C ) :   0.9542 B(  0-C ,  7-H ) :   0.9693 B(  0-C ,  8-H ) :   0.9735
B(  0-C ,  9-H ) :   0.9778 B(  1-C ,  2-H ) :   0.9668 B(  1-C ,  3-H ) :   0.9408
B(  1-C ,  4-C ) :   0.9798 B(  4-C ,  5-F ) :   1.1684 B(  4-C ,  6-O ) :   2.0627

FINAL SINGLE POINT ENERGY      -292.402760658573

DIPOLE MOMENT
-------------
                                X             Y             Z
Electronic contribution:      3.60489      -2.34852      -7.71024
Nuclear contribution   :     -3.36368       3.36392       8.24820
                        -----------------------------------------
Total Dipole Moment    :      0.24121       1.01540       0.53796
                        -----------------------------------------
Magnitude (a.u.)       :      1.17415
Magnitude (Debye)      :      2.98444

Rotational constants in cm-1:     0.315013     0.126712     0.098430
Rotational constants in MHz :  9443.861322  3798.734540  2950.846388

                             ****ORCA TERMINATED NORMALLY****
TOTAL RUN TIME: 0 days 0 hours 0 minutes 28 seconds 470 msec
