                         Program Version 5.0.0 -  RELEASE  -
|  1> !CAM-B3LYP RIJCOSX def2-TZVP def2/J TightSCF
|  2> *xyz 0 1
|  3> C          2.23447       -2.98975       -2.39762
|  4> C          2.75680       -2.94555       -3.76503
|  5> C          1.98721       -2.59045       -4.81898
|  6> N          0.74322       -3.01749       -4.91352
|  7> N          2.49964       -1.84860       -5.80324
|  8> H          3.30978       -1.29282       -5.55895
|  9> H          1.80103       -1.30430       -6.28913
| 10> H          3.71612       -2.62880       -3.82953
| 11> H          0.39583       -3.62775       -4.18502
| 12> H          0.03920       -2.45438       -5.37137
| 13> C          2.19120       -1.61950       -1.71549
| 14> H          2.87278       -3.66637       -1.82801
| 15> H          1.24619       -3.44744       -2.40784
| 16> H          1.56387       -0.96046       -2.27853
| 17> H          3.18033       -1.21449       -1.66568
| 18> H          1.79916       -1.72608       -0.72562
| 19> *
| 20>
| 21> %MaxCore 64000
| 22>
| 23> %pal nprocs 4
| 24> end
| 25>
| 26> %scf
| 27>   MaxIter 150
| 28> end
| 29>
| 30>
| 31>                          ****END OF INPUT****

CARTESIAN COORDINATES (ANGSTROEM)
---------------------------------
  C      2.234470   -2.989750   -2.397620
  C      2.756800   -2.945550   -3.765030
  C      1.987210   -2.590450   -4.818980
  N      0.743220   -3.017490   -4.913520
  N      2.499640   -1.848600   -5.803240
  H      3.309780   -1.292820   -5.558950
  H      1.801030   -1.304300   -6.289130
  H      3.716120   -2.628800   -3.829530
  H      0.395830   -3.627750   -4.185020
  H      0.039200   -2.454380   -5.371370
  C      2.191200   -1.619500   -1.715490
  H      2.872780   -3.666370   -1.828010
  H      1.246190   -3.447440   -2.407840
  H      1.563870   -0.960460   -2.278530
  H      3.180330   -1.214490   -1.665680
  H      1.799160   -1.726080   -0.725620

 Total Charge           Charge          ....    0
 Multiplicity           Mult            ....    1
 Number of Electrons    NEL             ....   48
 Basis Dimension        Dim             ....  246

ORBITAL ENERGIES
----------------

  NO   OCC          E(Eh)            E(eV)
   0   2.0000     -14.393621      -391.6703
   1   2.0000     -14.389459      -391.5571
   2   2.0000     -10.293546      -280.1016
   3   2.0000     -10.218661      -278.0639
   4   2.0000     -10.209735      -277.8210
   5   2.0000     -10.165711      -276.6231
   6   2.0000      -1.055120       -28.7113
   7   2.0000      -0.961428       -26.1618
   8   2.0000      -0.856132       -23.2965
   9   2.0000      -0.772153       -21.0114
  10   2.0000      -0.695943       -18.9376
  11   2.0000      -0.654100       -17.7990
  12   2.0000      -0.615066       -16.7368
  13   2.0000      -0.579309       -15.7638
  14   2.0000      -0.538376       -14.6500
  15   2.0000      -0.521669       -14.1953
  16   2.0000      -0.482308       -13.1243
  17   2.0000      -0.463239       -12.6054
  18   2.0000      -0.440198       -11.9784
  19   2.0000      -0.425255       -11.5718
  20   2.0000      -0.392597       -10.6831
  21   2.0000      -0.385226       -10.4825
  22   2.0000      -0.341483        -9.2922
  23   2.0000      -0.217340        -5.9141
  24   0.0000       0.049603         1.3498
  25   0.0000       0.086407         2.3512
  26   0.0000       0.096703         2.6314
  27   0.0000       0.104894         2.8543
  28   0.0000       0.117173         3.1884

MULLIKEN ATOMIC CHARGES
-----------------------
   0 C :   -0.174615
   1 C :   -0.351478
   2 C :    0.299457
   3 N :   -0.437393
   4 N :   -0.424263
   5 H :    0.235908
   6 H :    0.203275
   7 H :    0.068293
   8 H :    0.239051
   9 H :    0.209628
  10 C :   -0.297117
  11 H :    0.097053
  12 H :    0.039525
  13 H :    0.091340
  14 H :    0.097922
  15 H :    0.103415
Sum of atomic charges:    0.0000000

LOEWDIN ATOMIC CHARGES
----------------------
   0 C :   -0.314761
   1 C :   -0.285149
   2 C :   -0.459359
   3 N :    0.000958
   4 N :   -0.020758
   5 H :    0.175234
   6 H :    0.163125
   7 H :    0.115786
   8 H :    0.177641
   9 H :    0.159539
  10 C :   -0.301672
  11 H :    0.134438
  12 H :    0.122252
  13 H :    0.110253
  14 H :    0.112701
  15 H :    0.109774

  Mayer bond orders larger than 0.100000
B(  0-C ,  1-C ) :   1.0131 B(  0-C , 10-C ) :   0.9222 B(  0-C , 11-H ) :   0.9897
B(  0-C , 12-H ) :   0.9793 B(  1-C ,  2-C ) :   1.6276 B(  1-C ,  7-H ) :   1.0402
B(  2-C ,  3-N ) :   1.1495 B(  2-C ,  4-N ) :   1.1397 B(  3-N ,  8-H ) :   0.9284
B(  3-N ,  9-H ) :   0.9184 B(  4-N ,  5-H ) :   0.9273 B(  4-N ,  6-H ) :   0.9317
B( 10-C , 13-H ) :   0.9821 B( 10-C , 14-H ) :   0.9806 B( 10-C , 15-H ) :   0.9804

FINAL SINGLE POINT ENERGY      -267.866107951912

DIPOLE MOMENT
-------------
                                X             Y             Z
Electronic contribution:     -0.36033      -1.34253      -5.02848
Nuclear contribution   :     -0.44240       2.20379       4.66256
                        -----------------------------------------
Total Dipole Moment    :     -0.80272       0.86126      -0.36592
                        -----------------------------------------
Magnitude (a.u.)       :      1.23289
Magnitude (Debye)      :      3.13377

Rotational constants in cm-1:     0.209447     0.075194     0.066975
Rotational constants in MHz :  6279.068019  2254.272519  2007.845458

                             ****ORCA TERMINATED NORMALLY****
TOTAL RUN TIME: 0 days 0 hours 0 minutes 56 seconds 653 msec
