                         Program Version 5.0.0 -  RELEASE  -
|  1> !CAM-B3LYP RIJCOSX def2-TZVP def2/J TightSCF
|  2> *xyz 0 1
|  3> C         -1.10433        0.25137       -2.86006
|  4> C         -0.71189        0.84252       -4.21834
|  5> H          0.15463        1.49980       -4.13091
|  6> H         -1.53813        1.45922       -4.58267
|  7> C         -0.39762       -0.20587       -5.28802
|  8> O          0.61717       -0.00535       -5.99827
|  9> F         -1.13317       -1.22138       -5.34147
| 10> H         -1.95489       -0.38644       -2.98099
| 11> H         -1.34603        1.04362       -2.18269
| 12> H         -0.28606       -0.31581       -2.46809
| 13> *
| 14>
| 15> %MaxCore 64000
| 16>
| 17> %pal nprocs 4
| 18> end
| 19>
| 20> %scf
| 21>   MaxIter 150
| 22> end
| 23>
| 24>
| 25>                          ****END OF INPUT****

CARTESIAN COORDINATES (ANGSTROEM)
---------------------------------
  C     -1.104330    0.251370   -2.860060
  C     -0.711890    0.842520   -4.218340
  H      0.154630    1.499800   -4.130910
  H     -1.538130    1.459220   -4.582670
  C     -0.397620   -0.205870   -5.288020
  O      0.617170   -0.005350   -5.998270
  F     -1.133170   -1.221380   -5.341470
  H     -1.954890   -0.386440   -2.980990
  H     -1.346030    1.043620   -2.182690
  H     -0.286060   -0.315810   -2.468090

 Total Charge           Charge          ....    0
 Multiplicity           Mult            ....    1
 Number of Electrons    NEL             ....   40
 Basis Dimension        Dim             ....  185

ORBITAL ENERGIES
----------------

  NO   OCC          E(Eh)            E(eV)
   0   2.0000     -24.828118      -675.6074
   1   2.0000     -19.204041      -522.5685
   2   2.0000     -10.425992      -283.7057
   3   2.0000     -10.276308      -279.6325
   4   2.0000     -10.251393      -278.9546
   5   2.0000      -1.403744       -38.1978
   6   2.0000      -1.115310       -30.3491
   7   2.0000      -0.887618       -24.1533
   8   2.0000      -0.766578       -20.8596
   9   2.0000      -0.722803       -19.6685
  10   2.0000      -0.627906       -17.0862
  11   2.0000      -0.618941       -16.8422
  12   2.0000      -0.572191       -15.5701
  13   2.0000      -0.539009       -14.6672
  14   2.0000      -0.505123       -13.7451
  15   2.0000      -0.470468       -12.8021
  16   2.0000      -0.454100       -12.3567
  17   2.0000      -0.446401       -12.1472
  18   2.0000      -0.414848       -11.2886
  19   2.0000      -0.357836        -9.7372
  20   0.0000       0.023593         0.6420
  21   0.0000       0.064491         1.7549
  22   0.0000       0.108893         2.9631
  23   0.0000       0.129389         3.5209
  24   0.0000       0.137432         3.7397

MULLIKEN ATOMIC CHARGES
-----------------------
   0 C :   -0.348551
   1 C :   -0.219786
   2 H :    0.139592
   3 H :    0.122457
   4 C :    0.353731
   5 O :   -0.321009
   6 F :   -0.102277
   7 H :    0.122466
   8 H :    0.126926
   9 H :    0.126450
Sum of atomic charges:   -0.0000000

LOEWDIN ATOMIC CHARGES
----------------------
   0 C :   -0.296432
   1 C :   -0.255915
   2 H :    0.152673
   3 H :    0.150661
   4 C :   -0.498749
   5 O :    0.060077
   6 F :    0.326667
   7 H :    0.119375
   8 H :    0.120926
   9 H :    0.120717

  Mayer bond orders larger than 0.100000
B(  0-C ,  1-C ) :   0.9375 B(  0-C ,  7-H ) :   0.9710 B(  0-C ,  8-H ) :   0.9745
B(  0-C ,  9-H ) :   0.9754 B(  1-C ,  2-H ) :   0.9695 B(  1-C ,  3-H ) :   0.9444
B(  1-C ,  4-C ) :   0.9934 B(  4-C ,  5-O ) :   2.0810 B(  4-C ,  6-F ) :   1.1562

FINAL SINGLE POINT ENERGY      -292.401928067241

DIPOLE MOMENT
-------------
                                X             Y             Z
Electronic contribution:      0.67691      -4.36078      -6.58606
Nuclear contribution   :     -1.45527       4.68977       7.53208
                        -----------------------------------------
Total Dipole Moment    :     -0.77836       0.32899       0.94602
                        -----------------------------------------
Magnitude (a.u.)       :      1.26848
Magnitude (Debye)      :      3.22421

Rotational constants in cm-1:     0.298240     0.132464     0.099915
Rotational constants in MHz :  8940.998095  3971.171647  2995.369122

                             ****ORCA TERMINATED NORMALLY****
TOTAL RUN TIME: 0 days 0 hours 0 minutes 28 seconds 767 msec
