                         Program Version 5.0.0 -  RELEASE  -
|  1> !CAM-B3LYP RIJCOSX def2-TZVP def2/J TightSCF
|  2> *xyz 0 1
|  3> C          2.23447       -2.98975       -2.39762
|  4> N          2.75680       -2.94555       -3.76503
|  5> C          1.98721       -2.59045       -4.81898
|  6> C          0.74322       -3.01749       -4.91352
|  7> N          2.49964       -1.84860       -5.80324
|  8> H          3.30978       -1.29282       -5.55895
|  9> H          1.80103       -1.30430       -6.28913
| 10> H          3.71612       -2.62880       -3.82953
| 11> H          0.39583       -3.62775       -4.18502
| 12> H          0.03920       -2.45438       -5.37137
| 13> C          2.19120       -1.61950       -1.71549
| 14> H          2.87278       -3.66637       -1.82801
| 15> H          1.24619       -3.44744       -2.40784
| 16> H          1.56387       -0.96046       -2.27853
| 17> H          3.18033       -1.21449       -1.66568
| 18> H          1.79916       -1.72608       -0.72562
| 19> *
| 20>
| 21> %MaxCore 64000
| 22>
| 23> %pal nprocs 4
| 24> end
| 25>
| 26> %scf
| 27>   MaxIter 150
| 28> end
| 29>
| 30>
| 31>                          ****END OF INPUT****

CARTESIAN COORDINATES (ANGSTROEM)
---------------------------------
  C      2.234470   -2.989750   -2.397620
  N      2.756800   -2.945550   -3.765030
  C      1.987210   -2.590450   -4.818980
  C      0.743220   -3.017490   -4.913520
  N      2.499640   -1.848600   -5.803240
  H      3.309780   -1.292820   -5.558950
  H      1.801030   -1.304300   -6.289130
  H      3.716120   -2.628800   -3.829530
  H      0.395830   -3.627750   -4.185020
  H      0.039200   -2.454380   -5.371370
  C      2.191200   -1.619500   -1.715490
  H      2.872780   -3.666370   -1.828010
  H      1.246190   -3.447440   -2.407840
  H      1.563870   -0.960460   -2.278530
  H      3.180330   -1.214490   -1.665680
  H      1.799160   -1.726080   -0.725620

 Total Charge           Charge          ....    0
 Multiplicity           Mult            ....    1
 Number of Electrons    NEL             ....   48
 Basis Dimension        Dim             ....  246

ORBITAL ENERGIES
----------------

  NO   OCC          E(Eh)            E(eV)
   0   2.0000     -14.389657      -391.5625
   1   2.0000     -14.388006      -391.5176
   2   2.0000     -10.290666      -280.0233
   3   2.0000     -10.275869      -279.6206
   4   2.0000     -10.231222      -278.4057
   5   2.0000     -10.158282      -276.4209
   6   2.0000      -1.051854       -28.6224
   7   2.0000      -0.970599       -26.4114
   8   2.0000      -0.837815       -22.7981
   9   2.0000      -0.795465       -21.6457
  10   2.0000      -0.718385       -19.5483
  11   2.0000      -0.636515       -17.3204
  12   2.0000      -0.615633       -16.7522
  13   2.0000      -0.583514       -15.8782
  14   2.0000      -0.531405       -14.4603
  15   2.0000      -0.516876       -14.0649
  16   2.0000      -0.485519       -13.2116
  17   2.0000      -0.466015       -12.6809
  18   2.0000      -0.461434       -12.5563
  19   2.0000      -0.437363       -11.9013
  20   2.0000      -0.426101       -11.5948
  21   2.0000      -0.414002       -11.2656
  22   2.0000      -0.317202        -8.6315
  23   2.0000      -0.234850        -6.3906
  24   0.0000       0.055000         1.4966
  25   0.0000       0.087768         2.3883
  26   0.0000       0.095804         2.6070
  27   0.0000       0.110403         3.0042
  28   0.0000       0.119572         3.2537

MULLIKEN ATOMIC CHARGES
-----------------------
   0 C :   -0.094677
   1 N :   -0.310349
   2 C :    0.319307
   3 C :   -0.471208
   4 N :   -0.430231
   5 H :    0.197063
   6 H :    0.231243
   7 H :    0.180256
   8 H :    0.068265
   9 H :    0.085724
  10 C :   -0.340478
  11 H :    0.113508
  12 H :    0.114279
  13 H :    0.125138
  14 H :    0.099162
  15 H :    0.112996
Sum of atomic charges:    0.0000000

LOEWDIN ATOMIC CHARGES
----------------------
   0 C :   -0.300036
   1 N :    0.099181
   2 C :   -0.459382
   3 C :   -0.320368
   4 N :   -0.023984
   5 H :    0.155118
   6 H :    0.178712
   7 H :    0.172421
   8 H :    0.099319
   9 H :    0.097784
  10 C :   -0.308294
  11 H :    0.127693
  12 H :    0.135110
  13 H :    0.118513
  14 H :    0.110665
  15 H :    0.117548

  Mayer bond orders larger than 0.100000
B(  0-C ,  1-N ) :   0.9280 B(  0-C , 10-C ) :   0.9471 B(  0-C , 11-H ) :   0.9823
B(  0-C , 12-H ) :   0.9780 B(  1-N ,  2-C ) :   1.1286 B(  1-N ,  7-H ) :   0.9408
B(  2-C ,  3-C ) :   1.6356 B(  2-C ,  4-N ) :   1.1425 B(  3-C ,  8-H ) :   1.0220
B(  3-C ,  9-H ) :   0.9818 B(  4-N ,  5-H ) :   0.9296 B(  4-N ,  6-H ) :   0.9256
B( 10-C , 13-H ) :   0.9751 B( 10-C , 14-H ) :   0.9769 B( 10-C , 15-H ) :   0.9760

FINAL SINGLE POINT ENERGY      -267.862862291787

DIPOLE MOMENT
-------------
                                X             Y             Z
Electronic contribution:      1.52464      -1.22018      -3.84115
Nuclear contribution   :     -0.86957       2.18853       4.41892
                        -----------------------------------------
Total Dipole Moment    :      0.65508       0.96835       0.57777
                        -----------------------------------------
Magnitude (a.u.)       :      1.30409
Magnitude (Debye)      :      3.31472

Rotational constants in cm-1:     0.214718     0.075736     0.068547
Rotational constants in MHz :  6437.075121  2270.519635  2054.974198

                             ****ORCA TERMINATED NORMALLY****
TOTAL RUN TIME: 0 days 0 hours 0 minutes 54 seconds 605 msec
