                         Program Version 5.0.0 -  RELEASE  -
|  1> !CAM-B3LYP RIJCOSX def2-TZVP def2/J TightSCF
|  2> *xyz 0 1
|  3> C          2.23447       -2.98975       -2.39762
|  4> N          2.75680       -2.94555       -3.76503
|  5> C          1.98721       -2.59045       -4.81898
|  6> N          0.74322       -3.01749       -4.91352
|  7> C          2.49964       -1.84860       -5.80324
|  8> H          3.30978       -1.29282       -5.55895
|  9> H          1.80103       -1.30430       -6.28913
| 10> H          3.71612       -2.62880       -3.82953
| 11> H          0.39583       -3.62775       -4.18502
| 12> H          0.03920       -2.45438       -5.37137
| 13> C          2.19120       -1.61950       -1.71549
| 14> H          2.87278       -3.66637       -1.82801
| 15> H          1.24619       -3.44744       -2.40784
| 16> H          1.56387       -0.96046       -2.27853
| 17> H          3.18033       -1.21449       -1.66568
| 18> H          1.79916       -1.72608       -0.72562
| 19> *
| 20>
| 21> %MaxCore 64000
| 22>
| 23> %pal nprocs 4
| 24> end
| 25>
| 26> %scf
| 27>   MaxIter 150
| 28> end
| 29>
| 30>
| 31>                          ****END OF INPUT****

CARTESIAN COORDINATES (ANGSTROEM)
---------------------------------
  C      2.234470   -2.989750   -2.397620
  N      2.756800   -2.945550   -3.765030
  C      1.987210   -2.590450   -4.818980
  N      0.743220   -3.017490   -4.913520
  C      2.499640   -1.848600   -5.803240
  H      3.309780   -1.292820   -5.558950
  H      1.801030   -1.304300   -6.289130
  H      3.716120   -2.628800   -3.829530
  H      0.395830   -3.627750   -4.185020
  H      0.039200   -2.454380   -5.371370
  C      2.191200   -1.619500   -1.715490
  H      2.872780   -3.666370   -1.828010
  H      1.246190   -3.447440   -2.407840
  H      1.563870   -0.960460   -2.278530
  H      3.180330   -1.214490   -1.665680
  H      1.799160   -1.726080   -0.725620

 Total Charge           Charge          ....    0
 Multiplicity           Mult            ....    1
 Number of Electrons    NEL             ....   48
 Basis Dimension        Dim             ....  246

ORBITAL ENERGIES
----------------

  NO   OCC          E(Eh)            E(eV)
   0   2.0000     -14.391087      -391.6014
   1   2.0000     -14.388880      -391.5413
   2   2.0000     -10.294429      -280.1257
   3   2.0000     -10.284479      -279.8549
   4   2.0000     -10.235320      -278.5172
   5   2.0000     -10.153278      -276.2847
   6   2.0000      -1.054040       -28.6819
   7   2.0000      -0.970789       -26.4165
   8   2.0000      -0.850418       -23.1410
   9   2.0000      -0.788657       -21.4604
  10   2.0000      -0.708324       -19.2745
  11   2.0000      -0.675613       -18.3844
  12   2.0000      -0.612042       -16.6545
  13   2.0000      -0.561715       -15.2850
  14   2.0000      -0.560576       -15.2540
  15   2.0000      -0.508119       -13.8266
  16   2.0000      -0.498065       -13.5530
  17   2.0000      -0.470542       -12.8041
  18   2.0000      -0.444517       -12.0959
  19   2.0000      -0.433311       -11.7910
  20   2.0000      -0.432285       -11.7631
  21   2.0000      -0.421480       -11.4690
  22   2.0000      -0.319886        -8.7045
  23   2.0000      -0.229848        -6.2545
  24   0.0000       0.056514         1.5378
  25   0.0000       0.083257         2.2655
  26   0.0000       0.091250         2.4830
  27   0.0000       0.102835         2.7983
  28   0.0000       0.117629         3.2008

MULLIKEN ATOMIC CHARGES
-----------------------
   0 C :   -0.131453
   1 N :   -0.294212
   2 C :    0.279959
   3 N :   -0.439871
   4 C :   -0.418213
   5 H :    0.058585
   6 H :    0.054931
   7 H :    0.211233
   8 H :    0.214680
   9 H :    0.239267
  10 C :   -0.318743
  11 H :    0.121594
  12 H :    0.082728
  13 H :    0.120688
  14 H :    0.107721
  15 H :    0.111104
Sum of atomic charges:   -0.0000000

LOEWDIN ATOMIC CHARGES
----------------------
   0 C :   -0.314591
   1 N :    0.100113
   2 C :   -0.458526
   3 N :    0.003621
   4 C :   -0.351495
   5 H :    0.094815
   6 H :    0.099648
   7 H :    0.189290
   8 H :    0.162644
   9 H :    0.177060
  10 C :   -0.305061
  11 H :    0.129447
  12 H :    0.122352
  13 H :    0.118696
  14 H :    0.115075
  15 H :    0.116911

  Mayer bond orders larger than 0.100000
B(  0-C ,  1-N ) :   0.9549 B(  0-C , 10-C ) :   0.9362 B(  0-C , 11-H ) :   0.9824
B(  0-C , 12-H ) :   0.9867 B(  1-N ,  2-C ) :   1.1698 B(  1-N ,  7-H ) :   0.9338
B(  2-C ,  3-N ) :   1.1160 B(  2-C ,  4-C ) :   1.7240 B(  3-N ,  8-H ) :   0.9372
B(  3-N ,  9-H ) :   0.9214 B(  4-C ,  5-H ) :   1.0161 B(  4-C ,  6-H ) :   1.0022
B( 10-C , 13-H ) :   0.9747 B( 10-C , 14-H ) :   0.9759 B( 10-C , 15-H ) :   0.9744

FINAL SINGLE POINT ENERGY      -267.857264419695

DIPOLE MOMENT
-------------
                                X             Y             Z
Electronic contribution:     -0.14858      -2.40146      -2.93527
Nuclear contribution   :     -0.49695       2.43650       4.23017
                        -----------------------------------------
Total Dipole Moment    :     -0.64553       0.03504       1.29490
                        -----------------------------------------
Magnitude (a.u.)       :      1.44731
Magnitude (Debye)      :      3.67877

Rotational constants in cm-1:     0.211102     0.077011     0.069221
Rotational constants in MHz :  6328.667765  2308.731604  2075.192956

                             ****ORCA TERMINATED NORMALLY****
TOTAL RUN TIME: 0 days 0 hours 0 minutes 51 seconds 892 msec
