                         Program Version 5.0.0 -  RELEASE  -
|  1> !CAM-B3LYP RIJCOSX def2-TZVP def2/J TightSCF xyzfile
|  2>
|  3> *xyzfile 0 1 D5.xyz
|  4>
|  5> %MaxCore 64000
|  6>
|  7> %pal nprocs 18
|  8> end
|  9>
| 10> %scf
| 11>   MaxIter 150
| 12> end
| 13>
| 14>
| 15>                          ****END OF INPUT****

CARTESIAN COORDINATES (ANGSTROEM)
---------------------------------
  C      2.234473   -2.989754   -2.397622
  N      2.756799   -2.945553   -3.765029
  C     -1.104325    0.251374   -2.860056
  C     -0.711893    0.842517   -4.218344
  H      0.154626    1.499800   -4.130909
  H     -1.538134    1.459222   -4.582671
  C     -0.397624   -0.205875   -5.288018
  C      1.987208   -2.590451   -4.818975
  C      0.743221   -3.017493   -4.913524
  N      2.499636   -1.848598   -5.803241
  H      3.309780   -1.292818   -5.558947
  H      1.801025   -1.304298   -6.289129
  H      3.716116   -2.628797   -3.829533
  H      0.395828   -3.627747   -4.185024
  H      0.039201   -2.454383   -5.371367
  O      0.617165   -0.005348   -5.998273
  F     -1.133173   -1.221380   -5.341465
  C      2.191199   -1.619503   -1.715492
  H      2.872783   -3.666368   -1.828014
  H      1.246188   -3.447444   -2.407842
  C      1.298729   -0.554314   -2.359773
  H      1.872917   -1.787955   -0.681310
  H      3.216809   -1.238432   -1.654428
  C     -0.196255   -0.863365   -2.325763
  H      1.612531   -0.371346   -3.393065
  H      1.480944    0.388638   -1.834444
  H     -0.404105   -1.761825   -2.909448
  H     -0.490439   -1.087880   -1.294131
  H     -1.143842    1.066711   -2.129680
  H     -2.114401   -0.156834   -2.930323

 Total Charge           Charge          ....    0
 Multiplicity           Mult            ....    1
 Number of Electrons    NEL             ....  102
 Basis Dimension        Dim             ....  505

ORBITAL ENERGIES
----------------

  NO   OCC          E(Eh)            E(eV)
   0   2.0000     -24.835073      -675.7967
   1   2.0000     -19.219805      -522.9975
   2   2.0000     -14.380431      -391.3114
   3   2.0000     -14.359881      -390.7522
   4   2.0000     -10.439504      -284.0734
   5   2.0000     -10.279315      -279.7144
   6   2.0000     -10.277424      -279.6629
   7   2.0000     -10.271560      -279.5033
   8   2.0000     -10.260930      -279.2141
   9   2.0000     -10.244169      -278.7580
  10   2.0000     -10.243522      -278.7404
  11   2.0000     -10.243293      -278.7342
  12   2.0000     -10.142428      -275.9895
  13   2.0000      -1.415391       -38.5147
  14   2.0000      -1.135173       -30.8896
  15   2.0000      -1.038047       -28.2467
  16   2.0000      -0.956186       -26.0191
  17   2.0000      -0.912470       -24.8296
  18   2.0000      -0.868858       -23.6428
  19   2.0000      -0.816787       -22.2259
  20   2.0000      -0.786187       -21.3932
  21   2.0000      -0.767673       -20.8894
  22   2.0000      -0.741270       -20.1710
  23   2.0000      -0.697341       -18.9756
  24   2.0000      -0.663683       -18.0597
  25   2.0000      -0.648073       -17.6350
  26   2.0000      -0.630669       -17.1614
  27   2.0000      -0.616576       -16.7779
  28   2.0000      -0.599862       -16.3231
  29   2.0000      -0.590823       -16.0771
  30   2.0000      -0.559144       -15.2151
  31   2.0000      -0.553523       -15.0621
  32   2.0000      -0.545319       -14.8389
  33   2.0000      -0.520938       -14.1754
  34   2.0000      -0.513758       -13.9801
  35   2.0000      -0.491649       -13.3784
  36   2.0000      -0.483592       -13.1592
  37   2.0000      -0.479125       -13.0377
  38   2.0000      -0.461408       -12.5555
  39   2.0000      -0.456189       -12.4135
  40   2.0000      -0.444340       -12.0911
  41   2.0000      -0.437995       -11.9184
  42   2.0000      -0.425092       -11.5673
  43   2.0000      -0.423560       -11.5257
  44   2.0000      -0.408915       -11.1272
  45   2.0000      -0.395601       -10.7648
  46   2.0000      -0.393992       -10.7211
  47   2.0000      -0.385021       -10.4770
  48   2.0000      -0.368742       -10.0340
  49   2.0000      -0.301706        -8.2098
  50   2.0000      -0.222903        -6.0655
  51   0.0000       0.009970         0.2713
  52   0.0000       0.057474         1.5639
  53   0.0000       0.070405         1.9158
  54   0.0000       0.085621         2.3299
  55   0.0000       0.093610         2.5472

MULLIKEN ATOMIC CHARGES
-----------------------
   0 C :   -0.147898
   1 N :   -0.272853
   2 C :   -0.208713
   3 C :   -0.240896
   4 H :    0.147020
   5 H :    0.144236
   6 C :    0.391423
   7 C :    0.206768
   8 C :   -0.498629
   9 N :   -0.378450
  10 H :    0.186707
  11 H :    0.248238
  12 H :    0.180791
  13 H :    0.077599
  14 H :    0.097697
  15 O :   -0.368130
  16 F :   -0.093583
  17 C :   -0.217577
  18 H :    0.127766
  19 H :    0.128432
  20 C :   -0.177084
  21 H :    0.096682
  22 H :    0.103785
  23 C :   -0.230600
  24 H :    0.121616
  25 H :    0.102797
  26 H :    0.128970
  27 H :    0.104837
  28 H :    0.117033
  29 H :    0.122015
Sum of atomic charges:    0.0000000

LOEWDIN ATOMIC CHARGES
----------------------
   0 C :   -0.279140
   1 N :    0.104707
   2 C :   -0.263617
   3 C :   -0.229122
   4 H :    0.155421
   5 H :    0.155446
   6 C :   -0.482672
   7 C :   -0.475826
   8 C :   -0.326044
   9 N :   -0.014692
  10 H :    0.150889
  11 H :    0.164642
  12 H :    0.172711
  13 H :    0.094583
  14 H :    0.091648
  15 O :    0.063437
  16 F :    0.347123
  17 C :   -0.270718
  18 H :    0.131644
  19 H :    0.136953
  20 C :   -0.266511
  21 H :    0.137743
  22 H :    0.133570
  23 C :   -0.269593
  24 H :    0.141539
  25 H :    0.136392
  26 H :    0.140499
  27 H :    0.137437
  28 H :    0.140743
  29 H :    0.140805

  Mayer bond orders larger than 0.100000
B(  0-C ,  1-N ) :   0.9186 B(  0-C , 17-C ) :   0.9531 B(  0-C , 18-H ) :   0.9901
B(  0-C , 19-H ) :   0.9850 B(  1-N ,  7-C ) :   1.1399 B(  1-N , 12-H ) :   0.9332
B(  2-C ,  3-C ) :   0.9174 B(  2-C , 23-C ) :   0.9399 B(  2-C , 28-H ) :   0.9725
B(  2-C , 29-H ) :   0.9849 B(  3-C ,  4-H ) :   0.9693 B(  3-C ,  5-H ) :   0.9525
B(  3-C ,  6-C ) :   0.9846 B(  6-C , 15-O ) :   1.9568 B(  6-C , 16-F ) :   1.1565
B(  7-C ,  8-C ) :   1.5849 B(  7-C ,  9-N ) :   1.1936 B(  8-C , 13-H ) :   1.0320
B(  8-C , 14-H ) :   1.0144 B(  9-N , 10-H ) :   0.9337 B(  9-N , 11-H ) :   0.8934
B( 17-C , 20-C ) :   0.9526 B( 17-C , 21-H ) :   0.9748 B( 17-C , 22-H ) :   0.9842
B( 20-C , 23-C ) :   0.8931 B( 20-C , 24-H ) :   0.9650 B( 20-C , 25-H ) :   0.9804
B( 23-C , 26-H ) :   0.9857 B( 23-C , 27-H ) :   0.9790

FINAL SINGLE POINT ENERGY      -637.652497765851

DIPOLE MOMENT
-------------
                                X             Y             Z
Electronic contribution:     -4.35309       0.22766     -12.39993
Nuclear contribution   :      4.07548       1.14852      13.79455
                        -----------------------------------------
Total Dipole Moment    :     -0.27761       1.37618       1.39461
                        -----------------------------------------
Magnitude (a.u.)       :      1.97886
Magnitude (Debye)      :      5.02986

Rotational constants in cm-1:     0.033274     0.023559     0.016968
Rotational constants in MHz :   997.539108   706.293545   508.690532

                             ****ORCA TERMINATED NORMALLY****
TOTAL RUN TIME: 0 days 0 hours 1 minutes 13 seconds 689 msec
