                         Program Version 5.0.0 -  RELEASE  -
|  1> !CAM-B3LYP RIJCOSX def2-TZVP def2/J TightSCF xyzfile
|  2>
|  3> *xyzfile 0 1 D6.xyz
|  4>
|  5> %MaxCore 64000
|  6>
|  7> %pal nprocs 18
|  8> end
|  9>
| 10> %scf
| 11>   MaxIter 150
| 12> end
| 13>
| 14>
| 15>                          ****END OF INPUT****

CARTESIAN COORDINATES (ANGSTROEM)
---------------------------------
  C      2.234473   -2.989754   -2.397622
  N      2.756799   -2.945553   -3.765029
  C     -1.104325    0.251374   -2.860056
  C     -0.711893    0.842517   -4.218344
  H      0.154626    1.499800   -4.130909
  H     -1.538134    1.459222   -4.582671
  C     -0.397624   -0.205875   -5.288018
  C      1.987208   -2.590451   -4.818975
  N      0.743221   -3.017493   -4.913524
  C      2.499636   -1.848598   -5.803241
  H      3.309780   -1.292818   -5.558947
  H      1.801025   -1.304298   -6.289129
  H      3.716116   -2.628797   -3.829533
  H      0.395828   -3.627747   -4.185024
  H      0.039201   -2.454383   -5.371367
  O      0.617165   -0.005348   -5.998273
  F     -1.133173   -1.221380   -5.341465
  C      2.191199   -1.619503   -1.715492
  H      2.872783   -3.666368   -1.828014
  H      1.246188   -3.447444   -2.407842
  C      1.298729   -0.554314   -2.359773
  H      1.872917   -1.787955   -0.681310
  H      3.216809   -1.238432   -1.654428
  C     -0.196255   -0.863365   -2.325763
  H      1.612531   -0.371346   -3.393065
  H      1.480944    0.388638   -1.834444
  H     -0.404105   -1.761825   -2.909448
  H     -0.490439   -1.087880   -1.294131
  H     -1.143842    1.066711   -2.129680
  H     -2.114401   -0.156834   -2.930323

 Total Charge           Charge          ....    0
 Multiplicity           Mult            ....    1
 Number of Electrons    NEL             ....  102
 Basis Dimension        Dim             ....  505

ORBITAL ENERGIES
----------------

  NO   OCC          E(Eh)            E(eV)
   0   2.0000     -24.849560      -676.1909
   1   2.0000     -19.216735      -522.9139
   2   2.0000     -14.378200      -391.2507
   3   2.0000     -14.374990      -391.1634
   4   2.0000     -10.436331      -283.9870
   5   2.0000     -10.280754      -279.7535
   6   2.0000     -10.277921      -279.6765
   7   2.0000     -10.277242      -279.6580
   8   2.0000     -10.265148      -279.3289
   9   2.0000     -10.252181      -278.9760
  10   2.0000     -10.246583      -278.8237
  11   2.0000     -10.245094      -278.7832
  12   2.0000     -10.129892      -275.6484
  13   2.0000      -1.429111       -38.8881
  14   2.0000      -1.131220       -30.7821
  15   2.0000      -1.043067       -28.3833
  16   2.0000      -0.961850       -26.1733
  17   2.0000      -0.917126       -24.9563
  18   2.0000      -0.873676       -23.7739
  19   2.0000      -0.824627       -22.4392
  20   2.0000      -0.790643       -21.5145
  21   2.0000      -0.763272       -20.7697
  22   2.0000      -0.742131       -20.1944
  23   2.0000      -0.695993       -18.9389
  24   2.0000      -0.681165       -18.5354
  25   2.0000      -0.658925       -17.9303
  26   2.0000      -0.641884       -17.4666
  27   2.0000      -0.635737       -17.2993
  28   2.0000      -0.601547       -16.3689
  29   2.0000      -0.583832       -15.8869
  30   2.0000      -0.564928       -15.3725
  31   2.0000      -0.553268       -15.0552
  32   2.0000      -0.540655       -14.7120
  33   2.0000      -0.531516       -14.4633
  34   2.0000      -0.516561       -14.0563
  35   2.0000      -0.507221       -13.8022
  36   2.0000      -0.484754       -13.1908
  37   2.0000      -0.478869       -13.0307
  38   2.0000      -0.457248       -12.4423
  39   2.0000      -0.451497       -12.2859
  40   2.0000      -0.448443       -12.2028
  41   2.0000      -0.438788       -11.9400
  42   2.0000      -0.433367       -11.7925
  43   2.0000      -0.426506       -11.6058
  44   2.0000      -0.404409       -11.0045
  45   2.0000      -0.398857       -10.8534
  46   2.0000      -0.396974       -10.8022
  47   2.0000      -0.389851       -10.6084
  48   2.0000      -0.353792        -9.6272
  49   2.0000      -0.308503        -8.3948
  50   2.0000      -0.212572        -5.7844
  51   0.0000       0.009773         0.2659
  52   0.0000       0.054538         1.4840
  53   0.0000       0.072754         1.9797
  54   0.0000       0.074081         2.0158
  55   0.0000       0.091463         2.4888

MULLIKEN ATOMIC CHARGES
-----------------------
   0 C :   -0.188656
   1 N :   -0.256175
   2 C :   -0.208596
   3 C :   -0.245141
   4 H :    0.153350
   5 H :    0.143857
   6 C :    0.365526
   7 C :    0.144881
   8 N :   -0.411664
   9 C :   -0.368129
  10 H :    0.050275
  11 H :    0.088078
  12 H :    0.207742
  13 H :    0.208130
  14 H :    0.232351
  15 O :   -0.302200
  16 F :   -0.126590
  17 C :   -0.190922
  18 H :    0.134362
  19 H :    0.104626
  20 C :   -0.206921
  21 H :    0.093558
  22 H :    0.110108
  23 C :   -0.227831
  24 H :    0.158395
  25 H :    0.106209
  26 H :    0.081798
  27 H :    0.108783
  28 H :    0.119652
  29 H :    0.121142
Sum of atomic charges:   -0.0000000

LOEWDIN ATOMIC CHARGES
----------------------
   0 C :   -0.294279
   1 N :    0.103240
   2 C :   -0.264559
   3 C :   -0.230405
   4 H :    0.157836
   5 H :    0.155115
   6 C :   -0.499345
   7 C :   -0.481332
   8 N :    0.009565
   9 C :   -0.339715
  10 H :    0.091839
  11 H :    0.099351
  12 H :    0.188628
  13 H :    0.156828
  14 H :    0.158927
  15 O :    0.101480
  16 F :    0.330018
  17 C :   -0.270259
  18 H :    0.132877
  19 H :    0.124881
  20 C :   -0.265589
  21 H :    0.136703
  22 H :    0.137063
  23 C :   -0.272641
  24 H :    0.148684
  25 H :    0.138057
  26 H :    0.127472
  27 H :    0.138145
  28 H :    0.141787
  29 H :    0.139627

  Mayer bond orders larger than 0.100000
B(  0-C ,  1-N ) :   0.9486 B(  0-C , 17-C ) :   0.9362 B(  0-C , 18-H ) :   0.9921
B(  0-C , 19-H ) :   0.9954 B(  1-N ,  7-C ) :   1.1799 B(  1-N , 12-H ) :   0.9288
B(  2-C ,  3-C ) :   0.9129 B(  2-C , 23-C ) :   0.9406 B(  2-C , 28-H ) :   0.9714
B(  2-C , 29-H ) :   0.9869 B(  3-C ,  4-H ) :   0.9689 B(  3-C ,  5-H ) :   0.9532
B(  3-C ,  6-C ) :   0.9880 B(  6-C , 15-O ) :   2.0347 B(  6-C , 16-F ) :   1.0962
B(  7-C ,  8-N ) :   1.1208 B(  7-C ,  9-C ) :   1.7085 B(  8-N , 13-H ) :   0.9367
B(  8-N , 14-H ) :   0.9070 B(  9-C , 10-H ) :   1.0062 B(  9-C , 11-H ) :   1.0106
B( 17-C , 20-C ) :   0.9458 B( 17-C , 21-H ) :   0.9730 B( 17-C , 22-H ) :   0.9804
B( 20-C , 23-C ) :   0.8921 B( 20-C , 24-H ) :   0.9632 B( 20-C , 25-H ) :   0.9775
B( 23-C , 26-H ) :   0.9879 B( 23-C , 27-H ) :   0.9768

FINAL SINGLE POINT ENERGY      -637.637413324391

DIPOLE MOMENT
-------------
                                X             Y             Z
Electronic contribution:     -5.71709      -0.69259     -11.69072
Nuclear contribution   :      4.34606       1.32859      13.65749
                        -----------------------------------------
Total Dipole Moment    :     -1.37103       0.63600       1.96677
                        -----------------------------------------
Magnitude (a.u.)       :      2.48040
Magnitude (Debye)      :      6.30468

Rotational constants in cm-1:     0.033551     0.023540     0.017085
Rotational constants in MHz :  1005.818710   705.725032   512.192443

                             ****ORCA TERMINATED NORMALLY****
TOTAL RUN TIME: 0 days 0 hours 1 minutes 33 seconds 203 msec
