                         Program Version 5.0.0 -  RELEASE  -
|  1> !wB97X-D3 RIJCOSX def2-SVPD def2/J TightSCF CPCM(Water)
|  2> *xyz -1 1
|  3> C          3.34350        3.35457       -3.59200
|  4> C          2.95263        1.86308       -3.57485
|  5> C          4.12921        0.89839       -3.41895
|  6> H          3.73369       -0.10060       -3.23763
|  7> H          4.71910        0.86256       -4.33901
|  8> C          5.01734        1.31521       -2.22130
|  9> H          2.27894        1.73525       -2.72550
| 10> H          2.37747        1.62579       -4.47587
| 11> O          4.73706        0.85411       -1.12283
| 12> O          5.92815        2.16811       -2.49136
| 13> H          4.00801        3.53975       -4.40994
| 14> H          3.83025        3.60631       -2.67298
| 15> H          2.46347        3.95263       -3.70497
| 16> *
| 17> %MaxCore 64000
| 18>
| 19> %pal nprocs 18
| 20> end
| 21>
| 22> %scf
| 23>   MaxIter 150
| 24> end
| 25>
| 26>
| 27>                          ****END OF INPUT****

CARTESIAN COORDINATES (ANGSTROEM)
---------------------------------
  C      3.343500    3.354570   -3.592000
  C      2.952630    1.863080   -3.574850
  C      4.129210    0.898390   -3.418950
  H      3.733690   -0.100600   -3.237630
  H      4.719100    0.862560   -4.339010
  C      5.017340    1.315210   -2.221300
  H      2.278940    1.735250   -2.725500
  H      2.377470    1.625790   -4.475870
  O      4.737060    0.854110   -1.122830
  O      5.928150    2.168110   -2.491360
  H      4.008010    3.539750   -4.409940
  H      3.830250    3.606310   -2.672980
  H      2.463470    3.952630   -3.704970

 Total Charge           Charge          ....   -1
 Multiplicity           Mult            ....    1
 Number of Electrons    NEL             ....   48
 Basis Dimension        Dim             ....  182

ORBITAL ENERGIES
----------------

  NO   OCC          E(Eh)            E(eV)
   0   2.0000     -19.183581      -522.0118
   1   2.0000     -19.172290      -521.7045
   2   2.0000     -10.365600      -282.0623
   3   2.0000     -10.277880      -279.6753
   4   2.0000     -10.266833      -279.3747
   5   2.0000     -10.259572      -279.1771
   6   2.0000      -1.128956       -30.7205
   7   2.0000      -1.029992       -28.0275
   8   2.0000      -0.885228       -24.0883
   9   2.0000      -0.790027       -21.4977
  10   2.0000      -0.688504       -18.7351
  11   2.0000      -0.590742       -16.0749
  12   2.0000      -0.551509       -15.0073
  13   2.0000      -0.542776       -14.7697
  14   2.0000      -0.518935       -14.1209
  15   2.0000      -0.505676       -13.7601
  16   2.0000      -0.479696       -13.0532
  17   2.0000      -0.469541       -12.7769
  18   2.0000      -0.437019       -11.8919
  19   2.0000      -0.418854       -11.3976
  20   2.0000      -0.412356       -11.2208
  21   2.0000      -0.342835        -9.3290
  22   2.0000      -0.327522        -8.9123
  23   2.0000      -0.320902        -8.7322
  24   0.0000       0.095207         2.5907
  25   0.0000       0.117406         3.1948
  26   0.0000       0.124009         3.3744
  27   0.0000       0.132209         3.5976
  28   0.0000       0.151164         4.1134

MULLIKEN ATOMIC CHARGES
-----------------------
   0 C :    0.647465
   1 C :   -0.431442
   2 C :    0.154726
   3 H :   -0.007493
   4 H :   -0.008904
   5 C :    0.344715
   6 H :   -0.011586
   7 H :   -0.142774
   8 O :   -0.647254
   9 O :   -0.735281
  10 H :   -0.040467
  11 H :   -0.023984
  12 H :   -0.097721
Sum of atomic charges:   -1.0000000

LOEWDIN ATOMIC CHARGES
----------------------
   0 C :    0.112363
   1 C :   -0.070294
   2 C :    0.001432
   3 H :    0.010701
   4 H :    0.017190
   5 C :   -0.323304
   6 H :    0.017101
   7 H :    0.018024
   8 O :   -0.330327
   9 O :   -0.380267
  10 H :   -0.017466
  11 H :   -0.033307
  12 H :   -0.021845

  Mayer bond orders larger than 0.100000
B(  0-C ,  1-C ) :   1.2853 B(  0-C , 10-H ) :   0.7918 B(  0-C , 11-H ) :   0.8108
B(  0-C , 12-H ) :   0.8187 B(  1-C ,  2-C ) :   1.1822 B(  1-C ,  3-H ) :   0.1404
B(  1-C ,  4-H ) :   0.1404 B(  1-C ,  6-H ) :   0.9250 B(  1-C ,  7-H ) :   1.0006
B(  1-C , 10-H ) :   0.1949 B(  1-C , 11-H ) :   0.2129 B(  1-C , 12-H ) :   0.1881
B(  2-C ,  3-H ) :   0.8577 B(  2-C ,  4-H ) :   0.8963 B(  2-C ,  5-C ) :   1.0229
B(  2-C ,  6-H ) :   0.1049 B(  3-H ,  5-C ) :   0.1274 B(  5-C ,  8-O ) :   1.5353
B(  5-C ,  9-O ) :   1.4783 B(  8-O ,  9-O ) :   0.1248

Dispersion correction           -0.003467761
FINAL SINGLE POINT ENERGY      -306.967265867066

DIPOLE MOMENT
-------------
                                X             Y             Z
Electronic contribution:      4.29718      -2.57592       3.87529
Nuclear contribution   :     -6.63819       2.74067      -6.05656
                        -----------------------------------------
Total Dipole Moment    :     -2.34101       0.16475      -2.18127
                        -----------------------------------------
Magnitude (a.u.)       :      3.20397
Magnitude (Debye)      :      8.14385

Rotational constants in cm-1:     0.190880     0.089683     0.076466
Rotational constants in MHz :  5722.446013  2688.617255  2292.390699

                             ****ORCA TERMINATED NORMALLY****
TOTAL RUN TIME: 0 days 0 hours 0 minutes 10 seconds 853 msec
