                         Program Version 5.0.0 -  RELEASE  -
|  1> !wB97X-D3 RIJCOSX def2-SVPD def2/J TightSCF CPCM(Water)
|  2> *xyz 1 1
|  3> C          3.34350        3.35457       -3.59200
|  4> C          2.95263        1.86308       -3.57485
|  5> C          4.12921        0.89839       -3.41895
|  6> C          4.25587        3.70385       -4.72605
|  7> N          3.73403        4.29378       -5.80077
|  8> N          5.51504        3.40725       -4.63718
|  9> H          6.14919        3.60120       -5.39905
| 10> H          5.81358        2.89950       -3.80879
| 11> H          2.74138        4.51311       -5.82470
| 12> H          4.28755        4.52126       -6.61434
| 13> H          2.27894        1.73525       -2.72550
| 14> H          2.37747        1.62579       -4.47587
| 15> H          3.86125        3.59725       -2.66298
| 16> H          2.44649        3.97346       -3.65656
| 17> H          4.79753        1.01430       -4.24649
| 18> H          3.76482       -0.10731       -3.39293
| 19> H          4.64840        1.11330       -2.50837
| 20> *
| 21> %MaxCore 64000
| 22>
| 23> %pal nprocs 18
| 24> end
| 25>
| 26> %scf
| 27>   MaxIter 150
| 28> end
| 29>
| 30>
| 31>                          ****END OF INPUT****

CARTESIAN COORDINATES (ANGSTROEM)
---------------------------------
  C      3.343500    3.354570   -3.592000
  C      2.952630    1.863080   -3.574850
  C      4.129210    0.898390   -3.418950
  C      4.255870    3.703850   -4.726050
  N      3.734030    4.293780   -5.800770
  N      5.515040    3.407250   -4.637180
  H      6.149190    3.601200   -5.399050
  H      5.813580    2.899500   -3.808790
  H      2.741380    4.513110   -5.824700
  H      4.287550    4.521260   -6.614340
  H      2.278940    1.735250   -2.725500
  H      2.377470    1.625790   -4.475870
  H      3.861250    3.597250   -2.662980
  H      2.446490    3.973460   -3.656560
  H      4.797530    1.014300   -4.246490
  H      3.764820   -0.107310   -3.392930
  H      4.648400    1.113300   -2.508370

 Total Charge           Charge          ....    1
 Multiplicity           Mult            ....    1
 Number of Electrons    NEL             ....   48
 Basis Dimension        Dim             ....  208

ORBITAL ENERGIES
----------------

  NO   OCC          E(Eh)            E(eV)
   0   2.0000     -14.500994      -394.5921
   1   2.0000     -14.496342      -394.4655
   2   2.0000     -10.434577      -283.9393
   3   2.0000     -10.318645      -280.7846
   4   2.0000     -10.302402      -280.3426
   5   2.0000     -10.276796      -279.6458
   6   2.0000      -1.132242       -30.8099
   7   2.0000      -1.033096       -28.1120
   8   2.0000      -0.923720       -25.1357
   9   2.0000      -0.840460       -22.8701
  10   2.0000      -0.761959       -20.7340
  11   2.0000      -0.728479       -19.8229
  12   2.0000      -0.695641       -18.9293
  13   2.0000      -0.667358       -18.1597
  14   2.0000      -0.617075       -16.7915
  15   2.0000      -0.589762       -16.0482
  16   2.0000      -0.563242       -15.3266
  17   2.0000      -0.541367       -14.7313
  18   2.0000      -0.516881       -14.0651
  19   2.0000      -0.499950       -13.6043
  20   2.0000      -0.450845       -12.2681
  21   2.0000      -0.445163       -12.1135
  22   2.0000      -0.439672       -11.9641
  23   2.0000      -0.402169       -10.9436
  24   0.0000       0.049355         1.3430
  25   0.0000       0.090186         2.4541
  26   0.0000       0.116845         3.1795
  27   0.0000       0.122278         3.3274
  28   0.0000       0.133191         3.6243

MULLIKEN ATOMIC CHARGES
-----------------------
   0 C :   -0.038626
   1 C :   -0.353717
   2 C :    0.602202
   3 C :    0.753032
   4 N :   -0.124198
   5 N :   -0.022838
   6 H :   -0.055415
   7 H :    0.146621
   8 H :    0.110583
   9 H :   -0.049229
  10 H :    0.011330
  11 H :   -0.032401
  12 H :    0.122337
  13 H :    0.033223
  14 H :   -0.028149
  15 H :   -0.104545
  16 H :    0.029790
Sum of atomic charges:    1.0000000

LOEWDIN ATOMIC CHARGES
----------------------
   0 C :    0.046148
   1 C :   -0.041999
   2 C :    0.121772
   3 C :   -0.034449
   4 N :    0.283231
   5 N :    0.293504
   6 H :    0.067100
   7 H :    0.050417
   8 H :    0.056070
   9 H :    0.052576
  10 H :    0.030854
  11 H :    0.031317
  12 H :    0.048382
  13 H :    0.041231
  14 H :   -0.030280
  15 H :   -0.010293
  16 H :   -0.005580

  Mayer bond orders larger than 0.100000
B(  0-C ,  1-C ) :   1.1814 B(  0-C ,  3-C ) :   1.0847 B(  0-C ,  5-N ) :   0.1059
B(  0-C , 10-H ) :   0.1058 B(  0-C , 12-H ) :   0.8498 B(  0-C , 13-H ) :   0.9222
B(  1-C ,  2-C ) :   1.2911 B(  1-C , 10-H ) :   0.9153 B(  1-C , 11-H ) :   1.0124
B(  1-C , 12-H ) :   0.1095 B(  1-C , 13-H ) :   0.1046 B(  1-C , 14-H ) :   0.1833
B(  1-C , 15-H ) :   0.1965 B(  1-C , 16-H ) :   0.1844 B(  2-C , 14-H ) :   0.8271
B(  2-C , 15-H ) :   0.8442 B(  2-C , 16-H ) :   0.8080 B(  3-C ,  4-N ) :   1.0243
B(  3-C ,  5-N ) :   1.1201 B(  3-C ,  6-H ) :  -0.1832 B(  3-C ,  9-H ) :  -0.1511
B(  4-N ,  5-N ) :   0.1523 B(  4-N ,  8-H ) :   1.0667 B(  4-N ,  9-H ) :   1.2885
B(  5-N ,  6-H ) :   1.3572 B(  5-N ,  7-H ) :   0.9629 B(  6-H ,  7-H ) :  -0.1877
B(  8-H ,  9-H ) :  -0.1715

Dispersion correction           -0.004541151
FINAL SINGLE POINT ENERGY      -268.197741883119

DIPOLE MOMENT
-------------
                                X             Y             Z
Electronic contribution:      1.63471       4.74877      -3.18379
Nuclear contribution   :     -0.87169      -3.40560       1.97790
                        -----------------------------------------
Total Dipole Moment    :      0.76301       1.34318      -1.20588
                        -----------------------------------------
Magnitude (a.u.)       :      1.95971
Magnitude (Debye)      :      4.98119

Rotational constants in cm-1:     0.188632     0.081113     0.066356
Rotational constants in MHz :  5655.057814  2431.708101  1989.304146

                             ****ORCA TERMINATED NORMALLY****
TOTAL RUN TIME: 0 days 0 hours 0 minutes 14 seconds 122 msec
