                         Program Version 5.0.0 -  RELEASE  -
|  1> !wB97X-D3 RIJCOSX def2-SVPD def2/J TightSCF CPCM(Water)
|  2> *xyz 0 1
|  3> C          3.34350        3.35457       -3.59200
|  4> C          2.95263        1.86308       -3.57485
|  5> C          4.12921        0.89839       -3.41895
|  6> H          3.73369       -0.10060       -3.23763
|  7> H          4.71910        0.86256       -4.33901
|  8> C          5.01734        1.31521       -2.22130
|  9> H          2.27894        1.73525       -2.72550
| 10> H          2.37747        1.62579       -4.47587
| 11> F          4.73706        0.85411       -1.12283
| 12> O          5.92815        2.16811       -2.49136
| 13> H          4.00801        3.53975       -4.40994
| 14> H          3.83025        3.60631       -2.67298
| 15> H          2.46347        3.95263       -3.70497
| 16> *
| 17> %MaxCore 64000
| 18>
| 19> %pal nprocs 18
| 20> end
| 21>
| 22> %scf
| 23>   MaxIter 150
| 24> end
| 25>
| 26>
| 27>                          ****END OF INPUT****

CARTESIAN COORDINATES (ANGSTROEM)
---------------------------------
  C      3.343500    3.354570   -3.592000
  C      2.952630    1.863080   -3.574850
  C      4.129210    0.898390   -3.418950
  H      3.733690   -0.100600   -3.237630
  H      4.719100    0.862560   -4.339010
  C      5.017340    1.315210   -2.221300
  H      2.278940    1.735250   -2.725500
  H      2.377470    1.625790   -4.475870
  F      4.737060    0.854110   -1.122830
  O      5.928150    2.168110   -2.491360
  H      4.008010    3.539750   -4.409940
  H      3.830250    3.606310   -2.672980
  H      2.463470    3.952630   -3.704970

 Total Charge           Charge          ....    0
 Multiplicity           Mult            ....    1
 Number of Electrons    NEL             ....   48
 Basis Dimension        Dim             ....  182

ORBITAL ENERGIES
----------------

  NO   OCC          E(Eh)            E(eV)
   0   2.0000     -24.889139      -677.2679
   1   2.0000     -19.259658      -524.0819
   2   2.0000     -10.483489      -285.2702
   3   2.0000     -10.308874      -280.5187
   4   2.0000     -10.295710      -280.1605
   5   2.0000     -10.269828      -279.4562
   6   2.0000      -1.450522       -39.4707
   7   2.0000      -1.138658       -30.9845
   8   2.0000      -0.914831       -24.8938
   9   2.0000      -0.828961       -22.5572
  10   2.0000      -0.779294       -21.2057
  11   2.0000      -0.713490       -19.4151
  12   2.0000      -0.673099       -18.3159
  13   2.0000      -0.652806       -17.7637
  14   2.0000      -0.608892       -16.5688
  15   2.0000      -0.561253       -15.2725
  16   2.0000      -0.550349       -14.9758
  17   2.0000      -0.511166       -13.9095
  18   2.0000      -0.491888       -13.3849
  19   2.0000      -0.461147       -12.5484
  20   2.0000      -0.451724       -12.2920
  21   2.0000      -0.440293       -11.9810
  22   2.0000      -0.426009       -11.5923
  23   2.0000      -0.390377       -10.6227
  24   0.0000       0.048344         1.3155
  25   0.0000       0.090416         2.4603
  26   0.0000       0.121078         3.2947
  27   0.0000       0.124865         3.3977
  28   0.0000       0.134827         3.6688

MULLIKEN ATOMIC CHARGES
-----------------------
   0 C :    0.608089
   1 C :   -0.452005
   2 C :    0.020547
   3 H :    0.079405
   4 H :    0.055752
   5 C :    0.803503
   6 H :    0.014117
   7 H :   -0.098133
   8 F :   -0.353728
   9 O :   -0.570628
  10 H :   -0.023751
  11 H :   -0.004401
  12 H :   -0.078766
Sum of atomic charges:    0.0000000

LOEWDIN ATOMIC CHARGES
----------------------
   0 C :    0.121918
   1 C :   -0.054859
   2 C :    0.050405
   3 H :    0.032146
   4 H :    0.042338
   5 C :    0.004032
   6 H :    0.026446
   7 H :    0.030696
   8 F :    0.001068
   9 O :   -0.200073
  10 H :   -0.011134
  11 H :   -0.028089
  12 H :   -0.014895

  Mayer bond orders larger than 0.100000
B(  0-C ,  1-C ) :   1.2961 B(  0-C , 10-H ) :   0.8097 B(  0-C , 11-H ) :   0.8205
B(  0-C , 12-H ) :   0.8256 B(  1-C ,  2-C ) :   1.1834 B(  1-C ,  3-H ) :   0.1302
B(  1-C ,  4-H ) :   0.1348 B(  1-C ,  6-H ) :   0.9334 B(  1-C ,  7-H ) :   1.0078
B(  1-C , 10-H ) :   0.1834 B(  1-C , 11-H ) :   0.1929 B(  1-C , 12-H ) :   0.1850
B(  2-C ,  3-H ) :   0.8700 B(  2-C ,  4-H ) :   0.9180 B(  2-C ,  5-C ) :   1.0563
B(  5-C ,  8-F ) :   0.7418 B(  5-C ,  9-O ) :   1.7558 B(  8-F ,  9-O ) :   0.1010

Dispersion correction           -0.003380459
FINAL SINGLE POINT ENERGY      -331.390069703275

DIPOLE MOMENT
-------------
                                X             Y             Z
Electronic contribution:      5.73991      -4.63346       7.54440
Nuclear contribution   :     -7.06456       3.75953      -7.86734
                        -----------------------------------------
Total Dipole Moment    :     -1.32464      -0.87393      -0.32294
                        -----------------------------------------
Magnitude (a.u.)       :      1.61948
Magnitude (Debye)      :      4.11639

Rotational constants in cm-1:     0.185871     0.085512     0.073500
Rotational constants in MHz :  5572.269993  2563.593529  2203.466497

                             ****ORCA TERMINATED NORMALLY****
TOTAL RUN TIME: 0 days 0 hours 0 minutes 10 seconds 505 msec
