                         Program Version 5.0.0 -  RELEASE  -
|  1> !wB97X-D3 RIJCOSX def2-SVPD def2/J TightSCF CPCM(Water)
|  2> *xyz 0 1
|  3> C          3.34350        3.35457       -3.59200
|  4> C          2.95263        1.86308       -3.57485
|  5> C          4.12921        0.89839       -3.41895
|  6> C          4.25587        3.70385       -4.72605
|  7> C          3.73403        4.29378       -5.80077
|  8> N          5.51504        3.40725       -4.63718
|  9> H          6.14919        3.60120       -5.39905
| 10> H          5.81358        2.89950       -3.80879
| 11> H          2.74138        4.51311       -5.82470
| 12> H          4.28755        4.52126       -6.61434
| 13> H          2.27894        1.73525       -2.72550
| 14> H          2.37747        1.62579       -4.47587
| 15> H          3.86125        3.59725       -2.66298
| 16> H          2.44649        3.97346       -3.65656
| 17> H          4.79753        1.01430       -4.24649
| 18> H          3.76482       -0.10731       -3.39293
| 19> H          4.64840        1.11330       -2.50837
| 20> *
| 21> %MaxCore 64000
| 22>
| 23> %pal nprocs 18
| 24> end
| 25>
| 26> %scf
| 27>   MaxIter 150
| 28> end
| 29>
| 30>
| 31>                          ****END OF INPUT****

CARTESIAN COORDINATES (ANGSTROEM)
---------------------------------
  C      3.343500    3.354570   -3.592000
  C      2.952630    1.863080   -3.574850
  C      4.129210    0.898390   -3.418950
  C      4.255870    3.703850   -4.726050
  C      3.734030    4.293780   -5.800770
  N      5.515040    3.407250   -4.637180
  H      6.149190    3.601200   -5.399050
  H      5.813580    2.899500   -3.808790
  H      2.741380    4.513110   -5.824700
  H      4.287550    4.521260   -6.614340
  H      2.278940    1.735250   -2.725500
  H      2.377470    1.625790   -4.475870
  H      3.861250    3.597250   -2.662980
  H      2.446490    3.973460   -3.656560
  H      4.797530    1.014300   -4.246490
  H      3.764820   -0.107310   -3.392930
  H      4.648400    1.113300   -2.508370

 Total Charge           Charge          ....    0
 Multiplicity           Mult            ....    1
 Number of Electrons    NEL             ....   48
 Basis Dimension        Dim             ....  208

ORBITAL ENERGIES
----------------

  NO   OCC          E(Eh)            E(eV)
   0   2.0000     -14.433898      -392.7663
   1   2.0000     -10.314424      -280.6697
   2   2.0000     -10.283617      -279.8314
   3   2.0000     -10.283444      -279.8267
   4   2.0000     -10.266845      -279.3751
   5   2.0000     -10.222918      -278.1797
   6   2.0000      -1.044017       -28.4092
   7   2.0000      -0.899448       -24.4752
   8   2.0000      -0.843681       -22.9577
   9   2.0000      -0.785935       -21.3864
  10   2.0000      -0.708940       -19.2912
  11   2.0000      -0.665264       -18.1028
  12   2.0000      -0.624728       -16.9997
  13   2.0000      -0.586771       -15.9668
  14   2.0000      -0.548522       -14.9261
  15   2.0000      -0.530264       -14.4292
  16   2.0000      -0.505207       -13.7474
  17   2.0000      -0.490669       -13.3518
  18   2.0000      -0.468409       -12.7461
  19   2.0000      -0.455295       -12.3892
  20   2.0000      -0.429343       -11.6830
  21   2.0000      -0.417566       -11.3626
  22   2.0000      -0.412852       -11.2343
  23   2.0000      -0.279244        -7.5986
  24   0.0000       0.094385         2.5683
  25   0.0000       0.114968         3.1284
  26   0.0000       0.119757         3.2588
  27   0.0000       0.128242         3.4897
  28   0.0000       0.143078         3.8933

MULLIKEN ATOMIC CHARGES
-----------------------
   0 C :    0.205639
   1 C :   -0.338655
   2 C :    0.631884
   3 C :   -0.215393
   4 C :    0.421272
   5 N :    0.157817
   6 H :   -0.116496
   7 H :   -0.004618
   8 H :   -0.120726
   9 H :   -0.428203
  10 H :   -0.020534
  11 H :   -0.097961
  12 H :    0.004488
  13 H :    0.059940
  14 H :   -0.042538
  15 H :   -0.117557
  16 H :    0.021639
Sum of atomic charges:   -0.0000000

LOEWDIN ATOMIC CHARGES
----------------------
   0 C :    0.002370
   1 C :   -0.058449
   2 C :    0.113147
   3 C :   -0.273610
   4 C :    0.149181
   5 N :    0.182795
   6 H :    0.031128
   7 H :    0.012845
   8 H :   -0.092941
   9 H :   -0.095579
  10 H :    0.018730
  11 H :    0.021393
  12 H :    0.028334
  13 H :    0.024155
  14 H :   -0.035315
  15 H :   -0.017247
  16 H :   -0.010936

  Mayer bond orders larger than 0.100000
B(  0-C ,  1-C ) :   1.1578 B(  0-C ,  3-C ) :   1.1698 B(  0-C ,  4-C ) :   0.1428
B(  0-C ,  5-N ) :   0.1089 B(  0-C , 11-H ) :   0.1137 B(  0-C , 12-H ) :   0.7678
B(  0-C , 13-H ) :   0.8568 B(  1-C ,  2-C ) :   1.2770 B(  1-C , 10-H ) :   0.9089
B(  1-C , 11-H ) :   1.0151 B(  1-C , 12-H ) :   0.1253 B(  1-C , 13-H ) :   0.1139
B(  1-C , 14-H ) :   0.1906 B(  1-C , 15-H ) :   0.2007 B(  1-C , 16-H ) :   0.1931
B(  2-C , 14-H ) :   0.8355 B(  2-C , 15-H ) :   0.8287 B(  2-C , 16-H ) :   0.7921
B(  3-C ,  4-C ) :   1.7764 B(  3-C ,  5-N ) :   1.1935 B(  3-C ,  6-H ) :  -0.1010
B(  3-C ,  9-H ) :   0.1687 B(  3-C , 12-H ) :   0.1724 B(  3-C , 13-H ) :   0.1342
B(  4-C ,  5-N ) :   0.2521 B(  4-C ,  8-H ) :   0.9352 B(  4-C ,  9-H ) :   0.7176
B(  5-N ,  6-H ) :   1.2980 B(  5-N ,  7-H ) :   0.9738 B(  6-H ,  7-H ) :  -0.1660

Dispersion correction           -0.004552828
FINAL SINGLE POINT ENERGY      -251.648796323080

DIPOLE MOMENT
-------------
                                X             Y             Z
Electronic contribution:      1.68162       2.48270      -0.96821
Nuclear contribution   :     -0.93682      -3.08083       1.62582
                        -----------------------------------------
Total Dipole Moment    :      0.74480      -0.59812       0.65761
                        -----------------------------------------
Magnitude (a.u.)       :      1.15971
Magnitude (Debye)      :      2.94776

Rotational constants in cm-1:     0.191400     0.084268     0.068511
Rotational constants in MHz :  5738.038424  2526.291061  2053.912421

                             ****ORCA TERMINATED NORMALLY****
TOTAL RUN TIME: 0 days 0 hours 0 minutes 14 seconds 709 msec
