                         Program Version 5.0.0 -  RELEASE  -
|  1> !wB97X-D3 RIJCOSX def2-SVPD def2/J TightSCF CPCM(Water)
|  2> *xyz 0 1
|  3> C          3.34350        3.35457       -3.59200
|  4> C          2.95263        1.86308       -3.57485
|  5> C          4.12921        0.89839       -3.41895
|  6> H          3.73369       -0.10060       -3.23763
|  7> H          4.71910        0.86256       -4.33901
|  8> C          5.01734        1.31521       -2.22130
|  9> H          2.27894        1.73525       -2.72550
| 10> H          2.37747        1.62579       -4.47587
| 11> O          4.73706        0.85411       -1.12283
| 12> F          5.92815        2.16811       -2.49136
| 13> H          4.00801        3.53975       -4.40994
| 14> H          3.83025        3.60631       -2.67298
| 15> H          2.46347        3.95263       -3.70497
| 16> *
| 17> %MaxCore 64000
| 18>
| 19> %pal nprocs 18
| 20> end
| 21>
| 22> %scf
| 23>   MaxIter 150
| 24> end
| 25>
| 26>
| 27>                          ****END OF INPUT****

CARTESIAN COORDINATES (ANGSTROEM)
---------------------------------
  C      3.343500    3.354570   -3.592000
  C      2.952630    1.863080   -3.574850
  C      4.129210    0.898390   -3.418950
  H      3.733690   -0.100600   -3.237630
  H      4.719100    0.862560   -4.339010
  C      5.017340    1.315210   -2.221300
  H      2.278940    1.735250   -2.725500
  H      2.377470    1.625790   -4.475870
  O      4.737060    0.854110   -1.122830
  F      5.928150    2.168110   -2.491360
  H      4.008010    3.539750   -4.409940
  H      3.830250    3.606310   -2.672980
  H      2.463470    3.952630   -3.704970

 Total Charge           Charge          ....    0
 Multiplicity           Mult            ....    1
 Number of Electrons    NEL             ....   48
 Basis Dimension        Dim             ....  182

ORBITAL ENERGIES
----------------

  NO   OCC          E(Eh)            E(eV)
   0   2.0000     -24.869799      -676.7416
   1   2.0000     -19.269740      -524.3563
   2   2.0000     -10.479442      -285.1601
   3   2.0000     -10.308573      -280.5105
   4   2.0000     -10.296059      -280.1700
   5   2.0000     -10.273131      -279.5461
   6   2.0000      -1.411713       -38.4147
   7   2.0000      -1.171679       -31.8830
   8   2.0000      -0.916092       -24.9281
   9   2.0000      -0.825819       -22.4717
  10   2.0000      -0.764712       -20.8089
  11   2.0000      -0.710589       -19.3361
  12   2.0000      -0.653443       -17.7811
  13   2.0000      -0.633238       -17.2313
  14   2.0000      -0.616672       -16.7805
  15   2.0000      -0.561155       -15.2698
  16   2.0000      -0.546396       -14.8682
  17   2.0000      -0.509766       -13.8714
  18   2.0000      -0.506934       -13.7944
  19   2.0000      -0.486961       -13.2509
  20   2.0000      -0.447703       -12.1826
  21   2.0000      -0.440499       -11.9866
  22   2.0000      -0.430211       -11.7066
  23   2.0000      -0.400250       -10.8913
  24   0.0000       0.053867         1.4658
  25   0.0000       0.091111         2.4792
  26   0.0000       0.120371         3.2755
  27   0.0000       0.125196         3.4068
  28   0.0000       0.135283         3.6812

MULLIKEN ATOMIC CHARGES
-----------------------
   0 C :    0.577749
   1 C :   -0.421377
   2 C :    0.013664
   3 H :    0.064389
   4 H :    0.073896
   5 C :    0.788239
   6 H :    0.014603
   7 H :   -0.102988
   8 O :   -0.497805
   9 F :   -0.407885
  10 H :   -0.018484
  11 H :   -0.015564
  12 H :   -0.068436
Sum of atomic charges:    0.0000000

LOEWDIN ATOMIC CHARGES
----------------------
   0 C :    0.124819
   1 C :   -0.056119
   2 C :    0.049978
   3 H :    0.035998
   4 H :    0.038743
   5 C :   -0.002495
   6 H :    0.026781
   7 H :    0.030331
   8 O :   -0.152713
   9 F :   -0.049377
  10 H :   -0.010051
  11 H :   -0.022758
  12 H :   -0.013136

  Mayer bond orders larger than 0.100000
B(  0-C ,  1-C ) :   1.3065 B(  0-C , 10-H ) :   0.8102 B(  0-C , 11-H ) :   0.8266
B(  0-C , 12-H ) :   0.8278 B(  1-C ,  2-C ) :   1.1924 B(  1-C ,  3-H ) :   0.1306
B(  1-C ,  4-H ) :   0.1284 B(  1-C ,  6-H ) :   0.9355 B(  1-C ,  7-H ) :   1.0123
B(  1-C , 10-H ) :   0.1761 B(  1-C , 11-H ) :   0.1880 B(  1-C , 12-H ) :   0.1852
B(  2-C ,  3-H ) :   0.8795 B(  2-C ,  4-H ) :   0.9098 B(  2-C ,  5-C ) :   1.0435
B(  3-H ,  5-C ) :   0.1078 B(  5-C ,  8-O ) :   1.8172 B(  5-C ,  9-F ) :   0.6746
B(  8-O ,  9-F ) :   0.1036

Dispersion correction           -0.003414802
FINAL SINGLE POINT ENERGY      -331.405468267998

DIPOLE MOMENT
-------------
                                X             Y             Z
Electronic contribution:      8.01873      -2.10637       4.90845
Nuclear contribution   :     -8.40998       2.27527      -6.32148
                        -----------------------------------------
Total Dipole Moment    :     -0.39125       0.16890      -1.41303
                        -----------------------------------------
Magnitude (a.u.)       :      1.47589
Magnitude (Debye)      :      3.75142

Rotational constants in cm-1:     0.181105     0.088112     0.073966
Rotational constants in MHz :  5429.384816  2641.525058  2217.445966

                             ****ORCA TERMINATED NORMALLY****
TOTAL RUN TIME: 0 days 0 hours 0 minutes 11 seconds 108 msec
