                         Program Version 5.0.0 -  RELEASE  -
|  1> !wB97X-D3 RIJCOSX def2-SVPD def2/J TightSCF CPCM(Water)
|  2> *xyz 0 1
|  3> C          3.34350        3.35457       -3.59200
|  4> C          2.95263        1.86308       -3.57485
|  5> C          4.12921        0.89839       -3.41895
|  6> C          4.25587        3.70385       -4.72605
|  7> N          3.73403        4.29378       -5.80077
|  8> C          5.51504        3.40725       -4.63718
|  9> H          6.14919        3.60120       -5.39905
| 10> H          5.81358        2.89950       -3.80879
| 11> H          2.74138        4.51311       -5.82470
| 12> H          4.28755        4.52126       -6.61434
| 13> H          2.27894        1.73525       -2.72550
| 14> H          2.37747        1.62579       -4.47587
| 15> H          3.86125        3.59725       -2.66298
| 16> H          2.44649        3.97346       -3.65656
| 17> H          4.79753        1.01430       -4.24649
| 18> H          3.76482       -0.10731       -3.39293
| 19> H          4.64840        1.11330       -2.50837
| 20> *
| 21> %MaxCore 64000
| 22>
| 23> %pal nprocs 18
| 24> end
| 25>
| 26> %scf
| 27>   MaxIter 150
| 28> end
| 29>
| 30>
| 31>                          ****END OF INPUT****

CARTESIAN COORDINATES (ANGSTROEM)
---------------------------------
  C      3.343500    3.354570   -3.592000
  C      2.952630    1.863080   -3.574850
  C      4.129210    0.898390   -3.418950
  C      4.255870    3.703850   -4.726050
  N      3.734030    4.293780   -5.800770
  C      5.515040    3.407250   -4.637180
  H      6.149190    3.601200   -5.399050
  H      5.813580    2.899500   -3.808790
  H      2.741380    4.513110   -5.824700
  H      4.287550    4.521260   -6.614340
  H      2.278940    1.735250   -2.725500
  H      2.377470    1.625790   -4.475870
  H      3.861250    3.597250   -2.662980
  H      2.446490    3.973460   -3.656560
  H      4.797530    1.014300   -4.246490
  H      3.764820   -0.107310   -3.392930
  H      4.648400    1.113300   -2.508370

 Total Charge           Charge          ....    0
 Multiplicity           Mult            ....    1
 Number of Electrons    NEL             ....   48
 Basis Dimension        Dim             ....  208

ORBITAL ENERGIES
----------------

  NO   OCC          E(Eh)            E(eV)
   0   2.0000     -14.430184      -392.6653
   1   2.0000     -10.309513      -280.5361
   2   2.0000     -10.282525      -279.8017
   3   2.0000     -10.282361      -279.7973
   4   2.0000     -10.262649      -279.2609
   5   2.0000     -10.220144      -278.1043
   6   2.0000      -1.028529       -27.9877
   7   2.0000      -0.902067       -24.5465
   8   2.0000      -0.840158       -22.8619
   9   2.0000      -0.793301       -21.5868
  10   2.0000      -0.700591       -19.0641
  11   2.0000      -0.663126       -18.0446
  12   2.0000      -0.615185       -16.7400
  13   2.0000      -0.581385       -15.8203
  14   2.0000      -0.551154       -14.9977
  15   2.0000      -0.533863       -14.5271
  16   2.0000      -0.491932       -13.3861
  17   2.0000      -0.489802       -13.3282
  18   2.0000      -0.471138       -12.8203
  19   2.0000      -0.455470       -12.3940
  20   2.0000      -0.425300       -11.5730
  21   2.0000      -0.415148       -11.2968
  22   2.0000      -0.410021       -11.1572
  23   2.0000      -0.282767        -7.6945
  24   0.0000       0.095023         2.5857
  25   0.0000       0.114909         3.1268
  26   0.0000       0.122940         3.3454
  27   0.0000       0.124781         3.3955
  28   0.0000       0.143920         3.9163

MULLIKEN ATOMIC CHARGES
-----------------------
   0 C :    0.181562
   1 C :   -0.326843
   2 C :    0.603164
   3 C :   -0.034285
   4 N :   -0.007542
   5 C :    0.405269
   6 H :   -0.559962
   7 H :    0.077063
   8 H :   -0.024966
   9 H :   -0.104294
  10 H :   -0.023020
  11 H :   -0.076907
  12 H :    0.110303
  13 H :   -0.075708
  14 H :   -0.010248
  15 H :   -0.160465
  16 H :    0.026879
Sum of atomic charges:    0.0000000

LOEWDIN ATOMIC CHARGES
----------------------
   0 C :    0.004318
   1 C :   -0.057261
   2 C :    0.110911
   3 C :   -0.259297
   4 N :    0.172339
   5 C :    0.143045
   6 H :   -0.079564
   7 H :   -0.081260
   8 H :    0.011781
   9 H :    0.014717
  10 H :    0.018503
  11 H :    0.022535
  12 H :    0.029086
  13 H :    0.020769
  14 H :   -0.040317
  15 H :   -0.019190
  16 H :   -0.011114

  Mayer bond orders larger than 0.100000
B(  0-C ,  1-C ) :   1.1719 B(  0-C ,  3-C ) :   1.0440 B(  0-C ,  4-N ) :   0.1098
B(  0-C ,  5-C ) :   0.2038 B(  0-C , 10-H ) :   0.1162 B(  0-C , 11-H ) :   0.1084
B(  0-C , 12-H ) :   0.7996 B(  0-C , 13-H ) :   0.8754 B(  1-C ,  2-C ) :   1.2869
B(  1-C , 10-H ) :   0.8809 B(  1-C , 11-H ) :   0.9957 B(  1-C , 12-H ) :   0.1323
B(  1-C , 13-H ) :   0.1183 B(  1-C , 14-H ) :   0.1912 B(  1-C , 15-H ) :   0.2075
B(  1-C , 16-H ) :   0.1889 B(  2-C , 14-H ) :   0.8284 B(  2-C , 15-H ) :   0.8561
B(  2-C , 16-H ) :   0.7910 B(  3-C ,  4-N ) :   1.1316 B(  3-C ,  5-C ) :   1.9190
B(  3-C ,  6-H ) :   0.2040 B(  3-C ,  7-H ) :   0.2240 B(  3-C , 13-H ) :   0.1321
B(  4-N ,  5-C ) :   0.2260 B(  4-N ,  8-H ) :   1.1051 B(  4-N ,  9-H ) :   1.2627
B(  5-C ,  6-H ) :   0.8239 B(  5-C ,  7-H ) :   0.6608 B(  6-H ,  7-H ) :  -0.1122
B(  8-H ,  9-H ) :  -0.1562

Dispersion correction           -0.004495537
FINAL SINGLE POINT ENERGY      -251.647450193646

DIPOLE MOMENT
-------------
                                X             Y             Z
Electronic contribution:     -0.34814       3.52222      -2.31419
Nuclear contribution   :     -0.51555      -3.29052       1.90104
                        -----------------------------------------
Total Dipole Moment    :     -0.86369       0.23170      -0.41315
                        -----------------------------------------
Magnitude (a.u.)       :      0.98506
Magnitude (Debye)      :      2.50382

Rotational constants in cm-1:     0.197086     0.081749     0.067746
Rotational constants in MHz :  5908.486274  2450.769911  2030.963952

                             ****ORCA TERMINATED NORMALLY****
TOTAL RUN TIME: 0 days 0 hours 0 minutes 14 seconds 522 msec
