                         Program Version 5.0.0 -  RELEASE  -
|  1> !wB97X-D3 RIJCOSX def2-SVPD def2/J TightSCF CPCM(Water) xyzfile
|  2>
|  3> *xyzfile 0 1 D4.xyz
|  4>
|  5> %MaxCore 64000
|  6>
|  7> %pal nprocs 18
|  8> end
|  9>
| 10> %scf
| 11>   MaxIter 150
| 12> end
| 13>
| 14>
| 15>                          ****END OF INPUT****

CARTESIAN COORDINATES (ANGSTROEM)
---------------------------------
  C      3.343500    3.354571   -3.591998
  C      2.952633    1.863077   -3.574849
  C      4.129209    0.898394   -3.418950
  H      3.733687   -0.100605   -3.237633
  H      4.719095    0.862556   -4.339005
  C      5.017344    1.315212   -2.221305
  C      4.255868    3.703851   -4.726054
  N      3.734032    4.293783   -5.800770
  C      5.515039    3.407255   -4.637185
  H      6.149187    3.601203   -5.399053
  H      5.813584    2.899504   -3.808785
  H      2.741380    4.513109   -5.824701
  H      4.287548    4.521260   -6.614341
  H      2.278938    1.735250   -2.725496
  H      2.377466    1.625787   -4.475869
  O      4.737055    0.854112   -1.122825
  F      5.928146    2.168108   -2.491365
  H      3.861246    3.597252   -2.662979
  H      2.446493    3.973461   -3.656556

 Total Charge           Charge          ....    0
 Multiplicity           Mult            ....    1
 Number of Electrons    NEL             ....   70
 Basis Dimension        Dim             ....  266

ORBITAL ENERGIES
----------------

  NO   OCC          E(Eh)            E(eV)
   0   2.0000     -24.875282      -676.8908
   1   2.0000     -19.273080      -524.4472
   2   2.0000     -14.429447      -392.6452
   3   2.0000     -10.483292      -285.2649
   4   2.0000     -10.309346      -280.5316
   5   2.0000     -10.308986      -280.5218
   6   2.0000     -10.300455      -280.2896
   7   2.0000     -10.290179      -280.0100
   8   2.0000     -10.208036      -277.7748
   9   2.0000      -1.424480       -38.7621
  10   2.0000      -1.175045       -31.9746
  11   2.0000      -1.028451       -27.9856
  12   2.0000      -0.925058       -25.1721
  13   2.0000      -0.859899       -23.3990
  14   2.0000      -0.815309       -22.1857
  15   2.0000      -0.785452       -21.3732
  16   2.0000      -0.723210       -19.6795
  17   2.0000      -0.686884       -18.6911
  18   2.0000      -0.656156       -17.8549
  19   2.0000      -0.639178       -17.3929
  20   2.0000      -0.623841       -16.9756
  21   2.0000      -0.609777       -16.5929
  22   2.0000      -0.581485       -15.8230
  23   2.0000      -0.561688       -15.2843
  24   2.0000      -0.543471       -14.7886
  25   2.0000      -0.522378       -14.2146
  26   2.0000      -0.495337       -13.4788
  27   2.0000      -0.480730       -13.0813
  28   2.0000      -0.472328       -12.8527
  29   2.0000      -0.461631       -12.5616
  30   2.0000      -0.444253       -12.0887
  31   2.0000      -0.423280       -11.5180
  32   2.0000      -0.417686       -11.3658
  33   2.0000      -0.403124       -10.9696
  34   2.0000      -0.281168        -7.6510
  35   0.0000       0.049900         1.3579
  36   0.0000       0.088741         2.4148
  37   0.0000       0.110503         3.0069
  38   0.0000       0.113648         3.0925
  39   0.0000       0.121585         3.3085

MULLIKEN ATOMIC CHARGES
-----------------------
   0 C :    0.159371
   1 C :   -0.041120
   2 C :    0.003950
   3 H :   -0.125546
   4 H :    0.266881
   5 C :    0.794800
   6 C :    0.112291
   7 N :   -0.027732
   8 C :    0.834642
   9 H :   -0.639943
  10 H :   -0.191448
  11 H :   -0.049319
  12 H :   -0.124206
  13 H :    0.064585
  14 H :   -0.095753
  15 O :   -0.482018
  16 F :   -0.510496
  17 H :    0.218358
  18 H :   -0.167297
Sum of atomic charges:    0.0000000

LOEWDIN ATOMIC CHARGES
----------------------
   0 C :    0.022051
   1 C :    0.004613
   2 C :    0.063363
   3 H :    0.037256
   4 H :    0.028733
   5 C :    0.027189
   6 C :   -0.240789
   7 N :    0.171148
   8 C :    0.174802
   9 H :   -0.073548
  10 H :   -0.157105
  11 H :    0.011356
  12 H :    0.014600
  13 H :    0.031699
  14 H :    0.036002
  15 O :   -0.138944
  16 F :   -0.066706
  17 H :    0.026808
  18 H :    0.027471

  Mayer bond orders larger than 0.100000
B(  0-C ,  1-C ) :   1.1989 B(  0-C ,  6-C ) :   1.0779 B(  0-C ,  7-N ) :   0.1077
B(  0-C ,  8-C ) :   0.1922 B(  0-C , 13-H ) :   0.1076 B(  0-C , 14-H ) :   0.1290
B(  0-C , 17-H ) :   0.7349 B(  0-C , 18-H ) :   0.9383 B(  1-C ,  2-C ) :   1.2622
B(  1-C ,  3-H ) :   0.1740 B(  1-C ,  4-H ) :   0.1256 B(  1-C , 13-H ) :   0.8357
B(  1-C , 14-H ) :   0.9629 B(  1-C , 17-H ) :   0.1399 B(  1-C , 18-H ) :   0.1576
B(  2-C ,  3-H ) :   0.9226 B(  2-C ,  4-H ) :   0.7950 B(  2-C ,  5-C ) :   1.0733
B(  2-C , 13-H ) :   0.1228 B(  2-C , 16-F ) :   0.1599 B(  3-H ,  5-C ) :   0.1267
B(  5-C , 15-O ) :   1.8185 B(  5-C , 16-F ) :   0.6057 B(  6-C ,  7-N ) :   1.0259
B(  6-C ,  8-C ) :   1.9180 B(  6-C ,  9-H ) :   0.2485 B(  6-C , 10-H ) :   0.3114
B(  6-C , 12-H ) :  -0.1104 B(  6-C , 17-H ) :   0.1002 B(  6-C , 18-H ) :   0.1098
B(  7-N ,  8-C ) :   0.2500 B(  7-N , 11-H ) :   1.1486 B(  7-N , 12-H ) :   1.3124
B(  8-C ,  9-H ) :   0.8225 B(  8-C , 10-H ) :   0.4240 B(  9-H , 10-H ) :  -0.2698
B( 11-H , 12-H ) :  -0.1540 B( 15-O , 16-F ) :   0.1266

Dispersion correction           -0.006844424
FINAL SINGLE POINT ENERGY      -463.998745516483

DIPOLE MOMENT
-------------
                                X             Y             Z
Electronic contribution:      5.85444      -2.79090       6.72889
Nuclear contribution   :     -6.99695       3.07955      -8.37829
                        -----------------------------------------
Total Dipole Moment    :     -1.14251       0.28865      -1.64940
                        -----------------------------------------
Magnitude (a.u.)       :      2.02711
Magnitude (Debye)      :      5.15251

Rotational constants in cm-1:     0.106302     0.035771     0.030198
Rotational constants in MHz :  3186.860872  1072.397550   905.318354

                             ****ORCA TERMINATED NORMALLY****
TOTAL RUN TIME: 0 days 0 hours 0 minutes 26 seconds 136 msec
