                         Program Version 5.0.0 -  RELEASE  -
|  1> !CAM-B3LYP RIJCOSX def2-SVPD def2/J TightSCF
|  2> *xyz -1 1
|  3> C          3.38093        2.08304       -3.35013
|  4> C          2.49556        1.81615       -2.13636
|  5> C          1.87218        0.42790       -2.07750
|  6> H          2.61427       -0.36583       -2.19889
|  7> H          1.38995        0.27309       -1.11236
|  8> S          0.57902        0.14047       -3.29794
|  9> O          0.22886       -1.24687       -3.12787
| 10> O         -0.43927        1.11897       -3.01455
| 11> O          1.24788        0.40347       -4.59565
| 12> H          1.69700        2.56197       -2.14111
| 13> H          3.08079        1.98744       -1.22584
| 14> H          2.81820        1.91840       -4.24519
| 15> H          4.22171        1.42153       -3.33067
| 16> H          3.72372        3.09635       -3.32565
| 17> *
| 18>
| 19> %MaxCore 64000
| 20>
| 21> %pal nprocs 8
| 22> end
| 23>
| 24> %scf
| 25>   MaxIter 150
| 26> end
| 27>
| 28>
| 29>                          ****END OF INPUT****

CARTESIAN COORDINATES (ANGSTROEM)
---------------------------------
  C      3.380930    2.083040   -3.350130
  C      2.495560    1.816150   -2.136360
  C      1.872180    0.427900   -2.077500
  H      2.614270   -0.365830   -2.198890
  H      1.389950    0.273090   -1.112360
  S      0.579020    0.140470   -3.297940
  O      0.228860   -1.246870   -3.127870
  O     -0.439270    1.118970   -3.014550
  O      1.247880    0.403470   -4.595650
  H      1.697000    2.561970   -2.141110
  H      3.080790    1.987440   -1.225840
  H      2.818200    1.918400   -4.245190
  H      4.221710    1.421530   -3.330670
  H      3.723720    3.096350   -3.325650

 Total Charge           Charge          ....   -1
 Multiplicity           Mult            ....    1
 Number of Electrons    NEL             ....   66
 Basis Dimension        Dim             ....  212

ORBITAL ENERGIES
----------------

  NO   OCC          E(Eh)            E(eV)
   0   2.0000     -88.966112     -2420.8910
   1   2.0000     -19.000624      -517.0333
   2   2.0000     -19.000320      -517.0250
   3   2.0000     -18.986438      -516.6473
   4   2.0000     -10.126605      -275.5589
   5   2.0000     -10.121478      -275.4194
   6   2.0000     -10.105761      -274.9917
   7   2.0000      -8.019110      -218.2111
   8   2.0000      -5.989060      -162.9706
   9   2.0000      -5.988986      -162.9686
  10   2.0000      -5.988441      -162.9538
  11   2.0000      -1.023288       -27.8451
  12   2.0000      -0.881735       -23.9932
  13   2.0000      -0.856163       -23.2974
  14   2.0000      -0.734575       -19.9888
  15   2.0000      -0.642245       -17.4764
  16   2.0000      -0.541856       -14.7447
  17   2.0000      -0.459199       -12.4955
  18   2.0000      -0.408199       -11.1077
  19   2.0000      -0.390172       -10.6171
  20   2.0000      -0.365872        -9.9559
  21   2.0000      -0.351555        -9.5663
  22   2.0000      -0.341518        -9.2932
  23   2.0000      -0.327551        -8.9131
  24   2.0000      -0.286613        -7.7991
  25   2.0000      -0.280202        -7.6247
  26   2.0000      -0.268154        -7.2968
  27   2.0000      -0.227847        -6.2000
  28   2.0000      -0.226521        -6.1640
  29   2.0000      -0.190763        -5.1909
  30   2.0000      -0.179967        -4.8972
  31   2.0000      -0.166646        -4.5347
  32   2.0000      -0.137778        -3.7491
  33   0.0000       0.165549         4.5048
  34   0.0000       0.188556         5.1309
  35   0.0000       0.192878         5.2485
  36   0.0000       0.201970         5.4959
  37   0.0000       0.218920         5.9571

MULLIKEN ATOMIC CHARGES
-----------------------
   0 C :    1.053792
   1 C :   -0.102606
   2 C :    0.175820
   3 H :   -0.101749
   4 H :   -0.100484
   5 S :    1.379093
   6 O :   -0.805322
   7 O :   -0.795483
   8 O :   -0.862883
   9 H :   -0.088765
  10 H :   -0.218694
  11 H :   -0.323886
  12 H :   -0.091806
  13 H :   -0.117028
Sum of atomic charges:   -1.0000000

LOEWDIN ATOMIC CHARGES
----------------------
   0 C :    0.114860
   1 C :   -0.090719
   2 C :   -0.094107
   3 H :    0.009869
   4 H :    0.003337
   5 S :    0.868006
   6 O :   -0.573799
   7 O :   -0.571101
   8 O :   -0.582230
   9 H :    0.017716
  10 H :    0.006686
  11 H :   -0.053310
  12 H :   -0.023259
  13 H :   -0.031947

  Mayer bond orders larger than 0.100000
B(  0-C ,  1-C ) :   1.2305 B(  0-C ,  9-H ) :   0.1130 B(  0-C , 11-H ) :   0.7374
B(  0-C , 12-H ) :   0.6820 B(  0-C , 13-H ) :   0.6642 B(  1-C ,  2-C ) :   1.1892
B(  1-C ,  3-H ) :   0.1340 B(  1-C ,  4-H ) :   0.1441 B(  1-C ,  9-H ) :   0.8704
B(  1-C , 10-H ) :   0.8565 B(  1-C , 11-H ) :   0.2884 B(  1-C , 12-H ) :   0.2321
B(  1-C , 13-H ) :   0.2384 B(  2-C ,  3-H ) :   0.9317 B(  2-C ,  4-H ) :   0.8928
B(  2-C ,  5-S ) :   0.9137 B(  2-C ,  9-H ) :   0.1402 B(  2-C , 10-H ) :   0.1247
B(  5-S ,  6-O ) :   1.3504 B(  5-S ,  7-O ) :   1.2823 B(  5-S ,  8-O ) :   1.2386
B(  8-O , 11-H ) :   0.1200 B( 11-H , 12-H ) :   0.1292 B( 11-H , 13-H ) :   0.1109

FINAL SINGLE POINT ENERGY      -741.933135799320

DIPOLE MOMENT
-------------
                                X             Y             Z
Electronic contribution:     -8.78049      -5.53823      -2.85244
Nuclear contribution   :     10.42821       6.37804       4.08250
                        -----------------------------------------
Total Dipole Moment    :      1.64772       0.83981       1.23007
                        -----------------------------------------
Magnitude (a.u.)       :      2.22111
Magnitude (Debye)      :      5.64561

Rotational constants in cm-1:     0.136992     0.054831     0.052480
Rotational constants in MHz :  4106.928256  1643.799656  1573.299166

                             ****ORCA TERMINATED NORMALLY****
TOTAL RUN TIME: 0 days 0 hours 0 minutes 20 seconds 148 msec
