                         Program Version 5.0.0 -  RELEASE  -
|  1> !CAM-B3LYP RIJCOSX def2-SVPD def2/J TightSCF
|  2> *xyz 1 1
|  3> C          3.38093        2.08304       -3.35013
|  4> N          4.53592        1.18245       -3.42852
|  5> C          2.49556        1.81615       -2.13636
|  6> C          1.87218        0.42790       -2.07750
|  7> C          4.67196        0.12227       -4.22060
|  8> N          5.86602       -0.50785       -4.22428
|  9> N          3.69888       -0.31284       -4.98699
| 10> H          2.73141       -0.05009       -4.84900
| 11> H          3.89005       -1.05517       -5.64373
| 12> H          5.25193        1.30346       -2.72101
| 13> H          6.69516       -0.06232       -3.85160
| 14> H          5.97538       -1.39688       -4.69141
| 15> H          1.69700        2.56197       -2.14111
| 16> H          3.08079        1.98744       -1.22584
| 17> H          2.80646        1.98651       -4.26848
| 18> H          3.77871        3.09828       -3.30738
| 19> H          1.29954        0.25615       -2.96490
| 20> H          1.23321        0.35984       -1.22194
| 21> H          2.64581       -0.30765       -2.00430
| 22> *
| 23>
| 24> %MaxCore 64000
| 25>
| 26> %pal nprocs 8
| 27> end
| 28>
| 29> %scf
| 30>   MaxIter 150
| 31> end
| 32>
| 33>
| 34>                          ****END OF INPUT****

CARTESIAN COORDINATES (ANGSTROEM)
---------------------------------
  C      3.380930    2.083040   -3.350130
  N      4.535920    1.182450   -3.428520
  C      2.495560    1.816150   -2.136360
  C      1.872180    0.427900   -2.077500
  C      4.671960    0.122270   -4.220600
  N      5.866020   -0.507850   -4.224280
  N      3.698880   -0.312840   -4.986990
  H      2.731410   -0.050090   -4.849000
  H      3.890050   -1.055170   -5.643730
  H      5.251930    1.303460   -2.721010
  H      6.695160   -0.062320   -3.851600
  H      5.975380   -1.396880   -4.691410
  H      1.697000    2.561970   -2.141110
  H      3.080790    1.987440   -1.225840
  H      2.806460    1.986510   -4.268480
  H      3.778710    3.098280   -3.307380
  H      1.299540    0.256150   -2.964900
  H      1.233210    0.359840   -1.221940
  H      2.645810   -0.307650   -2.004300

 Total Charge           Charge          ....    1
 Multiplicity           Mult            ....    1
 Number of Electrons    NEL             ....   56
 Basis Dimension        Dim             ....  236

ORBITAL ENERGIES
----------------

  NO   OCC          E(Eh)            E(eV)
   0   2.0000     -14.629778      -398.0965
   1   2.0000     -14.624651      -397.9570
   2   2.0000     -14.622804      -397.9067
   3   2.0000     -10.597484      -288.3722
   4   2.0000     -10.459867      -284.6275
   5   2.0000     -10.399562      -282.9865
   6   2.0000     -10.379501      -282.4406
   7   2.0000      -1.288786       -35.0697
   8   2.0000      -1.176715       -32.0200
   9   2.0000      -1.161506       -31.6062
  10   2.0000      -1.017207       -27.6796
  11   2.0000      -0.940541       -25.5934
  12   2.0000      -0.898401       -24.4467
  13   2.0000      -0.860013       -23.4021
  14   2.0000      -0.835863       -22.7450
  15   2.0000      -0.802000       -21.8235
  16   2.0000      -0.765911       -20.8415
  17   2.0000      -0.760763       -20.7014
  18   2.0000      -0.712015       -19.3749
  19   2.0000      -0.703054       -19.1311
  20   2.0000      -0.670163       -18.2360
  21   2.0000      -0.648277       -17.6405
  22   2.0000      -0.622812       -16.9476
  23   2.0000      -0.577910       -15.7257
  24   2.0000      -0.556052       -15.1309
  25   2.0000      -0.548468       -14.9246
  26   2.0000      -0.540863       -14.7176
  27   2.0000      -0.506484       -13.7821
  28   0.0000      -0.121158        -3.2969
  29   0.0000      -0.114580        -3.1179
  30   0.0000      -0.083441        -2.2705
  31   0.0000      -0.073930        -2.0117
  32   0.0000      -0.054752        -1.4899

MULLIKEN ATOMIC CHARGES
-----------------------
   0 C :    0.927038
   1 N :   -0.455010
   2 C :   -0.173779
   3 C :    1.004298
   4 C :    1.324339
   5 N :    0.034986
   6 N :    0.135528
   7 H :   -0.142349
   8 H :   -0.138039
   9 H :   -0.243068
  10 H :   -0.101038
  11 H :   -0.049020
  12 H :   -0.103220
  13 H :   -0.122058
  14 H :   -0.131899
  15 H :   -0.313516
  16 H :   -0.128757
  17 H :   -0.231997
  18 H :   -0.092439
Sum of atomic charges:    1.0000000

LOEWDIN ATOMIC CHARGES
----------------------
   0 C :    0.079224
   1 N :    0.050886
   2 C :   -0.052788
   3 C :    0.131947
   4 C :   -0.038425
   5 N :    0.261263
   6 N :    0.285954
   7 H :    0.019058
   8 H :    0.042607
   9 H :    0.061849
  10 H :    0.035308
  11 H :    0.032286
  12 H :    0.037440
  13 H :    0.031292
  14 H :    0.025102
  15 H :    0.040489
  16 H :   -0.020488
  17 H :   -0.001182
  18 H :   -0.021823

  Mayer bond orders larger than 0.100000
B(  0-C ,  1-N ) :   0.9516 B(  0-C ,  2-C ) :   1.0957 B(  0-C ,  9-H ) :  -0.2036
B(  0-C , 12-H ) :   0.1177 B(  0-C , 13-H ) :   0.1337 B(  0-C , 14-H ) :   0.7104
B(  0-C , 15-H ) :   0.8775 B(  1-N ,  4-C ) :   0.9703 B(  1-N ,  5-N ) :   0.2586
B(  1-N ,  6-N ) :   0.2728 B(  1-N ,  9-H ) :   1.3288 B(  1-N , 14-H ) :   0.1750
B(  1-N , 15-H ) :   0.1526 B(  2-C ,  3-C ) :   1.2775 B(  2-C , 12-H ) :   0.8857
B(  2-C , 13-H ) :   0.8821 B(  2-C , 14-H ) :   0.1328 B(  2-C , 16-H ) :   0.2508
B(  2-C , 17-H ) :   0.2372 B(  2-C , 18-H ) :   0.2505 B(  3-C , 12-H ) :   0.1045
B(  3-C , 16-H ) :   0.7253 B(  3-C , 17-H ) :   0.7636 B(  3-C , 18-H ) :   0.7246
B(  4-C ,  5-N ) :   0.8639 B(  4-C ,  6-N ) :   0.9806 B(  4-C ,  7-H ) :  -0.1892
B(  4-C ,  8-H ) :  -0.1976 B(  4-C ,  9-H ) :  -0.2657 B(  4-C , 10-H ) :  -0.1731
B(  4-C , 11-H ) :  -0.1076 B(  5-N ,  6-N ) :   0.1696 B(  5-N , 10-H ) :   1.2144
B(  5-N , 11-H ) :   1.1839 B(  6-N ,  7-H ) :   1.1923 B(  6-N ,  8-H ) :   1.3120
B(  6-N , 14-H ) :   0.1008 B(  7-H ,  8-H ) :  -0.2355 B( 10-H , 11-H ) :  -0.1801
B( 14-H , 15-H ) :  -0.1495

FINAL SINGLE POINT ENERGY      -323.331855751937

DIPOLE MOMENT
-------------
                                X             Y             Z
Electronic contribution:      5.30889      -1.46380      -3.78678
Nuclear contribution   :     -4.20917       0.72396       2.93051
                        -----------------------------------------
Total Dipole Moment    :      1.09972      -0.73984      -0.85626
                        -----------------------------------------
Magnitude (a.u.)       :      1.57795
Magnitude (Debye)      :      4.01083

Rotational constants in cm-1:     0.153116     0.051500     0.046494
Rotational constants in MHz :  4590.307026  1543.937577  1393.864628

                             ****ORCA TERMINATED NORMALLY****
TOTAL RUN TIME: 0 days 0 hours 0 minutes 27 seconds 611 msec
