                         Program Version 5.0.0 -  RELEASE  -
|  1> !CAM-B3LYP RIJCOSX def2-SVPD def2/J TightSCF
|  2> *xyz 0 1
|  3> C          3.38093        2.08304       -3.35013
|  4> C          2.49556        1.81615       -2.13636
|  5> C          1.87218        0.42790       -2.07750
|  6> H          2.61427       -0.36583       -2.19889
|  7> H          1.38995        0.27309       -1.11236
|  8> S          0.57902        0.14047       -3.29794
|  9> F          0.22886       -1.24687       -3.12787
| 10> O         -0.43927        1.11897       -3.01455
| 11> O          1.24788        0.40347       -4.59565
| 12> H          1.69700        2.56197       -2.14111
| 13> H          3.08079        1.98744       -1.22584
| 14> H          2.81820        1.91840       -4.24519
| 15> H          4.22171        1.42153       -3.33067
| 16> H          3.72372        3.09635       -3.32565
| 17> *
| 18>
| 19> %MaxCore 64000
| 20>
| 21> %pal nprocs 8
| 22> end
| 23>
| 24> %scf
| 25>   MaxIter 150
| 26> end
| 27>
| 28>
| 29>                          ****END OF INPUT****

CARTESIAN COORDINATES (ANGSTROEM)
---------------------------------
  C      3.380930    2.083040   -3.350130
  C      2.495560    1.816150   -2.136360
  C      1.872180    0.427900   -2.077500
  H      2.614270   -0.365830   -2.198890
  H      1.389950    0.273090   -1.112360
  S      0.579020    0.140470   -3.297940
  F      0.228860   -1.246870   -3.127870
  O     -0.439270    1.118970   -3.014550
  O      1.247880    0.403470   -4.595650
  H      1.697000    2.561970   -2.141110
  H      3.080790    1.987440   -1.225840
  H      2.818200    1.918400   -4.245190
  H      4.221710    1.421530   -3.330670
  H      3.723720    3.096350   -3.325650

 Total Charge           Charge          ....    0
 Multiplicity           Mult            ....    1
 Number of Electrons    NEL             ....   66
 Basis Dimension        Dim             ....  212

ORBITAL ENERGIES
----------------

  NO   OCC          E(Eh)            E(eV)
   0   2.0000     -89.223303     -2427.8895
   1   2.0000     -24.898383      -677.5195
   2   2.0000     -19.232596      -523.3455
   3   2.0000     -19.217711      -522.9405
   4   2.0000     -10.321369      -280.8587
   5   2.0000     -10.285309      -279.8775
   6   2.0000     -10.245655      -278.7985
   7   2.0000      -8.277247      -225.2353
   8   2.0000      -6.251360      -170.1082
   9   2.0000      -6.244891      -169.9321
  10   2.0000      -6.243395      -169.8914
  11   2.0000      -1.466677       -39.9103
  12   2.0000      -1.197635       -32.5893
  13   2.0000      -1.088749       -29.6264
  14   2.0000      -0.910859       -24.7857
  15   2.0000      -0.837334       -22.7850
  16   2.0000      -0.787699       -21.4344
  17   2.0000      -0.711541       -19.3620
  18   2.0000      -0.671884       -18.2829
  19   2.0000      -0.658165       -17.9096
  20   2.0000      -0.634328       -17.2609
  21   2.0000      -0.569294       -15.4913
  22   2.0000      -0.559991       -15.2381
  23   2.0000      -0.525489       -14.2993
  24   2.0000      -0.515745       -14.0341
  25   2.0000      -0.503350       -13.6969
  26   2.0000      -0.462367       -12.5817
  27   2.0000      -0.439685       -11.9644
  28   2.0000      -0.439026       -11.9465
  29   2.0000      -0.423860       -11.5338
  30   2.0000      -0.406348       -11.0573
  31   2.0000      -0.382137       -10.3985
  32   2.0000      -0.377223       -10.2648
  33   0.0000       0.025617         0.6971
  34   0.0000       0.049939         1.3589
  35   0.0000       0.060382         1.6431
  36   0.0000       0.063845         1.7373
  37   0.0000       0.085883         2.3370

MULLIKEN ATOMIC CHARGES
-----------------------
   0 C :    1.071411
   1 C :   -0.106544
   2 C :    0.141919
   3 H :   -0.048220
   4 H :   -0.039197
   5 S :    1.558340
   6 F :   -0.426619
   7 O :   -0.648553
   8 O :   -0.733960
   9 H :   -0.076549
  10 H :   -0.189791
  11 H :   -0.332642
  12 H :   -0.076649
  13 H :   -0.092946
Sum of atomic charges:   -0.0000000

LOEWDIN ATOMIC CHARGES
----------------------
   0 C :    0.137894
   1 C :   -0.061983
   2 C :   -0.058560
   3 H :    0.026891
   4 H :    0.020688
   5 S :    1.130902
   6 F :   -0.252810
   7 O :   -0.460961
   8 O :   -0.479428
   9 H :    0.030817
  10 H :    0.033427
  11 H :   -0.045906
  12 H :   -0.010205
  13 H :   -0.010766

  Mayer bond orders larger than 0.100000
B(  0-C ,  1-C ) :   1.2519 B(  0-C ,  9-H ) :   0.1080 B(  0-C , 11-H ) :   0.7438
B(  0-C , 12-H ) :   0.6785 B(  0-C , 13-H ) :   0.6686 B(  1-C ,  2-C ) :   1.2316
B(  1-C ,  3-H ) :   0.1297 B(  1-C ,  4-H ) :   0.1495 B(  1-C ,  9-H ) :   0.8690
B(  1-C , 10-H ) :   0.8641 B(  1-C , 11-H ) :   0.2732 B(  1-C , 12-H ) :   0.2292
B(  1-C , 13-H ) :   0.2306 B(  2-C ,  3-H ) :   0.9225 B(  2-C ,  4-H ) :   0.8634
B(  2-C ,  5-S ) :   0.9456 B(  2-C ,  9-H ) :   0.1334 B(  2-C , 10-H ) :   0.1189
B(  5-S ,  6-F ) :   0.6900 B(  5-S ,  7-O ) :   1.5007 B(  5-S ,  8-O ) :   1.4342
B(  8-O , 11-H ) :   0.1078 B( 11-H , 12-H ) :   0.1307 B( 11-H , 13-H ) :   0.1097

FINAL SINGLE POINT ENERGY      -766.415120455479

DIPOLE MOMENT
-------------
                                X             Y             Z
Electronic contribution:    -10.66200      -8.90923      -2.80152
Nuclear contribution   :     11.47400       8.34657       4.07449
                        -----------------------------------------
Total Dipole Moment    :      0.81199      -0.56265       1.27297
                        -----------------------------------------
Magnitude (a.u.)       :      1.61132
Magnitude (Debye)      :      4.09566

Rotational constants in cm-1:     0.134491     0.052696     0.050832
Rotational constants in MHz :  4031.952949  1579.780527  1523.918863

                             ****ORCA TERMINATED NORMALLY****
TOTAL RUN TIME: 0 days 0 hours 0 minutes 20 seconds 50 msec
