                         Program Version 5.0.0 -  RELEASE  -
|  1> !CAM-B3LYP RIJCOSX def2-SVPD def2/J TightSCF
|  2> *xyz 0 1
|  3> C          3.38093        2.08304       -3.35013
|  4> C          4.53592        1.18245       -3.42852
|  5> C          2.49556        1.81615       -2.13636
|  6> C          1.87218        0.42790       -2.07750
|  7> C          4.67196        0.12227       -4.22060
|  8> N          5.86602       -0.50785       -4.22428
|  9> N          3.69888       -0.31284       -4.98699
| 10> H          2.73141       -0.05009       -4.84900
| 11> H          3.89005       -1.05517       -5.64373
| 12> H          5.25193        1.30346       -2.72101
| 13> H          6.69516       -0.06232       -3.85160
| 14> H          5.97538       -1.39688       -4.69141
| 15> H          1.69700        2.56197       -2.14111
| 16> H          3.08079        1.98744       -1.22584
| 17> H          2.80646        1.98651       -4.26848
| 18> H          3.77871        3.09828       -3.30738
| 19> H          1.29954        0.25615       -2.96490
| 20> H          1.23321        0.35984       -1.22194
| 21> H          2.64581       -0.30765       -2.00430
| 22> *
| 23>
| 24> %MaxCore 64000
| 25>
| 26> %pal nprocs 8
| 27> end
| 28>
| 29> %scf
| 30>   MaxIter 150
| 31> end
| 32>
| 33>
| 34>                          ****END OF INPUT****

CARTESIAN COORDINATES (ANGSTROEM)
---------------------------------
  C      3.380930    2.083040   -3.350130
  C      4.535920    1.182450   -3.428520
  C      2.495560    1.816150   -2.136360
  C      1.872180    0.427900   -2.077500
  C      4.671960    0.122270   -4.220600
  N      5.866020   -0.507850   -4.224280
  N      3.698880   -0.312840   -4.986990
  H      2.731410   -0.050090   -4.849000
  H      3.890050   -1.055170   -5.643730
  H      5.251930    1.303460   -2.721010
  H      6.695160   -0.062320   -3.851600
  H      5.975380   -1.396880   -4.691410
  H      1.697000    2.561970   -2.141110
  H      3.080790    1.987440   -1.225840
  H      2.806460    1.986510   -4.268480
  H      3.778710    3.098280   -3.307380
  H      1.299540    0.256150   -2.964900
  H      1.233210    0.359840   -1.221940
  H      2.645810   -0.307650   -2.004300

 Total Charge           Charge          ....    0
 Multiplicity           Mult            ....    1
 Number of Electrons    NEL             ....   56
 Basis Dimension        Dim             ....  236

ORBITAL ENERGIES
----------------

  NO   OCC          E(Eh)            E(eV)
   0   2.0000     -14.408447      -392.0738
   1   2.0000     -14.401456      -391.8835
   2   2.0000     -10.304323      -280.3949
   3   2.0000     -10.234208      -278.4870
   4   2.0000     -10.229839      -278.3681
   5   2.0000     -10.229081      -278.3474
   6   2.0000     -10.180090      -277.0143
   7   2.0000      -1.036979       -28.2176
   8   2.0000      -0.942014       -25.6335
   9   2.0000      -0.861715       -23.4485
  10   2.0000      -0.796193       -21.6655
  11   2.0000      -0.733984       -19.9727
  12   2.0000      -0.672097       -18.2887
  13   2.0000      -0.636380       -17.3168
  14   2.0000      -0.615273       -16.7424
  15   2.0000      -0.578406       -15.7392
  16   2.0000      -0.550464       -14.9789
  17   2.0000      -0.514656       -14.0045
  18   2.0000      -0.503533       -13.7018
  19   2.0000      -0.484888       -13.1945
  20   2.0000      -0.454494       -12.3674
  21   2.0000      -0.443972       -12.0811
  22   2.0000      -0.417511       -11.3611
  23   2.0000      -0.397752       -10.8234
  24   2.0000      -0.380568       -10.3558
  25   2.0000      -0.374737       -10.1971
  26   2.0000      -0.330729        -8.9996
  27   2.0000      -0.216507        -5.8914
  28   0.0000       0.046296         1.2598
  29   0.0000       0.067643         1.8407
  30   0.0000       0.079230         2.1559
  31   0.0000       0.090576         2.4647
  32   0.0000       0.098457         2.6792

MULLIKEN ATOMIC CHARGES
-----------------------
   0 C :    0.447715
   1 C :   -0.237733
   2 C :   -0.201612
   3 C :    0.989332
   4 C :    0.904020
   5 N :    0.065763
   6 N :    0.234497
   7 H :   -0.173619
   8 H :   -0.292320
   9 H :   -0.389708
  10 H :   -0.122622
  11 H :   -0.163514
  12 H :   -0.150516
  13 H :   -0.130692
  14 H :   -0.172122
  15 H :   -0.152124
  16 H :   -0.147197
  17 H :   -0.218937
  18 H :   -0.088611
Sum of atomic charges:    0.0000000

LOEWDIN ATOMIC CHARGES
----------------------
   0 C :   -0.058461
   1 C :   -0.031294
   2 C :   -0.081844
   3 C :    0.116029
   4 C :   -0.224730
   5 N :    0.181522
   6 N :    0.203633
   7 H :   -0.011188
   8 H :   -0.006130
   9 H :   -0.047302
  10 H :    0.001617
  11 H :   -0.017658
  12 H :    0.012021
  13 H :    0.020776
  14 H :    0.003838
  15 H :    0.013493
  16 H :   -0.028960
  17 H :   -0.022824
  18 H :   -0.022539

  Mayer bond orders larger than 0.100000
B(  0-C ,  1-C ) :   1.1245 B(  0-C ,  2-C ) :   1.1205 B(  0-C ,  9-H ) :   0.2607
B(  0-C , 12-H ) :   0.1490 B(  0-C , 13-H ) :   0.1560 B(  0-C , 14-H ) :   0.7362
B(  0-C , 15-H ) :   0.8132 B(  1-C ,  2-C ) :   0.1080 B(  1-C ,  4-C ) :   1.6175
B(  1-C ,  5-N ) :   0.4257 B(  1-C ,  6-N ) :   0.2791 B(  1-C ,  9-H ) :   0.8177
B(  1-C , 14-H ) :   0.2721 B(  1-C , 15-H ) :   0.1645 B(  2-C ,  3-C ) :   1.2833
B(  2-C , 12-H ) :   0.8684 B(  2-C , 13-H ) :   0.8768 B(  2-C , 14-H ) :   0.1431
B(  2-C , 16-H ) :   0.2541 B(  2-C , 17-H ) :   0.2478 B(  2-C , 18-H ) :   0.2713
B(  3-C , 12-H ) :   0.1192 B(  3-C , 16-H ) :   0.7323 B(  3-C , 17-H ) :   0.7181
B(  3-C , 18-H ) :   0.7224 B(  4-C ,  5-N ) :   0.7680 B(  4-C ,  6-N ) :   1.0166
B(  4-C ,  8-H ) :  -0.2157 B(  4-C ,  9-H ) :   0.1152 B(  4-C , 10-H ) :  -0.1635
B(  4-C , 14-H ) :  -0.1269 B(  5-N , 10-H ) :   1.2368 B(  5-N , 11-H ) :   1.1765
B(  6-N ,  7-H ) :   1.1552 B(  6-N ,  8-H ) :   1.3666 B(  7-H ,  8-H ) :  -0.2293
B( 10-H , 11-H ) :  -0.1700 B( 16-H , 18-H ) :   0.1159

FINAL SINGLE POINT ENERGY      -306.858634995014

DIPOLE MOMENT
-------------
                                X             Y             Z
Electronic contribution:      4.22715      -1.63686      -3.46716
Nuclear contribution   :     -4.04774       0.83876       2.94666
                        -----------------------------------------
Total Dipole Moment    :      0.17940      -0.79809      -0.52050
                        -----------------------------------------
Magnitude (a.u.)       :      0.96957
Magnitude (Debye)      :      2.46444

Rotational constants in cm-1:     0.155283     0.051523     0.046710
Rotational constants in MHz :  4655.262593  1544.606434  1400.328421

                             ****ORCA TERMINATED NORMALLY****
TOTAL RUN TIME: 0 days 0 hours 0 minutes 27 seconds 999 msec
