                         Program Version 5.0.0 -  RELEASE  -
|  1> !CAM-B3LYP RIJCOSX def2-SVPD def2/J TightSCF
|  2> *xyz 0 1
|  3> C          3.38093        2.08304       -3.35013
|  4> C          2.49556        1.81615       -2.13636
|  5> C          1.87218        0.42790       -2.07750
|  6> H          2.61427       -0.36583       -2.19889
|  7> H          1.38995        0.27309       -1.11236
|  8> S          0.57902        0.14047       -3.29794
|  9> O          0.22886       -1.24687       -3.12787
| 10> F         -0.43927        1.11897       -3.01455
| 11> O          1.24788        0.40347       -4.59565
| 12> H          1.69700        2.56197       -2.14111
| 13> H          3.08079        1.98744       -1.22584
| 14> H          2.81820        1.91840       -4.24519
| 15> H          4.22171        1.42153       -3.33067
| 16> H          3.72372        3.09635       -3.32565
| 17> *
| 18>
| 19> %MaxCore 64000
| 20>
| 21> %pal nprocs 8
| 22> end
| 23>
| 24> %scf
| 25>   MaxIter 150
| 26> end
| 27>
| 28>
| 29>                          ****END OF INPUT****

CARTESIAN COORDINATES (ANGSTROEM)
---------------------------------
  C      3.380930    2.083040   -3.350130
  C      2.495560    1.816150   -2.136360
  C      1.872180    0.427900   -2.077500
  H      2.614270   -0.365830   -2.198890
  H      1.389950    0.273090   -1.112360
  S      0.579020    0.140470   -3.297940
  O      0.228860   -1.246870   -3.127870
  F     -0.439270    1.118970   -3.014550
  O      1.247880    0.403470   -4.595650
  H      1.697000    2.561970   -2.141110
  H      3.080790    1.987440   -1.225840
  H      2.818200    1.918400   -4.245190
  H      4.221710    1.421530   -3.330670
  H      3.723720    3.096350   -3.325650

 Total Charge           Charge          ....    0
 Multiplicity           Mult            ....    1
 Number of Electrons    NEL             ....   66
 Basis Dimension        Dim             ....  212

ORBITAL ENERGIES
----------------

  NO   OCC          E(Eh)            E(eV)
   0   2.0000     -89.223634     -2427.8985
   1   2.0000     -24.898839      -677.5319
   2   2.0000     -19.232630      -523.3465
   3   2.0000     -19.218149      -522.9524
   4   2.0000     -10.321270      -280.8560
   5   2.0000     -10.288894      -279.9750
   6   2.0000     -10.248901      -278.8868
   7   2.0000      -8.277484      -225.2418
   8   2.0000      -6.251695      -170.1173
   9   2.0000      -6.245082      -169.9373
  10   2.0000      -6.243608      -169.8972
  11   2.0000      -1.467419       -39.9305
  12   2.0000      -1.196848       -32.5679
  13   2.0000      -1.089843       -29.6561
  14   2.0000      -0.914380       -24.8815
  15   2.0000      -0.834457       -22.7067
  16   2.0000      -0.791118       -21.5274
  17   2.0000      -0.711201       -19.3528
  18   2.0000      -0.677394       -18.4328
  19   2.0000      -0.668931       -18.2025
  20   2.0000      -0.624651       -16.9976
  21   2.0000      -0.566536       -15.4162
  22   2.0000      -0.560978       -15.2650
  23   2.0000      -0.530262       -14.4292
  24   2.0000      -0.519538       -14.1373
  25   2.0000      -0.504212       -13.7203
  26   2.0000      -0.463152       -12.6030
  27   2.0000      -0.446076       -12.1383
  28   2.0000      -0.441855       -12.0235
  29   2.0000      -0.427031       -11.6201
  30   2.0000      -0.405264       -11.0278
  31   2.0000      -0.385589       -10.4924
  32   2.0000      -0.374925       -10.2022
  33   0.0000       0.023049         0.6272
  34   0.0000       0.052838         1.4378
  35   0.0000       0.059169         1.6101
  36   0.0000       0.061654         1.6777
  37   0.0000       0.079637         2.1670

MULLIKEN ATOMIC CHARGES
-----------------------
   0 C :    1.074541
   1 C :   -0.054955
   2 C :    0.158005
   3 H :   -0.056651
   4 H :   -0.057497
   5 S :    1.512279
   6 O :   -0.650177
   7 F :   -0.398316
   8 O :   -0.720506
   9 H :   -0.110703
  10 H :   -0.194353
  11 H :   -0.335354
  12 H :   -0.073458
  13 H :   -0.092854
Sum of atomic charges:    0.0000000

LOEWDIN ATOMIC CHARGES
----------------------
   0 C :    0.135901
   1 C :   -0.076955
   2 C :   -0.048149
   3 H :    0.040970
   4 H :    0.021124
   5 S :    1.128060
   6 O :   -0.460885
   7 F :   -0.250537
   8 O :   -0.475006
   9 H :    0.023533
  10 H :    0.030620
  11 H :   -0.049108
  12 H :   -0.007955
  13 H :   -0.011612

  Mayer bond orders larger than 0.100000
B(  0-C ,  1-C ) :   1.2624 B(  0-C ,  9-H ) :   0.1100 B(  0-C , 11-H ) :   0.7397
B(  0-C , 12-H ) :   0.6821 B(  0-C , 13-H ) :   0.6731 B(  1-C ,  2-C ) :   1.1867
B(  1-C ,  3-H ) :   0.1243 B(  1-C ,  4-H ) :   0.1356 B(  1-C ,  9-H ) :   0.8554
B(  1-C , 10-H ) :   0.8606 B(  1-C , 11-H ) :   0.2781 B(  1-C , 12-H ) :   0.2303
B(  1-C , 13-H ) :   0.2286 B(  2-C ,  3-H ) :   0.9340 B(  2-C ,  4-H ) :   0.8920
B(  2-C ,  5-S ) :   0.9769 B(  2-C ,  9-H ) :   0.1261 B(  2-C , 10-H ) :   0.1111
B(  5-S ,  6-O ) :   1.5740 B(  5-S ,  7-F ) :   0.6616 B(  5-S ,  8-O ) :   1.4691
B(  8-O , 11-H ) :   0.1037 B( 11-H , 12-H ) :   0.1285 B( 11-H , 13-H ) :   0.1098

FINAL SINGLE POINT ENERGY      -766.414814150416

DIPOLE MOMENT
-------------
                                X             Y             Z
Electronic contribution:    -11.79319      -4.81969      -2.60489
Nuclear contribution   :     12.19253       5.80225       3.95262
                        -----------------------------------------
Total Dipole Moment    :      0.39934       0.98256       1.34774
                        -----------------------------------------
Magnitude (a.u.)       :      1.71502
Magnitude (Debye)      :      4.35924

Rotational constants in cm-1:     0.130581     0.053444     0.051914
Rotational constants in MHz :  3914.711139  1602.211061  1556.338643

                             ****ORCA TERMINATED NORMALLY****
TOTAL RUN TIME: 0 days 0 hours 0 minutes 20 seconds 468 msec
