                         Program Version 5.0.0 -  RELEASE  -
|  1> !CAM-B3LYP RIJCOSX def2-SVPD def2/J TightSCF
|  2> *xyz 0 1
|  3> C          3.38093        2.08304       -3.35013
|  4> N          4.53592        1.18245       -3.42852
|  5> C          2.49556        1.81615       -2.13636
|  6> C          1.87218        0.42790       -2.07750
|  7> C          4.67196        0.12227       -4.22060
|  8> C          5.86602       -0.50785       -4.22428
|  9> N          3.69888       -0.31284       -4.98699
| 10> H          2.73141       -0.05009       -4.84900
| 11> H          3.89005       -1.05517       -5.64373
| 12> H          5.25193        1.30346       -2.72101
| 13> H          6.69516       -0.06232       -3.85160
| 14> H          5.97538       -1.39688       -4.69141
| 15> H          1.69700        2.56197       -2.14111
| 16> H          3.08079        1.98744       -1.22584
| 17> H          2.80646        1.98651       -4.26848
| 18> H          3.77871        3.09828       -3.30738
| 19> H          1.29954        0.25615       -2.96490
| 20> H          1.23321        0.35984       -1.22194
| 21> H          2.64581       -0.30765       -2.00430
| 22> *
| 23>
| 24> %MaxCore 64000
| 25>
| 26> %pal nprocs 8
| 27> end
| 28>
| 29> %scf
| 30>   MaxIter 150
| 31> end
| 32>
| 33>
| 34>                          ****END OF INPUT****

CARTESIAN COORDINATES (ANGSTROEM)
---------------------------------
  C      3.380930    2.083040   -3.350130
  N      4.535920    1.182450   -3.428520
  C      2.495560    1.816150   -2.136360
  C      1.872180    0.427900   -2.077500
  C      4.671960    0.122270   -4.220600
  C      5.866020   -0.507850   -4.224280
  N      3.698880   -0.312840   -4.986990
  H      2.731410   -0.050090   -4.849000
  H      3.890050   -1.055170   -5.643730
  H      5.251930    1.303460   -2.721010
  H      6.695160   -0.062320   -3.851600
  H      5.975380   -1.396880   -4.691410
  H      1.697000    2.561970   -2.141110
  H      3.080790    1.987440   -1.225840
  H      2.806460    1.986510   -4.268480
  H      3.778710    3.098280   -3.307380
  H      1.299540    0.256150   -2.964900
  H      1.233210    0.359840   -1.221940
  H      2.645810   -0.307650   -2.004300

 Total Charge           Charge          ....    0
 Multiplicity           Mult            ....    1
 Number of Electrons    NEL             ....   56
 Basis Dimension        Dim             ....  236

ORBITAL ENERGIES
----------------

  NO   OCC          E(Eh)            E(eV)
   0   2.0000     -14.407436      -392.0463
   1   2.0000     -14.403316      -391.9341
   2   2.0000     -10.308228      -280.5012
   3   2.0000     -10.296379      -280.1787
   4   2.0000     -10.261227      -279.2222
   5   2.0000     -10.248530      -278.8767
   6   2.0000     -10.165801      -276.6255
   7   2.0000      -1.044244       -28.4153
   8   2.0000      -0.961280       -26.1578
   9   2.0000      -0.868139       -23.6233
  10   2.0000      -0.796431       -21.6720
  11   2.0000      -0.744148       -20.2493
  12   2.0000      -0.676252       -18.4017
  13   2.0000      -0.669183       -18.2094
  14   2.0000      -0.617061       -16.7911
  15   2.0000      -0.569669       -15.5015
  16   2.0000      -0.545753       -14.8507
  17   2.0000      -0.533310       -14.5121
  18   2.0000      -0.520871       -14.1736
  19   2.0000      -0.473042       -12.8721
  20   2.0000      -0.466280       -12.6881
  21   2.0000      -0.457474       -12.4485
  22   2.0000      -0.438387       -11.9291
  23   2.0000      -0.418902       -11.3989
  24   2.0000      -0.412909       -11.2358
  25   2.0000      -0.408876       -11.1261
  26   2.0000      -0.318043        -8.6544
  27   2.0000      -0.215053        -5.8519
  28   0.0000       0.043013         1.1705
  29   0.0000       0.065856         1.7920
  30   0.0000       0.073401         1.9973
  31   0.0000       0.077342         2.1046
  32   0.0000       0.100920         2.7462

MULLIKEN ATOMIC CHARGES
-----------------------
   0 C :    0.916923
   1 N :   -0.321790
   2 C :   -0.180057
   3 C :    0.975248
   4 C :    0.629511
   5 C :    0.577571
   6 N :    0.296872
   7 H :   -0.264017
   8 H :   -0.160990
   9 H :   -0.290509
  10 H :   -0.494328
  11 H :   -0.424568
  12 H :   -0.118771
  13 H :   -0.139048
  14 H :   -0.167823
  15 H :   -0.376932
  16 H :   -0.127141
  17 H :   -0.270206
  18 H :   -0.059945
Sum of atomic charges:   -0.0000000

LOEWDIN ATOMIC CHARGES
----------------------
   0 C :    0.049809
   1 N :   -0.004429
   2 C :   -0.074068
   3 C :    0.121150
   4 C :   -0.242325
   5 C :    0.141279
   6 N :    0.201589
   7 H :   -0.023271
   8 H :    0.011759
   9 H :    0.037298
  10 H :   -0.109544
  11 H :   -0.112672
  12 H :    0.017882
  13 H :    0.020326
  14 H :    0.011365
  15 H :    0.016634
  16 H :   -0.026454
  17 H :   -0.018986
  18 H :   -0.017340

  Mayer bond orders larger than 0.100000
B(  0-C ,  1-N ) :   0.9748 B(  0-C ,  2-C ) :   1.0867 B(  0-C ,  9-H ) :  -0.2170
B(  0-C , 12-H ) :   0.1334 B(  0-C , 13-H ) :   0.1463 B(  0-C , 14-H ) :   0.7152
B(  0-C , 15-H ) :   0.8687 B(  1-N ,  4-C ) :   1.0337 B(  1-N ,  5-C ) :   0.2169
B(  1-N ,  6-N ) :   0.1888 B(  1-N ,  9-H ) :   1.2630 B(  1-N , 14-H ) :   0.2078
B(  1-N , 15-H ) :   0.1521 B(  2-C ,  3-C ) :   1.2728 B(  2-C , 12-H ) :   0.8722
B(  2-C , 13-H ) :   0.8736 B(  2-C , 14-H ) :   0.1359 B(  2-C , 16-H ) :   0.2535
B(  2-C , 17-H ) :   0.2403 B(  2-C , 18-H ) :   0.2508 B(  3-C , 12-H ) :   0.1024
B(  3-C , 16-H ) :   0.7363 B(  3-C , 17-H ) :   0.7407 B(  3-C , 18-H ) :   0.7410
B(  4-C ,  5-C ) :   1.3856 B(  4-C ,  6-N ) :   1.0756 B(  4-C ,  7-H ) :  -0.1003
B(  4-C ,  8-H ) :  -0.1145 B(  4-C ,  9-H ) :  -0.2279 B(  4-C , 11-H ) :   0.2138
B(  5-C ,  6-N ) :   0.1925 B(  5-C , 10-H ) :   0.8095 B(  5-C , 11-H ) :   0.6851
B(  6-N ,  7-H ) :   1.1697 B(  6-N ,  8-H ) :   1.2572 B(  6-N , 14-H ) :   0.1130
B(  7-H ,  8-H ) :  -0.2200 B( 14-H , 15-H ) :  -0.1547

FINAL SINGLE POINT ENERGY      -306.847720609536

DIPOLE MOMENT
-------------
                                X             Y             Z
Electronic contribution:      2.68847       0.01671      -2.60794
Nuclear contribution   :     -3.75638       0.46849       2.77235
                        -----------------------------------------
Total Dipole Moment    :     -1.06791       0.48521       0.16441
                        -----------------------------------------
Magnitude (a.u.)       :      1.18443
Magnitude (Debye)      :      3.01059

Rotational constants in cm-1:     0.154609     0.053528     0.048030
Rotational constants in MHz :  4635.053294  1604.739826  1439.897073

                             ****ORCA TERMINATED NORMALLY****
TOTAL RUN TIME: 0 days 0 hours 0 minutes 28 seconds 81 msec
