                         Program Version 5.0.0 -  RELEASE  -
|  1> !CAM-B3LYP RIJCOSX def2-SVPD def2/J TightSCF
|  2> *xyz 0 1
|  3> C          3.38093        2.08304       -3.35013
|  4> C          2.49556        1.81615       -2.13636
|  5> C          1.87218        0.42790       -2.07750
|  6> H          2.61427       -0.36583       -2.19889
|  7> H          1.38995        0.27309       -1.11236
|  8> S          0.57902        0.14047       -3.29794
|  9> O          0.22886       -1.24687       -3.12787
| 10> O         -0.43927        1.11897       -3.01455
| 11> F          1.24788        0.40347       -4.59565
| 12> H          1.69700        2.56197       -2.14111
| 13> H          3.08079        1.98744       -1.22584
| 14> H          2.81820        1.91840       -4.24519
| 15> H          4.22171        1.42153       -3.33067
| 16> H          3.72372        3.09635       -3.32565
| 17> *
| 18>
| 19> %MaxCore 64000
| 20>
| 21> %pal nprocs 8
| 22> end
| 23>
| 24> %scf
| 25>   MaxIter 150
| 26> end
| 27>
| 28>
| 29>                          ****END OF INPUT****

CARTESIAN COORDINATES (ANGSTROEM)
---------------------------------
  C      3.380930    2.083040   -3.350130
  C      2.495560    1.816150   -2.136360
  C      1.872180    0.427900   -2.077500
  H      2.614270   -0.365830   -2.198890
  H      1.389950    0.273090   -1.112360
  S      0.579020    0.140470   -3.297940
  O      0.228860   -1.246870   -3.127870
  O     -0.439270    1.118970   -3.014550
  F      1.247880    0.403470   -4.595650
  H      1.697000    2.561970   -2.141110
  H      3.080790    1.987440   -1.225840
  H      2.818200    1.918400   -4.245190
  H      4.221710    1.421530   -3.330670
  H      3.723720    3.096350   -3.325650

 Total Charge           Charge          ....    0
 Multiplicity           Mult            ....    1
 Number of Electrons    NEL             ....   66
 Basis Dimension        Dim             ....  212

ORBITAL ENERGIES
----------------

  NO   OCC          E(Eh)            E(eV)
   0   2.0000     -89.220599     -2427.8159
   1   2.0000     -24.876183      -676.9154
   2   2.0000     -19.232007      -523.3295
   3   2.0000     -19.231543      -523.3169
   4   2.0000     -10.319898      -280.8187
   5   2.0000     -10.288919      -279.9757
   6   2.0000     -10.264046      -279.2989
   7   2.0000      -8.274409      -225.1581
   8   2.0000      -6.248424      -170.0283
   9   2.0000      -6.242208      -169.8591
  10   2.0000      -6.240746      -169.8193
  11   2.0000      -1.430861       -38.9357
  12   2.0000      -1.206430       -32.8286
  13   2.0000      -1.109847       -30.2005
  14   2.0000      -0.915988       -24.9253
  15   2.0000      -0.832161       -22.6442
  16   2.0000      -0.779416       -21.2090
  17   2.0000      -0.715854       -19.4794
  18   2.0000      -0.656096       -17.8533
  19   2.0000      -0.645037       -17.5523
  20   2.0000      -0.625244       -17.0137
  21   2.0000      -0.568775       -15.4771
  22   2.0000      -0.552828       -15.0432
  23   2.0000      -0.539784       -14.6883
  24   2.0000      -0.529566       -14.4102
  25   2.0000      -0.508417       -13.8347
  26   2.0000      -0.472917       -12.8687
  27   2.0000      -0.455778       -12.4023
  28   2.0000      -0.438536       -11.9332
  29   2.0000      -0.431136       -11.7318
  30   2.0000      -0.413380       -11.2486
  31   2.0000      -0.397954       -10.8289
  32   2.0000      -0.391934       -10.6651
  33   0.0000       0.028101         0.7647
  34   0.0000       0.053571         1.4577
  35   0.0000       0.059651         1.6232
  36   0.0000       0.061373         1.6701
  37   0.0000       0.086371         2.3503

MULLIKEN ATOMIC CHARGES
-----------------------
   0 C :    1.058668
   1 C :   -0.056897
   2 C :    0.152861
   3 H :   -0.052663
   4 H :   -0.048185
   5 S :    1.497302
   6 O :   -0.660988
   7 O :   -0.662934
   8 F :   -0.440885
   9 H :   -0.079802
  10 H :   -0.185146
  11 H :   -0.358863
  12 H :   -0.068903
  13 H :   -0.093564
Sum of atomic charges:   -0.0000000

LOEWDIN ATOMIC CHARGES
----------------------
   0 C :    0.134748
   1 C :   -0.075224
   2 C :   -0.047549
   3 H :    0.029127
   4 H :    0.034783
   5 S :    1.116703
   6 O :   -0.461704
   7 O :   -0.459814
   8 F :   -0.272685
   9 H :    0.027809
  10 H :    0.032275
  11 H :   -0.041283
  12 H :   -0.008979
  13 H :   -0.008208

  Mayer bond orders larger than 0.100000
B(  0-C ,  1-C ) :   1.2511 B(  0-C ,  9-H ) :   0.1059 B(  0-C , 11-H ) :   0.7275
B(  0-C , 12-H ) :   0.6933 B(  0-C , 13-H ) :   0.6835 B(  1-C ,  2-C ) :   1.1997
B(  1-C ,  3-H ) :   0.1329 B(  1-C ,  4-H ) :   0.1371 B(  1-C ,  9-H ) :   0.8777
B(  1-C , 10-H ) :   0.8525 B(  1-C , 11-H ) :   0.2641 B(  1-C , 12-H ) :   0.2256
B(  1-C , 13-H ) :   0.2275 B(  2-C ,  3-H ) :   0.9385 B(  2-C ,  4-H ) :   0.8787
B(  2-C ,  5-S ) :   0.9900 B(  2-C ,  9-H ) :   0.1375 B(  2-C , 10-H ) :   0.1219
B(  5-S ,  6-O ) :   1.5588 B(  5-S ,  7-O ) :   1.5156 B(  5-S ,  8-F ) :   0.6314
B( 11-H , 12-H ) :   0.1215 B( 11-H , 13-H ) :   0.1083

FINAL SINGLE POINT ENERGY      -766.434050869001

DIPOLE MOMENT
-------------
                                X             Y             Z
Electronic contribution:     -8.83037      -6.00819      -5.30567
Nuclear contribution   :     10.37810       6.57173       5.65300
                        -----------------------------------------
Total Dipole Moment    :      1.54773       0.56354       0.34734
                        -----------------------------------------
Magnitude (a.u.)       :      1.68336
Magnitude (Debye)      :      4.27876

Rotational constants in cm-1:     0.130522     0.054787     0.051463
Rotational constants in MHz :  3912.959799  1642.486768  1542.828917

                             ****ORCA TERMINATED NORMALLY****
TOTAL RUN TIME: 0 days 0 hours 0 minutes 22 seconds 353 msec
