                         Program Version 5.0.0 -  RELEASE  -
|  1> !CAM-B3LYP RIJCOSX def2-SVPD def2/J TightSCF
|  2> *xyz 0 1
|  3> C          3.38093        2.08304       -3.35013
|  4> N          4.53592        1.18245       -3.42852
|  5> C          2.49556        1.81615       -2.13636
|  6> C          1.87218        0.42790       -2.07750
|  7> C          4.67196        0.12227       -4.22060
|  8> N          5.86602       -0.50785       -4.22428
|  9> C          3.69888       -0.31284       -4.98699
| 10> H          2.73141       -0.05009       -4.84900
| 11> H          3.89005       -1.05517       -5.64373
| 12> H          5.25193        1.30346       -2.72101
| 13> H          6.69516       -0.06232       -3.85160
| 14> H          5.97538       -1.39688       -4.69141
| 15> H          1.69700        2.56197       -2.14111
| 16> H          3.08079        1.98744       -1.22584
| 17> H          2.80646        1.98651       -4.26848
| 18> H          3.77871        3.09828       -3.30738
| 19> H          1.29954        0.25615       -2.96490
| 20> H          1.23321        0.35984       -1.22194
| 21> H          2.64581       -0.30765       -2.00430
| 22> *
| 23>
| 24> %MaxCore 64000
| 25>
| 26> %pal nprocs 8
| 27> end
| 28>
| 29> %scf
| 30>   MaxIter 150
| 31> end
| 32>
| 33>
| 34>                          ****END OF INPUT****

CARTESIAN COORDINATES (ANGSTROEM)
---------------------------------
  C      3.380930    2.083040   -3.350130
  N      4.535920    1.182450   -3.428520
  C      2.495560    1.816150   -2.136360
  C      1.872180    0.427900   -2.077500
  C      4.671960    0.122270   -4.220600
  N      5.866020   -0.507850   -4.224280
  C      3.698880   -0.312840   -4.986990
  H      2.731410   -0.050090   -4.849000
  H      3.890050   -1.055170   -5.643730
  H      5.251930    1.303460   -2.721010
  H      6.695160   -0.062320   -3.851600
  H      5.975380   -1.396880   -4.691410
  H      1.697000    2.561970   -2.141110
  H      3.080790    1.987440   -1.225840
  H      2.806460    1.986510   -4.268480
  H      3.778710    3.098280   -3.307380
  H      1.299540    0.256150   -2.964900
  H      1.233210    0.359840   -1.221940
  H      2.645810   -0.307650   -2.004300

 Total Charge           Charge          ....    0
 Multiplicity           Mult            ....    1
 Number of Electrons    NEL             ....   56
 Basis Dimension        Dim             ....  236

ORBITAL ENERGIES
----------------

  NO   OCC          E(Eh)            E(eV)
   0   2.0000     -14.404337      -391.9619
   1   2.0000     -14.401933      -391.8965
   2   2.0000     -10.305918      -280.4383
   3   2.0000     -10.288060      -279.9523
   4   2.0000     -10.253532      -279.0128
   5   2.0000     -10.235562      -278.5238
   6   2.0000     -10.171218      -276.7729
   7   2.0000      -1.038255       -28.2524
   8   2.0000      -0.953094       -25.9350
   9   2.0000      -0.854108       -23.2415
  10   2.0000      -0.792678       -21.5699
  11   2.0000      -0.760317       -20.6893
  12   2.0000      -0.675167       -18.3722
  13   2.0000      -0.635143       -17.2831
  14   2.0000      -0.613303       -16.6888
  15   2.0000      -0.584450       -15.9037
  16   2.0000      -0.536300       -14.5935
  17   2.0000      -0.528395       -14.3784
  18   2.0000      -0.499016       -13.5789
  19   2.0000      -0.480928       -13.0867
  20   2.0000      -0.457569       -12.4511
  21   2.0000      -0.454027       -12.3547
  22   2.0000      -0.438867       -11.9422
  23   2.0000      -0.411767       -11.2047
  24   2.0000      -0.407623       -11.0920
  25   2.0000      -0.395722       -10.7682
  26   2.0000      -0.311430        -8.4744
  27   2.0000      -0.228335        -6.2133
  28   0.0000       0.047357         1.2886
  29   0.0000       0.066673         1.8143
  30   0.0000       0.075009         2.0411
  31   0.0000       0.084574         2.3014
  32   0.0000       0.100780         2.7424

MULLIKEN ATOMIC CHARGES
-----------------------
   0 C :    0.929105
   1 N :   -0.431569
   2 C :   -0.224247
   3 C :    0.988330
   4 C :    0.891731
   5 N :    0.167392
   6 C :    0.420009
   7 H :   -0.433708
   8 H :   -0.556196
   9 H :   -0.352160
  10 H :   -0.207891
  11 H :   -0.058595
  12 H :   -0.135848
  13 H :   -0.142426
  14 H :   -0.059983
  15 H :   -0.346254
  16 H :   -0.089969
  17 H :   -0.269059
  18 H :   -0.088660
Sum of atomic charges:   -0.0000000

LOEWDIN ATOMIC CHARGES
----------------------
   0 C :    0.057532
   1 N :   -0.013443
   2 C :   -0.071966
   3 C :    0.123189
   4 C :   -0.238863
   5 N :    0.184431
   6 C :    0.154923
   7 H :   -0.111307
   8 H :   -0.098060
   9 H :    0.022861
  10 H :   -0.013986
  11 H :    0.000173
  12 H :    0.017613
  13 H :    0.016400
  14 H :    0.017306
  15 H :    0.016786
  16 H :   -0.021494
  17 H :   -0.021951
  18 H :   -0.020144

  Mayer bond orders larger than 0.100000
B(  0-C ,  1-N ) :   0.9342 B(  0-C ,  2-C ) :   1.0726 B(  0-C ,  9-H ) :  -0.1975
B(  0-C , 12-H ) :   0.1273 B(  0-C , 13-H ) :   0.1233 B(  0-C , 14-H ) :   0.7177
B(  0-C , 15-H ) :   0.8613 B(  1-N ,  4-C ) :   0.8943 B(  1-N ,  5-N ) :   0.1661
B(  1-N ,  6-C ) :   0.4049 B(  1-N ,  9-H ) :   1.3846 B(  1-N , 14-H ) :   0.1576
B(  1-N , 15-H ) :   0.1506 B(  2-C ,  3-C ) :   1.2663 B(  2-C , 12-H ) :   0.8899
B(  2-C , 13-H ) :   0.8948 B(  2-C , 14-H ) :   0.1434 B(  2-C , 16-H ) :   0.2521
B(  2-C , 17-H ) :   0.2410 B(  2-C , 18-H ) :   0.2464 B(  3-C , 12-H ) :   0.1041
B(  3-C , 16-H ) :   0.7383 B(  3-C , 17-H ) :   0.7360 B(  3-C , 18-H ) :   0.7498
B(  4-C ,  5-N ) :   0.9687 B(  4-C ,  6-C ) :   1.4264 B(  4-C ,  8-H ) :   0.2764
B(  4-C ,  9-H ) :  -0.2991 B(  5-N ,  6-C ) :   0.3097 B(  5-N ,  8-H ) :   0.1009
B(  5-N , 10-H ) :   1.1949 B(  5-N , 11-H ) :   1.1391 B(  6-C ,  7-H ) :   0.6699
B(  6-C ,  8-H ) :   0.7353 B(  7-H ,  8-H ) :  -0.1719 B( 10-H , 11-H ) :  -0.1801
B( 14-H , 15-H ) :  -0.1543 B( 16-H , 18-H ) :   0.1067

FINAL SINGLE POINT ENERGY      -306.852095496447

DIPOLE MOMENT
-------------
                                X             Y             Z
Electronic contribution:      4.86829      -0.22243      -1.97205
Nuclear contribution   :     -4.23110       0.51121       2.60527
                        -----------------------------------------
Total Dipole Moment    :      0.63719       0.28878       0.63322
                        -----------------------------------------
Magnitude (a.u.)       :      0.94360
Magnitude (Debye)      :      2.39844

Rotational constants in cm-1:     0.158478     0.052124     0.047173
Rotational constants in MHz :  4751.056263  1562.646208  1414.197352

                             ****ORCA TERMINATED NORMALLY****
TOTAL RUN TIME: 0 days 0 hours 0 minutes 27 seconds 615 msec
