                         Program Version 5.0.0 -  RELEASE  -
|  1> !CAM-B3LYP RIJCOSX def2-SVPD def2/J TightSCF xyzfile
|  2>
|  3> *xyzfile 0 1 D3.xyz
|  4>
|  5> %MaxCore 64000
|  6>
|  7> %pal nprocs 4
|  8> end
|  9>
| 10> %scf
| 11>   MaxIter 150
| 12> end
| 13>
| 14>
| 15>                          ****END OF INPUT****

CARTESIAN COORDINATES (ANGSTROEM)
---------------------------------
  C      3.380928    2.083045   -3.350127
  N      4.535924    1.182447   -3.428518
  C      2.495557    1.816150   -2.136364
  C      1.872181    0.427903   -2.077497
  H      2.614270   -0.365825   -2.198894
  H      1.389953    0.273087   -1.112360
  S      0.579024    0.140472   -3.297943
  C      4.671956    0.122273   -4.220598
  N      5.866023   -0.507849   -4.224284
  C      3.698881   -0.312844   -4.986988
  H      2.731405   -0.050091   -4.849000
  H      3.890046   -1.055172   -5.643730
  H      5.251933    1.303459   -2.721014
  H      6.695165   -0.062322   -3.851596
  H      5.975383   -1.396884   -4.691414
  F      0.228860   -1.246868   -3.127871
  O     -0.439269    1.118966   -3.014550
  O      1.247881    0.403474   -4.595647
  H      1.697003    2.561969   -2.141109
  H      3.080787    1.987436   -1.225838
  H      2.806463    1.986511   -4.268484
  H      3.778714    3.098282   -3.307383

 Total Charge           Charge          ....    0
 Multiplicity           Mult            ....    1
 Number of Electrons    NEL             ....   96
 Basis Dimension        Dim             ....  324

ORBITAL ENERGIES
----------------

  NO   OCC          E(Eh)            E(eV)
   0   2.0000     -89.224827     -2427.9310
   1   2.0000     -24.897889      -677.5060
   2   2.0000     -19.232544      -523.3441
   3   2.0000     -19.216154      -522.8981
   4   2.0000     -14.406821      -392.0295
   5   2.0000     -14.397826      -391.7848
   6   2.0000     -10.320153      -280.8256
   7   2.0000     -10.298400      -280.2337
   8   2.0000     -10.296067      -280.1702
   9   2.0000     -10.289388      -279.9885
  10   2.0000     -10.149139      -276.1721
  11   2.0000      -8.278110      -225.2588
  12   2.0000      -6.252226      -170.1317
  13   2.0000      -6.245922      -169.9602
  14   2.0000      -6.244241      -169.9144
  15   2.0000      -1.465750       -39.8851
  16   2.0000      -1.199026       -32.6272
  17   2.0000      -1.093281       -29.7497
  18   2.0000      -1.037779       -28.2394
  19   2.0000      -0.954976       -25.9862
  20   2.0000      -0.904708       -24.6184
  21   2.0000      -0.834609       -22.7109
  22   2.0000      -0.795374       -21.6432
  23   2.0000      -0.773013       -21.0348
  24   2.0000      -0.722193       -19.6519
  25   2.0000      -0.671850       -18.2820
  26   2.0000      -0.665575       -18.1112
  27   2.0000      -0.649103       -17.6630
  28   2.0000      -0.629838       -17.1388
  29   2.0000      -0.611366       -16.6361
  30   2.0000      -0.590368       -16.0647
  31   2.0000      -0.568874       -15.4799
  32   2.0000      -0.564834       -15.3699
  33   2.0000      -0.529739       -14.4149
  34   2.0000      -0.524542       -14.2735
  35   2.0000      -0.520106       -14.1528
  36   2.0000      -0.477979       -13.0065
  37   2.0000      -0.469093       -12.7647
  38   2.0000      -0.462069       -12.5735
  39   2.0000      -0.451511       -12.2862
  40   2.0000      -0.448023       -12.1913
  41   2.0000      -0.437962       -11.9175
  42   2.0000      -0.419001       -11.4016
  43   2.0000      -0.405026       -11.0213
  44   2.0000      -0.386635       -10.5209
  45   2.0000      -0.348958        -9.4956
  46   2.0000      -0.313639        -8.5346
  47   2.0000      -0.221388        -6.0243
  48   0.0000       0.027968         0.7611
  49   0.0000       0.042558         1.1581
  50   0.0000       0.056642         1.5413
  51   0.0000       0.061668         1.6781
  52   0.0000       0.077770         2.1162

MULLIKEN ATOMIC CHARGES
-----------------------
   0 C :    1.084077
   1 N :   -0.466240
   2 C :    0.281606
   3 C :    0.284394
   4 H :    0.032326
   5 H :   -0.211302
   6 S :    1.564858
   7 C :    0.877563
   8 N :    0.154113
   9 C :    0.899661
  10 H :   -0.905138
  11 H :   -0.459679
  12 H :   -0.327309
  13 H :   -0.193160
  14 H :   -0.060066
  15 F :   -0.418666
  16 O :   -0.689783
  17 O :   -0.821049
  18 H :   -0.084355
  19 H :   -0.107617
  20 H :   -0.037873
  21 H :   -0.396361
Sum of atomic charges:   -0.0000000

LOEWDIN ATOMIC CHARGES
----------------------
   0 C :    0.082743
   1 N :   -0.013427
   2 C :   -0.006439
   3 C :   -0.038810
   4 H :    0.020225
   5 H :    0.019843
   6 S :    1.165665
   7 C :   -0.234518
   8 N :    0.179515
   9 C :    0.186187
  10 H :   -0.213998
  11 H :   -0.086171
  12 H :    0.019851
  13 H :   -0.017805
  14 H :   -0.001314
  15 F :   -0.242364
  16 O :   -0.455475
  17 O :   -0.465703
  18 H :    0.032245
  19 H :    0.033364
  20 H :    0.011022
  21 H :    0.025365

  Mayer bond orders larger than 0.100000
B(  0-C ,  1-N ) :   0.9049 B(  0-C ,  2-C ) :   1.0516 B(  0-C , 12-H ) :  -0.1791
B(  0-C , 18-H ) :   0.1477 B(  0-C , 19-H ) :   0.1288 B(  0-C , 20-H ) :   0.6880
B(  0-C , 21-H ) :   0.8040 B(  1-N ,  7-C ) :   0.8902 B(  1-N ,  8-N ) :   0.1769
B(  1-N ,  9-C ) :   0.3064 B(  1-N , 12-H ) :   1.4001 B(  1-N , 20-H ) :   0.1943
B(  1-N , 21-H ) :   0.1484 B(  2-C ,  3-C ) :   1.2492 B(  2-C ,  4-H ) :   0.1590
B(  2-C ,  5-H ) :   0.1992 B(  2-C , 18-H ) :   0.8253 B(  2-C , 19-H ) :   0.7622
B(  2-C , 20-H ) :   0.1566 B(  3-C ,  4-H ) :   0.9288 B(  3-C ,  5-H ) :   0.7109
B(  3-C ,  6-S ) :   0.9429 B(  3-C , 17-O ) :   0.1483 B(  3-C , 18-H ) :   0.1414
B(  3-C , 19-H ) :   0.1402 B(  6-S , 15-F ) :   0.6468 B(  6-S , 16-O ) :   1.5213
B(  6-S , 17-O ) :   1.4000 B(  7-C ,  8-N ) :   0.9140 B(  7-C ,  9-C ) :   1.7511
B(  7-C , 10-H ) :  -0.1462 B(  7-C , 11-H ) :   0.3879 B(  7-C , 12-H ) :  -0.3088
B(  7-C , 20-H ) :  -0.1079 B(  8-N ,  9-C ) :   0.3659 B(  8-N , 11-H ) :   0.1098
B(  8-N , 13-H ) :   1.1811 B(  8-N , 14-H ) :   1.1510 B(  9-C , 11-H ) :   0.6186
B( 10-H , 17-O ) :   0.1761 B( 10-H , 20-H ) :   0.1015 B( 13-H , 14-H ) :  -0.1782
B( 17-O , 20-H ) :   0.1005 B( 20-H , 21-H ) :  -0.1941

FINAL SINGLE POINT ENERGY      -954.268149100763

DIPOLE MOMENT
-------------
                                X             Y             Z
Electronic contribution:    -14.64688      -5.48119       0.09021
Nuclear contribution   :     15.84345       5.19593       1.66752
                        -----------------------------------------
Total Dipole Moment    :      1.19657      -0.28526       1.75773
                        -----------------------------------------
Magnitude (a.u.)       :      2.14541
Magnitude (Debye)      :      5.45319

Rotational constants in cm-1:     0.059060     0.020573     0.017713
Rotational constants in MHz :  1770.576058   616.749938   531.036486

                             ****ORCA TERMINATED NORMALLY****
TOTAL RUN TIME: 0 days 0 hours 2 minutes 18 seconds 54 msec
