                         Program Version 5.0.0 -  RELEASE  -
|  1> !CAM-B3LYP RIJCOSX def2-SVPD def2/J TightSCF xyzfile
|  2>
|  3> *xyzfile 0 1 D5.xyz
|  4>
|  5> %MaxCore 64000
|  6>
|  7> %pal nprocs 4
|  8> end
|  9>
| 10> %scf
| 11>   MaxIter 150
| 12> end
| 13>
| 14>
| 15>                          ****END OF INPUT****

CARTESIAN COORDINATES (ANGSTROEM)
---------------------------------
  C      3.380928    2.083045   -3.350127
  N      4.535924    1.182447   -3.428518
  C      2.495557    1.816150   -2.136364
  C      1.872181    0.427903   -2.077497
  H      2.614270   -0.365825   -2.198894
  H      1.389953    0.273087   -1.112360
  S      0.579024    0.140472   -3.297943
  C      4.671956    0.122273   -4.220598
  C      5.866023   -0.507849   -4.224284
  N      3.698881   -0.312844   -4.986988
  H      2.731405   -0.050091   -4.849000
  H      3.890046   -1.055172   -5.643730
  H      5.251933    1.303459   -2.721014
  H      6.695165   -0.062322   -3.851596
  H      5.975383   -1.396884   -4.691414
  O      0.228860   -1.246868   -3.127871
  F     -0.439269    1.118966   -3.014550
  O      1.247881    0.403474   -4.595647
  H      1.697003    2.561969   -2.141109
  H      3.080787    1.987436   -1.225838
  H      2.806463    1.986511   -4.268484
  H      3.778714    3.098282   -3.307383

 Total Charge           Charge          ....    0
 Multiplicity           Mult            ....    1
 Number of Electrons    NEL             ....   96
 Basis Dimension        Dim             ....  324

ORBITAL ENERGIES
----------------

  NO   OCC          E(Eh)            E(eV)
   0   2.0000     -89.246346     -2428.5165
   1   2.0000     -24.917644      -678.0436
   2   2.0000     -19.251570      -523.8618
   3   2.0000     -19.245424      -523.6946
   4   2.0000     -14.406713      -392.0266
   5   2.0000     -14.377291      -391.2260
   6   2.0000     -10.334453      -281.2148
   7   2.0000     -10.305088      -280.4157
   8   2.0000     -10.300790      -280.2987
   9   2.0000     -10.300346      -280.2867
  10   2.0000     -10.158713      -276.4326
  11   2.0000      -8.299653      -225.8450
  12   2.0000      -6.273800      -170.7188
  13   2.0000      -6.267563      -170.5491
  14   2.0000      -6.265646      -170.4969
  15   2.0000      -1.485922       -40.4340
  16   2.0000      -1.220038       -33.1989
  17   2.0000      -1.118280       -30.4300
  18   2.0000      -1.038711       -28.2648
  19   2.0000      -0.956189       -26.0192
  20   2.0000      -0.920122       -25.0378
  21   2.0000      -0.850520       -23.1438
  22   2.0000      -0.809376       -22.0242
  23   2.0000      -0.766706       -20.8631
  24   2.0000      -0.715620       -19.4730
  25   2.0000      -0.693744       -18.8777
  26   2.0000      -0.689407       -18.7597
  27   2.0000      -0.669988       -18.2313
  28   2.0000      -0.650631       -17.7046
  29   2.0000      -0.616380       -16.7725
  30   2.0000      -0.584040       -15.8925
  31   2.0000      -0.572672       -15.5832
  32   2.0000      -0.562409       -15.3039
  33   2.0000      -0.553415       -15.0592
  34   2.0000      -0.534856       -14.5542
  35   2.0000      -0.523827       -14.2541
  36   2.0000      -0.491940       -13.3864
  37   2.0000      -0.484556       -13.1854
  38   2.0000      -0.478155       -13.0113
  39   2.0000      -0.460845       -12.5402
  40   2.0000      -0.451784       -12.2937
  41   2.0000      -0.435372       -11.8471
  42   2.0000      -0.422733       -11.5031
  43   2.0000      -0.411021       -11.1845
  44   2.0000      -0.407442       -11.0871
  45   2.0000      -0.401139       -10.9156
  46   2.0000      -0.312597        -8.5062
  47   2.0000      -0.209034        -5.6881
  48   0.0000       0.013143         0.3576
  49   0.0000       0.040298         1.0966
  50   0.0000       0.050306         1.3689
  51   0.0000       0.054992         1.4964
  52   0.0000       0.065162         1.7732

MULLIKEN ATOMIC CHARGES
-----------------------
   0 C :    1.096275
   1 N :   -0.283495
   2 C :    0.347088
   3 C :    0.247643
   4 H :    0.061013
   5 H :   -0.213524
   6 S :    1.600657
   7 C :    0.440006
   8 C :    0.528454
   9 N :    0.770164
  10 H :   -0.541775
  11 H :   -0.216731
  12 H :   -0.268004
  13 H :   -0.475494
  14 H :   -0.371125
  15 O :   -0.632691
  16 F :   -0.462433
  17 O :   -0.849815
  18 H :   -0.087345
  19 H :   -0.126076
  20 H :   -0.144081
  21 H :   -0.418711
Sum of atomic charges:   -0.0000000

LOEWDIN ATOMIC CHARGES
----------------------
   0 C :    0.070751
   1 N :   -0.001694
   2 C :   -0.022690
   3 C :   -0.028918
   4 H :    0.038662
   5 H :    0.023486
   6 S :    1.170790
   7 C :   -0.239321
   8 C :    0.136434
   9 N :    0.232833
  10 H :   -0.148185
  11 H :    0.018176
  12 H :    0.034873
  13 H :   -0.114200
  14 H :   -0.112680
  15 O :   -0.440821
  16 F :   -0.239539
  17 O :   -0.462125
  18 H :    0.025389
  19 H :    0.034361
  20 H :    0.000689
  21 H :    0.023729

  Mayer bond orders larger than 0.100000
B(  0-C ,  1-N ) :   0.9423 B(  0-C ,  2-C ) :   1.0778 B(  0-C , 12-H ) :  -0.1973
B(  0-C , 18-H ) :   0.1602 B(  0-C , 19-H ) :   0.1464 B(  0-C , 20-H ) :   0.7060
B(  0-C , 21-H ) :   0.7703 B(  1-N ,  7-C ) :   1.0441 B(  1-N ,  8-C ) :   0.2120
B(  1-N ,  9-N ) :   0.1127 B(  1-N , 12-H ) :   1.2395 B(  1-N , 20-H ) :   0.2580
B(  1-N , 21-H ) :   0.1592 B(  2-C ,  3-C ) :   1.2078 B(  2-C ,  4-H ) :   0.1465
B(  2-C ,  5-H ) :   0.1732 B(  2-C , 18-H ) :   0.7938 B(  2-C , 19-H ) :   0.7502
B(  2-C , 20-H ) :   0.1612 B(  3-C ,  4-H ) :   0.9277 B(  3-C ,  5-H ) :   0.7593
B(  3-C ,  6-S ) :   0.9613 B(  3-C , 17-O ) :   0.1305 B(  3-C , 18-H ) :   0.1279
B(  3-C , 19-H ) :   0.1291 B(  5-H ,  6-S ) :   0.1018 B(  6-S , 15-O ) :   1.5510
B(  6-S , 16-F ) :   0.6326 B(  6-S , 17-O ) :   1.3508 B(  7-C ,  8-C ) :   1.4240
B(  7-C ,  9-N ) :   1.1189 B(  7-C , 11-H ) :  -0.1006 B(  7-C , 12-H ) :  -0.2086
B(  7-C , 13-H ) :   0.1220 B(  7-C , 14-H ) :   0.2174 B(  8-C ,  9-N ) :   0.1376
B(  8-C , 13-H ) :   0.6999 B(  8-C , 14-H ) :   0.7249 B(  9-N , 10-H ) :   0.9158
B(  9-N , 11-H ) :   1.1315 B(  9-N , 17-O ) :  -0.1004 B(  9-N , 20-H ) :   0.1168
B( 10-H , 11-H ) :  -0.2227 B( 10-H , 17-O ) :   0.1869 B( 13-H , 14-H ) :   0.1438
B( 20-H , 21-H ) :  -0.1589

FINAL SINGLE POINT ENERGY      -954.284057997495

DIPOLE MOMENT
-------------
                                X             Y             Z
Electronic contribution:    -17.83841      -1.16096      -0.13268
Nuclear contribution   :     16.78714       2.58368       1.61768
                        -----------------------------------------
Total Dipole Moment    :     -1.05127       1.42272       1.48501
                        -----------------------------------------
Magnitude (a.u.)       :      2.30966
Magnitude (Debye)      :      5.87070

Rotational constants in cm-1:     0.059928     0.020911     0.017993
Rotational constants in MHz :  1796.610847   626.896941   539.414615

                             ****ORCA TERMINATED NORMALLY****
TOTAL RUN TIME: 0 days 0 hours 2 minutes 9 seconds 813 msec
