                         Program Version 5.0.0 -  RELEASE  -
|  1> !CAM-B3LYP RIJCOSX def2-SVPD def2/J TightSCF xyzfile
|  2>
|  3> *xyzfile 0 1 D8.xyz
|  4>
|  5> %MaxCore 64000
|  6>
|  7> %pal nprocs 4
|  8> end
|  9>
| 10> %scf
| 11>   MaxIter 150
| 12> end
| 13>
| 14>
| 15>                          ****END OF INPUT****

CARTESIAN COORDINATES (ANGSTROEM)
---------------------------------
  C      3.380928    2.083045   -3.350127
  N      4.535924    1.182447   -3.428518
  C      2.495557    1.816150   -2.136364
  C      1.872181    0.427903   -2.077497
  H      2.614270   -0.365825   -2.198894
  H      1.389953    0.273087   -1.112360
  S      0.579024    0.140472   -3.297943
  C      4.671956    0.122273   -4.220598
  C      5.866023   -0.507849   -4.224284
  N      3.698881   -0.312844   -4.986988
  H      2.731405   -0.050091   -4.849000
  H      3.890046   -1.055172   -5.643730
  H      5.251933    1.303459   -2.721014
  H      6.695165   -0.062322   -3.851596
  H      5.975383   -1.396884   -4.691414
  O      0.228860   -1.246868   -3.127871
  O     -0.439269    1.118966   -3.014550
  F      1.247881    0.403474   -4.595647
  H      1.697003    2.561969   -2.141109
  H      3.080787    1.987436   -1.225838
  H      2.806463    1.986511   -4.268484
  H      3.778714    3.098282   -3.307383

 Total Charge           Charge          ....    0
 Multiplicity           Mult            ....    1
 Number of Electrons    NEL             ....   96
 Basis Dimension        Dim             ....  324

ORBITAL ENERGIES
----------------

  NO   OCC          E(Eh)            E(eV)
   0   2.0000     -89.236182     -2428.2400
   1   2.0000     -24.904500      -677.6859
   2   2.0000     -19.246536      -523.7249
   3   2.0000     -19.245652      -523.7008
   4   2.0000     -14.419694      -392.3798
   5   2.0000     -14.408858      -392.0850
   6   2.0000     -10.330080      -281.0958
   7   2.0000     -10.319042      -280.7954
   8   2.0000     -10.318044      -280.7683
   9   2.0000     -10.299155      -280.2543
  10   2.0000     -10.175398      -276.8867
  11   2.0000      -8.289819      -225.5774
  12   2.0000      -6.264188      -170.4572
  13   2.0000      -6.257446      -170.2738
  14   2.0000      -6.255888      -170.2314
  15   2.0000      -1.461917       -39.7808
  16   2.0000      -1.222357       -33.2620
  17   2.0000      -1.123696       -30.5773
  18   2.0000      -1.057699       -28.7814
  19   2.0000      -0.975779       -26.5523
  20   2.0000      -0.921010       -25.0619
  21   2.0000      -0.853985       -23.2381
  22   2.0000      -0.807870       -21.9833
  23   2.0000      -0.782117       -21.2825
  24   2.0000      -0.722672       -19.6649
  25   2.0000      -0.692983       -18.8570
  26   2.0000      -0.688621       -18.7383
  27   2.0000      -0.673974       -18.3398
  28   2.0000      -0.640756       -17.4359
  29   2.0000      -0.613432       -16.6923
  30   2.0000      -0.592667       -16.1273
  31   2.0000      -0.573135       -15.5958
  32   2.0000      -0.566548       -15.4165
  33   2.0000      -0.559760       -15.2318
  34   2.0000      -0.544947       -14.8288
  35   2.0000      -0.532947       -14.5022
  36   2.0000      -0.501666       -13.6510
  37   2.0000      -0.481192       -13.0939
  38   2.0000      -0.480085       -13.0638
  39   2.0000      -0.464317       -12.6347
  40   2.0000      -0.457554       -12.4507
  41   2.0000      -0.449759       -12.2386
  42   2.0000      -0.431951       -11.7540
  43   2.0000      -0.425688       -11.5836
  44   2.0000      -0.410984       -11.1835
  45   2.0000      -0.405471       -11.0334
  46   2.0000      -0.331989        -9.0339
  47   2.0000      -0.225907        -6.1472
  48   0.0000       0.022240         0.6052
  49   0.0000       0.040805         1.1104
  50   0.0000       0.051440         1.3998
  51   0.0000       0.052714         1.4344
  52   0.0000       0.072608         1.9758

MULLIKEN ATOMIC CHARGES
-----------------------
   0 C :    1.083230
   1 N :   -0.272055
   2 C :    0.335408
   3 C :    0.304747
   4 H :    0.046703
   5 H :   -0.220851
   6 S :    1.447759
   7 C :    0.481455
   8 C :    0.520106
   9 N :    0.751371
  10 H :   -0.490852
  11 H :   -0.202168
  12 H :   -0.269368
  13 H :   -0.465846
  14 H :   -0.362374
  15 O :   -0.654957
  16 O :   -0.691613
  17 F :   -0.556603
  18 H :   -0.053494
  19 H :   -0.108395
  20 H :   -0.207399
  21 H :   -0.414807
Sum of atomic charges:   -0.0000000

LOEWDIN ATOMIC CHARGES
----------------------
   0 C :    0.069864
   1 N :   -0.001606
   2 C :   -0.021586
   3 C :   -0.031206
   4 H :    0.025848
   5 H :    0.036182
   6 S :    1.128890
   7 C :   -0.236867
   8 C :    0.145154
   9 N :    0.228563
  10 H :   -0.109255
  11 H :    0.021615
  12 H :    0.038679
  13 H :   -0.107433
  14 H :   -0.108333
  15 O :   -0.446863
  16 O :   -0.447558
  17 F :   -0.279654
  18 H :    0.029669
  19 H :    0.035309
  20 H :    0.003954
  21 H :    0.026636

  Mayer bond orders larger than 0.100000
B(  0-C ,  1-N ) :   0.9468 B(  0-C ,  2-C ) :   1.0780 B(  0-C , 12-H ) :  -0.2003
B(  0-C , 18-H ) :   0.1537 B(  0-C , 19-H ) :   0.1542 B(  0-C , 20-H ) :   0.6961
B(  0-C , 21-H ) :   0.7818 B(  1-N ,  7-C ) :   1.0400 B(  1-N ,  8-C ) :   0.2123
B(  1-N ,  9-N ) :   0.1130 B(  1-N , 12-H ) :   1.2334 B(  1-N , 20-H ) :   0.2585
B(  1-N , 21-H ) :   0.1586 B(  2-C ,  3-C ) :   1.2200 B(  2-C ,  4-H ) :   0.1602
B(  2-C ,  5-H ) :   0.1819 B(  2-C , 18-H ) :   0.8141 B(  2-C , 19-H ) :   0.7386
B(  2-C , 20-H ) :   0.1546 B(  3-C ,  4-H ) :   0.9205 B(  3-C ,  5-H ) :   0.7259
B(  3-C ,  6-S ) :   0.9919 B(  3-C , 17-F ) :   0.1003 B(  3-C , 18-H ) :   0.1446
B(  3-C , 19-H ) :   0.1426 B(  5-H ,  6-S ) :   0.1271 B(  6-S , 15-O ) :   1.5370
B(  6-S , 16-O ) :   1.5241 B(  6-S , 17-F ) :   0.6317 B(  7-C ,  8-C ) :   1.4197
B(  7-C ,  9-N ) :   1.0891 B(  7-C , 11-H ) :  -0.1097 B(  7-C , 12-H ) :  -0.2134
B(  7-C , 13-H ) :   0.1172 B(  7-C , 14-H ) :   0.2111 B(  7-C , 20-H ) :  -0.1011
B(  8-C ,  9-N ) :   0.1462 B(  8-C , 13-H ) :   0.7053 B(  8-C , 14-H ) :   0.7263
B(  9-N , 10-H ) :   0.9361 B(  9-N , 11-H ) :   1.1434 B(  9-N , 20-H ) :   0.1125
B( 10-H , 11-H ) :  -0.1924 B( 10-H , 17-F ) :   0.1183 B( 13-H , 14-H ) :   0.1389
B( 15-O , 16-O ) :   0.1003 B( 20-H , 21-H ) :  -0.1670

FINAL SINGLE POINT ENERGY      -954.291743497735

DIPOLE MOMENT
-------------
                                X             Y             Z
Electronic contribution:    -14.57650      -2.39963      -2.86313
Nuclear contribution   :     14.93782       3.36795       3.35075
                        -----------------------------------------
Total Dipole Moment    :      0.36132       0.96832       0.48762
                        -----------------------------------------
Magnitude (a.u.)       :      1.14279
Magnitude (Debye)      :      2.90475

Rotational constants in cm-1:     0.059219     0.021387     0.018380
Rotational constants in MHz :  1775.354399   641.172207   551.019443

                             ****ORCA TERMINATED NORMALLY****
TOTAL RUN TIME: 0 days 0 hours 2 minutes 18 seconds 237 msec
