                         Program Version 5.0.0 -  RELEASE  -
|  1> !CAM-B3LYP RIJCOSX def2-SVPD def2/J TightSCF xyzfile
|  2>
|  3> *xyzfile 0 1 D9.xyz
|  4>
|  5> %MaxCore 64000
|  6>
|  7> %pal nprocs 4
|  8> end
|  9>
| 10> %scf
| 11>   MaxIter 150
| 12> end
| 13>
| 14>
| 15>                          ****END OF INPUT****

CARTESIAN COORDINATES (ANGSTROEM)
---------------------------------
  C      3.380928    2.083045   -3.350127
  N      4.535924    1.182447   -3.428518
  C      2.495557    1.816150   -2.136364
  C      1.872181    0.427903   -2.077497
  H      2.614270   -0.365825   -2.198894
  H      1.389953    0.273087   -1.112360
  S      0.579024    0.140472   -3.297943
  C      4.671956    0.122273   -4.220598
  N      5.866023   -0.507849   -4.224284
  C      3.698881   -0.312844   -4.986988
  H      2.731405   -0.050091   -4.849000
  H      3.890046   -1.055172   -5.643730
  H      5.251933    1.303459   -2.721014
  H      6.695165   -0.062322   -3.851596
  H      5.975383   -1.396884   -4.691414
  O      0.228860   -1.246868   -3.127871
  O     -0.439269    1.118966   -3.014550
  F      1.247881    0.403474   -4.595647
  H      1.697003    2.561969   -2.141109
  H      3.080787    1.987436   -1.225838
  H      2.806463    1.986511   -4.268484
  H      3.778714    3.098282   -3.307383

 Total Charge           Charge          ....    0
 Multiplicity           Mult            ....    1
 Number of Electrons    NEL             ....   96
 Basis Dimension        Dim             ....  324

ORBITAL ENERGIES
----------------

  NO   OCC          E(Eh)            E(eV)
   0   2.0000     -89.218792     -2427.7668
   1   2.0000     -24.873838      -676.8515
   2   2.0000     -19.229688      -523.2664
   3   2.0000     -19.228018      -523.2210
   4   2.0000     -14.421725      -392.4351
   5   2.0000     -14.412076      -392.1725
   6   2.0000     -10.317807      -280.7618
   7   2.0000     -10.316531      -280.7271
   8   2.0000     -10.312342      -280.6131
   9   2.0000     -10.291515      -280.0464
  10   2.0000     -10.175174      -276.8806
  11   2.0000      -8.271990      -225.0923
  12   2.0000      -6.246131      -169.9659
  13   2.0000      -6.239772      -169.7928
  14   2.0000      -6.238340      -169.7539
  15   2.0000      -1.433098       -38.9966
  16   2.0000      -1.204166       -32.7670
  17   2.0000      -1.106665       -30.1139
  18   2.0000      -1.053459       -28.6661
  19   2.0000      -0.969040       -26.3689
  20   2.0000      -0.907256       -24.6877
  21   2.0000      -0.829891       -22.5825
  22   2.0000      -0.810552       -22.0563
  23   2.0000      -0.774635       -21.0789
  24   2.0000      -0.731456       -19.9039
  25   2.0000      -0.667345       -18.1594
  26   2.0000      -0.661781       -18.0080
  27   2.0000      -0.641523       -17.4567
  28   2.0000      -0.631700       -17.1894
  29   2.0000      -0.619129       -16.8473
  30   2.0000      -0.590672       -16.0730
  31   2.0000      -0.572622       -15.5818
  32   2.0000      -0.555757       -15.1229
  33   2.0000      -0.542439       -14.7605
  34   2.0000      -0.536085       -14.5876
  35   2.0000      -0.520922       -14.1750
  36   2.0000      -0.490605       -13.3501
  37   2.0000      -0.482305       -13.1242
  38   2.0000      -0.470972       -12.8158
  39   2.0000      -0.455392       -12.3919
  40   2.0000      -0.450394       -12.2558
  41   2.0000      -0.442586       -12.0434
  42   2.0000      -0.425841       -11.5877
  43   2.0000      -0.409685       -11.1481
  44   2.0000      -0.395505       -10.7622
  45   2.0000      -0.388757       -10.5786
  46   2.0000      -0.327173        -8.9028
  47   2.0000      -0.240644        -6.5483
  48   0.0000       0.030649         0.8340
  49   0.0000       0.045473         1.2374
  50   0.0000       0.055389         1.5072
  51   0.0000       0.059334         1.6146
  52   0.0000       0.078810         2.1445

MULLIKEN ATOMIC CHARGES
-----------------------
   0 C :    1.073601
   1 N :   -0.452048
   2 C :    0.313915
   3 C :    0.359469
   4 H :    0.006786
   5 H :   -0.226551
   6 S :    1.474082
   7 C :    0.909489
   8 N :    0.160904
   9 C :    0.928591
  10 H :   -0.871119
  11 H :   -0.487215
  12 H :   -0.325284
  13 H :   -0.189155
  14 H :   -0.054721
  15 O :   -0.666892
  16 O :   -0.710010
  17 F :   -0.584740
  18 H :   -0.075247
  19 H :   -0.106805
  20 H :   -0.080586
  21 H :   -0.396463
Sum of atomic charges:   -0.0000000

LOEWDIN ATOMIC CHARGES
----------------------
   0 C :    0.077751
   1 N :   -0.010375
   2 C :   -0.019982
   3 C :   -0.031446
   4 H :    0.022333
   5 H :    0.033216
   6 S :    1.126699
   7 C :   -0.226715
   8 N :    0.186971
   9 C :    0.185748
  10 H :   -0.175532
  11 H :   -0.082310
  12 H :    0.024690
  13 H :   -0.012619
  14 H :    0.002983
  15 O :   -0.452253
  16 O :   -0.456311
  17 F :   -0.291152
  18 H :    0.029388
  19 H :    0.031480
  20 H :    0.010363
  21 H :    0.027074

  Mayer bond orders larger than 0.100000
B(  0-C ,  1-N ) :   0.9138 B(  0-C ,  2-C ) :   1.0556 B(  0-C , 12-H ) :  -0.1852
B(  0-C , 18-H ) :   0.1417 B(  0-C , 19-H ) :   0.1364 B(  0-C , 20-H ) :   0.6896
B(  0-C , 21-H ) :   0.8120 B(  1-N ,  7-C ) :   0.9080 B(  1-N ,  8-N ) :   0.1755
B(  1-N ,  9-C ) :   0.3104 B(  1-N , 12-H ) :   1.3964 B(  1-N , 20-H ) :   0.1913
B(  1-N , 21-H ) :   0.1495 B(  2-C ,  3-C ) :   1.2077 B(  2-C ,  4-H ) :   0.1594
B(  2-C ,  5-H ) :   0.1893 B(  2-C , 18-H ) :   0.8301 B(  2-C , 19-H ) :   0.7547
B(  2-C , 20-H ) :   0.1539 B(  3-C ,  4-H ) :   0.9427 B(  3-C ,  5-H ) :   0.6935
B(  3-C ,  6-S ) :   0.9903 B(  3-C , 17-F ) :   0.1132 B(  3-C , 18-H ) :   0.1509
B(  3-C , 19-H ) :   0.1406 B(  5-H ,  6-S ) :   0.1187 B(  6-S , 15-O ) :   1.5217
B(  6-S , 16-O ) :   1.5037 B(  6-S , 17-F ) :   0.6456 B(  7-C ,  8-N ) :   0.9294
B(  7-C ,  9-C ) :   1.7261 B(  7-C , 10-H ) :  -0.1254 B(  7-C , 11-H ) :   0.3862
B(  7-C , 12-H ) :  -0.3147 B(  8-N ,  9-C ) :   0.3501 B(  8-N , 11-H ) :   0.1026
B(  8-N , 13-H ) :   1.1764 B(  8-N , 14-H ) :   1.1451 B(  9-C , 10-H ) :  -0.1759
B(  9-C , 11-H ) :   0.6549 B( 10-H , 11-H ) :  -0.1451 B( 10-H , 17-F ) :   0.2026
B( 13-H , 14-H ) :  -0.1784 B( 20-H , 21-H ) :  -0.1995

FINAL SINGLE POINT ENERGY      -954.288580183749

DIPOLE MOMENT
-------------
                                X             Y             Z
Electronic contribution:    -12.57179      -2.61443      -2.40290
Nuclear contribution   :     14.72648       3.38697       3.27638
                        -----------------------------------------
Total Dipole Moment    :      2.15470       0.77253       0.87347
                        -----------------------------------------
Magnitude (a.u.)       :      2.45000
Magnitude (Debye)      :      6.22739

Rotational constants in cm-1:     0.059651     0.020833     0.018010
Rotational constants in MHz :  1788.283887   624.555661   539.921162

                             ****ORCA TERMINATED NORMALLY****
TOTAL RUN TIME: 0 days 0 hours 2 minutes 9 seconds 258 msec
