                         Program Version 5.0.0 -  RELEASE  -
|  1> !DLPNO-CCSD(T) aug-cc-pVTZ aug-cc-pVTZ/C TightSCF TightPNO RIJCOSX def2/J
|  2> *xyz -1 1
|  3> C         -2.45380        0.05510        6.94145
|  4> C         -2.07842        1.48042        6.56410
|  5> O         -0.90125        1.85816        6.82810
|  6> O         -2.93658        2.17731        5.96415
|  7> H         -3.47026       -0.13135        6.66407
|  8> H         -2.34265       -0.07527        7.99765
|  9> H         -1.81248       -0.63046        6.42801
| 10> *
| 11> %MaxCore 64000
| 12>
| 13> %pal nprocs 8
| 14> end
| 15>
| 16> %scf
| 17>   MaxIter 150
| 18> end
| 19>
| 20>
| 21>                          ****END OF INPUT****

CARTESIAN COORDINATES (ANGSTROEM)
---------------------------------
  C     -2.453800    0.055100    6.941450
  C     -2.078420    1.480420    6.564100
  O     -0.901250    1.858160    6.828100
  O     -2.936580    2.177310    5.964150
  H     -3.470260   -0.131350    6.664070
  H     -2.342650   -0.075270    7.997650
  H     -1.812480   -0.630460    6.428010

 Total Charge           Charge          ....   -1
 Multiplicity           Mult            ....    1
 Number of Electrons    NEL             ....   32
 Basis Dimension        Dim             ....  253

ORBITAL ENERGIES
----------------

  NO   OCC          E(Eh)            E(eV)
   0   2.0000     -20.281952      -551.9000
   1   2.0000     -20.278069      -551.7943
   2   2.0000     -11.124943      -302.7251
   3   2.0000     -11.039137      -300.3902
   4   2.0000      -1.156461       -31.4689
   5   2.0000      -1.048888       -28.5417
   6   2.0000      -0.806801       -21.9542
   7   2.0000      -0.511572       -13.9206
   8   2.0000      -0.422699       -11.5022
   9   2.0000      -0.420026       -11.4295
  10   2.0000      -0.412147       -11.2151
  11   2.0000      -0.355069        -9.6619
  12   2.0000      -0.314534        -8.5589
  13   2.0000      -0.197156        -5.3649
  14   2.0000      -0.192394        -5.2353
  15   2.0000      -0.180732        -4.9180
  16   0.0000       0.132469         3.6047
  17   0.0000       0.143206         3.8968
  18   0.0000       0.145231         3.9519
  19   0.0000       0.184251         5.0137
  20   0.0000       0.221311         6.0222

MULLIKEN ATOMIC CHARGES
-----------------------
   0 C :   -0.618505
   1 C :    0.405736
   2 O :   -0.809231
   3 O :   -0.771817
   4 H :    0.307006
   5 H :    0.245066
   6 H :    0.241745
Sum of atomic charges:   -1.0000000

LOEWDIN ATOMIC CHARGES
----------------------
   0 C :    0.480325
   1 C :   -1.227819
   2 O :    0.213273
   3 O :    0.224507
   4 H :   -0.241042
   5 H :   -0.225861
   6 H :   -0.223383

  Mayer bond orders larger than 0.100000
B(  0-C ,  1-C ) :   0.7110 B(  0-C ,  4-H ) :   0.9025 B(  0-C ,  5-H ) :   0.9591
B(  0-C ,  6-H ) :   0.9594 B(  1-C ,  2-O ) :   1.4744 B(  1-C ,  3-O ) :   1.4606

E(0)                                       ...   -227.326906025
E(0)                                       ...   -227.326906025
E(CORR)(strong-pairs)                      ...     -0.837028818
E(CORR)(weak-pairs)                        ...     -0.000623684
E(CORR)(corrected)                         ...     -0.837652502
E(TOT)                                     ...   -228.164558527
E(CCSD(T))                                 ...   -228.200717358
FINAL SINGLE POINT ENERGY      -228.200717358032

DIPOLE MOMENT
-------------
                                X             Y             Z
Electronic contribution:      0.82140       3.19284      -0.86036
Nuclear contribution   :     -1.26064      -4.68337       1.27880
                        -----------------------------------------
Total Dipole Moment    :     -0.43924      -1.49053       0.41844
                        -----------------------------------------
Magnitude (a.u.)       :      1.60926
Magnitude (Debye)      :      4.09040

Rotational constants in cm-1:     0.391994     0.333933     0.186475
Rotational constants in MHz : 11751.676689 10011.065304  5590.392476

                             ****ORCA TERMINATED NORMALLY****
TOTAL RUN TIME: 0 days 0 hours 3 minutes 22 seconds 239 msec
