                         Program Version 5.0.0 -  RELEASE  -
|  1> !DLPNO-CCSD(T) aug-cc-pVTZ aug-cc-pVTZ/C TightSCF TightPNO RIJCOSX def2/J
|  2> *xyz 1 1
|  3> C         -0.69912        3.48945        3.75516
|  4> N         -1.08067        3.79296        5.15686
|  5> H         -0.87449        4.76274        5.42734
|  6> H         -0.68079        3.13476        5.83900
|  7> H         -2.05755        3.53169        5.34620
|  8> H         -1.14600        4.20803        3.10030
|  9> H         -1.04188        2.50941        3.49644
| 10> H          0.36562        3.53208        3.65813
| 11> *
| 12> %MaxCore 64000
| 13>
| 14> %pal nprocs 8
| 15> end
| 16>
| 17> %scf
| 18>   MaxIter 150
| 19> end
| 20>
| 21>
| 22>                          ****END OF INPUT****

CARTESIAN COORDINATES (ANGSTROEM)
---------------------------------
  C     -0.699120    3.489450    3.755160
  N     -1.080670    3.792960    5.156860
  H     -0.874490    4.762740    5.427340
  H     -0.680790    3.134760    5.839000
  H     -2.057550    3.531690    5.346200
  H     -1.146000    4.208030    3.100300
  H     -1.041880    2.509410    3.496440
  H      0.365620    3.532080    3.658130

 Total Charge           Charge          ....    1
 Multiplicity           Mult            ....    1
 Number of Electrons    NEL             ....   18
 Basis Dimension        Dim             ....  230

ORBITAL ENERGIES
----------------

  NO   OCC          E(Eh)            E(eV)
   0   2.0000     -15.914506      -433.0557
   1   2.0000     -11.483713      -312.4877
   2   2.0000      -1.530973       -41.6599
   3   2.0000      -1.184020       -32.2188
   4   2.0000      -1.005365       -27.3574
   5   2.0000      -0.963402       -26.2155
   6   2.0000      -0.878209       -23.8973
   7   2.0000      -0.786408       -21.3992
   8   2.0000      -0.779058       -21.1992
   9   0.0000      -0.128153        -3.4872
  10   0.0000      -0.087316        -2.3760
  11   0.0000      -0.084797        -2.3075
  12   0.0000      -0.083355        -2.2682
  13   0.0000      -0.047215        -1.2848

MULLIKEN ATOMIC CHARGES
-----------------------
   0 C :   -0.816875
   1 N :    0.071078
   2 H :    0.172427
   3 H :    0.184005
   4 H :    0.192476
   5 H :    0.409861
   6 H :    0.395953
   7 H :    0.391075
Sum of atomic charges:    1.0000000

LOEWDIN ATOMIC CHARGES
----------------------
   0 C :    0.693577
   1 N :    1.096790
   2 H :   -0.114813
   3 H :   -0.129214
   4 H :   -0.131268
   5 H :   -0.138151
   6 H :   -0.138006
   7 H :   -0.138913

  Mayer bond orders larger than 0.100000
B(  0-C ,  1-N ) :   0.8140 B(  0-C ,  5-H ) :   0.8311 B(  0-C ,  6-H ) :   0.8524
B(  0-C ,  7-H ) :   0.8559 B(  1-N ,  2-H ) :   0.9931 B(  1-N ,  3-H ) :   0.9686
B(  1-N ,  4-H ) :   0.9646

E(0)                                       ...    -95.612698708
E(0)                                       ...    -95.612698708
E(CORR)(strong-pairs)                      ...     -0.429607814
E(CORR)(weak-pairs)                        ...     -0.000232068
E(CORR)(corrected)                         ...     -0.429839882
E(TOT)                                     ...    -96.042538590
E(CCSD(T))                                 ...    -96.056033959
FINAL SINGLE POINT ENERGY       -96.056033959055

DIPOLE MOMENT
-------------
                                X             Y             Z
Electronic contribution:     -0.24832       0.28084       0.98716
Nuclear contribution   :     -0.00699      -0.18064      -0.14199
                        -----------------------------------------
Total Dipole Moment    :     -0.25531       0.10020       0.84517
                        -----------------------------------------
Magnitude (a.u.)       :      0.88856
Magnitude (Debye)      :      2.25854

Rotational constants in cm-1:     2.906310     0.688008     0.676648
Rotational constants in MHz : 87128.982229 20625.947414 20285.402367

                             ****ORCA TERMINATED NORMALLY****
TOTAL RUN TIME: 0 days 0 hours 1 minutes 11 seconds 269 msec
