                         Program Version 5.0.0 -  RELEASE  -
|  1> !DLPNO-CCSD(T) aug-cc-pVTZ aug-cc-pVTZ/C TightSCF TightPNO RIJCOSX def2/J
|  2>
|  3> *xyzfile 0 1 B.xyz
|  4>
|  5> %MaxCore 64000
|  6>
|  7> %pal nprocs 18
|  8> end
|  9>
| 10> %scf
| 11>   MaxIter 150
| 12> end
| 13>
| 14>
| 15>                          ****END OF INPUT****

CARTESIAN COORDINATES (ANGSTROEM)
---------------------------------
  C     -0.699123    3.489451    3.755163
  H     -0.966716    4.349013    3.140491
  N     -1.080669    3.792957    5.156857
  C      0.776956    3.138391    3.617408
  H     -1.331455    2.656510    3.446323
  H      1.371398    3.888342    4.149744
  H      1.046926    3.232057    2.561331
  C      1.118917    1.731170    4.115155
  H      2.200573    1.654226    4.254882
  C      0.659466    0.635182    3.153306
  H      0.677024    1.576674    5.103150
  H      1.312288    0.638870    2.274207
  H     -0.339563    0.868049    2.772876
  C      0.639957   -0.771175    3.755619
  C     -0.341821   -0.965537    4.915046
  H      1.648266   -1.028665    4.097015
  H      0.398568   -1.482386    2.958453
  H     -0.279892   -2.005646    5.252547
  C     -1.789164   -0.639231    4.557496
  H     -0.032380   -0.352918    5.765118
  H     -2.107151   -1.270102    3.719619
  H     -1.856352    0.391636    4.197604
  C     -2.790700   -0.785275    5.702812
  H     -2.867308   -1.835651    6.001675
  H     -3.774554   -0.486577    5.334807
  C     -2.453797    0.055101    6.941445
  C     -2.078419    1.480421    6.564098
  H     -1.625584   -0.382163    7.498914
  H     -3.325274    0.087746    7.599175
  H     -0.874488    4.762737    5.427344
  H     -0.680793    3.134762    5.839000
  H     -2.057550    3.531691    5.346197
  O     -0.901252    1.858156    6.828104
  O     -2.936582    2.177309    5.964151

 Total Charge           Charge          ....    0
 Multiplicity           Mult            ....    1
 Number of Electrons    NEL             ....  104
 Basis Dimension        Dim             .... 1081

ORBITAL ENERGIES
----------------

  NO   OCC          E(Eh)            E(eV)
   0   2.0000     -20.480921      -557.3142
   1   2.0000     -20.479009      -557.2622
   2   2.0000     -15.646668      -425.7675
   3   2.0000     -11.315561      -307.9121
   4   2.0000     -11.297543      -307.4218
   5   2.0000     -11.246735      -306.0392
   6   2.0000     -11.220538      -305.3264
   7   2.0000     -11.217774      -305.2511
   8   2.0000     -11.211554      -305.0819
   9   2.0000     -11.203589      -304.8652
  10   2.0000     -11.202288      -304.8297
  11   2.0000     -11.200480      -304.7805
  12   2.0000     -11.196378      -304.6689
  13   2.0000      -1.371110       -37.3098
  14   2.0000      -1.290625       -35.1197
  15   2.0000      -1.258770       -34.2529
  16   2.0000      -1.101880       -29.9837
  17   2.0000      -1.069991       -29.1159
  18   2.0000      -1.033827       -28.1319
  19   2.0000      -0.975004       -26.5312
  20   2.0000      -0.933179       -25.3931
  21   2.0000      -0.882706       -24.0197
  22   2.0000      -0.832475       -22.6528
  23   2.0000      -0.801426       -21.8079
  24   2.0000      -0.773061       -21.0360
  25   2.0000      -0.752738       -20.4831
  26   2.0000      -0.731852       -19.9147
  27   2.0000      -0.687961       -18.7204
  28   2.0000      -0.665085       -18.0979
  29   2.0000      -0.643603       -17.5133
  30   2.0000      -0.640455       -17.4277
  31   2.0000      -0.620821       -16.8934
  32   2.0000      -0.615748       -16.7554
  33   2.0000      -0.591991       -16.1089
  34   2.0000      -0.586904       -15.9705
  35   2.0000      -0.570170       -15.5151
  36   2.0000      -0.564827       -15.3697
  37   2.0000      -0.556930       -15.1548
  38   2.0000      -0.536719       -14.6049
  39   2.0000      -0.530259       -14.4291
  40   2.0000      -0.509498       -13.8641
  41   2.0000      -0.503836       -13.7101
  42   2.0000      -0.497020       -13.5246
  43   2.0000      -0.478270       -13.0144
  44   2.0000      -0.464707       -12.6453
  45   2.0000      -0.459898       -12.5145
  46   2.0000      -0.442575       -12.0431
  47   2.0000      -0.436492       -11.8776
  48   2.0000      -0.431186       -11.7332
  49   2.0000      -0.399870       -10.8810
  50   2.0000      -0.389603       -10.6016
  51   2.0000      -0.383825       -10.4444
  52   0.0000       0.015896         0.4325
  53   0.0000       0.028641         0.7794
  54   0.0000       0.030582         0.8322
  55   0.0000       0.035342         0.9617
  56   0.0000       0.043350         1.1796

MULLIKEN ATOMIC CHARGES
-----------------------
   0 C :   -0.410154
   1 H :    0.401012
   2 N :    0.108660
   3 C :   -0.575315
   4 H :    0.347696
   5 H :    0.177195
   6 H :    0.237394
   7 C :   -0.529567
   8 H :    0.233022
   9 C :   -0.291609
  10 H :    0.497729
  11 H :    0.496933
  12 H :   -0.041698
  13 C :   -0.743013
  14 C :   -0.410520
  15 H :    0.242724
  16 H :    0.031864
  17 H :    0.368504
  18 C :   -0.544904
  19 H :    0.202752
  20 H :    0.449707
  21 H :    0.383795
  22 C :   -0.586446
  23 H :    0.246582
  24 H :    0.167739
  25 C :   -0.250881
  26 C :    1.086397
  27 H :    0.177623
  28 H :    0.362740
  29 H :   -0.030108
  30 H :    0.164730
  31 H :    0.148537
  32 O :   -1.025217
  33 O :   -1.093906
Sum of atomic charges:    0.0000000

LOEWDIN ATOMIC CHARGES
----------------------
   0 C :    0.326107
   1 H :   -0.118221
   2 N :    1.060596
   3 C :    0.325414
   4 H :   -0.139859
   5 H :   -0.136831
   6 H :   -0.137800
   7 C :    0.307617
   8 H :   -0.128045
   9 C :    0.290812
  10 H :   -0.208108
  11 H :   -0.134548
  12 H :   -0.175090
  13 C :    0.307329
  14 C :    0.291649
  15 H :   -0.138434
  16 H :   -0.141779
  17 H :   -0.130643
  18 C :    0.278351
  19 H :   -0.182753
  20 H :   -0.127618
  21 H :   -0.185768
  22 C :    0.285238
  23 H :   -0.141887
  24 H :   -0.147065
  25 C :    0.261228
  26 C :   -0.970747
  27 H :   -0.174456
  28 H :   -0.153194
  29 H :   -0.119078
  30 H :   -0.506249
  31 H :   -0.416165
  32 O :    0.507918
  33 O :    0.472079

  Mayer bond orders larger than 0.100000
B(  0-C ,  1-H ) :   0.8604 B(  0-C ,  2-N ) :   0.7118 B(  0-C ,  3-C ) :   0.8114
B(  0-C ,  4-H ) :   0.9273 B(  0-C ,  7-C ) :   0.1072 B(  2-N , 29-H ) :   1.1691
B(  2-N , 30-H ) :   0.8277 B(  2-N , 31-H ) :   1.0033 B(  3-C ,  5-H ) :   1.0892
B(  3-C ,  6-H ) :   0.9896 B(  3-C ,  7-C ) :   0.9122 B(  7-C ,  8-H ) :   1.0117
B(  7-C ,  9-C ) :   0.7352 B(  7-C , 10-H ) :   0.8696 B(  7-C , 12-H ) :   0.1142
B(  9-C , 11-H ) :   0.7452 B(  9-C , 12-H ) :   1.2736 B(  9-C , 13-C ) :   0.8985
B( 13-C , 14-C ) :   0.8765 B( 13-C , 15-H ) :   0.9955 B( 13-C , 16-H ) :   1.2208
B( 14-C , 17-H ) :   0.8700 B( 14-C , 18-C ) :   0.8719 B( 14-C , 19-H ) :   1.0265
B( 14-C , 21-H ) :   0.1420 B( 18-C , 20-H ) :   0.7910 B( 18-C , 21-H ) :   0.9481
B( 18-C , 22-C ) :   0.8950 B( 22-C , 23-H ) :   0.9689 B( 22-C , 24-H ) :   1.0385
B( 22-C , 25-C ) :   0.9328 B( 22-C , 26-C ) :   0.1266 B( 25-C , 26-C ) :   0.6548
B( 25-C , 27-H ) :   1.0645 B( 25-C , 28-H ) :   0.9110 B( 25-C , 32-O ) :  -0.1135
B( 26-C , 28-H ) :  -0.1087 B( 26-C , 32-O ) :   1.1000 B( 26-C , 33-O ) :   0.9168
B( 30-H , 32-O ) :   0.2225 B( 30-H , 33-O ) :   0.1032 B( 32-O , 33-O ) :   0.1127

E(0)                                       ...   -595.305829395
E(0)                                       ...   -595.305829395
E(CORR)(strong-pairs)                      ...     -2.561314272
E(CORR)(weak-pairs)                        ...     -0.004414080
E(CORR)(corrected)                         ...     -2.565728351
E(TOT)                                     ...   -597.871557747
E(CCSD(T))                                 ...   -597.978772539
FINAL SINGLE POINT ENERGY      -597.978772539448

DIPOLE MOMENT
-------------
                                X             Y             Z
Electronic contribution:     -4.63813       4.83925       6.64701
Nuclear contribution   :      5.60885      -3.40606      -8.06960
                        -----------------------------------------
Total Dipole Moment    :      0.97072       1.43319      -1.42258
                        -----------------------------------------
Magnitude (a.u.)       :      2.24056
Magnitude (Debye)      :      5.69504

Rotational constants in cm-1:     0.028465     0.023505     0.015110
Rotational constants in MHz :   853.363165   704.655786   452.976312

                             ****ORCA TERMINATED NORMALLY****
TOTAL RUN TIME: 0 days 6 hours 30 minutes 59 seconds 885 msec
