                         Program Version 5.0.0 -  RELEASE  -
|  1> !DLPNO-CCSD(T) aug-cc-pVTZ aug-cc-pVTZ/C TightSCF TightPNO RIJCOSX def2/J
|  2> *xyz 0 1
|  3> C         -2.45380        0.05510        6.94145
|  4> C         -2.07842        1.48042        6.56410
|  5> F         -0.90125        1.85816        6.82810
|  6> O         -2.93658        2.17731        5.96415
|  7> H         -3.47026       -0.13135        6.66407
|  8> H         -2.34265       -0.07527        7.99765
|  9> H         -1.81248       -0.63046        6.42801
| 10> *
| 11> %MaxCore 64000
| 12>
| 13> %pal nprocs 8
| 14> end
| 15>
| 16> %scf
| 17>   MaxIter 150
| 18> end
| 19>
| 20>
| 21>                          ****END OF INPUT****

CARTESIAN COORDINATES (ANGSTROEM)
---------------------------------
  C     -2.453800    0.055100    6.941450
  C     -2.078420    1.480420    6.564100
  F     -0.901250    1.858160    6.828100
  O     -2.936580    2.177310    5.964150
  H     -3.470260   -0.131350    6.664070
  H     -2.342650   -0.075270    7.997650
  H     -1.812480   -0.630460    6.428010

 Total Charge           Charge          ....    0
 Multiplicity           Mult            ....    1
 Number of Electrons    NEL             ....   32
 Basis Dimension        Dim             ....  253

ORBITAL ENERGIES
----------------

  NO   OCC          E(Eh)            E(eV)
   0   2.0000     -26.376361      -717.7373
   1   2.0000     -20.566792      -559.6509
   2   2.0000     -11.436056      -311.1909
   3   2.0000     -11.257310      -306.3270
   4   2.0000      -1.726358       -46.9766
   5   2.0000      -1.375891       -37.4399
   6   2.0000      -1.045033       -28.4368
   7   2.0000      -0.898174       -24.4406
   8   2.0000      -0.775899       -21.1133
   9   2.0000      -0.768914       -20.9232
  10   2.0000      -0.711752       -19.3678
  11   2.0000      -0.615007       -16.7352
  12   2.0000      -0.602383       -16.3917
  13   2.0000      -0.588511       -16.0142
  14   2.0000      -0.498822       -13.5736
  15   2.0000      -0.471230       -12.8228
  16   0.0000       0.025152         0.6844
  17   0.0000       0.041435         1.1275
  18   0.0000       0.047980         1.3056
  19   0.0000       0.063470         1.7271
  20   0.0000       0.097855         2.6628

MULLIKEN ATOMIC CHARGES
-----------------------
   0 C :   -0.714958
   1 C :    0.576071
   2 F :   -0.249724
   3 O :   -0.565841
   4 H :    0.345956
   5 H :    0.306529
   6 H :    0.301968
Sum of atomic charges:    0.0000000

LOEWDIN ATOMIC CHARGES
----------------------
   0 C :    0.582434
   1 C :   -0.922060
   2 F :    0.561605
   3 O :    0.370472
   4 H :   -0.199147
   5 H :   -0.197858
   6 H :   -0.195447

  Mayer bond orders larger than 0.100000
B(  0-C ,  1-C ) :   0.8399 B(  0-C ,  4-H ) :   0.8855 B(  0-C ,  5-H ) :   0.9152
B(  0-C ,  6-H ) :   0.9170 B(  1-C ,  2-F ) :   0.9196 B(  1-C ,  3-O ) :   1.7195

E(0)                                       ...   -251.881644247
E(0)                                       ...   -251.881644247
E(CORR)(strong-pairs)                      ...     -0.838348433
E(CORR)(weak-pairs)                        ...     -0.000618503
E(CORR)(corrected)                         ...     -0.838966936
E(TOT)                                     ...   -252.720611183
E(CCSD(T))                                 ...   -252.753311795
FINAL SINGLE POINT ENERGY      -252.753311794801

DIPOLE MOMENT
-------------
                                X             Y             Z
Electronic contribution:      2.85852       4.00850      -0.42893
Nuclear contribution   :     -2.49112      -5.16552       1.01592
                        -----------------------------------------
Total Dipole Moment    :      0.36741      -1.15702       0.58698
                        -----------------------------------------
Magnitude (a.u.)       :      1.34842
Magnitude (Debye)      :      3.42741

Rotational constants in cm-1:     0.367635     0.321184     0.176974
Rotational constants in MHz : 11021.414238  9628.842971  5305.560130

                             ****ORCA TERMINATED NORMALLY****
TOTAL RUN TIME: 0 days 0 hours 2 minutes 53 seconds 10 msec
