                         Program Version 5.0.0 -  RELEASE  -
|  1> !DLPNO-CCSD(T) aug-cc-pVTZ aug-cc-pVTZ/C TightSCF TightPNO RIJCOSX def2/J
|  2> *xyz 0 1
|  3> C         -0.69912        3.48945        3.75516
|  4> C         -1.08067        3.79296        5.15686
|  5> H         -0.87449        4.76274        5.42734
|  6> H         -0.68079        3.13476        5.83900
|  7> H         -2.05755        3.53169        5.34620
|  8> H         -1.14600        4.20803        3.10030
|  9> H         -1.04188        2.50941        3.49644
| 10> H          0.36562        3.53208        3.65813
| 11> *
| 12> %MaxCore 64000
| 13>
| 14> %pal nprocs 8
| 15> end
| 16>
| 17> %scf
| 18>   MaxIter 150
| 19> end
| 20>
| 21>
| 22>                          ****END OF INPUT****

CARTESIAN COORDINATES (ANGSTROEM)
---------------------------------
  C     -0.699120    3.489450    3.755160
  C     -1.080670    3.792960    5.156860
  H     -0.874490    4.762740    5.427340
  H     -0.680790    3.134760    5.839000
  H     -2.057550    3.531690    5.346200
  H     -1.146000    4.208030    3.100300
  H     -1.041880    2.509410    3.496440
  H      0.365620    3.532080    3.658130

 Total Charge           Charge          ....    0
 Multiplicity           Mult            ....    1
 Number of Electrons    NEL             ....   18
 Basis Dimension        Dim             ....  230

ORBITAL ENERGIES
----------------

  NO   OCC          E(Eh)            E(eV)
   0   2.0000     -11.198034      -304.7140
   1   2.0000     -11.181010      -304.2508
   2   2.0000      -1.039431       -28.2844
   3   2.0000      -0.856170       -23.2976
   4   2.0000      -0.625931       -17.0325
   5   2.0000      -0.600547       -16.3417
   6   2.0000      -0.518618       -14.1123
   7   2.0000      -0.502769       -13.6810
   8   2.0000      -0.476886       -12.9767
   9   0.0000       0.033008         0.8982
  10   0.0000       0.043105         1.1729
  11   0.0000       0.043713         1.1895
  12   0.0000       0.044614         1.2140
  13   0.0000       0.067961         1.8493

MULLIKEN ATOMIC CHARGES
-----------------------
   0 C :   -0.845923
   1 C :   -1.017114
   2 H :    0.330369
   3 H :    0.342713
   4 H :    0.308766
   5 H :    0.294560
   6 H :    0.311321
   7 H :    0.275308
Sum of atomic charges:   -0.0000000

LOEWDIN ATOMIC CHARGES
----------------------
   0 C :    0.588454
   1 C :    0.600523
   2 H :   -0.202017
   3 H :   -0.219005
   4 H :   -0.220418
   5 H :   -0.182559
   6 H :   -0.181535
   7 H :   -0.183443

  Mayer bond orders larger than 0.100000
B(  0-C ,  1-C ) :   0.7747 B(  0-C ,  5-H ) :   0.9324 B(  0-C ,  6-H ) :   0.9227
B(  0-C ,  7-H ) :   0.9514 B(  1-C ,  2-H ) :   0.9024 B(  1-C ,  3-H ) :   0.8875
B(  1-C ,  4-H ) :   0.9318

E(0)                                       ...    -79.246266053
E(0)                                       ...    -79.246266053
E(CORR)(strong-pairs)                      ...     -0.404069981
E(CORR)(weak-pairs)                        ...     -0.000231298
E(CORR)(corrected)                         ...     -0.404301278
E(TOT)                                     ...    -79.650567332
E(CCSD(T))                                 ...    -79.663614287
FINAL SINGLE POINT ENERGY       -79.663614286959

DIPOLE MOMENT
-------------
                                X             Y             Z
Electronic contribution:      0.05458       0.10747      -0.06206
Nuclear contribution   :     -0.07174      -0.12630       0.09844
                        -----------------------------------------
Total Dipole Moment    :     -0.01716      -0.01884       0.03639
                        -----------------------------------------
Magnitude (a.u.)       :      0.04442
Magnitude (Debye)      :      0.11292

Rotational constants in cm-1:     2.906543     0.717882     0.705537
Rotational constants in MHz : 87135.978289 21521.550473 21151.459355

                             ****ORCA TERMINATED NORMALLY****
TOTAL RUN TIME: 0 days 0 hours 1 minutes 27 seconds 26 msec
