                         Program Version 5.0.0 -  RELEASE  -
|  1> !DLPNO-CCSD(T) aug-cc-pVTZ aug-cc-pVTZ/C TightSCF TightPNO RIJCOSX def2/J
|  2> *xyz 0 1
|  3> C         -2.45380        0.05510        6.94145
|  4> C         -2.07842        1.48042        6.56410
|  5> O         -0.90125        1.85816        6.82810
|  6> F         -2.93658        2.17731        5.96415
|  7> H         -3.47026       -0.13135        6.66407
|  8> H         -2.34265       -0.07527        7.99765
|  9> H         -1.81248       -0.63046        6.42801
| 10> *
| 11> %MaxCore 64000
| 12>
| 13> %pal nprocs 8
| 14> end
| 15>
| 16> %scf
| 17>   MaxIter 150
| 18> end
| 19>
| 20>
| 21>                          ****END OF INPUT****

CARTESIAN COORDINATES (ANGSTROEM)
---------------------------------
  C     -2.453800    0.055100    6.941450
  C     -2.078420    1.480420    6.564100
  O     -0.901250    1.858160    6.828100
  F     -2.936580    2.177310    5.964150
  H     -3.470260   -0.131350    6.664070
  H     -2.342650   -0.075270    7.997650
  H     -1.812480   -0.630460    6.428010

 Total Charge           Charge          ....    0
 Multiplicity           Mult            ....    1
 Number of Electrons    NEL             ....   32
 Basis Dimension        Dim             ....  253

ORBITAL ENERGIES
----------------

  NO   OCC          E(Eh)            E(eV)
   0   2.0000     -26.379646      -717.8267
   1   2.0000     -20.563982      -559.5744
   2   2.0000     -11.437327      -311.2255
   3   2.0000     -11.257549      -306.3335
   4   2.0000      -1.732076       -47.1322
   5   2.0000      -1.370513       -37.2936
   6   2.0000      -1.045195       -28.4412
   7   2.0000      -0.902131       -24.5482
   8   2.0000      -0.779931       -21.2230
   9   2.0000      -0.771520       -20.9941
  10   2.0000      -0.710855       -19.3434
  11   2.0000      -0.616216       -16.7681
  12   2.0000      -0.600862       -16.3503
  13   2.0000      -0.587464       -15.9857
  14   2.0000      -0.493176       -13.4200
  15   2.0000      -0.469989       -12.7890
  16   0.0000       0.025357         0.6900
  17   0.0000       0.044446         1.2094
  18   0.0000       0.044590         1.2134
  19   0.0000       0.062662         1.7051
  20   0.0000       0.097562         2.6548

MULLIKEN ATOMIC CHARGES
-----------------------
   0 C :   -0.675965
   1 C :    0.547759
   2 O :   -0.597152
   3 F :   -0.226839
   4 H :    0.337246
   5 H :    0.310010
   6 H :    0.304941
Sum of atomic charges:   -0.0000000

LOEWDIN ATOMIC CHARGES
----------------------
   0 C :    0.582682
   1 C :   -0.924187
   2 O :    0.361463
   3 F :    0.571069
   4 H :   -0.209598
   5 H :   -0.191439
   6 H :   -0.189990

  Mayer bond orders larger than 0.100000
B(  0-C ,  1-C ) :   0.7911 B(  0-C ,  4-H ) :   0.8879 B(  0-C ,  5-H ) :   0.9101
B(  0-C ,  6-H ) :   0.9124 B(  1-C ,  2-O ) :   1.7290 B(  1-C ,  3-F ) :   0.9374

E(0)                                       ...   -251.878279234
E(0)                                       ...   -251.878279234
E(CORR)(strong-pairs)                      ...     -0.838720044
E(CORR)(weak-pairs)                        ...     -0.000615942
E(CORR)(corrected)                         ...     -0.839335985
E(TOT)                                     ...   -252.717615220
E(CCSD(T))                                 ...   -252.750441765
FINAL SINGLE POINT ENERGY      -252.750441765380

DIPOLE MOMENT
-------------
                                X             Y             Z
Electronic contribution:     -0.58706       4.54510      -1.88968
Nuclear contribution   :     -0.38801      -5.49530       1.90863
                        -----------------------------------------
Total Dipole Moment    :     -0.97507      -0.95020       0.01895
                        -----------------------------------------
Magnitude (a.u.)       :      1.36162
Magnitude (Debye)      :      3.46096

Rotational constants in cm-1:     0.368583     0.320435     0.176966
Rotational constants in MHz : 11049.843408  9606.394840  5305.299921

                             ****ORCA TERMINATED NORMALLY****
TOTAL RUN TIME: 0 days 0 hours 2 minutes 35 seconds 849 msec
