                         Program Version 5.0.0 -  RELEASE  -
|  1> !DLPNO-CCSD(T) aug-cc-pVTZ aug-cc-pVTZ/C TightSCF TightPNO RIJCOSX def2/J
|  2>
|  3> *xyzfile 0 1 D1.xyz
|  4>
|  5> %MaxCore 64000
|  6>
|  7> %pal nprocs 18
|  8> end
|  9>
| 10> %scf
| 11>   MaxIter 150
| 12> end
| 13>
| 14>
| 15>                          ****END OF INPUT****

CARTESIAN COORDINATES (ANGSTROEM)
---------------------------------
  C     -0.699123    3.489451    3.755163
  H     -0.966716    4.349013    3.140491
  C     -1.080669    3.792957    5.156857
  C      0.776956    3.138391    3.617408
  H     -1.331455    2.656510    3.446323
  H      1.371398    3.888342    4.149744
  H      1.046926    3.232057    2.561331
  C      1.118917    1.731170    4.115155
  H      2.200573    1.654226    4.254882
  C      0.659466    0.635182    3.153306
  H      0.677024    1.576674    5.103150
  H      1.312288    0.638870    2.274207
  H     -0.339563    0.868049    2.772876
  C      0.639957   -0.771175    3.755619
  C     -0.341821   -0.965537    4.915046
  H      1.648266   -1.028665    4.097015
  H      0.398568   -1.482386    2.958453
  H     -0.279892   -2.005646    5.252547
  C     -1.789164   -0.639231    4.557496
  H     -0.032380   -0.352918    5.765118
  H     -2.107151   -1.270102    3.719619
  H     -1.856352    0.391636    4.197604
  C     -2.790700   -0.785275    5.702812
  H     -2.867308   -1.835651    6.001675
  H     -3.774554   -0.486577    5.334807
  C     -2.453797    0.055101    6.941445
  C     -2.078419    1.480421    6.564098
  H     -1.625584   -0.382163    7.498914
  H     -3.325274    0.087746    7.599175
  H     -0.874488    4.762737    5.427344
  H     -0.680793    3.134762    5.839000
  H     -2.057550    3.531691    5.346197
  F     -0.901252    1.858156    6.828104
  O     -2.936582    2.177309    5.964151

 Total Charge           Charge          ....    0
 Multiplicity           Mult            ....    1
 Number of Electrons    NEL             ....  104
 Basis Dimension        Dim             .... 1081

ORBITAL ENERGIES
----------------

  NO   OCC          E(Eh)            E(eV)
   0   2.0000     -26.381540      -717.8782
   1   2.0000     -20.566237      -559.6358
   2   2.0000     -11.440311      -311.3067
   3   2.0000     -11.263708      -306.5011
   4   2.0000     -11.243018      -305.9381
   5   2.0000     -11.226506      -305.4887
   6   2.0000     -11.223593      -305.4095
   7   2.0000     -11.217768      -305.2510
   8   2.0000     -11.209686      -305.0311
   9   2.0000     -11.206511      -304.9447
  10   2.0000     -11.199105      -304.7431
  11   2.0000     -11.187185      -304.4188
  12   2.0000     -11.127563      -302.7964
  13   2.0000      -1.740920       -47.3728
  14   2.0000      -1.387415       -37.7535
  15   2.0000      -1.114752       -30.3340
  16   2.0000      -1.086946       -29.5773
  17   2.0000      -1.050448       -28.5841
  18   2.0000      -1.014694       -27.6112
  19   2.0000      -0.962744       -26.1976
  20   2.0000      -0.931198       -25.3392
  21   2.0000      -0.895965       -24.3805
  22   2.0000      -0.856442       -23.3050
  23   2.0000      -0.832763       -22.6606
  24   2.0000      -0.784321       -21.3425
  25   2.0000      -0.781333       -21.2611
  26   2.0000      -0.775211       -21.0946
  27   2.0000      -0.748735       -20.3741
  28   2.0000      -0.719286       -19.5728
  29   2.0000      -0.654441       -17.8082
  30   2.0000      -0.647035       -17.6067
  31   2.0000      -0.629524       -17.1302
  32   2.0000      -0.624794       -17.0015
  33   2.0000      -0.603528       -16.4228
  34   2.0000      -0.595705       -16.2100
  35   2.0000      -0.577399       -15.7118
  36   2.0000      -0.563873       -15.3438
  37   2.0000      -0.554291       -15.0830
  38   2.0000      -0.538818       -14.6620
  39   2.0000      -0.537201       -14.6180
  40   2.0000      -0.517111       -14.0713
  41   2.0000      -0.504675       -13.7329
  42   2.0000      -0.493515       -13.4292
  43   2.0000      -0.488594       -13.2953
  44   2.0000      -0.484074       -13.1723
  45   2.0000      -0.467652       -12.7255
  46   2.0000      -0.462763       -12.5924
  47   2.0000      -0.451534       -12.2869
  48   2.0000      -0.446964       -12.1625
  49   2.0000      -0.432697       -11.7743
  50   2.0000      -0.431532       -11.7426
  51   2.0000      -0.410580       -11.1725
  52   0.0000       0.023612         0.6425
  53   0.0000       0.031020         0.8441
  54   0.0000       0.032354         0.8804
  55   0.0000       0.036105         0.9825
  56   0.0000       0.044184         1.2023

MULLIKEN ATOMIC CHARGES
-----------------------
   0 C :   -0.306251
   1 H :    0.371168
   2 C :   -1.318274
   3 C :   -0.643385
   4 H :    0.068156
   5 H :    0.131519
   6 H :    0.216972
   7 C :   -0.517597
   8 H :    0.260170
   9 C :   -0.281986
  10 H :    0.429300
  11 H :    0.479982
  12 H :   -0.026446
  13 C :   -0.727616
  14 C :   -0.407955
  15 H :    0.238718
  16 H :    0.043740
  17 H :    0.344875
  18 C :   -0.504429
  19 H :    0.188732
  20 H :    0.458939
  21 H :    0.357357
  22 C :   -0.594555
  23 H :    0.265552
  24 H :    0.190548
  25 C :   -0.299106
  26 C :    1.017874
  27 H :    0.193606
  28 H :    0.382701
  29 H :    0.127892
  30 H :    0.616422
  31 H :    0.626521
  32 F :   -0.474124
  33 O :   -0.909021
Sum of atomic charges:   -0.0000000

LOEWDIN ATOMIC CHARGES
----------------------
   0 C :    0.294967
   1 H :   -0.131482
   2 C :    0.580422
   3 C :    0.305542
   4 H :   -0.161288
   5 H :   -0.136367
   6 H :   -0.146181
   7 C :    0.299932
   8 H :   -0.132170
   9 C :    0.291293
  10 H :   -0.196843
  11 H :   -0.132160
  12 H :   -0.174662
  13 C :    0.307038
  14 C :    0.288943
  15 H :   -0.138039
  16 H :   -0.140977
  17 H :   -0.130569
  18 C :    0.285736
  19 H :   -0.179654
  20 H :   -0.120494
  21 H :   -0.181546
  22 C :    0.297694
  23 H :   -0.134196
  24 H :   -0.140666
  25 C :    0.295089
  26 C :   -0.779381
  27 H :   -0.167074
  28 H :   -0.143295
  29 H :   -0.175378
  30 H :   -0.463118
  31 H :   -0.442311
  32 F :    0.739138
  33 O :    0.562057

  Mayer bond orders larger than 0.100000
B(  0-C ,  1-H ) :   0.8771 B(  0-C ,  2-C ) :   0.7066 B(  0-C ,  3-C ) :   0.8009
B(  0-C ,  4-H ) :   1.1435 B(  1-H ,  2-C ) :  -0.1056 B(  2-C ,  3-C ) :   0.1486
B(  2-C ,  4-H ) :   0.1069 B(  2-C , 29-H ) :   1.2256 B(  2-C , 30-H ) :   0.7906
B(  2-C , 31-H ) :   0.6385 B(  3-C ,  5-H ) :   1.1198 B(  3-C ,  6-H ) :   1.0048
B(  3-C ,  7-C ) :   0.9146 B(  7-C ,  8-H ) :   0.9998 B(  7-C ,  9-C ) :   0.7601
B(  7-C , 10-H ) :   0.9068 B(  7-C , 12-H ) :   0.1209 B(  9-C , 11-H ) :   0.7711
B(  9-C , 12-H ) :   1.2726 B(  9-C , 13-C ) :   0.8890 B( 13-C , 14-C ) :   0.8931
B( 13-C , 15-H ) :   0.9972 B( 13-C , 16-H ) :   1.2152 B( 14-C , 17-H ) :   0.8998
B( 14-C , 18-C ) :   0.8389 B( 14-C , 19-H ) :   1.0336 B( 14-C , 21-H ) :   0.1446
B( 18-C , 20-H ) :   0.7748 B( 18-C , 21-H ) :   0.9817 B( 18-C , 22-C ) :   0.9120
B( 22-C , 23-H ) :   0.9536 B( 22-C , 24-H ) :   1.0220 B( 22-C , 25-C ) :   0.9547
B( 22-C , 26-C ) :   0.1299 B( 25-C , 26-C ) :   0.6953 B( 25-C , 27-H ) :   1.0757
B( 25-C , 28-H ) :   0.8693 B( 26-C , 32-F ) :   0.6716 B( 26-C , 33-O ) :   1.2859
B( 30-H , 32-F ) :  -0.2876

E(0)                                       ...   -603.228486774
E(0)                                       ...   -603.228486774
E(CORR)(strong-pairs)                      ...     -2.539677320
E(CORR)(weak-pairs)                        ...     -0.004289719
E(CORR)(corrected)                         ...     -2.543967039
E(TOT)                                     ...   -605.772453812
E(CCSD(T))                                 ...   -605.875928950
FINAL SINGLE POINT ENERGY      -605.875928949601

DIPOLE MOMENT
-------------
                                X             Y             Z
Electronic contribution:     -5.44213       2.36663      10.90409
Nuclear contribution   :      5.54676      -3.70047     -10.28793
                        -----------------------------------------
Total Dipole Moment    :      0.10463      -1.33383       0.61616
                        -----------------------------------------
Magnitude (a.u.)       :      1.47299
Magnitude (Debye)      :      3.74405

Rotational constants in cm-1:     0.028503     0.023389     0.015214
Rotational constants in MHz :   854.502405   701.197575   456.108322

                             ****ORCA TERMINATED NORMALLY****
TOTAL RUN TIME: 0 days 5 hours 36 minutes 36 seconds 690 msec
