                         Program Version 5.0.0 -  RELEASE  -
|  1> !wB97X-D3 RIJCOSX def2-TZVPD def2/J TightSCF
|  2> *xyz -1 1
|  3> C         -2.12050        0.88520        1.78951
|  4> C         -0.77894        0.17197        1.80496
|  5> H          0.01569        0.91077        1.93915
|  6> H         -0.74355       -0.50683        2.66542
|  7> C         -0.60249       -0.63071        0.49224
|  8> H          0.31389       -1.24035        0.60350
|  9> H         -0.36383        0.11332       -0.30117
| 10> O         -1.71206       -1.37684        0.20253
| 11> H         -2.16160        1.54956        0.95175
| 12> H         -2.23761        1.44436        2.69423
| 13> H         -2.90702        0.16393        1.71165
| 14> *
| 15> %MaxCore 64000
| 16>
| 17> %pal nprocs 18
| 18> end
| 19> %scf
| 20>   MaxIter 150
| 21> end
| 22>
| 23>                          ****END OF INPUT****

CARTESIAN COORDINATES (ANGSTROEM)
---------------------------------
  C     -2.120500    0.885200    1.789510
  C     -0.778940    0.171970    1.804960
  H      0.015690    0.910770    1.939150
  H     -0.743550   -0.506830    2.665420
  C     -0.602490   -0.630710    0.492240
  H      0.313890   -1.240350    0.603500
  H     -0.363830    0.113320   -0.301170
  O     -1.712060   -1.376840    0.202530
  H     -2.161600    1.549560    0.951750
  H     -2.237610    1.444360    2.694230
  H     -2.907020    0.163930    1.711650

 Total Charge           Charge          ....   -1
 Multiplicity           Mult            ....    1
 Number of Electrons    NEL             ....   34
 Basis Dimension        Dim             ....  214

ORBITAL ENERGIES
----------------

  NO   OCC          E(Eh)            E(eV)
   0   2.0000     -18.897460      -514.2260
   1   2.0000     -10.089859      -274.5590
   2   2.0000     -10.081015      -274.3184
   3   2.0000     -10.080259      -274.2978
   4   2.0000      -0.800750       -21.7895
   5   2.0000      -0.695328       -18.9208
   6   2.0000      -0.574835       -15.6421
   7   2.0000      -0.472844       -12.8668
   8   2.0000      -0.375286       -10.2121
   9   2.0000      -0.363877        -9.9016
  10   2.0000      -0.309300        -8.4165
  11   2.0000      -0.280820        -7.6415
  12   2.0000      -0.249136        -6.7793
  13   2.0000      -0.244836        -6.6623
  14   2.0000      -0.207630        -5.6499
  15   2.0000      -0.065087        -1.7711
  16   2.0000      -0.062923        -1.7122
  17   0.0000       0.202873         5.5205
  18   0.0000       0.219735         5.9793
  19   0.0000       0.230852         6.2818
  20   0.0000       0.252178         6.8621
  21   0.0000       0.273562         7.4440

MULLIKEN ATOMIC CHARGES
-----------------------
   0 C :   -1.113029
   1 C :   -0.146835
   2 H :    0.233119
   3 H :    0.264005
   4 C :   -0.475308
   5 H :    0.165011
   6 H :    0.161053
   7 O :   -0.918971
   8 H :    0.270487
   9 H :    0.309439
  10 H :    0.251030
Sum of atomic charges:   -1.0000000

LOEWDIN ATOMIC CHARGES
----------------------
   0 C :   -0.165196
   1 C :   -0.298838
   2 H :    0.075463
   3 H :    0.085491
   4 C :   -0.562317
   5 H :    0.059396
   6 H :    0.065708
   7 O :   -0.401465
   8 H :    0.055143
   9 H :    0.038109
  10 H :    0.048506

  Mayer bond orders larger than 0.100000
B(  0-C ,  1-C ) :   0.6624 B(  0-C ,  4-C ) :   0.2107 B(  0-C ,  8-H ) :   0.9665
B(  0-C ,  9-H ) :   0.9195 B(  0-C , 10-H ) :   1.0485 B(  1-C ,  2-H ) :   1.0157
B(  1-C ,  3-H ) :   0.9511 B(  1-C ,  4-C ) :   0.8073 B(  4-C ,  5-H ) :   1.0773
B(  4-C ,  6-H ) :   1.0440 B(  4-C ,  7-O ) :   1.1060

Dispersion correction           -0.001904531
FINAL SINGLE POINT ENERGY      -193.759183143880

DIPOLE MOMENT
-------------
                                X             Y             Z
Electronic contribution:     -0.58504      -2.36711      -1.48117
Nuclear contribution   :      1.03476       3.87369       2.65163
                        -----------------------------------------
Total Dipole Moment    :      0.44972       1.50658       1.17046
                        -----------------------------------------
Magnitude (a.u.)       :      1.96010
Magnitude (Debye)      :      4.98219

Rotational constants in cm-1:     0.475803     0.193433     0.155403
Rotational constants in MHz : 14264.216647  5798.988361  4658.874800

                             ****ORCA TERMINATED NORMALLY****
TOTAL RUN TIME: 0 days 0 hours 0 minutes 16 seconds 302 msec
