                         Program Version 5.0.0 -  RELEASE  -
|  1> !wB97X-D3 RIJCOSX def2-TZVPD def2/J TightSCF
|  2> *xyz 1 1
|  3> C         -2.12050        0.88520        1.78951
|  4> C         -0.77894        0.17197        1.80496
|  5> H         -2.32419        1.47265        2.68608
|  6> H         -2.18770        1.54127        0.91948
|  7> N         -3.17690       -0.15948        1.61070
|  8> H          0.01569        0.91077        1.93915
|  9> H         -0.74355       -0.50683        2.66542
| 10> C         -0.60249       -0.63071        0.49224
| 11> H         -4.06474        0.23127        1.28675
| 12> H         -3.34407       -0.67151        2.48493
| 13> H         -2.71686       -0.78189        0.93588
| 14> H         -0.63812        0.03805       -0.34226
| 15> H         -1.38918       -1.35085        0.40604
| 16> H          0.34172       -1.13388        0.50602
| 17> *
| 18> %MaxCore 64000
| 19>
| 20> %pal nprocs 18
| 21> end
| 22>
| 23> %scf
| 24>   MaxIter 150
| 25> end
| 26>
| 27>
| 28>                          ****END OF INPUT****

CARTESIAN COORDINATES (ANGSTROEM)
---------------------------------
  C     -2.120500    0.885200    1.789510
  C     -0.778940    0.171970    1.804960
  H     -2.324190    1.472650    2.686080
  H     -2.187700    1.541270    0.919480
  N     -3.176900   -0.159480    1.610700
  H      0.015690    0.910770    1.939150
  H     -0.743550   -0.506830    2.665420
  C     -0.602490   -0.630710    0.492240
  H     -4.064740    0.231270    1.286750
  H     -3.344070   -0.671510    2.484930
  H     -2.716860   -0.781890    0.935880
  H     -0.638120    0.038050   -0.342260
  H     -1.389180   -1.350850    0.406040
  H      0.341720   -1.133880    0.506020

 Total Charge           Charge          ....    1
 Multiplicity           Mult            ....    1
 Number of Electrons    NEL             ....   34
 Basis Dimension        Dim             ....  238

ORBITAL ENERGIES
----------------

  NO   OCC          E(Eh)            E(eV)
   0   2.0000     -14.741972      -401.1495
   1   2.0000     -10.521559      -286.3062
   2   2.0000     -10.460308      -284.6394
   3   2.0000     -10.436909      -284.0027
   4   2.0000      -1.323892       -36.0249
   5   2.0000      -1.093767       -29.7629
   6   2.0000      -1.001866       -27.2621
   7   2.0000      -0.909830       -24.7577
   8   2.0000      -0.900707       -24.5095
   9   2.0000      -0.873696       -23.7745
  10   2.0000      -0.783348       -21.3160
  11   2.0000      -0.740065       -20.1382
  12   2.0000      -0.710311       -19.3285
  13   2.0000      -0.685292       -18.6477
  14   2.0000      -0.635490       -17.2926
  15   2.0000      -0.624820       -17.0022
  16   2.0000      -0.619025       -16.8445
  17   0.0000      -0.110576        -3.0089
  18   0.0000      -0.062714        -1.7065
  19   0.0000      -0.061201        -1.6654
  20   0.0000      -0.050301        -1.3688
  21   0.0000      -0.021935        -0.5969

MULLIKEN ATOMIC CHARGES
-----------------------
   0 C :   -0.616930
   1 C :   -0.187193
   2 H :    0.313250
   3 H :    0.359919
   4 N :   -0.167369
   5 H :    0.319976
   6 H :    0.300641
   7 C :   -1.385978
   8 H :    0.372796
   9 H :    0.385737
  10 H :    0.113256
  11 H :    0.392048
  12 H :    0.463327
  13 H :    0.336522
Sum of atomic charges:    1.0000000

LOEWDIN ATOMIC CHARGES
----------------------
   0 C :   -0.161959
   1 C :   -0.209695
   2 H :    0.138467
   3 H :    0.139549
   4 N :    0.183671
   5 H :    0.130235
   6 H :    0.122684
   7 C :   -0.070197
   8 H :    0.182676
   9 H :    0.185643
  10 H :    0.120644
  11 H :    0.089843
  12 H :    0.056705
  13 H :    0.091736

  Mayer bond orders larger than 0.100000
B(  0-C ,  1-C ) :   0.8074 B(  0-C ,  2-H ) :   0.9494 B(  0-C ,  3-H ) :   0.9050
B(  0-C ,  4-N ) :   0.9528 B(  1-C ,  5-H ) :   0.9282 B(  1-C ,  6-H ) :   0.9326
B(  1-C ,  7-C ) :   0.5823 B(  4-N ,  8-H ) :   0.8290 B(  4-N ,  9-H ) :   0.8268
B(  4-N , 10-H ) :   0.9413 B(  7-C , 10-H ) :   0.2748 B(  7-C , 11-H ) :   0.9166
B(  7-C , 12-H ) :   0.7706 B(  7-C , 13-H ) :   0.9712

Dispersion correction           -0.002778400
FINAL SINGLE POINT ENERGY      -174.865217702710

DIPOLE MOMENT
-------------
                                X             Y             Z
Electronic contribution:     -1.85016       0.50738       0.93468
Nuclear contribution   :      0.18509      -0.64781      -0.64735
                        -----------------------------------------
Total Dipole Moment    :     -1.66506      -0.14043       0.28733
                        -----------------------------------------
Magnitude (a.u.)       :      1.69550
Magnitude (Debye)      :      4.30961

Rotational constants in cm-1:     0.411855     0.178330     0.145265
Rotational constants in MHz : 12347.103052  5346.196801  4354.936890

                             ****ORCA TERMINATED NORMALLY****
TOTAL RUN TIME: 0 days 0 hours 0 minutes 17 seconds 493 msec
