                         Program Version 5.0.0 -  RELEASE  -
|  1> !wB97X-D3 RIJCOSX def2-TZVPD def2/J TightSCF
|  2> *xyz 0 1
|  3> C         -2.12050        0.88520        1.78951
|  4> C         -0.77894        0.17197        1.80496
|  5> H          0.01569        0.91077        1.93915
|  6> H         -0.74355       -0.50683        2.66542
|  7> C         -0.60249       -0.63071        0.49224
|  8> H          0.31389       -1.24035        0.60350
|  9> H         -0.36383        0.11332       -0.30117
| 10> F         -1.71206       -1.37684        0.20253
| 11> H         -2.16160        1.54956        0.95175
| 12> H         -2.23761        1.44436        2.69423
| 13> H         -2.90702        0.16393        1.71165
| 14> *
| 15> %MaxCore 64000
| 16>
| 17> %pal nprocs 18
| 18> end
| 19> %scf
| 20>   MaxIter 150
| 21> end
| 22>
| 23>                          ****END OF INPUT****

CARTESIAN COORDINATES (ANGSTROEM)
---------------------------------
  C     -2.120500    0.885200    1.789510
  C     -0.778940    0.171970    1.804960
  H      0.015690    0.910770    1.939150
  H     -0.743550   -0.506830    2.665420
  C     -0.602490   -0.630710    0.492240
  H      0.313890   -1.240350    0.603500
  H     -0.363830    0.113320   -0.301170
  F     -1.712060   -1.376840    0.202530
  H     -2.161600    1.549560    0.951750
  H     -2.237610    1.444360    2.694230
  H     -2.907020    0.163930    1.711650

 Total Charge           Charge          ....    0
 Multiplicity           Mult            ....    1
 Number of Electrons    NEL             ....   34
 Basis Dimension        Dim             ....  214

ORBITAL ENERGIES
----------------

  NO   OCC          E(Eh)            E(eV)
   0   2.0000     -24.773795      -674.1292
   1   2.0000     -10.352173      -281.6969
   2   2.0000     -10.278638      -279.6960
   3   2.0000     -10.255155      -279.0570
   4   2.0000      -1.316772       -35.8312
   5   2.0000      -0.905859       -24.6497
   6   2.0000      -0.801952       -21.8222
   7   2.0000      -0.705067       -19.1858
   8   2.0000      -0.611722       -16.6458
   9   2.0000      -0.598287       -16.2802
  10   2.0000      -0.575978       -15.6732
  11   2.0000      -0.535976       -14.5846
  12   2.0000      -0.493508       -13.4290
  13   2.0000      -0.470344       -12.7987
  14   2.0000      -0.448091       -12.1932
  15   2.0000      -0.420855       -11.4520
  16   2.0000      -0.416882       -11.3439
  17   0.0000       0.072882         1.9832
  18   0.0000       0.091357         2.4860
  19   0.0000       0.096559         2.6275
  20   0.0000       0.112252         3.0545
  21   0.0000       0.136787         3.7222

MULLIKEN ATOMIC CHARGES
-----------------------
   0 C :   -1.200426
   1 C :   -0.216154
   2 H :    0.269166
   3 H :    0.290846
   4 C :   -0.274150
   5 H :    0.236197
   6 H :    0.260306
   7 F :   -0.318199
   8 H :    0.330042
   9 H :    0.317455
  10 H :    0.304916
Sum of atomic charges:    0.0000000

LOEWDIN ATOMIC CHARGES
----------------------
   0 C :   -0.122369
   1 C :   -0.240823
   2 H :    0.107506
   3 H :    0.105588
   4 C :   -0.244934
   5 H :    0.113123
   6 H :    0.119844
   7 F :   -0.039187
   8 H :    0.070086
   9 H :    0.065304
  10 H :    0.065863

  Mayer bond orders larger than 0.100000
B(  0-C ,  1-C ) :   0.6674 B(  0-C ,  4-C ) :   0.1732 B(  0-C ,  8-H ) :   0.9426
B(  0-C ,  9-H ) :   0.9587 B(  0-C , 10-H ) :   0.9831 B(  1-C ,  2-H ) :   0.9647
B(  1-C ,  3-H ) :   0.9291 B(  1-C ,  4-C ) :   0.8655 B(  4-C ,  5-H ) :   0.9830
B(  4-C ,  6-H ) :   0.9592 B(  4-C ,  7-F ) :   0.7841

Dispersion correction           -0.001910615
FINAL SINGLE POINT ENERGY      -218.402450195985

DIPOLE MOMENT
-------------
                                X             Y             Z
Electronic contribution:     -1.01783      -4.84408      -3.46857
Nuclear contribution   :      1.51874       5.24801       3.69322
                        -----------------------------------------
Total Dipole Moment    :      0.50090       0.40394       0.22465
                        -----------------------------------------
Magnitude (a.u.)       :      0.68157
Magnitude (Debye)      :      1.73241

Rotational constants in cm-1:     0.461913     0.182549     0.147043
Rotational constants in MHz : 13847.794369  5472.673442  4408.246847

                             ****ORCA TERMINATED NORMALLY****
TOTAL RUN TIME: 0 days 0 hours 0 minutes 15 seconds 266 msec
