                         Program Version 5.0.0 -  RELEASE  -
|  1> !wB97X-D3 RIJCOSX def2-TZVPD def2/J TightSCF
|  2> *xyz 0 1
|  3> C         -2.12050        0.88520        1.78951
|  4> C         -0.77894        0.17197        1.80496
|  5> H         -2.32419        1.47265        2.68608
|  6> H         -2.18770        1.54127        0.91948
|  7> C         -3.17690       -0.15948        1.61070
|  8> H          0.01569        0.91077        1.93915
|  9> H         -0.74355       -0.50683        2.66542
| 10> C         -0.60249       -0.63071        0.49224
| 11> H         -4.06474        0.23127        1.28675
| 12> H         -3.34407       -0.67151        2.48493
| 13> H         -2.71686       -0.78189        0.93588
| 14> H         -0.63812        0.03805       -0.34226
| 15> H         -1.38918       -1.35085        0.40604
| 16> H          0.34172       -1.13388        0.50602
| 17> *
| 18> %MaxCore 64000
| 19>
| 20> %pal nprocs 18
| 21> end
| 22>
| 23> %scf
| 24>   MaxIter 150
| 25> end
| 26>
| 27>
| 28>                          ****END OF INPUT****

CARTESIAN COORDINATES (ANGSTROEM)
---------------------------------
  C     -2.120500    0.885200    1.789510
  C     -0.778940    0.171970    1.804960
  H     -2.324190    1.472650    2.686080
  H     -2.187700    1.541270    0.919480
  C     -3.176900   -0.159480    1.610700
  H      0.015690    0.910770    1.939150
  H     -0.743550   -0.506830    2.665420
  C     -0.602490   -0.630710    0.492240
  H     -4.064740    0.231270    1.286750
  H     -3.344070   -0.671510    2.484930
  H     -2.716860   -0.781890    0.935880
  H     -0.638120    0.038050   -0.342260
  H     -1.389180   -1.350850    0.406040
  H      0.341720   -1.133880    0.506020

 Total Charge           Charge          ....    0
 Multiplicity           Mult            ....    1
 Number of Electrons    NEL             ....   34
 Basis Dimension        Dim             ....  238

ORBITAL ENERGIES
----------------

  NO   OCC          E(Eh)            E(eV)
   0   2.0000     -10.266080      -279.3542
   1   2.0000     -10.257767      -279.1280
   2   2.0000     -10.254154      -279.0297
   3   2.0000     -10.225661      -278.2544
   4   2.0000      -0.926709       -25.2170
   5   2.0000      -0.835173       -22.7262
   6   2.0000      -0.759902       -20.6780
   7   2.0000      -0.674650       -18.3581
   8   2.0000      -0.584429       -15.9031
   9   2.0000      -0.563419       -15.3314
  10   2.0000      -0.521161       -14.1815
  11   2.0000      -0.488142       -13.2830
  12   2.0000      -0.471631       -12.8337
  13   2.0000      -0.454320       -12.3627
  14   2.0000      -0.419383       -11.4120
  15   2.0000      -0.416476       -11.3329
  16   2.0000      -0.404119       -10.9966
  17   0.0000       0.076722         2.0877
  18   0.0000       0.091757         2.4968
  19   0.0000       0.095842         2.6080
  20   0.0000       0.098409         2.6778
  21   0.0000       0.139301         3.7906

MULLIKEN ATOMIC CHARGES
-----------------------
   0 C :   -0.181382
   1 C :   -0.241777
   2 H :    0.212090
   3 H :    0.262937
   4 C :   -1.299997
   5 H :    0.252451
   6 H :    0.273449
   7 C :   -1.246572
   8 H :    0.362341
   9 H :    0.364369
  10 H :    0.198013
  11 H :    0.336404
  12 H :    0.389932
  13 H :    0.317741
Sum of atomic charges:   -0.0000000

LOEWDIN ATOMIC CHARGES
----------------------
   0 C :   -0.273988
   1 C :   -0.254957
   2 H :    0.106025
   3 H :    0.108977
   4 C :   -0.114484
   5 H :    0.101965
   6 H :    0.109841
   7 C :   -0.107495
   8 H :    0.057027
   9 H :    0.063543
  10 H :    0.014940
  11 H :    0.075097
  12 H :    0.048266
  13 H :    0.065242

  Mayer bond orders larger than 0.100000
B(  0-C ,  1-C ) :   0.7796 B(  0-C ,  2-H ) :   0.9805 B(  0-C ,  3-H ) :   0.9583
B(  0-C ,  4-C ) :   0.6201 B(  0-C ,  7-C ) :   0.1074 B(  1-C ,  4-C ) :   0.1922
B(  1-C ,  5-H ) :   0.9849 B(  1-C ,  6-H ) :   0.9567 B(  1-C ,  7-C ) :   0.6379
B(  4-C ,  7-C ) :   0.1494 B(  4-C ,  8-H ) :   0.8996 B(  4-C ,  9-H ) :   0.9340
B(  4-C , 10-H ) :   1.0362 B(  7-C , 11-H ) :   0.9637 B(  7-C , 12-H ) :   0.8816
B(  7-C , 13-H ) :   0.9550

Dispersion correction           -0.002697600
FINAL SINGLE POINT ENERGY      -158.443029472394

DIPOLE MOMENT
-------------
                                X             Y             Z
Electronic contribution:      0.30827       0.71255       0.58719
Nuclear contribution   :     -0.27446      -0.71220      -0.58629
                        -----------------------------------------
Total Dipole Moment    :      0.03381       0.00035       0.00090
                        -----------------------------------------
Magnitude (a.u.)       :      0.03383
Magnitude (Debye)      :      0.08598

Rotational constants in cm-1:     0.419751     0.185753     0.151088
Rotational constants in MHz : 12583.819928  5568.732483  4529.512437

                             ****ORCA TERMINATED NORMALLY****
TOTAL RUN TIME: 0 days 0 hours 0 minutes 15 seconds 80 msec
