                         Program Version 5.0.0 -  RELEASE  -
|  1> !PBE D3BJ RIJCOSX def2-SVPD def2/J TightSCF
|  2> *xyz -1 1
|  3> C          4.93020       -7.37532       -2.64962
|  4> C          3.84189       -6.95161       -3.63283
|  5> H          3.45814       -5.95442       -3.40712
|  6> H          2.98848       -7.64361       -3.56708
|  7> S          4.31812       -6.91593       -5.36869
|  8> O          5.40615       -5.89948       -5.51297
|  9> O          3.11191       -6.44508       -6.04379
| 10> O          4.76340       -8.23942       -5.69863
| 11> H          5.27901       -8.35440       -2.90385
| 12> H          4.53000       -7.38577       -1.65734
| 13> H          5.74437       -6.68276       -2.69856
| 14> *
| 15>
| 16> %MaxCore 64000
| 17>
| 18> %pal nprocs 4
| 19> end
| 20>
| 21> %scf
| 22>   MaxIter 150
| 23> end
| 24>
| 25>
| 26>                          ****END OF INPUT****

CARTESIAN COORDINATES (ANGSTROEM)
---------------------------------
  C      4.930200   -7.375320   -2.649620
  C      3.841890   -6.951610   -3.632830
  H      3.458140   -5.954420   -3.407120
  H      2.988480   -7.643610   -3.567080
  S      4.318120   -6.915930   -5.368690
  O      5.406150   -5.899480   -5.512970
  O      3.111910   -6.445080   -6.043790
  O      4.763400   -8.239420   -5.698630
  H      5.279010   -8.354400   -2.903850
  H      4.530000   -7.385770   -1.657340
  H      5.744370   -6.682760   -2.698560

 Total Charge           Charge          ....   -1
 Multiplicity           Mult            ....    1
 Number of Electrons    NEL             ....   58
 Basis Dimension        Dim             ....  176

ORBITAL ENERGIES
----------------

  NO   OCC          E(Eh)            E(eV)
   0   2.0000     -88.054440     -2396.0831
   1   2.0000     -18.550180      -504.7761
   2   2.0000     -18.541530      -504.5407
   3   2.0000     -18.534475      -504.3487
   4   2.0000      -9.761170      -265.6149
   5   2.0000      -9.754997      -265.4470
   6   2.0000      -7.658623      -208.4017
   7   2.0000      -5.685672      -154.7150
   8   2.0000      -5.685479      -154.7097
   9   2.0000      -5.684901      -154.6940
  10   2.0000      -0.838651       -22.8209
  11   2.0000      -0.706558       -19.2264
  12   2.0000      -0.677375       -18.4323
  13   2.0000      -0.558454       -15.1963
  14   2.0000      -0.441558       -12.0154
  15   2.0000      -0.326086        -8.8732
  16   2.0000      -0.270855        -7.3703
  17   2.0000      -0.263459        -7.1691
  18   2.0000      -0.230576        -6.2743
  19   2.0000      -0.213293        -5.8040
  20   2.0000      -0.208475        -5.6729
  21   2.0000      -0.188675        -5.1341
  22   2.0000      -0.171099        -4.6558
  23   2.0000      -0.103600        -2.8191
  24   2.0000      -0.102234        -2.7819
  25   2.0000      -0.072857        -1.9825
  26   2.0000      -0.066186        -1.8010
  27   2.0000      -0.055079        -1.4988
  28   2.0000      -0.018254        -0.4967
  29   0.0000       0.124860         3.3976
  30   0.0000       0.154271         4.1979
  31   0.0000       0.163168         4.4400
  32   0.0000       0.168298         4.5796
  33   0.0000       0.190935         5.1956

MULLIKEN ATOMIC CHARGES
-----------------------
   0 C :    0.770266
   1 C :   -0.398520
   2 H :   -0.061199
   3 H :   -0.003260
   4 S :    1.182520
   5 O :   -0.788049
   6 O :   -0.750765
   7 O :   -0.731830
   8 H :   -0.056786
   9 H :   -0.101496
  10 H :   -0.060881
Sum of atomic charges:   -1.0000000

LOEWDIN ATOMIC CHARGES
----------------------
   0 C :    0.099255
   1 C :   -0.147677
   2 H :    0.001949
   3 H :    0.006798
   4 S :    0.805194
   5 O :   -0.575403
   6 O :   -0.565129
   7 O :   -0.548417
   8 H :   -0.021287
   9 H :   -0.035136
  10 H :   -0.020148

  Mayer bond orders larger than 0.100000
B(  0-C ,  1-C ) :   1.3217 B(  0-C ,  8-H ) :   0.8041 B(  0-C ,  9-H ) :   0.7280
B(  0-C , 10-H ) :   0.8138 B(  1-C ,  2-H ) :   0.9944 B(  1-C ,  3-H ) :   0.9662
B(  1-C ,  4-S ) :   0.9028 B(  1-C ,  8-H ) :   0.2134 B(  1-C ,  9-H ) :   0.2394
B(  1-C , 10-H ) :   0.2067 B(  4-S ,  5-O ) :   1.2956 B(  4-S ,  6-O ) :   1.3496
B(  4-S ,  7-O ) :   1.3360

Dispersion correction           -0.009597890
FINAL SINGLE POINT ENERGY      -702.288360436111

DIPOLE MOMENT
-------------
                                X             Y             Z
Electronic contribution:     -0.35751       0.81207      -7.84383
Nuclear contribution   :      0.07504      -1.14369       9.75001
                        -----------------------------------------
Total Dipole Moment    :     -0.28247      -0.33162       1.90617
                        -----------------------------------------
Magnitude (a.u.)       :      1.95532
Magnitude (Debye)      :      4.97002

Rotational constants in cm-1:     0.160553     0.082191     0.080550
Rotational constants in MHz :  4813.250478  2464.013016  2414.833054

                             ****ORCA TERMINATED NORMALLY****
TOTAL RUN TIME: 0 days 0 hours 0 minutes 11 seconds 45 msec
