                         Program Version 5.0.0 -  RELEASE  -
|  1> !PBE D3BJ RIJCOSX def2-SVPD def2/J TightSCF
|  2> *xyz 1 1
|  3> C          5.55821       -1.99291       -6.21505
|  4> C          4.18188       -2.58967       -6.29891
|  5> N          3.14587       -1.76843       -6.48675
|  6> N          4.01910       -3.86431       -6.22743
|  7> H          4.76849       -4.59115       -5.99077
|  8> H          3.12241       -4.33339       -6.31462
|  9> H          3.28164       -0.77779       -6.56655
| 10> H          2.21255       -2.13419       -6.56225
| 11> C          6.41926       -2.54294       -5.07763
| 12> H          6.03683       -2.19819       -7.17685
| 13> H          5.46761       -0.90737       -6.12797
| 14> H          6.50056       -3.60553       -5.17358
| 15> H          5.96544       -2.30329       -4.13874
| 16> H          7.39438       -2.10494       -5.12457
| 17> *
| 18>
| 19> %MaxCore 64000
| 20>
| 21> %pal nprocs 4
| 22> end
| 23>
| 24> %scf
| 25>   MaxIter 150
| 26> end
| 27>
| 28>
| 29>                          ****END OF INPUT****

CARTESIAN COORDINATES (ANGSTROEM)
---------------------------------
  C      5.558210   -1.992910   -6.215050
  C      4.181880   -2.589670   -6.298910
  N      3.145870   -1.768430   -6.486750
  N      4.019100   -3.864310   -6.227430
  H      4.768490   -4.591150   -5.990770
  H      3.122410   -4.333390   -6.314620
  H      3.281640   -0.777790   -6.566550
  H      2.212550   -2.134190   -6.562250
  C      6.419260   -2.542940   -5.077630
  H      6.036830   -2.198190   -7.176850
  H      5.467610   -0.907370   -6.127970
  H      6.500560   -3.605530   -5.173580
  H      5.965440   -2.303290   -4.138740
  H      7.394380   -2.104940   -5.124570

 Total Charge           Charge          ....    1
 Multiplicity           Mult            ....    1
 Number of Electrons    NEL             ....   40
 Basis Dimension        Dim             ....  172

ORBITAL ENERGIES
----------------

  NO   OCC          E(Eh)            E(eV)
   0   2.0000     -14.251494      -387.8029
   1   2.0000     -14.241309      -387.5257
   2   2.0000     -10.210713      -277.8476
   3   2.0000     -10.094796      -274.6934
   4   2.0000     -10.052168      -273.5334
   5   2.0000      -1.113836       -30.3090
   6   2.0000      -1.022276       -27.8175
   7   2.0000      -0.892588       -24.2886
   8   2.0000      -0.801971       -21.8227
   9   2.0000      -0.755567       -20.5600
  10   2.0000      -0.723815       -19.6960
  11   2.0000      -0.691801       -18.8249
  12   2.0000      -0.650975       -17.7139
  13   2.0000      -0.606243       -16.4967
  14   2.0000      -0.577989       -15.7279
  15   2.0000      -0.557495       -15.1702
  16   2.0000      -0.508851       -13.8465
  17   2.0000      -0.496691       -13.5157
  18   2.0000      -0.481603       -13.1051
  19   2.0000      -0.455497       -12.3947
  20   0.0000      -0.243718        -6.6319
  21   0.0000      -0.182207        -4.9581
  22   0.0000      -0.149016        -4.0549
  23   0.0000      -0.137807        -3.7499
  24   0.0000      -0.116915        -3.1814

MULLIKEN ATOMIC CHARGES
-----------------------
   0 C :   -0.385694
   1 C :    0.895046
   2 N :    0.061277
   3 N :    0.104671
   4 H :    0.042023
   5 H :   -0.182758
   6 H :   -0.008561
   7 H :   -0.161964
   8 C :    0.778756
   9 H :    0.006896
  10 H :    0.046442
  11 H :   -0.140067
  12 H :   -0.047965
  13 H :   -0.008101
Sum of atomic charges:    1.0000000

LOEWDIN ATOMIC CHARGES
----------------------
   0 C :    0.008967
   1 C :   -0.060677
   2 N :    0.298683
   3 N :    0.273298
   4 H :    0.095050
   5 H :    0.049021
   6 H :    0.039211
   7 H :    0.038322
   8 C :    0.165241
   9 H :    0.058249
  10 H :    0.040025
  11 H :   -0.021175
  12 H :    0.004917
  13 H :    0.010868

  Mayer bond orders larger than 0.100000
B(  0-C ,  1-C ) :   1.0643 B(  0-C ,  2-N ) :   0.1108 B(  0-C ,  8-C ) :   1.3677
B(  0-C ,  9-H ) :   0.8838 B(  0-C , 10-H ) :   0.8791 B(  0-C , 11-H ) :   0.2022
B(  0-C , 12-H ) :   0.2201 B(  0-C , 13-H ) :   0.1867 B(  1-C ,  2-N ) :   0.9603
B(  1-C ,  3-N ) :   1.0846 B(  1-C ,  4-H ) :  -0.1070 B(  1-C ,  5-H ) :  -0.2607
B(  1-C ,  7-H ) :  -0.2436 B(  1-C ,  9-H ) :   0.1086 B(  1-C , 10-H ) :   0.1220
B(  2-N ,  3-N ) :   0.1925 B(  2-N ,  6-H ) :   1.1158 B(  2-N ,  7-H ) :   1.3483
B(  3-N ,  4-H ) :   1.1241 B(  3-N ,  5-H ) :   1.3178 B(  4-H ,  5-H ) :  -0.1827
B(  6-H ,  7-H ) :  -0.1905 B(  8-C , 10-H ) :   0.1138 B(  8-C , 11-H ) :   0.8173
B(  8-C , 12-H ) :   0.7427 B(  8-C , 13-H ) :   0.7949

Dispersion correction           -0.010065932
FINAL SINGLE POINT ENERGY      -228.590187700184

DIPOLE MOMENT
-------------
                                X             Y             Z
Electronic contribution:     -3.78919      -0.47303      -1.56900
Nuclear contribution   :      2.76041       0.12669       1.26265
                        -----------------------------------------
Total Dipole Moment    :     -1.02878      -0.34634      -0.30635
                        -----------------------------------------
Magnitude (a.u.)       :      1.12791
Magnitude (Debye)      :      2.86693

Rotational constants in cm-1:     0.280918     0.124524     0.094121
Rotational constants in MHz :  8421.697738  3733.133254  2821.684112

                             ****ORCA TERMINATED NORMALLY****
TOTAL RUN TIME: 0 days 0 hours 0 minutes 10 seconds 168 msec
