                         Program Version 5.0.0 -  RELEASE  -
|  1> !PBE D3BJ RIJCOSX def2-SVPD def2/J TightSCF
|  2> *xyz 0 1
|  3> C          4.93020       -7.37532       -2.64962
|  4> C          3.84189       -6.95161       -3.63283
|  5> H          3.45814       -5.95442       -3.40712
|  6> H          2.98848       -7.64361       -3.56708
|  7> S          4.31812       -6.91593       -5.36869
|  8> F          5.40615       -5.89948       -5.51297
|  9> O          3.11191       -6.44508       -6.04379
| 10> O          4.76340       -8.23942       -5.69863
| 11> H          5.27901       -8.35440       -2.90385
| 12> H          4.53000       -7.38577       -1.65734
| 13> H          5.74437       -6.68276       -2.69856
| 14> *
| 15>
| 16> %MaxCore 64000
| 17>
| 18> %pal nprocs 4
| 19> end
| 20>
| 21> %scf
| 22>   MaxIter 150
| 23> end
| 24>
| 25>
| 26>                          ****END OF INPUT****

CARTESIAN COORDINATES (ANGSTROEM)
---------------------------------
  C      4.930200   -7.375320   -2.649620
  C      3.841890   -6.951610   -3.632830
  H      3.458140   -5.954420   -3.407120
  H      2.988480   -7.643610   -3.567080
  S      4.318120   -6.915930   -5.368690
  F      5.406150   -5.899480   -5.512970
  O      3.111910   -6.445080   -6.043790
  O      4.763400   -8.239420   -5.698630
  H      5.279010   -8.354400   -2.903850
  H      4.530000   -7.385770   -1.657340
  H      5.744370   -6.682760   -2.698560

 Total Charge           Charge          ....    0
 Multiplicity           Mult            ....    1
 Number of Electrons    NEL             ....   58
 Basis Dimension        Dim             ....  176

ORBITAL ENERGIES
----------------

  NO   OCC          E(Eh)            E(eV)
   0   2.0000     -88.307232     -2402.9620
   1   2.0000     -24.366312      -663.0411
   2   2.0000     -18.782510      -511.0981
   3   2.0000     -18.773109      -510.8423
   4   2.0000      -9.961088      -271.0550
   5   2.0000      -9.919848      -269.9328
   6   2.0000      -7.912511      -215.3104
   7   2.0000      -5.943486      -161.7305
   8   2.0000      -5.937480      -161.5670
   9   2.0000      -5.935990      -161.5265
  10   2.0000      -1.230541       -33.4847
  11   2.0000      -1.026782       -27.9402
  12   2.0000      -0.934390       -25.4260
  13   2.0000      -0.749479       -20.3944
  14   2.0000      -0.653565       -17.7844
  15   2.0000      -0.609495       -16.5852
  16   2.0000      -0.520278       -14.1575
  17   2.0000      -0.495689       -13.4884
  18   2.0000      -0.488800       -13.3009
  19   2.0000      -0.446195       -12.1416
  20   2.0000      -0.428811       -11.6685
  21   2.0000      -0.408542       -11.1170
  22   2.0000      -0.391237       -10.6461
  23   2.0000      -0.366844        -9.9823
  24   2.0000      -0.360252        -9.8029
  25   2.0000      -0.336602        -9.1594
  26   2.0000      -0.298106        -8.1119
  27   2.0000      -0.288283        -7.8446
  28   2.0000      -0.274359        -7.4657
  29   0.0000      -0.037012        -1.0071
  30   0.0000       0.001591         0.0433
  31   0.0000       0.011151         0.3034
  32   0.0000       0.020152         0.5484
  33   0.0000       0.025308         0.6887

MULLIKEN ATOMIC CHARGES
-----------------------
   0 C :    0.802933
   1 C :   -0.409540
   2 H :   -0.019413
   3 H :    0.042810
   4 S :    1.364113
   5 F :   -0.384721
   6 O :   -0.620691
   7 O :   -0.611022
   8 H :   -0.032728
   9 H :   -0.071459
  10 H :   -0.060282
Sum of atomic charges:   -0.0000000

LOEWDIN ATOMIC CHARGES
----------------------
   0 C :    0.130418
   1 C :   -0.100747
   2 H :    0.021871
   3 H :    0.040843
   4 S :    1.070703
   5 F :   -0.260385
   6 O :   -0.449500
   7 O :   -0.433888
   8 H :   -0.005564
   9 H :   -0.005108
  10 H :   -0.008643

  Mayer bond orders larger than 0.100000
B(  0-C ,  1-C ) :   1.3532 B(  0-C ,  8-H ) :   0.8070 B(  0-C ,  9-H ) :   0.7212
B(  0-C , 10-H ) :   0.8069 B(  1-C ,  2-H ) :   0.9847 B(  1-C ,  3-H ) :   0.9550
B(  1-C ,  4-S ) :   0.9778 B(  1-C ,  8-H ) :   0.2080 B(  1-C ,  9-H ) :   0.2277
B(  1-C , 10-H ) :   0.1985 B(  4-S ,  5-F ) :   0.6432 B(  4-S ,  6-O ) :   1.5553
B(  4-S ,  7-O ) :   1.5442 B(  6-O ,  7-O ) :   0.1059

Dispersion correction           -0.009153799
FINAL SINGLE POINT ENERGY      -726.779351240772

DIPOLE MOMENT
-------------
                                X             Y             Z
Electronic contribution:      1.28069       2.60289      -8.78469
Nuclear contribution   :     -0.98922      -2.24849      10.35711
                        -----------------------------------------
Total Dipole Moment    :      0.29147       0.35440       1.57242
                        -----------------------------------------
Magnitude (a.u.)       :      1.63801
Magnitude (Debye)      :      4.16348

Rotational constants in cm-1:     0.151436     0.080885     0.078670
Rotational constants in MHz :  4539.936009  2424.868817  2358.476812

                             ****ORCA TERMINATED NORMALLY****
TOTAL RUN TIME: 0 days 0 hours 0 minutes 10 seconds 950 msec
