                         Program Version 5.0.0 -  RELEASE  -
|  1> !PBE D3BJ RIJCOSX def2-SVPD def2/J TightSCF
|  2> *xyz 0 1
|  3> C          5.55821       -1.99291       -6.21505
|  4> C          4.18188       -2.58967       -6.29891
|  5> C          3.14587       -1.76843       -6.48675
|  6> N          4.01910       -3.86431       -6.22743
|  7> H          4.76849       -4.59115       -5.99077
|  8> H          3.12241       -4.33339       -6.31462
|  9> H          3.28164       -0.77779       -6.56655
| 10> H          2.21255       -2.13419       -6.56225
| 11> C          6.41926       -2.54294       -5.07763
| 12> H          6.03683       -2.19819       -7.17685
| 13> H          5.46761       -0.90737       -6.12797
| 14> H          6.50056       -3.60553       -5.17358
| 15> H          5.96544       -2.30329       -4.13874
| 16> H          7.39438       -2.10494       -5.12457
| 17> *
| 18>
| 19> %MaxCore 64000
| 20>
| 21> %pal nprocs 4
| 22> end
| 23>
| 24> %scf
| 25>   MaxIter 150
| 26> end
| 27>
| 28>
| 29>                          ****END OF INPUT****

CARTESIAN COORDINATES (ANGSTROEM)
---------------------------------
  C      5.558210   -1.992910   -6.215050
  C      4.181880   -2.589670   -6.298910
  C      3.145870   -1.768430   -6.486750
  N      4.019100   -3.864310   -6.227430
  H      4.768490   -4.591150   -5.990770
  H      3.122410   -4.333390   -6.314620
  H      3.281640   -0.777790   -6.566550
  H      2.212550   -2.134190   -6.562250
  C      6.419260   -2.542940   -5.077630
  H      6.036830   -2.198190   -7.176850
  H      5.467610   -0.907370   -6.127970
  H      6.500560   -3.605530   -5.173580
  H      5.965440   -2.303290   -4.138740
  H      7.394380   -2.104940   -5.124570

 Total Charge           Charge          ....    0
 Multiplicity           Mult            ....    1
 Number of Electrons    NEL             ....   40
 Basis Dimension        Dim             ....  172

ORBITAL ENERGIES
----------------

  NO   OCC          E(Eh)            E(eV)
   0   2.0000     -14.010269      -381.2388
   1   2.0000      -9.913772      -269.7674
   2   2.0000      -9.895133      -269.2603
   3   2.0000      -9.885238      -268.9910
   4   2.0000      -9.825391      -267.3625
   5   2.0000      -0.847160       -23.0524
   6   2.0000      -0.700400       -19.0589
   7   2.0000      -0.643060       -17.4986
   8   2.0000      -0.563739       -15.3401
   9   2.0000      -0.526476       -14.3261
  10   2.0000      -0.466967       -12.7068
  11   2.0000      -0.421914       -11.4809
  12   2.0000      -0.395593       -10.7646
  13   2.0000      -0.376271       -10.2388
  14   2.0000      -0.346678        -9.4336
  15   2.0000      -0.337136        -9.1739
  16   2.0000      -0.315861        -8.5950
  17   2.0000      -0.293511        -7.9868
  18   2.0000      -0.286580        -7.7982
  19   2.0000      -0.155735        -4.2378
  20   0.0000      -0.007922        -0.2156
  21   0.0000       0.013832         0.3764
  22   0.0000       0.031503         0.8572
  23   0.0000       0.034455         0.9376
  24   0.0000       0.054530         1.4838

MULLIKEN ATOMIC CHARGES
-----------------------
   0 C :   -0.148720
   1 C :   -0.106741
   2 C :    0.572141
   3 N :    0.226539
   4 H :   -0.116819
   5 H :   -0.264916
   6 H :   -0.185131
   7 H :   -0.484328
   8 C :    0.753152
   9 H :   -0.074670
  10 H :    0.108851
  11 H :   -0.170632
  12 H :   -0.061076
  13 H :   -0.047650
Sum of atomic charges:   -0.0000000

LOEWDIN ATOMIC CHARGES
----------------------
   0 C :   -0.033111
   1 C :   -0.276984
   2 C :    0.180709
   3 N :    0.160065
   4 H :    0.037088
   5 H :    0.008026
   6 H :   -0.093896
   7 H :   -0.093356
   8 C :    0.125130
   9 H :    0.027785
  10 H :    0.024995
  11 H :   -0.038522
  12 H :   -0.010758
  13 H :   -0.017172

  Mayer bond orders larger than 0.100000
B(  0-C ,  1-C ) :   1.1204 B(  0-C ,  2-C ) :   0.1204 B(  0-C ,  6-H ) :  -0.1003
B(  0-C ,  8-C ) :   1.3156 B(  0-C ,  9-H ) :   0.8134 B(  0-C , 10-H ) :   0.8654
B(  0-C , 11-H ) :   0.2172 B(  0-C , 12-H ) :   0.2130 B(  0-C , 13-H ) :   0.2142
B(  1-C ,  2-C ) :   1.5341 B(  1-C ,  3-N ) :   1.2665 B(  1-C ,  5-H ) :  -0.1245
B(  1-C ,  7-H ) :   0.2490 B(  1-C ,  9-H ) :   0.2285 B(  2-C ,  3-N ) :   0.2839
B(  2-C ,  6-H ) :   1.0332 B(  2-C ,  7-H ) :   0.6039 B(  3-N ,  4-H ) :   1.1968
B(  3-N ,  5-H ) :   1.2634 B(  4-H ,  5-H ) :  -0.1613 B(  8-C , 10-H ) :   0.1220
B(  8-C , 11-H ) :   0.8119 B(  8-C , 12-H ) :   0.7573 B(  8-C , 13-H ) :   0.7699

Dispersion correction           -0.010422149
FINAL SINGLE POINT ENERGY      -212.132128353679

DIPOLE MOMENT
-------------
                                X             Y             Z
Electronic contribution:     -2.05972      -1.06593      -1.03340
Nuclear contribution   :      2.41345       0.31141       1.16343
                        -----------------------------------------
Total Dipole Moment    :      0.35373      -0.75452       0.13003
                        -----------------------------------------
Magnitude (a.u.)       :      0.84341
Magnitude (Debye)      :      2.14377

Rotational constants in cm-1:     0.287957     0.129204     0.097498
Rotational constants in MHz :  8632.737925  3873.424745  2922.919500

                             ****ORCA TERMINATED NORMALLY****
TOTAL RUN TIME: 0 days 0 hours 0 minutes 10 seconds 957 msec
