                         Program Version 5.0.0 -  RELEASE  -
|  1> !PBE D3BJ RIJCOSX def2-SVPD def2/J TightSCF
|  2> *xyz 0 1
|  3> C          4.93020       -7.37532       -2.64962
|  4> C          3.84189       -6.95161       -3.63283
|  5> H          3.45814       -5.95442       -3.40712
|  6> H          2.98848       -7.64361       -3.56708
|  7> S          4.31812       -6.91593       -5.36869
|  8> O          5.40615       -5.89948       -5.51297
|  9> F          3.11191       -6.44508       -6.04379
| 10> O          4.76340       -8.23942       -5.69863
| 11> H          5.27901       -8.35440       -2.90385
| 12> H          4.53000       -7.38577       -1.65734
| 13> H          5.74437       -6.68276       -2.69856
| 14> *
| 15>
| 16> %MaxCore 64000
| 17>
| 18> %pal nprocs 4
| 19> end
| 20>
| 21> %scf
| 22>   MaxIter 150
| 23> end
| 24>
| 25>
| 26>                          ****END OF INPUT****

CARTESIAN COORDINATES (ANGSTROEM)
---------------------------------
  C      4.930200   -7.375320   -2.649620
  C      3.841890   -6.951610   -3.632830
  H      3.458140   -5.954420   -3.407120
  H      2.988480   -7.643610   -3.567080
  S      4.318120   -6.915930   -5.368690
  O      5.406150   -5.899480   -5.512970
  F      3.111910   -6.445080   -6.043790
  O      4.763400   -8.239420   -5.698630
  H      5.279010   -8.354400   -2.903850
  H      4.530000   -7.385770   -1.657340
  H      5.744370   -6.682760   -2.698560

 Total Charge           Charge          ....    0
 Multiplicity           Mult            ....    1
 Number of Electrons    NEL             ....   58
 Basis Dimension        Dim             ....  176

ORBITAL ENERGIES
----------------

  NO   OCC          E(Eh)            E(eV)
   0   2.0000     -88.309218     -2403.0160
   1   2.0000     -24.380531      -663.4280
   2   2.0000     -18.781796      -511.0787
   3   2.0000     -18.765669      -510.6398
   4   2.0000      -9.962154      -271.0840
   5   2.0000      -9.918764      -269.9033
   6   2.0000      -7.914421      -215.3623
   7   2.0000      -5.945571      -161.7872
   8   2.0000      -5.939279      -161.6160
   9   2.0000      -5.937717      -161.5735
  10   2.0000      -1.257185       -34.2097
  11   2.0000      -1.020850       -27.7788
  12   2.0000      -0.916064       -24.9274
  13   2.0000      -0.749617       -20.3981
  14   2.0000      -0.667028       -18.1507
  15   2.0000      -0.609602       -16.5881
  16   2.0000      -0.522325       -14.2132
  17   2.0000      -0.514183       -13.9916
  18   2.0000      -0.497939       -13.5496
  19   2.0000      -0.447304       -12.1718
  20   2.0000      -0.433384       -11.7930
  21   2.0000      -0.396759       -10.7964
  22   2.0000      -0.389515       -10.5992
  23   2.0000      -0.369696       -10.0599
  24   2.0000      -0.348182        -9.4745
  25   2.0000      -0.340779        -9.2731
  26   2.0000      -0.295365        -8.0373
  27   2.0000      -0.280366        -7.6292
  28   2.0000      -0.260902        -7.0995
  29   0.0000      -0.027295        -0.7427
  30   0.0000      -0.009277        -0.2524
  31   0.0000       0.016489         0.4487
  32   0.0000       0.023307         0.6342
  33   0.0000       0.025533         0.6948

MULLIKEN ATOMIC CHARGES
-----------------------
   0 C :    0.777751
   1 C :   -0.432044
   2 H :   -0.010113
   3 H :    0.050226
   4 S :    1.383644
   5 O :   -0.651981
   6 F :   -0.369117
   7 O :   -0.600340
   8 H :   -0.037150
   9 H :   -0.069169
  10 H :   -0.041708
Sum of atomic charges:   -0.0000000

LOEWDIN ATOMIC CHARGES
----------------------
   0 C :    0.145706
   1 C :   -0.112810
   2 H :    0.020822
   3 H :    0.026560
   4 S :    1.072925
   5 O :   -0.459616
   6 F :   -0.251508
   7 O :   -0.436103
   8 H :   -0.002456
   9 H :   -0.002336
  10 H :   -0.001186

  Mayer bond orders larger than 0.100000
B(  0-C ,  1-C ) :   1.4002 B(  0-C ,  8-H ) :   0.7989 B(  0-C ,  9-H ) :   0.7288
B(  0-C , 10-H ) :   0.8102 B(  1-C ,  2-H ) :   0.9718 B(  1-C ,  3-H ) :   0.9396
B(  1-C ,  4-S ) :   0.9504 B(  1-C ,  8-H ) :   0.2067 B(  1-C ,  9-H ) :   0.2269
B(  1-C , 10-H ) :   0.2019 B(  4-S ,  5-O ) :   1.4919 B(  4-S ,  6-F ) :   0.7019
B(  4-S ,  7-O ) :   1.5389

Dispersion correction           -0.009188259
FINAL SINGLE POINT ENERGY      -726.768027271538

DIPOLE MOMENT
-------------
                                X             Y             Z
Electronic contribution:     -2.53278       1.68951      -9.67411
Nuclear contribution   :      1.40145      -1.67996      10.91024
                        -----------------------------------------
Total Dipole Moment    :     -1.13133       0.00955       1.23613
                        -----------------------------------------
Magnitude (a.u.)       :      1.67571
Magnitude (Debye)      :      4.25932

Rotational constants in cm-1:     0.155875     0.079864     0.077188
Rotational constants in MHz :  4673.017506  2394.277415  2314.027118

                             ****ORCA TERMINATED NORMALLY****
TOTAL RUN TIME: 0 days 0 hours 0 minutes 10 seconds 724 msec
