                         Program Version 5.0.0 -  RELEASE  -
|  1> !PBE D3BJ RIJCOSX def2-SVPD def2/J TightSCF
|  2> *xyz 0 1
|  3> C          5.55821       -1.99291       -6.21505
|  4> C          4.18188       -2.58967       -6.29891
|  5> N          3.14587       -1.76843       -6.48675
|  6> C          4.01910       -3.86431       -6.22743
|  7> H          4.76849       -4.59115       -5.99077
|  8> H          3.12241       -4.33339       -6.31462
|  9> H          3.28164       -0.77779       -6.56655
| 10> H          2.21255       -2.13419       -6.56225
| 11> C          6.41926       -2.54294       -5.07763
| 12> H          6.03683       -2.19819       -7.17685
| 13> H          5.46761       -0.90737       -6.12797
| 14> H          6.50056       -3.60553       -5.17358
| 15> H          5.96544       -2.30329       -4.13874
| 16> H          7.39438       -2.10494       -5.12457
| 17> *
| 18>
| 19> %MaxCore 64000
| 20>
| 21> %pal nprocs 4
| 22> end
| 23>
| 24> %scf
| 25>   MaxIter 150
| 26> end
| 27>
| 28>
| 29>                          ****END OF INPUT****

CARTESIAN COORDINATES (ANGSTROEM)
---------------------------------
  C      5.558210   -1.992910   -6.215050
  C      4.181880   -2.589670   -6.298910
  N      3.145870   -1.768430   -6.486750
  C      4.019100   -3.864310   -6.227430
  H      4.768490   -4.591150   -5.990770
  H      3.122410   -4.333390   -6.314620
  H      3.281640   -0.777790   -6.566550
  H      2.212550   -2.134190   -6.562250
  C      6.419260   -2.542940   -5.077630
  H      6.036830   -2.198190   -7.176850
  H      5.467610   -0.907370   -6.127970
  H      6.500560   -3.605530   -5.173580
  H      5.965440   -2.303290   -4.138740
  H      7.394380   -2.104940   -5.124570

 Total Charge           Charge          ....    0
 Multiplicity           Mult            ....    1
 Number of Electrons    NEL             ....   40
 Basis Dimension        Dim             ....  172

ORBITAL ENERGIES
----------------

  NO   OCC          E(Eh)            E(eV)
   0   2.0000     -14.000207      -380.9650
   1   2.0000      -9.911748      -269.7124
   2   2.0000      -9.896391      -269.2945
   3   2.0000      -9.879189      -268.8264
   4   2.0000      -9.832089      -267.5447
   5   2.0000      -0.837669       -22.7941
   6   2.0000      -0.703514       -19.1436
   7   2.0000      -0.638942       -17.3865
   8   2.0000      -0.573953       -15.6180
   9   2.0000      -0.502038       -13.6611
  10   2.0000      -0.472437       -12.8557
  11   2.0000      -0.435350       -11.8465
  12   2.0000      -0.399623       -10.8743
  13   2.0000      -0.371353       -10.1050
  14   2.0000      -0.341869        -9.3027
  15   2.0000      -0.327358        -8.9079
  16   2.0000      -0.308701        -8.4002
  17   2.0000      -0.294467        -8.0128
  18   2.0000      -0.283941        -7.7264
  19   2.0000      -0.162209        -4.4139
  20   0.0000       0.001065         0.0290
  21   0.0000       0.013755         0.3743
  22   0.0000       0.031536         0.8581
  23   0.0000       0.037616         1.0236
  24   0.0000       0.059803         1.6273

MULLIKEN ATOMIC CHARGES
-----------------------
   0 C :   -0.101422
   1 C :    0.299677
   2 N :    0.211726
   3 C :    0.122308
   4 H :    0.014066
   5 H :   -0.533847
   6 H :   -0.180519
   7 H :   -0.215001
   8 C :    0.785442
   9 H :   -0.079557
  10 H :   -0.068988
  11 H :   -0.142948
  12 H :   -0.067331
  13 H :   -0.043606
Sum of atomic charges:   -0.0000000

LOEWDIN ATOMIC CHARGES
----------------------
   0 C :   -0.037025
   1 C :   -0.265043
   2 N :    0.188276
   3 C :    0.153412
   4 H :   -0.046886
   5 H :   -0.085793
   6 H :   -0.017324
   7 H :   -0.001675
   8 C :    0.130656
   9 H :    0.030281
  10 H :    0.011765
  11 H :   -0.030813
  12 H :   -0.010997
  13 H :   -0.018834

  Mayer bond orders larger than 0.100000
B(  0-C ,  1-C ) :   1.0101 B(  0-C ,  2-N ) :   0.1363 B(  0-C ,  8-C ) :   1.3471
B(  0-C ,  9-H ) :   0.8746 B(  0-C , 10-H ) :   0.7992 B(  0-C , 11-H ) :   0.2014
B(  0-C , 12-H ) :   0.2258 B(  0-C , 13-H ) :   0.1921 B(  1-C ,  2-N ) :   1.0322
B(  1-C ,  3-C ) :   1.4107 B(  1-C ,  7-H ) :  -0.1453 B(  1-C ,  9-H ) :   0.1394
B(  1-C , 10-H ) :   0.1399 B(  2-N ,  3-C ) :   0.3460 B(  2-N ,  6-H ) :   1.1331
B(  2-N ,  7-H ) :   1.3024 B(  3-C ,  4-H ) :   0.8585 B(  3-C ,  5-H ) :   0.8435
B(  6-H ,  7-H ) :  -0.1665 B(  8-C ,  9-H ) :   0.1038 B(  8-C , 11-H ) :   0.8150
B(  8-C , 12-H ) :   0.7661 B(  8-C , 13-H ) :   0.7739

Dispersion correction           -0.010456189
FINAL SINGLE POINT ENERGY      -212.141025862045

DIPOLE MOMENT
-------------
                                X             Y             Z
Electronic contribution:     -2.83082       0.80535      -1.29336
Nuclear contribution   :      2.61570      -0.17401       1.22349
                        -----------------------------------------
Total Dipole Moment    :     -0.21512       0.63134      -0.06987
                        -----------------------------------------
Magnitude (a.u.)       :      0.67063
Magnitude (Debye)      :      1.70460

Rotational constants in cm-1:     0.298189     0.125314     0.096441
Rotational constants in MHz :  8939.495008  3756.825352  2891.223400

                             ****ORCA TERMINATED NORMALLY****
TOTAL RUN TIME: 0 days 0 hours 0 minutes 10 seconds 392 msec
