                         Program Version 5.0.0 -  RELEASE  -
|  1> !PBE D3BJ RIJCOSX def2-SVPD def2/J TightSCF
|  2> *xyz 0 1
|  3> C          4.93020       -7.37532       -2.64962
|  4> C          3.84189       -6.95161       -3.63283
|  5> H          3.45814       -5.95442       -3.40712
|  6> H          2.98848       -7.64361       -3.56708
|  7> S          4.31812       -6.91593       -5.36869
|  8> O          5.40615       -5.89948       -5.51297
|  9> O          3.11191       -6.44508       -6.04379
| 10> F          4.76340       -8.23942       -5.69863
| 11> H          5.27901       -8.35440       -2.90385
| 12> H          4.53000       -7.38577       -1.65734
| 13> H          5.74437       -6.68276       -2.69856
| 14> *
| 15>
| 16> %MaxCore 64000
| 17>
| 18> %pal nprocs 4
| 19> end
| 20>
| 21> %scf
| 22>   MaxIter 150
| 23> end
| 24>
| 25>
| 26>                          ****END OF INPUT****

CARTESIAN COORDINATES (ANGSTROEM)
---------------------------------
  C      4.930200   -7.375320   -2.649620
  C      3.841890   -6.951610   -3.632830
  H      3.458140   -5.954420   -3.407120
  H      2.988480   -7.643610   -3.567080
  S      4.318120   -6.915930   -5.368690
  O      5.406150   -5.899480   -5.512970
  O      3.111910   -6.445080   -6.043790
  F      4.763400   -8.239420   -5.698630
  H      5.279010   -8.354400   -2.903850
  H      4.530000   -7.385770   -1.657340
  H      5.744370   -6.682760   -2.698560

 Total Charge           Charge          ....    0
 Multiplicity           Mult            ....    1
 Number of Electrons    NEL             ....   58
 Basis Dimension        Dim             ....  176

ORBITAL ENERGIES
----------------

  NO   OCC          E(Eh)            E(eV)
   0   2.0000     -88.310904     -2403.0619
   1   2.0000     -24.393587      -663.7832
   2   2.0000     -18.773403      -510.8503
   3   2.0000     -18.766677      -510.6672
   4   2.0000      -9.962431      -271.0915
   5   2.0000      -9.920896      -269.9613
   6   2.0000      -7.916025      -215.4060
   7   2.0000      -5.947460      -161.8386
   8   2.0000      -5.940654      -161.6534
   9   2.0000      -5.939174      -161.6131
  10   2.0000      -1.279070       -34.8053
  11   2.0000      -1.010267       -27.4908
  12   2.0000      -0.908874       -24.7317
  13   2.0000      -0.752070       -20.4649
  14   2.0000      -0.670894       -18.2560
  15   2.0000      -0.618716       -16.8361
  16   2.0000      -0.540402       -14.7051
  17   2.0000      -0.528046       -14.3689
  18   2.0000      -0.494761       -13.4631
  19   2.0000      -0.446810       -12.1583
  20   2.0000      -0.429957       -11.6997
  21   2.0000      -0.406223       -11.0539
  22   2.0000      -0.387911       -10.5556
  23   2.0000      -0.367199        -9.9920
  24   2.0000      -0.355877        -9.6839
  25   2.0000      -0.330336        -8.9889
  26   2.0000      -0.287403        -7.8206
  27   2.0000      -0.279399        -7.6028
  28   2.0000      -0.255607        -6.9554
  29   0.0000      -0.034479        -0.9382
  30   0.0000       0.000046         0.0012
  31   0.0000       0.011799         0.3211
  32   0.0000       0.019414         0.5283
  33   0.0000       0.024274         0.6605

MULLIKEN ATOMIC CHARGES
-----------------------
   0 C :    0.801538
   1 C :   -0.406986
   2 H :   -0.017653
   3 H :    0.041705
   4 S :    1.350076
   5 O :   -0.645475
   6 O :   -0.604084
   7 F :   -0.355512
   8 H :   -0.055263
   9 H :   -0.070664
  10 H :   -0.037682
Sum of atomic charges:   -0.0000000

LOEWDIN ATOMIC CHARGES
----------------------
   0 C :    0.130154
   1 C :   -0.101482
   2 H :    0.035096
   3 H :    0.027533
   4 S :    1.072500
   5 O :   -0.457240
   6 O :   -0.449261
   7 F :   -0.238212
   8 H :   -0.010075
   9 H :   -0.004887
  10 H :   -0.004125

  Mayer bond orders larger than 0.100000
B(  0-C ,  1-C ) :   1.3512 B(  0-C ,  8-H ) :   0.7965 B(  0-C ,  9-H ) :   0.7217
B(  0-C , 10-H ) :   0.8179 B(  1-C ,  2-H ) :   0.9876 B(  1-C ,  3-H ) :   0.9529
B(  1-C ,  4-S ) :   0.9755 B(  1-C ,  8-H ) :   0.2032 B(  1-C ,  9-H ) :   0.2281
B(  1-C , 10-H ) :   0.2026 B(  4-S ,  5-O ) :   1.5060 B(  4-S ,  6-O ) :   1.5606
B(  4-S ,  7-F ) :   0.7127

Dispersion correction           -0.009145551
FINAL SINGLE POINT ENERGY      -726.756625139882

DIPOLE MOMENT
-------------
                                X             Y             Z
Electronic contribution:      0.20268      -1.26753      -9.09532
Nuclear contribution   :     -0.31946       0.18980      10.55057
                        -----------------------------------------
Total Dipole Moment    :     -0.11677      -1.07774       1.45525
                        -----------------------------------------
Magnitude (a.u.)       :      1.81464
Magnitude (Debye)      :      4.61245

Rotational constants in cm-1:     0.151421     0.081183     0.078684
Rotational constants in MHz :  4539.489207  2433.790160  2358.892966

                             ****ORCA TERMINATED NORMALLY****
TOTAL RUN TIME: 0 days 0 hours 0 minutes 9 seconds 746 msec
