                         Program Version 5.0.0 -  RELEASE  -
|  1> !PBE D3BJ RIJCOSX def2-SVPD def2/J TightSCF xyzfile
|  2>
|  3> *xyzfile 0 1 D4.xyz
|  4>
|  5> %MaxCore 64000
|  6>
|  7> %pal nprocs 4
|  8> end
|  9>
| 10> %scf
| 11>   MaxIter 150
| 12> end
| 13>
| 14>
| 15>                          ****END OF INPUT****

CARTESIAN COORDINATES (ANGSTROEM)
---------------------------------
  C      5.558206   -1.992914   -6.215054
  C      4.930199   -7.375319   -2.649623
  C      3.841892   -6.951611   -3.632829
  H      3.458144   -5.954425   -3.407121
  H      2.988484   -7.643606   -3.567078
  S      4.318115   -6.915930   -5.368692
  C      4.181880   -2.589671   -6.298911
  N      3.145873   -1.768431   -6.486753
  C      4.019102   -3.864307   -6.227427
  H      4.768490   -4.591153   -5.990773
  H      3.122405   -4.333392   -6.314620
  H      3.281635   -0.777786   -6.566549
  H      2.212549   -2.134193   -6.562246
  O      5.406154   -5.899480   -5.512972
  F      3.111910   -6.445079   -6.043792
  C      6.419260   -2.542944   -5.077630
  C      5.872267   -5.002756   -2.427819
  C      6.173994   -6.485522   -2.606315
  H      6.734852   -6.613767   -3.534015
  H      6.821463   -6.831018   -1.793617
  H      4.469612   -7.406168   -1.655876
  H      5.230134   -8.398678   -2.885906
  C      5.896512   -2.169314   -3.694552
  H      7.428880   -2.143665   -5.208078
  H      6.505894   -3.627541   -5.175502
  C      6.807804   -2.623428   -2.551019
  H      4.894708   -2.589732   -3.557501
  H      5.778823   -1.081255   -3.635790
  C      7.111544   -4.122463   -2.520363
  H      7.751615   -2.071393   -2.614406
  H      6.345837   -2.326401   -1.604086
  H      5.362882   -4.828697   -1.471335
  H      5.174429   -4.702577   -3.211298
  H      7.778329   -4.329347   -1.677651
  H      7.673189   -4.402845   -3.417586
  O      4.763396   -8.239424   -5.698629
  H      6.036826   -2.198189   -7.176852
  H      5.467610   -0.907371   -6.127968

 Total Charge           Charge          ....    0
 Multiplicity           Mult            ....    1
 Number of Electrons    NEL             ....  136
 Basis Dimension        Dim             ....  512

ORBITAL ENERGIES
----------------

  NO   OCC          E(Eh)            E(eV)
   0   2.0000     -88.313407     -2403.1300
   1   2.0000     -24.379156      -663.3906
   2   2.0000     -18.783365      -511.1214
   3   2.0000     -18.768280      -510.7109
   4   2.0000     -13.990408      -380.6983
   5   2.0000      -9.956594      -270.9327
   6   2.0000      -9.923255      -270.0255
   7   2.0000      -9.897509      -269.3249
   8   2.0000      -9.895591      -269.2727
   9   2.0000      -9.887868      -269.0626
  10   2.0000      -9.884809      -268.9793
  11   2.0000      -9.884386      -268.9678
  12   2.0000      -9.883775      -268.9512
  13   2.0000      -9.879494      -268.8347
  14   2.0000      -9.879207      -268.8269
  15   2.0000      -9.801468      -266.7115
  16   2.0000      -7.916834      -215.4280
  17   2.0000      -5.947893      -161.8504
  18   2.0000      -5.942033      -161.6909
  19   2.0000      -5.940198      -161.6410
  20   2.0000      -1.256410       -34.1887
  21   2.0000      -1.023410       -27.8484
  22   2.0000      -0.924988       -25.1702
  23   2.0000      -0.826811       -22.4987
  24   2.0000      -0.759148       -20.6575
  25   2.0000      -0.729221       -19.8431
  26   2.0000      -0.704468       -19.1695
  27   2.0000      -0.682406       -18.5692
  28   2.0000      -0.652493       -17.7552
  29   2.0000      -0.633891       -17.2490
  30   2.0000      -0.611469       -16.6389
  31   2.0000      -0.584472       -15.9043
  32   2.0000      -0.554514       -15.0891
  33   2.0000      -0.537052       -14.6139
  34   2.0000      -0.519375       -14.1329
  35   2.0000      -0.509520       -13.8648
  36   2.0000      -0.502547       -13.6750
  37   2.0000      -0.493340       -13.4245
  38   2.0000      -0.481830       -13.1113
  39   2.0000      -0.462666       -12.5898
  40   2.0000      -0.445614       -12.1258
  41   2.0000      -0.442384       -12.0379
  42   2.0000      -0.428502       -11.6601
  43   2.0000      -0.417654       -11.3649
  44   2.0000      -0.409001       -11.1295
  45   2.0000      -0.400634       -10.9018
  46   2.0000      -0.396965       -10.8020
  47   2.0000      -0.380566       -10.3557
  48   2.0000      -0.369887       -10.0651
  49   2.0000      -0.364580        -9.9207
  50   2.0000      -0.359284        -9.7766
  51   2.0000      -0.350853        -9.5472
  52   2.0000      -0.341593        -9.2952
  53   2.0000      -0.324540        -8.8312
  54   2.0000      -0.321351        -8.7444
  55   2.0000      -0.316424        -8.6103
  56   2.0000      -0.308719        -8.4007
  57   2.0000      -0.300918        -8.1884
  58   2.0000      -0.295614        -8.0441
  59   2.0000      -0.292910        -7.9705
  60   2.0000      -0.283163        -7.7053
  61   2.0000      -0.281068        -7.6483
  62   2.0000      -0.278642        -7.5822
  63   2.0000      -0.269635        -7.3371
  64   2.0000      -0.264059        -7.1854
  65   2.0000      -0.260675        -7.0933
  66   2.0000      -0.227512        -6.1909
  67   2.0000      -0.149320        -4.0632
  68   0.0000      -0.024050        -0.6544
  69   0.0000      -0.010676        -0.2905
  70   0.0000       0.004141         0.1127
  71   0.0000       0.007267         0.1978
  72   0.0000       0.014678         0.3994

MULLIKEN ATOMIC CHARGES
-----------------------
   0 C :    0.824027
   1 C :    0.484293
   2 C :   -0.089378
   3 H :    0.279256
   4 H :   -0.207934
   5 S :    1.451729
   6 C :    0.188743
   7 N :    0.166767
   8 C :    0.987411
   9 H :   -0.034592
  10 H :   -1.096186
  11 H :   -0.175970
  12 H :   -0.223559
  13 O :   -0.828345
  14 F :   -0.438044
  15 C :    0.279335
  16 C :   -0.082219
  17 C :    0.220948
  18 H :    0.108690
  19 H :   -0.346978
  20 H :    0.070030
  21 H :    0.005838
  22 C :   -0.129964
  23 H :   -0.125066
  24 H :   -0.538475
  25 C :    0.635810
  26 H :    0.216243
  27 H :   -0.352743
  28 C :    0.084431
  29 H :    0.032055
  30 H :   -0.047778
  31 H :    0.012879
  32 H :   -0.260835
  33 H :   -0.334331
  34 H :    0.115321
  35 O :   -0.729481
  36 H :   -0.146601
  37 H :    0.024676
Sum of atomic charges:    0.0000000

LOEWDIN ATOMIC CHARGES
----------------------
   0 C :    0.013749
   1 C :   -0.019959
   2 C :   -0.054826
   3 H :    0.016278
   4 H :    0.028934
   5 S :    1.118743
   6 C :   -0.242748
   7 N :    0.188813
   8 C :    0.171215
   9 H :   -0.164456
  10 H :   -0.096337
  11 H :   -0.021262
  12 H :   -0.004753
  13 O :   -0.432961
  14 F :   -0.241724
  15 C :   -0.019293
  16 C :   -0.035016
  17 C :   -0.028250
  18 H :    0.017683
  19 H :    0.030904
  20 H :    0.038800
  21 H :    0.032379
  22 C :   -0.034353
  23 H :    0.029026
  24 H :   -0.000421
  25 C :   -0.034787
  26 H :    0.014099
  27 H :    0.022279
  28 C :   -0.033126
  29 H :    0.021746
  30 H :    0.020677
  31 H :    0.037628
  32 H :   -0.012258
  33 H :    0.023967
  34 H :    0.021922
  35 O :   -0.417480
  36 H :    0.032676
  37 H :    0.012494

  Mayer bond orders larger than 0.100000
B(  0-C ,  6-C ) :   0.9354 B(  0-C ,  8-C ) :   0.1951 B(  0-C ,  9-H ) :  -0.1303
B(  0-C , 15-C ) :   1.2384 B(  0-C , 24-H ) :   0.1401 B(  0-C , 36-H ) :   0.5328
B(  0-C , 37-H ) :   0.6634 B(  1-C ,  2-C ) :   1.3056 B(  1-C ,  3-H ) :   0.1071
B(  1-C ,  4-H ) :   0.1797 B(  1-C , 17-C ) :   1.2372 B(  1-C , 20-H ) :   0.6703
B(  1-C , 21-H ) :   0.6381 B(  2-C ,  3-H ) :   0.7494 B(  2-C ,  4-H ) :   0.8523
B(  2-C ,  5-S ) :   0.9869 B(  2-C , 20-H ) :   0.2044 B(  2-C , 21-H ) :   0.1283
B(  2-C , 35-O ) :   0.1483 B(  5-S , 13-O ) :   1.3201 B(  5-S , 14-F ) :   0.6511
B(  5-S , 35-O ) :   1.4695 B(  6-C ,  7-N ) :   0.8138 B(  6-C ,  8-C ) :   1.8202
B(  6-C ,  9-H ) :  -0.1625 B(  6-C , 10-H ) :   0.1927 B(  6-C , 12-H ) :  -0.1646
B(  6-C , 36-H ) :   0.2658 B(  6-C , 37-H ) :   0.1037 B(  7-N ,  8-C ) :   0.5645
B(  7-N ,  9-H ) :   0.1035 B(  7-N , 10-H ) :  -0.1094 B(  7-N , 11-H ) :   1.1511
B(  7-N , 12-H ) :   1.3284 B(  8-C ,  9-H ) :   0.4261 B(  8-C , 10-H ) :  -0.2087
B(  8-C , 14-F ) :  -0.1585 B(  8-C , 24-H ) :   0.1777 B(  9-H , 10-H ) :  -0.2273
B(  9-H , 14-F ) :   0.1110 B(  9-H , 24-H ) :   0.1332 B( 10-H , 14-F ) :   0.2525
B( 10-H , 24-H ) :  -0.1319 B( 11-H , 12-H ) :  -0.1635 B( 13-O , 24-H ) :   0.1797
B( 13-O , 35-O ) :   0.1797 B( 15-C , 22-C ) :   1.2280 B( 15-C , 23-H ) :   0.7279
B( 15-C , 24-H ) :   0.6701 B( 15-C , 26-H ) :   0.1454 B( 15-C , 27-H ) :   0.2002
B( 15-C , 36-H ) :   0.3369 B( 15-C , 37-H ) :   0.1706 B( 16-C , 17-C ) :   1.2140
B( 16-C , 18-H ) :   0.1355 B( 16-C , 19-H ) :   0.1808 B( 16-C , 28-C ) :   1.2411
B( 16-C , 31-H ) :   0.7533 B( 16-C , 32-H ) :   1.0264 B( 16-C , 33-H ) :   0.2228
B( 16-C , 34-H ) :   0.1578 B( 17-C , 18-H ) :   0.8166 B( 17-C , 19-H ) :   0.8471
B( 17-C , 20-H ) :   0.1116 B( 17-C , 21-H ) :   0.2596 B( 17-C , 28-C ) :   0.1541
B( 17-C , 31-H ) :   0.1093 B( 20-H , 21-H ) :  -0.1039 B( 22-C , 23-H ) :   0.1708
B( 22-C , 24-H ) :   0.2015 B( 22-C , 25-C ) :   1.0926 B( 22-C , 26-H ) :   0.7785
B( 22-C , 27-H ) :   1.0789 B( 22-C , 28-C ) :   0.1494 B( 22-C , 29-H ) :   0.1708
B( 22-C , 30-H ) :   0.2566 B( 25-C , 28-C ) :   1.1413 B( 25-C , 29-H ) :   0.6337
B( 25-C , 30-H ) :   0.6637 B( 25-C , 34-H ) :   0.1013 B( 26-H , 27-H ) :  -0.1017
B( 26-H , 32-H ) :   0.1551 B( 28-C , 29-H ) :   0.2292 B( 28-C , 30-H ) :   0.1351
B( 28-C , 31-H ) :   0.1237 B( 28-C , 33-H ) :   0.9561 B( 28-C , 34-H ) :   0.7905
B( 29-H , 30-H ) :  -0.1069 B( 36-H , 37-H ) :  -0.1387

Dispersion correction           -0.046431471
FINAL SINGLE POINT ENERGY     -1133.875592406577

DIPOLE MOMENT
-------------
                                X             Y             Z
Electronic contribution:    -11.67179     -18.13166     -14.67073
Nuclear contribution   :     10.61624      18.49702      15.75668
                        -----------------------------------------
Total Dipole Moment    :     -1.05555       0.36536       1.08595
                        -----------------------------------------
Magnitude (a.u.)       :      1.55787
Magnitude (Debye)      :      3.95980

Rotational constants in cm-1:     0.017796     0.012372     0.008231
Rotational constants in MHz :   533.524905   370.895973   246.762347

                             ****ORCA TERMINATED NORMALLY****
TOTAL RUN TIME: 0 days 0 hours 1 minutes 2 seconds 853 msec
