                         Program Version 5.0.0 -  RELEASE  -
|  1> !PBE D3BJ RIJCOSX def2-SVPD def2/J TightSCF xyzfile
|  2>
|  3> *xyzfile 0 1 D5.xyz
|  4>
|  5> %MaxCore 64000
|  6>
|  7> %pal nprocs 4
|  8> end
|  9>
| 10> %scf
| 11>   MaxIter 150
| 12> end
| 13>
| 14>
| 15>                          ****END OF INPUT****

CARTESIAN COORDINATES (ANGSTROEM)
---------------------------------
  C      5.558206   -1.992914   -6.215054
  C      4.930199   -7.375319   -2.649623
  C      3.841892   -6.951611   -3.632829
  H      3.458144   -5.954425   -3.407121
  H      2.988484   -7.643606   -3.567078
  S      4.318115   -6.915930   -5.368692
  C      4.181880   -2.589671   -6.298911
  C      3.145873   -1.768431   -6.486753
  N      4.019102   -3.864307   -6.227427
  H      4.768490   -4.591153   -5.990773
  H      3.122405   -4.333392   -6.314620
  H      3.281635   -0.777786   -6.566549
  H      2.212549   -2.134193   -6.562246
  O      5.406154   -5.899480   -5.512972
  O      3.111910   -6.445079   -6.043792
  C      6.419260   -2.542944   -5.077630
  C      5.872267   -5.002756   -2.427819
  C      6.173994   -6.485522   -2.606315
  H      6.734852   -6.613767   -3.534015
  H      6.821463   -6.831018   -1.793617
  H      4.469612   -7.406168   -1.655876
  H      5.230134   -8.398678   -2.885906
  C      5.896512   -2.169314   -3.694552
  H      7.428880   -2.143665   -5.208078
  H      6.505894   -3.627541   -5.175502
  C      6.807804   -2.623428   -2.551019
  H      4.894708   -2.589732   -3.557501
  H      5.778823   -1.081255   -3.635790
  C      7.111544   -4.122463   -2.520363
  H      7.751615   -2.071393   -2.614406
  H      6.345837   -2.326401   -1.604086
  H      5.362882   -4.828697   -1.471335
  H      5.174429   -4.702577   -3.211298
  H      7.778329   -4.329347   -1.677651
  H      7.673189   -4.402845   -3.417586
  F      4.763396   -8.239424   -5.698629
  H      6.036826   -2.198189   -7.176852
  H      5.467610   -0.907371   -6.127968

 Total Charge           Charge          ....    0
 Multiplicity           Mult            ....    1
 Number of Electrons    NEL             ....  136
 Basis Dimension        Dim             ....  512

ORBITAL ENERGIES
----------------

  NO   OCC          E(Eh)            E(eV)
   0   2.0000     -88.340489     -2403.8669
   1   2.0000     -24.416506      -664.4069
   2   2.0000     -18.799955      -511.5728
   3   2.0000     -18.799459      -511.5593
   4   2.0000     -13.957950      -379.8151
   5   2.0000      -9.974657      -271.4242
   6   2.0000      -9.937806      -270.4214
   7   2.0000      -9.909633      -269.6548
   8   2.0000      -9.897865      -269.3346
   9   2.0000      -9.890882      -269.1446
  10   2.0000      -9.885543      -268.9993
  11   2.0000      -9.884667      -268.9755
  12   2.0000      -9.877967      -268.7932
  13   2.0000      -9.877657      -268.7847
  14   2.0000      -9.872832      -268.6534
  15   2.0000      -9.798989      -266.6441
  16   2.0000      -7.944010      -216.1675
  17   2.0000      -5.975388      -162.5986
  18   2.0000      -5.969196      -162.4301
  19   2.0000      -5.966957      -162.3692
  20   2.0000      -1.300958       -35.4009
  21   2.0000      -1.042084       -28.3565
  22   2.0000      -0.943652       -25.6781
  23   2.0000      -0.810396       -22.0520
  24   2.0000      -0.777582       -21.1591
  25   2.0000      -0.734343       -19.9825
  26   2.0000      -0.711216       -19.3532
  27   2.0000      -0.685916       -18.6647
  28   2.0000      -0.668061       -18.1789
  29   2.0000      -0.638063       -17.3626
  30   2.0000      -0.615210       -16.7407
  31   2.0000      -0.585979       -15.9453
  32   2.0000      -0.564931       -15.3726
  33   2.0000      -0.554604       -15.0915
  34   2.0000      -0.542362       -14.7584
  35   2.0000      -0.530133       -14.4256
  36   2.0000      -0.515072       -14.0158
  37   2.0000      -0.497866       -13.5476
  38   2.0000      -0.487539       -13.2666
  39   2.0000      -0.461638       -12.5618
  40   2.0000      -0.458224       -12.4689
  41   2.0000      -0.452787       -12.3210
  42   2.0000      -0.434400       -11.8206
  43   2.0000      -0.416867       -11.3435
  44   2.0000      -0.414265       -11.2727
  45   2.0000      -0.404983       -11.0201
  46   2.0000      -0.392099       -10.6696
  47   2.0000      -0.386442       -10.5156
  48   2.0000      -0.376764       -10.2523
  49   2.0000      -0.373929       -10.1751
  50   2.0000      -0.358975        -9.7682
  51   2.0000      -0.354917        -9.6578
  52   2.0000      -0.348508        -9.4834
  53   2.0000      -0.333375        -9.0716
  54   2.0000      -0.324019        -8.8170
  55   2.0000      -0.317474        -8.6389
  56   2.0000      -0.314768        -8.5653
  57   2.0000      -0.307855        -8.3772
  58   2.0000      -0.304955        -8.2982
  59   2.0000      -0.298090        -8.1114
  60   2.0000      -0.290210        -7.8970
  61   2.0000      -0.284325        -7.7369
  62   2.0000      -0.281527        -7.6607
  63   2.0000      -0.274190        -7.4611
  64   2.0000      -0.268054        -7.2941
  65   2.0000      -0.257930        -7.0186
  66   2.0000      -0.253118        -6.8877
  67   2.0000      -0.127259        -3.4629
  68   0.0000      -0.050485        -1.3738
  69   0.0000      -0.017499        -0.4762
  70   0.0000      -0.008490        -0.2310
  71   0.0000      -0.001735        -0.0472
  72   0.0000       0.002910         0.0792

MULLIKEN ATOMIC CHARGES
-----------------------
   0 C :    0.768321
   1 C :    0.498369
   2 C :   -0.056667
   3 H :    0.264087
   4 H :   -0.216224
   5 S :    1.496155
   6 C :   -0.402573
   7 C :    0.449977
   8 N :    0.910585
   9 H :   -0.274309
  10 H :   -0.316687
  11 H :   -0.292792
  12 H :   -0.381122
  13 O :   -0.931576
  14 O :   -0.682734
  15 C :    0.331422
  16 C :   -0.071449
  17 C :    0.241433
  18 H :    0.107188
  19 H :   -0.351115
  20 H :    0.063315
  21 H :   -0.012062
  22 C :   -0.099051
  23 H :   -0.141299
  24 H :   -0.567875
  25 C :    0.617305
  26 H :    0.172497
  27 H :   -0.336990
  28 C :    0.072304
  29 H :    0.036702
  30 H :   -0.060618
  31 H :    0.018725
  32 H :   -0.265811
  33 H :   -0.342774
  34 H :    0.135291
  35 F :   -0.486947
  36 H :   -0.166522
  37 H :    0.273521
Sum of atomic charges:    0.0000000

LOEWDIN ATOMIC CHARGES
----------------------
   0 C :    0.014100
   1 C :   -0.033786
   2 C :   -0.041376
   3 H :    0.032226
   4 H :    0.032807
   5 S :    1.141596
   6 C :   -0.265656
   7 C :    0.172748
   8 N :    0.201885
   9 H :   -0.108378
  10 H :   -0.024323
  11 H :   -0.103552
  12 H :   -0.097344
  13 O :   -0.424864
  14 O :   -0.422947
  15 C :   -0.028161
  16 C :   -0.033758
  17 C :   -0.032739
  18 H :    0.012035
  19 H :    0.031936
  20 H :    0.038693
  21 H :    0.026470
  22 C :   -0.031901
  23 H :    0.027343
  24 H :   -0.009628
  25 C :   -0.034271
  26 H :    0.016139
  27 H :    0.027141
  28 C :   -0.033646
  29 H :    0.022624
  30 H :    0.021210
  31 H :    0.039905
  32 H :   -0.012533
  33 H :    0.024127
  34 H :    0.020854
  35 F :   -0.217293
  36 H :    0.028270
  37 H :    0.024046

  Mayer bond orders larger than 0.100000
B(  0-C ,  6-C ) :   0.9655 B(  0-C ,  8-N ) :   0.1891 B(  0-C , 15-C ) :   1.1758
B(  0-C , 23-H ) :   0.1231 B(  0-C , 24-H ) :   0.1824 B(  0-C , 36-H ) :   0.4719
B(  0-C , 37-H ) :   0.6507 B(  1-C ,  2-C ) :   1.2747 B(  1-C ,  4-H ) :   0.1761
B(  1-C , 17-C ) :   1.2484 B(  1-C , 20-H ) :   0.6775 B(  1-C , 21-H ) :   0.6313
B(  2-C ,  3-H ) :   0.7786 B(  2-C ,  4-H ) :   0.8389 B(  2-C ,  5-S ) :   0.9932
B(  2-C , 20-H ) :   0.1858 B(  2-C , 21-H ) :   0.1162 B(  2-C , 35-F ) :   0.1255
B(  4-H ,  5-S ) :   0.1143 B(  5-S , 13-O ) :   1.2306 B(  5-S , 14-O ) :   1.4856
B(  5-S , 35-F ) :   0.5808 B(  6-C ,  7-C ) :   1.5304 B(  6-C ,  8-N ) :   1.3803
B(  6-C , 10-H ) :  -0.2178 B(  6-C , 11-H ) :   0.1604 B(  6-C , 12-H ) :   0.3516
B(  6-C , 15-C ) :   0.1373 B(  6-C , 24-H ) :  -0.1229 B(  6-C , 36-H ) :   0.3096
B(  6-C , 37-H ) :   0.1069 B(  7-C ,  8-N ) :   0.2061 B(  7-C , 10-H ) :  -0.1100
B(  7-C , 11-H ) :   0.8588 B(  7-C , 12-H ) :   0.5881 B(  8-N ,  9-H ) :   0.6654
B(  8-N , 10-H ) :   0.9688 B(  8-N , 13-O ) :  -0.1529 B(  8-N , 24-H ) :   0.1029
B(  9-H , 10-H ) :  -0.2270 B(  9-H , 13-O ) :   0.1709 B( 10-H , 14-O ) :   0.1644
B( 13-O , 14-O ) :   0.1651 B( 13-O , 24-H ) :   0.1867 B( 13-O , 35-F ) :   0.1299
B( 15-C , 22-C ) :   1.2184 B( 15-C , 23-H ) :   0.7348 B( 15-C , 24-H ) :   0.5977
B( 15-C , 26-H ) :   0.1406 B( 15-C , 27-H ) :   0.2085 B( 15-C , 36-H ) :   0.2699
B( 15-C , 37-H ) :   0.1679 B( 16-C , 17-C ) :   1.2230 B( 16-C , 18-H ) :   0.1353
B( 16-C , 19-H ) :   0.1760 B( 16-C , 28-C ) :   1.2474 B( 16-C , 31-H ) :   0.7524
B( 16-C , 32-H ) :   1.0137 B( 16-C , 33-H ) :   0.2164 B( 16-C , 34-H ) :   0.1448
B( 17-C , 18-H ) :   0.8114 B( 17-C , 19-H ) :   0.8447 B( 17-C , 20-H ) :   0.1158
B( 17-C , 21-H ) :   0.2585 B( 17-C , 28-C ) :   0.1503 B( 17-C , 31-H ) :   0.1120
B( 20-H , 21-H ) :  -0.1070 B( 22-C , 23-H ) :   0.1590 B( 22-C , 24-H ) :   0.2220
B( 22-C , 25-C ) :   1.0859 B( 22-C , 26-H ) :   0.7940 B( 22-C , 27-H ) :   1.0279
B( 22-C , 28-C ) :   0.1388 B( 22-C , 29-H ) :   0.1504 B( 22-C , 30-H ) :   0.2416
B( 24-H , 34-H ) :   0.1030 B( 25-C , 28-C ) :   1.1485 B( 25-C , 29-H ) :   0.6614
B( 25-C , 30-H ) :   0.6821 B( 26-H , 32-H ) :   0.1471 B( 28-C , 29-H ) :   0.2250
B( 28-C , 30-H ) :   0.1407 B( 28-C , 31-H ) :   0.1177 B( 28-C , 33-H ) :   0.9641
B( 28-C , 34-H ) :   0.7837 B( 29-H , 30-H ) :  -0.1127

Dispersion correction           -0.046251104
FINAL SINGLE POINT ENERGY     -1133.879672066209

DIPOLE MOMENT
-------------
                                X             Y             Z
Electronic contribution:     -8.11296     -23.31074     -13.64613
Nuclear contribution   :      8.54118      20.92489      15.31138
                        -----------------------------------------
Total Dipole Moment    :      0.42822      -2.38585       1.66525
                        -----------------------------------------
Magnitude (a.u.)       :      2.94087
Magnitude (Debye)      :      7.47509

Rotational constants in cm-1:     0.018156     0.012306     0.008278
Rotational constants in MHz :   544.309022   368.914527   248.178402

                             ****ORCA TERMINATED NORMALLY****
TOTAL RUN TIME: 0 days 0 hours 1 minutes 8 seconds 823 msec
