                         Program Version 5.0.0 -  RELEASE  -
|  1> !LC-BLYP RIJCOSX def2-TZVP def2/J TightSCF
|  2> *xyz -1 1
|  3> C         -0.77455        2.78833       -0.54394
|  4> C          0.69721        3.22791       -0.52513
|  5> O          1.48929        2.37470        0.19919
|  6> H          0.71600        4.26403       -0.13077
|  7> H          1.03615        3.33092       -1.58367
|  8> H         -1.34746        3.48478       -1.11982
|  9> H         -1.15078        2.75876        0.45729
| 10> H         -0.85058        1.81526       -0.98241
| 11> *
| 12>
| 13> %MaxCore 64000
| 14> %pal nprocs 4
| 15> end
| 16>
| 17> %scf
| 18>   MaxIter 150
| 19> end
| 20>
| 21>
| 22>                          ****END OF INPUT****

CARTESIAN COORDINATES (ANGSTROEM)
---------------------------------
  C     -0.774550    2.788330   -0.543940
  C      0.697210    3.227910   -0.525130
  O      1.489290    2.374700    0.199190
  H      0.716000    4.264030   -0.130770
  H      1.036150    3.330920   -1.583670
  H     -1.347460    3.484780   -1.119820
  H     -1.150780    2.758760    0.457290
  H     -0.850580    1.815260   -0.982410

 Total Charge           Charge          ....   -1
 Multiplicity           Mult            ....    1
 Number of Electrons    NEL             ....   26
 Basis Dimension        Dim             ....  123

ORBITAL ENERGIES
----------------

  NO   OCC          E(Eh)            E(eV)
   0   2.0000     -18.577978      -505.5325
   1   2.0000      -9.872824      -268.6532
   2   2.0000      -9.851747      -268.0797
   3   2.0000      -0.758995       -20.6533
   4   2.0000      -0.625685       -17.0258
   5   2.0000      -0.470866       -12.8129
   6   2.0000      -0.349704        -9.5159
   7   2.0000      -0.324849        -8.8396
   8   2.0000      -0.267446        -7.2776
   9   2.0000      -0.247353        -6.7308
  10   2.0000      -0.196245        -5.3401
  11   2.0000      -0.049645        -1.3509
  12   2.0000      -0.047345        -1.2883
  13   0.0000       0.280718         7.6387
  14   0.0000       0.318183         8.6582
  15   0.0000       0.345182         9.3929
  16   0.0000       0.346195         9.4204
  17   0.0000       0.382163        10.3992

MULLIKEN ATOMIC CHARGES
-----------------------
   0 C :   -0.219995
   1 C :   -0.012806
   2 O :   -0.738348
   3 H :   -0.053224
   4 H :   -0.055424
   5 H :   -0.008192
   6 H :    0.044404
   7 H :    0.043585
Sum of atomic charges:   -1.0000000

LOEWDIN ATOMIC CHARGES
----------------------
   0 C :   -0.378045
   1 C :   -0.571078
   2 O :   -0.427961
   3 H :    0.057465
   4 H :    0.056762
   5 H :    0.079142
   6 H :    0.092050
   7 H :    0.091665

  Mayer bond orders larger than 0.100000
B(  0-C ,  1-C ) :   0.8740 B(  0-C ,  2-O ) :  -0.2179 B(  0-C ,  5-H ) :   0.9361
B(  0-C ,  6-H ) :   0.9731 B(  0-C ,  7-H ) :   0.9727 B(  1-C ,  2-O ) :   1.6704
B(  1-C ,  3-H ) :   0.9309 B(  1-C ,  4-H ) :   0.9318

FINAL SINGLE POINT ENERGY      -154.100670795560

DIPOLE MOMENT
-------------
                                X             Y             Z
Electronic contribution:      2.44589      -1.10132       1.23104
Nuclear contribution   :     -3.69910       1.55962      -1.78699
                        -----------------------------------------
Total Dipole Moment    :     -1.25321       0.45830      -0.55595
                        -----------------------------------------
Magnitude (a.u.)       :      1.44556
Magnitude (Debye)      :      3.67433

Rotational constants in cm-1:     1.268893     0.327436     0.287754
Rotational constants in MHz : 38040.440181  9816.269339  8626.646564

                             ****ORCA TERMINATED NORMALLY****
TOTAL RUN TIME: 0 days 0 hours 0 minutes 13 seconds 818 msec
