                         Program Version 5.0.0 -  RELEASE  -
|  1> !LC-BLYP RIJCOSX def2-TZVP def2/J TightSCF
|  2> *xyz 1 1
|  3> C          3.95643        0.50147       -0.37910
|  4> H          3.16840        0.02920        0.20738
|  5> N          3.80389        1.96157       -0.15675
|  6> C          3.84232        0.14849       -1.85406
|  7> H          4.92323        0.17798        0.00937
|  8> H          4.20643        2.24441        0.74536
|  9> H          2.80827        2.21132       -0.09610
| 10> H          4.28076        2.50155       -0.89104
| 11> H          4.62951        0.62800       -2.39748
| 12> H          2.89665        0.48102       -2.22825
| 13> H          3.92053       -0.91187       -1.97413
| 14> *
| 15>
| 16> %MaxCore 64000
| 17> %pal nprocs 4
| 18> end
| 19>
| 20> %scf
| 21>   MaxIter 150
| 22> end
| 23>
| 24>
| 25>                          ****END OF INPUT****

CARTESIAN COORDINATES (ANGSTROEM)
---------------------------------
  C      3.956430    0.501470   -0.379100
  H      3.168400    0.029200    0.207380
  N      3.803890    1.961570   -0.156750
  C      3.842320    0.148490   -1.854060
  H      4.923230    0.177980    0.009370
  H      4.206430    2.244410    0.745360
  H      2.808270    2.211320   -0.096100
  H      4.280760    2.501550   -0.891040
  H      4.629510    0.628000   -2.397480
  H      2.896650    0.481020   -2.228250
  H      3.920530   -0.911870   -1.974130

 Total Charge           Charge          ....    1
 Multiplicity           Mult            ....    1
 Number of Electrons    NEL             ....   26
 Basis Dimension        Dim             ....  141

ORBITAL ENERGIES
----------------

  NO   OCC          E(Eh)            E(eV)
   0   2.0000     -14.503721      -394.6663
   1   2.0000     -10.321867      -280.8723
   2   2.0000     -10.241770      -278.6927
   3   2.0000      -1.318899       -35.8891
   4   2.0000      -1.075617       -29.2690
   5   2.0000      -0.953521       -25.9466
   6   2.0000      -0.908999       -24.7351
   7   2.0000      -0.890060       -24.2198
   8   2.0000      -0.800731       -21.7890
   9   2.0000      -0.747027       -20.3276
  10   2.0000      -0.683450       -18.5976
  11   2.0000      -0.668460       -18.1897
  12   2.0000      -0.648954       -17.6589
  13   0.0000      -0.130194        -3.5428
  14   0.0000      -0.068848        -1.8735
  15   0.0000      -0.063366        -1.7243
  16   0.0000      -0.045427        -1.2361
  17   0.0000      -0.006334        -0.1724

MULLIKEN ATOMIC CHARGES
-----------------------
   0 C :   -0.252342
   1 H :    0.209131
   2 N :   -0.290289
   3 C :   -0.415103
   4 H :    0.210727
   5 H :    0.335725
   6 H :    0.336510
   7 H :    0.330341
   8 H :    0.171475
   9 H :    0.166293
  10 H :    0.197533
Sum of atomic charges:    1.0000000

LOEWDIN ATOMIC CHARGES
----------------------
   0 C :   -0.292837
   1 H :    0.156987
   2 N :    0.166971
   3 C :   -0.291733
   4 H :    0.158187
   5 H :    0.226384
   6 H :    0.227894
   7 H :    0.225582
   8 H :    0.135094
   9 H :    0.134949
  10 H :    0.152522

  Mayer bond orders larger than 0.100000
B(  0-C ,  1-H ) :   0.9557 B(  0-C ,  2-N ) :   0.8382 B(  0-C ,  3-C ) :   0.9501
B(  0-C ,  4-H ) :   0.9543 B(  2-N ,  5-H ) :   0.8797 B(  2-N ,  6-H ) :   0.8771
B(  2-N ,  7-H ) :   0.8728 B(  3-C ,  8-H ) :   0.9552 B(  3-C ,  9-H ) :   0.9552
B(  3-C , 10-H ) :   0.9586

FINAL SINGLE POINT ENERGY      -135.190346816132

DIPOLE MOMENT
-------------
                                X             Y             Z
Electronic contribution:     -0.01164       1.34915       1.26643
Nuclear contribution   :     -0.06214      -0.04120      -0.39947
                        -----------------------------------------
Total Dipole Moment    :     -0.07378       1.30794       0.86696
                        -----------------------------------------
Magnitude (a.u.)       :      1.57092
Magnitude (Debye)      :      3.99295

Rotational constants in cm-1:     1.011771     0.281435     0.249812
Rotational constants in MHz : 30332.138762  8437.210602  7489.166323

                             ****ORCA TERMINATED NORMALLY****
TOTAL RUN TIME: 0 days 0 hours 0 minutes 13 seconds 690 msec
