                         Program Version 5.0.0 -  RELEASE  -
|  1> !LC-BLYP RIJCOSX def2-TZVP def2/J TightSCF
|  2> *xyz 0 1
|  3> C         -0.77455        2.78833       -0.54394
|  4> C          0.69721        3.22791       -0.52513
|  5> F          1.48929        2.37470        0.19919
|  6> H          0.71600        4.26403       -0.13077
|  7> H          1.03615        3.33092       -1.58367
|  8> H         -1.34746        3.48478       -1.11982
|  9> H         -1.15078        2.75876        0.45729
| 10> H         -0.85058        1.81526       -0.98241
| 11> *
| 12>
| 13> %MaxCore 64000
| 14> %pal nprocs 4
| 15> end
| 16>
| 17> %scf
| 18>   MaxIter 150
| 19> end
| 20>
| 21>
| 22>                          ****END OF INPUT****

CARTESIAN COORDINATES (ANGSTROEM)
---------------------------------
  C     -0.774550    2.788330   -0.543940
  C      0.697210    3.227910   -0.525130
  F      1.489290    2.374700    0.199190
  H      0.716000    4.264030   -0.130770
  H      1.036150    3.330920   -1.583670
  H     -1.347460    3.484780   -1.119820
  H     -1.150780    2.758760    0.457290
  H     -0.850580    1.815260   -0.982410

 Total Charge           Charge          ....    0
 Multiplicity           Mult            ....    1
 Number of Electrons    NEL             ....   26
 Basis Dimension        Dim             ....  123

ORBITAL ENERGIES
----------------

  NO   OCC          E(Eh)            E(eV)
   0   2.0000     -24.437748      -664.9849
   1   2.0000     -10.147424      -276.1254
   2   2.0000     -10.062836      -273.8237
   3   2.0000      -1.276244       -34.7284
   4   2.0000      -0.874244       -23.7894
   5   2.0000      -0.738594       -20.0982
   6   2.0000      -0.612380       -16.6637
   7   2.0000      -0.601474       -16.3669
   8   2.0000      -0.560426       -15.2500
   9   2.0000      -0.505496       -13.7552
  10   2.0000      -0.501493       -13.6463
  11   2.0000      -0.434440       -11.8217
  12   2.0000      -0.426859       -11.6154
  13   0.0000       0.105245         2.8639
  14   0.0000       0.144563         3.9338
  15   0.0000       0.165758         4.5105
  16   0.0000       0.167622         4.5612
  17   0.0000       0.181413         4.9365

MULLIKEN ATOMIC CHARGES
-----------------------
   0 C :   -0.380446
   1 C :   -0.011268
   2 F :   -0.216655
   3 H :    0.106204
   4 H :    0.106143
   5 H :    0.125136
   6 H :    0.135535
   7 H :    0.135350
Sum of atomic charges:    0.0000000

LOEWDIN ATOMIC CHARGES
----------------------
   0 C :   -0.324867
   1 C :   -0.389648
   2 F :    0.103720
   3 H :    0.120855
   4 H :    0.121688
   5 H :    0.125679
   6 H :    0.121389
   7 H :    0.121185

  Mayer bond orders larger than 0.100000
B(  0-C ,  1-C ) :   0.9565 B(  0-C ,  5-H ) :   0.9569 B(  0-C ,  6-H ) :   0.9697
B(  0-C ,  7-H ) :   0.9701 B(  1-C ,  2-F ) :   1.0256 B(  1-C ,  3-H ) :   0.9708
B(  1-C ,  4-H ) :   0.9713

FINAL SINGLE POINT ENERGY      -178.739692292215

DIPOLE MOMENT
-------------
                                X             Y             Z
Electronic contribution:      4.41309      -1.64743       1.99631
Nuclear contribution   :     -4.89513       2.05627      -2.36166
                        -----------------------------------------
Total Dipole Moment    :     -0.48204       0.40884      -0.36536
                        -----------------------------------------
Magnitude (a.u.)       :      0.73007
Magnitude (Debye)      :      1.85569

Rotational constants in cm-1:     1.247826     0.304622     0.269019
Rotational constants in MHz : 37408.889506  9132.346906  8064.979146

                             ****ORCA TERMINATED NORMALLY****
TOTAL RUN TIME: 0 days 0 hours 0 minutes 10 seconds 65 msec
