                         Program Version 5.0.0 -  RELEASE  -
|  1> !LC-BLYP RIJCOSX def2-TZVP def2/J TightSCF
|  2> *xyz 0 1
|  3> C          3.95643        0.50147       -0.37910
|  4> H          3.16840        0.02920        0.20738
|  5> C          3.80389        1.96157       -0.15675
|  6> C          3.84232        0.14849       -1.85406
|  7> H          4.92323        0.17798        0.00937
|  8> H          4.20643        2.24441        0.74536
|  9> H          2.80827        2.21132       -0.09610
| 10> H          4.28076        2.50155       -0.89104
| 11> H          4.62951        0.62800       -2.39748
| 12> H          2.89665        0.48102       -2.22825
| 13> H          3.92053       -0.91187       -1.97413
| 14> *
| 15>
| 16> %MaxCore 64000
| 17> %pal nprocs 4
| 18> end
| 19>
| 20> %scf
| 21>   MaxIter 150
| 22> end
| 23>
| 24>
| 25>                          ****END OF INPUT****

CARTESIAN COORDINATES (ANGSTROEM)
---------------------------------
  C      3.956430    0.501470   -0.379100
  H      3.168400    0.029200    0.207380
  C      3.803890    1.961570   -0.156750
  C      3.842320    0.148490   -1.854060
  H      4.923230    0.177980    0.009370
  H      4.206430    2.244410    0.745360
  H      2.808270    2.211320   -0.096100
  H      4.280760    2.501550   -0.891040
  H      4.629510    0.628000   -2.397480
  H      2.896650    0.481020   -2.228250
  H      3.920530   -0.911870   -1.974130

 Total Charge           Charge          ....    0
 Multiplicity           Mult            ....    1
 Number of Electrons    NEL             ....   26
 Basis Dimension        Dim             ....  141

ORBITAL ENERGIES
----------------

  NO   OCC          E(Eh)            E(eV)
   0   2.0000     -10.053555      -273.5711
   1   2.0000     -10.044444      -273.3232
   2   2.0000     -10.027000      -272.8485
   3   2.0000      -0.902283       -24.5524
   4   2.0000      -0.798811       -21.7367
   5   2.0000      -0.693038       -18.8585
   6   2.0000      -0.577118       -15.7042
   7   2.0000      -0.552057       -15.0222
   8   2.0000      -0.504179       -13.7194
   9   2.0000      -0.491678       -13.3792
  10   2.0000      -0.435540       -11.8516
  11   2.0000      -0.433006       -11.7827
  12   2.0000      -0.422139       -11.4870
  13   0.0000       0.104066         2.8318
  14   0.0000       0.146610         3.9895
  15   0.0000       0.153229         4.1696
  16   0.0000       0.159628         4.3437
  17   0.0000       0.180538         4.9127

MULLIKEN ATOMIC CHARGES
-----------------------
   0 C :   -0.189111
   1 H :    0.104991
   2 C :   -0.386725
   3 C :   -0.386926
   4 H :    0.107164
   5 H :    0.129544
   6 H :    0.129055
   7 H :    0.118352
   8 H :    0.125520
   9 H :    0.122165
  10 H :    0.125972
Sum of atomic charges:   -0.0000000

LOEWDIN ATOMIC CHARGES
----------------------
   0 C :   -0.331592
   1 H :    0.136540
   2 C :   -0.319244
   3 C :   -0.320262
   4 H :    0.134364
   5 H :    0.114045
   6 H :    0.114401
   7 H :    0.113494
   8 H :    0.119275
   9 H :    0.120164
  10 H :    0.118816

  Mayer bond orders larger than 0.100000
B(  0-C ,  1-H ) :   0.9799 B(  0-C ,  2-C ) :   0.9188 B(  0-C ,  3-C ) :   0.9434
B(  0-C ,  4-H ) :   0.9820 B(  2-C ,  5-H ) :   0.9862 B(  2-C ,  6-H ) :   0.9795
B(  2-C ,  7-H ) :   0.9797 B(  3-C ,  8-H ) :   0.9769 B(  3-C ,  9-H ) :   0.9757
B(  3-C , 10-H ) :   0.9841

FINAL SINGLE POINT ENERGY      -118.783775440176

DIPOLE MOMENT
-------------
                                X             Y             Z
Electronic contribution:      0.08219      -0.29923       0.24036
Nuclear contribution   :     -0.08172       0.30475      -0.19303
                        -----------------------------------------
Total Dipole Moment    :      0.00048       0.00552       0.04733
                        -----------------------------------------
Magnitude (a.u.)       :      0.04765
Magnitude (Debye)      :      0.12112

Rotational constants in cm-1:     1.020248     0.295755     0.261591
Rotational constants in MHz : 30586.266829  8866.511639  7842.297953

                             ****ORCA TERMINATED NORMALLY****
TOTAL RUN TIME: 0 days 0 hours 0 minutes 13 seconds 3 msec
