                         Program Version 5.0.0 -  RELEASE  -
|  1> !LC-BLYP RIJCOSX def2-TZVP def2/J TightSCF xyzfile
|  2>
|  3> *xyzfile 0 1 D.xyz
|  4>
|  5> %MaxCore 64000
|  6>
|  7> %pal nprocs 18
|  8> end
|  9>
| 10> %scf
| 11>   MaxIter 150
| 12> end
| 13>
| 14>
| 15>                          ****END OF INPUT****

CARTESIAN COORDINATES (ANGSTROEM)
---------------------------------
  C      3.956426    0.501466   -0.379100
  H      3.168398    0.029201    0.207383
  C      3.803893    1.961572   -0.156747
  C      3.842322    0.148490   -1.854058
  H      4.923231    0.177982    0.009371
  H      4.620021    0.694502   -2.402150
  H      4.096015   -0.910930   -1.955103
  C      2.475619    0.412708   -2.485377
  H      2.174689    1.445076   -2.287971
  C      1.383931   -0.532740   -1.995203
  H      2.575613    0.318574   -3.571460
  H      1.264698   -0.412309   -0.915491
  H      1.705223   -1.566885   -2.164984
  C      0.031398   -0.317260   -2.677791
  C     -0.587292    1.060853   -2.436460
  H     -0.662815   -1.089530   -2.329985
  H      0.149465   -0.478040   -3.755648
  H      0.104376    1.828590   -2.793130
  C     -0.951213    1.334978   -0.972500
  H     -1.478832    1.161355   -3.062484
  H     -0.317007    0.741648   -0.311389
  H     -1.980916    1.012842   -0.788958
  C     -0.774550    2.788332   -0.543943
  H     -1.352609    3.459372   -1.192585
  H     -1.171014    2.902331    0.469968
  C      0.697208    3.227911   -0.525126
  F      1.489294    2.374703    0.199189
  H      0.715998    4.264030   -0.130774
  H      1.036148    3.330920   -1.583669
  H      4.206425    2.244406    0.745359
  H      2.808269    2.211323   -0.096097
  H      4.280757    2.501552   -0.891037

 Total Charge           Charge          ....    0
 Multiplicity           Mult            ....    1
 Number of Electrons    NEL             ....   90
 Basis Dimension        Dim             ....  467

ORBITAL ENERGIES
----------------

  NO   OCC          E(Eh)            E(eV)
   0   2.0000     -24.461441      -665.6296
   1   2.0000     -10.156234      -276.3652
   2   2.0000     -10.079431      -274.2753
   3   2.0000     -10.065485      -273.8958
   4   2.0000     -10.062125      -273.8043
   5   2.0000     -10.058957      -273.7181
   6   2.0000     -10.052885      -273.5529
   7   2.0000     -10.050827      -273.4969
   8   2.0000     -10.044931      -273.3365
   9   2.0000     -10.034221      -273.0450
  10   2.0000      -9.981682      -271.6154
  11   2.0000      -1.311956       -35.7001
  12   2.0000      -0.931856       -25.3571
  13   2.0000      -0.911767       -24.8104
  14   2.0000      -0.878286       -23.8994
  15   2.0000      -0.846601       -23.0372
  16   2.0000      -0.798899       -21.7392
  17   2.0000      -0.773616       -21.0511
  18   2.0000      -0.733065       -19.9477
  19   2.0000      -0.708826       -19.2881
  20   2.0000      -0.673212       -18.3190
  21   2.0000      -0.659499       -17.9459
  22   2.0000      -0.635757       -17.2998
  23   2.0000      -0.622746       -16.9458
  24   2.0000      -0.600887       -16.3510
  25   2.0000      -0.577112       -15.7040
  26   2.0000      -0.565293       -15.3824
  27   2.0000      -0.554752       -15.0956
  28   2.0000      -0.534476       -14.5438
  29   2.0000      -0.529899       -14.4193
  30   2.0000      -0.513034       -13.9604
  31   2.0000      -0.495437       -13.4815
  32   2.0000      -0.487658       -13.2698
  33   2.0000      -0.475165       -12.9299
  34   2.0000      -0.465615       -12.6700
  35   2.0000      -0.453547       -12.3416
  36   2.0000      -0.448109       -12.1937
  37   2.0000      -0.440325       -11.9819
  38   2.0000      -0.421232       -11.4623
  39   2.0000      -0.416719       -11.3395
  40   2.0000      -0.410125       -11.1601
  41   2.0000      -0.408770       -11.1232
  42   2.0000      -0.393320       -10.7028
  43   2.0000      -0.391805       -10.6616
  44   2.0000      -0.368927       -10.0390
  45   0.0000       0.095509         2.5989
  46   0.0000       0.106068         2.8863
  47   0.0000       0.112487         3.0609
  48   0.0000       0.121830         3.3152
  49   0.0000       0.133946         3.6448

MULLIKEN ATOMIC CHARGES
-----------------------
   0 C :   -0.215411
   1 H :    0.113070
   2 C :   -0.466161
   3 C :   -0.246147
   4 H :    0.109834
   5 H :    0.128722
   6 H :    0.113064
   7 C :   -0.228813
   8 H :    0.105125
   9 C :   -0.273310
  10 H :    0.123462
  11 H :    0.132250
  12 H :    0.127053
  13 C :   -0.225920
  14 C :   -0.298836
  15 H :    0.126984
  16 H :    0.128539
  17 H :    0.133357
  18 C :   -0.235094
  19 H :    0.130031
  20 H :    0.141034
  21 H :    0.133486
  22 C :   -0.260253
  23 H :    0.134453
  24 H :    0.136658
  25 C :   -0.080570
  26 F :   -0.162849
  27 H :    0.140724
  28 H :    0.137633
  29 H :    0.124665
  30 H :    0.158294
  31 H :    0.114926
Sum of atomic charges:    0.0000000

LOEWDIN ATOMIC CHARGES
----------------------
   0 C :   -0.313178
   1 H :    0.135794
   2 C :   -0.338175
   3 C :   -0.279822
   4 H :    0.134530
   5 H :    0.139346
   6 H :    0.137830
   7 C :   -0.274535
   8 H :    0.135319
   9 C :   -0.278358
  10 H :    0.139655
  11 H :    0.135793
  12 H :    0.141620
  13 C :   -0.278490
  14 C :   -0.274970
  15 H :    0.140859
  16 H :    0.140487
  17 H :    0.136308
  18 C :   -0.276671
  19 H :    0.139239
  20 H :    0.143920
  21 H :    0.141209
  22 C :   -0.287123
  23 H :    0.147834
  24 H :    0.143771
  25 C :   -0.361192
  26 F :    0.188345
  27 H :    0.131623
  28 H :    0.127818
  29 H :    0.108516
  30 H :    0.065452
  31 H :    0.107243

  Mayer bond orders larger than 0.100000
B(  0-C ,  1-H ) :   0.9924 B(  0-C ,  2-C ) :   0.8773 B(  0-C ,  3-C ) :   0.9308
B(  0-C ,  4-H ) :   0.9918 B(  2-C , 29-H ) :   0.9977 B(  2-C , 30-H ) :   0.9687
B(  2-C , 31-H ) :   0.9755 B(  3-C ,  5-H ) :   0.9959 B(  3-C ,  6-H ) :   0.9856
B(  3-C ,  7-C ) :   0.9450 B(  7-C ,  8-H ) :   0.9877 B(  7-C ,  9-C ) :   0.8766
B(  7-C , 10-H ) :   0.9798 B(  9-C , 11-H ) :   0.9917 B(  9-C , 12-H ) :   0.9815
B(  9-C , 13-C ) :   0.9351 B( 13-C , 14-C ) :   0.9231 B( 13-C , 15-H ) :   0.9891
B( 13-C , 16-H ) :   0.9872 B( 14-C , 17-H ) :   1.0018 B( 14-C , 18-C ) :   0.8692
B( 14-C , 19-H ) :   0.9800 B( 18-C , 20-H ) :   0.9877 B( 18-C , 21-H ) :   0.9782
B( 18-C , 22-C ) :   0.9312 B( 22-C , 23-H ) :   0.9604 B( 22-C , 24-H ) :   0.9796
B( 22-C , 25-C ) :   0.9565 B( 25-C , 26-F ) :   0.9345 B( 25-C , 27-H ) :   0.9823
B( 25-C , 28-H ) :   0.9745

FINAL SINGLE POINT ENERGY      -492.347661707703

DIPOLE MOMENT
-------------
                                X             Y             Z
Electronic contribution:     -1.97320       3.29232       4.27335
Nuclear contribution   :      1.09293      -2.80761      -4.51228
                        -----------------------------------------
Total Dipole Moment    :     -0.88027       0.48471      -0.23893
                        -----------------------------------------
Magnitude (a.u.)       :      1.03291
Magnitude (Debye)      :      2.62545

Rotational constants in cm-1:     0.040502     0.027818     0.018259
Rotational constants in MHz :  1214.218058   833.972871   547.398614

                             ****ORCA TERMINATED NORMALLY****
TOTAL RUN TIME: 0 days 0 hours 0 minutes 58 seconds 520 msec
