                         Program Version 5.0.0 -  RELEASE  -
|  1> !PBE0 D3BJ RIJCOSX def2-TZVPD def2/J TightSCF
|  2> *xyz -1 1
|  3> C         -0.10608        1.76991       -4.08984
|  4> C         -0.25875        1.00432       -5.40983
|  5> C          0.39596       -0.37070       -5.33994
|  6> H          0.23915        1.56939       -6.20125
|  7> H         -1.30936        0.88869       -5.68245
|  8> O         -0.32633       -1.39040       -5.49128
|  9> O          1.61941       -0.40073       -5.03683
| 10> H         -0.57627        2.72718       -4.17630
| 11> H          0.93321        1.90140       -3.87192
| 12> H         -0.56868        1.21534       -3.30031
| 13> *
| 14> %MaxCore 64000
| 15>
| 16> %pal nprocs 4
| 17> end
| 18>
| 19> %scf
| 20>   MaxIter 150
| 21> end
| 22>
| 23>
| 24>                          ****END OF INPUT****

CARTESIAN COORDINATES (ANGSTROEM)
---------------------------------
  C     -0.106080    1.769910   -4.089840
  C     -0.258750    1.004320   -5.409830
  C      0.395960   -0.370700   -5.339940
  H      0.239150    1.569390   -6.201250
  H     -1.309360    0.888690   -5.682450
  O     -0.326330   -1.390400   -5.491280
  O      1.619410   -0.400730   -5.036830
  H     -0.576270    2.727180   -4.176300
  H      0.933210    1.901400   -3.871920
  H     -0.568680    1.215340   -3.300310

 Total Charge           Charge          ....   -1
 Multiplicity           Mult            ....    1
 Number of Electrons    NEL             ....   40
 Basis Dimension        Dim             ....  236

ORBITAL ENERGIES
----------------

  NO   OCC          E(Eh)            E(eV)
   0   2.0000     -18.939820      -515.3787
   1   2.0000     -18.938331      -515.3382
   2   2.0000     -10.100143      -274.8389
   3   2.0000     -10.055838      -273.6333
   4   2.0000     -10.046977      -273.3922
   5   2.0000      -0.846110       -23.0238
   6   2.0000      -0.751445       -20.4479
   7   2.0000      -0.628020       -17.0893
   8   2.0000      -0.493903       -13.4398
   9   2.0000      -0.336591        -9.1591
  10   2.0000      -0.305794        -8.3211
  11   2.0000      -0.274890        -7.4801
  12   2.0000      -0.243016        -6.6128
  13   2.0000      -0.226452        -6.1621
  14   2.0000      -0.220888        -6.0107
  15   2.0000      -0.189485        -5.1562
  16   2.0000      -0.172872        -4.7041
  17   2.0000      -0.059116        -1.6086
  18   2.0000      -0.053307        -1.4506
  19   2.0000      -0.038916        -1.0590
  20   0.0000       0.140188         3.8147
  21   0.0000       0.165174         4.4946
  22   0.0000       0.176825         4.8116
  23   0.0000       0.187887         5.1127
  24   0.0000       0.212473         5.7817

MULLIKEN ATOMIC CHARGES
-----------------------
   0 C :   -0.770892
   1 C :    0.152929
   2 C :    0.275595
   3 H :    0.096937
   4 H :    0.100507
   5 O :   -0.700205
   6 O :   -0.713066
   7 H :    0.164540
   8 H :    0.190052
   9 H :    0.203603
Sum of atomic charges:   -1.0000000

LOEWDIN ATOMIC CHARGES
----------------------
   0 C :   -0.131731
   1 C :   -0.212572
   2 C :   -0.774550
   3 H :    0.093550
   4 H :    0.088094
   5 O :   -0.111728
   6 O :   -0.110700
   7 H :    0.041975
   8 H :    0.055609
   9 H :    0.062054

  Mayer bond orders larger than 0.100000
B(  0-C ,  1-C ) :   0.7221 B(  0-C ,  2-C ) :   0.1972 B(  0-C ,  7-H ) :   0.9780
B(  0-C ,  8-H ) :   1.0209 B(  0-C ,  9-H ) :   0.9813 B(  1-C ,  2-C ) :   0.9290
B(  1-C ,  3-H ) :   0.9401 B(  1-C ,  4-H ) :   1.0153 B(  2-C ,  5-O ) :   1.4839
B(  2-C ,  6-O ) :   1.4916

Dispersion correction           -0.005470535
FINAL SINGLE POINT ENERGY      -267.647350056184

DIPOLE MOMENT
-------------
                                X             Y             Z
Electronic contribution:      1.74913      -5.32145      -1.70238
Nuclear contribution   :     -2.46071       7.20791       1.95694
                        -----------------------------------------
Total Dipole Moment    :     -0.71158       1.88646       0.25456
                        -----------------------------------------
Magnitude (a.u.)       :      2.03221
Magnitude (Debye)      :      5.16548

Rotational constants in cm-1:     0.309435     0.135317     0.107436
Rotational constants in MHz :  9276.637721  4056.700783  3220.846587

                             ****ORCA TERMINATED NORMALLY****
TOTAL RUN TIME: 0 days 0 hours 0 minutes 30 seconds 662 msec
