                         Program Version 5.0.0 -  RELEASE  -
|  1> !PBE0 D3BJ RIJCOSX def2-TZVPD def2/J TightSCF
|  2> *xyz 1 1
|  3> C          0.81607       -2.10149       -2.18655
|  4> H          1.69623       -2.36869       -1.60046
|  5> N          1.10055       -2.46749       -3.59927
|  6> C          0.51624       -0.61363       -2.03937
|  7> H         -0.02007       -2.71285       -1.84084
|  8> H          1.70061       -1.75723       -4.07838
|  9> H          0.29386       -2.35977       -4.25632
| 10> H          1.50132       -3.42848       -3.69491
| 11> H         -0.34841       -0.36504       -2.61858
| 12> H          1.35358       -0.04503       -2.38643
| 13> H          0.33317       -0.38682       -1.00984
| 14> *
| 15> %MaxCore 64000
| 16>
| 17> %pal nprocs 4
| 18> end
| 19>
| 20> %scf
| 21>   MaxIter 150
| 22> end
| 23>
| 24>
| 25>                          ****END OF INPUT****

CARTESIAN COORDINATES (ANGSTROEM)
---------------------------------
  C      0.816070   -2.101490   -2.186550
  H      1.696230   -2.368690   -1.600460
  N      1.100550   -2.467490   -3.599270
  C      0.516240   -0.613630   -2.039370
  H     -0.020070   -2.712850   -1.840840
  H      1.700610   -1.757230   -4.078380
  H      0.293860   -2.359770   -4.256320
  H      1.501320   -3.428480   -3.694910
  H     -0.348410   -0.365040   -2.618580
  H      1.353580   -0.045030   -2.386430
  H      0.333170   -0.386820   -1.009840

 Total Charge           Charge          ....    1
 Multiplicity           Mult            ....    1
 Number of Electrons    NEL             ....   26
 Basis Dimension        Dim             ....  183

ORBITAL ENERGIES
----------------

  NO   OCC          E(Eh)            E(eV)
   0   2.0000     -14.721797      -400.6005
   1   2.0000     -10.475699      -285.0583
   2   2.0000     -10.395025      -282.8630
   3   2.0000      -1.236223       -33.6393
   4   2.0000      -0.988809       -26.9069
   5   2.0000      -0.869721       -23.6663
   6   2.0000      -0.805007       -21.9054
   7   2.0000      -0.786733       -21.4081
   8   2.0000      -0.716856       -19.5067
   9   2.0000      -0.651421       -17.7261
  10   2.0000      -0.596440       -16.2299
  11   2.0000      -0.581610       -15.8264
  12   2.0000      -0.563065       -15.3218
  13   0.0000      -0.194314        -5.2875
  14   0.0000      -0.134991        -3.6733
  15   0.0000      -0.133075        -3.6211
  16   0.0000      -0.125668        -3.4196
  17   0.0000      -0.089013        -2.4222

MULLIKEN ATOMIC CHARGES
-----------------------
   0 C :   -0.141074
   1 H :    0.208831
   2 N :   -0.267072
   3 C :   -0.801024
   4 H :    0.205401
   5 H :    0.332712
   6 H :    0.346165
   7 H :    0.336927
   8 H :    0.277090
   9 H :    0.296993
  10 H :    0.205051
Sum of atomic charges:    1.0000000

LOEWDIN ATOMIC CHARGES
----------------------
   0 C :   -0.204832
   1 H :    0.135771
   2 N :    0.159775
   3 C :   -0.056689
   4 H :    0.137252
   5 H :    0.186338
   6 H :    0.190163
   7 H :    0.193356
   8 H :    0.082947
   9 H :    0.082675
  10 H :    0.093244

  Mayer bond orders larger than 0.100000
B(  0-C ,  1-H ) :   0.9496 B(  0-C ,  2-N ) :   0.9817 B(  0-C ,  3-C ) :   0.8131
B(  0-C ,  4-H ) :   0.9646 B(  2-N ,  5-H ) :   0.8670 B(  2-N ,  6-H ) :   0.8625
B(  2-N ,  7-H ) :   0.8661 B(  3-C ,  8-H ) :   0.9443 B(  3-C ,  9-H ) :   0.9285
B(  3-C , 10-H ) :   1.0037

Dispersion correction           -0.005007490
FINAL SINGLE POINT ENERGY      -135.419757365477

DIPOLE MOMENT
-------------
                                X             Y             Z
Electronic contribution:      0.41543      -1.42270      -1.06033
Nuclear contribution   :     -0.07506       0.54337      -0.16191
                        -----------------------------------------
Total Dipole Moment    :      0.34037      -0.87933      -1.22224
                        -----------------------------------------
Magnitude (a.u.)       :      1.54368
Magnitude (Debye)      :      3.92373

Rotational constants in cm-1:     0.999557     0.280801     0.246932
Rotational constants in MHz : 29965.963633  8418.199581  7402.841054

                             ****ORCA TERMINATED NORMALLY****
TOTAL RUN TIME: 0 days 0 hours 0 minutes 16 seconds 699 msec
