                         Program Version 5.0.0 -  RELEASE  -
|  1> !PBE0 D3BJ RIJCOSX def2-TZVPD def2/J TightSCF xyzfile
|  2>
|  3> *xyzfile 0 1 B.xyz
|  4>
|  5> %MaxCore 64000
|  6>
|  7> %pal nprocs 4
|  8> end
|  9>
| 10> %scf
| 11>   MaxIter 150
| 12> end
| 13>
| 14>
| 15>                          ****END OF INPUT****

CARTESIAN COORDINATES (ANGSTROEM)
---------------------------------
  C      0.816067   -2.101491   -2.186546
  H      1.696232   -2.368691   -1.600457
  N      1.100552   -2.467492   -3.599269
  C      0.516243   -0.613634   -2.039373
  H     -0.020066   -2.712849   -1.840844
  C     -0.868621   -0.193925   -2.546303
  C     -0.984801    1.284739   -2.928686
  H     -0.764939    1.904116   -2.051568
  H     -2.032613    1.478953   -3.178952
  C     -0.106085    1.769914   -4.089836
  H     -0.347744    2.822196   -4.262942
  H      0.949683    1.745875   -3.808781
  C     -0.258747    1.004323   -5.409829
  C      0.395958   -0.370696   -5.339939
  H      0.239150    1.569393   -6.201253
  H     -1.309360    0.888694   -5.682455
  H      1.700606   -1.757225   -4.078378
  H      0.293855   -2.359766   -4.256324
  H      1.501324   -3.428479   -3.694915
  O     -0.326329   -1.390398   -5.491279
  O      1.619412   -0.400726   -5.036827
  H     -1.607271   -0.412651   -1.768955
  H     -1.157234   -0.796164   -3.409254
  H      1.299044   -0.056805   -2.558982
  H      0.612393   -0.365579   -0.979171

 Total Charge           Charge          ....    0
 Multiplicity           Mult            ....    1
 Number of Electrons    NEL             ....   80
 Basis Dimension        Dim             ....  511

ORBITAL ENERGIES
----------------

  NO   OCC          E(Eh)            E(eV)
   0   2.0000     -19.140932      -520.8512
   1   2.0000     -19.139477      -520.8116
   2   2.0000     -14.470243      -393.7553
   3   2.0000     -10.293975      -280.1133
   4   2.0000     -10.293629      -280.1039
   5   2.0000     -10.235793      -278.5301
   6   2.0000     -10.217875      -278.0425
   7   2.0000     -10.213782      -277.9311
   8   2.0000     -10.207106      -277.7495
   9   2.0000     -10.197548      -277.4894
  10   2.0000      -1.058778       -28.8108
  11   2.0000      -1.004222       -27.3263
  12   2.0000      -0.958214       -26.0743
  13   2.0000      -0.838950       -22.8290
  14   2.0000      -0.795548       -21.6480
  15   2.0000      -0.747263       -20.3341
  16   2.0000      -0.682152       -18.5623
  17   2.0000      -0.646509       -17.5924
  18   2.0000      -0.592127       -16.1126
  19   2.0000      -0.581883       -15.8338
  20   2.0000      -0.557162       -15.1612
  21   2.0000      -0.530707       -14.4413
  22   2.0000      -0.498652       -13.5690
  23   2.0000      -0.483344       -13.1524
  24   2.0000      -0.469930       -12.7874
  25   2.0000      -0.459139       -12.4938
  26   2.0000      -0.438962       -11.9448
  27   2.0000      -0.432290       -11.7632
  28   2.0000      -0.414475       -11.2784
  29   2.0000      -0.403104       -10.9690
  30   2.0000      -0.397889       -10.8271
  31   2.0000      -0.385139       -10.4802
  32   2.0000      -0.364220        -9.9109
  33   2.0000      -0.360442        -9.8081
  34   2.0000      -0.336640        -9.1604
  35   2.0000      -0.322502        -8.7757
  36   2.0000      -0.318731        -8.6731
  37   2.0000      -0.263517        -7.1707
  38   2.0000      -0.250167        -6.8074
  39   2.0000      -0.242701        -6.6042
  40   0.0000      -0.013171        -0.3584
  41   0.0000       0.015762         0.4289
  42   0.0000       0.025737         0.7003
  43   0.0000       0.027260         0.7418
  44   0.0000       0.040326         1.0973

MULLIKEN ATOMIC CHARGES
-----------------------
   0 C :   -0.531038
   1 H :    0.177456
   2 N :   -0.108703
   3 C :   -0.044819
   4 H :    0.180314
   5 C :   -0.337456
   6 C :   -0.334333
   7 H :    0.098092
   8 H :    0.160758
   9 C :   -0.373071
  10 H :    0.073318
  11 H :    0.195974
  12 C :   -0.036749
  13 C :    0.507257
  14 H :    0.170951
  15 H :    0.095740
  16 H :    0.275703
  17 H :    0.263489
  18 H :    0.307342
  19 O :   -0.787571
  20 O :   -0.798750
  21 H :    0.148910
  22 H :    0.323188
  23 H :    0.158880
  24 H :    0.215120
Sum of atomic charges:   -0.0000000

LOEWDIN ATOMIC CHARGES
----------------------
   0 C :   -0.167699
   1 H :    0.120146
   2 N :    0.129916
   3 C :   -0.185180
   4 H :    0.126365
   5 C :   -0.201423
   6 C :   -0.200744
   7 H :    0.110406
   8 H :    0.111894
   9 C :   -0.205156
  10 H :    0.107399
  11 H :    0.104076
  12 C :   -0.112223
  13 C :   -0.668442
  14 H :    0.117968
  15 H :    0.116260
  16 H :    0.096562
  17 H :    0.096281
  18 H :    0.175190
  19 O :   -0.061116
  20 O :   -0.052277
  21 H :    0.114005
  22 H :    0.099926
  23 H :    0.108576
  24 H :    0.119289

  Mayer bond orders larger than 0.100000
B(  0-C ,  1-H ) :   0.9480 B(  0-C ,  2-N ) :   1.0379 B(  0-C ,  3-C ) :   0.8993
B(  0-C ,  4-H ) :   0.9489 B(  0-C ,  5-C ) :   0.3232 B(  2-N , 16-H ) :   0.7917
B(  2-N , 17-H ) :   0.7987 B(  2-N , 18-H ) :   0.8513 B(  3-C ,  5-C ) :   0.6377
B(  3-C ,  6-C ) :   0.2719 B(  3-C ,  9-C ) :   0.1184 B(  3-C , 23-H ) :   0.9886
B(  3-C , 24-H ) :   0.9210 B(  5-C ,  6-C ) :   1.1276 B(  5-C , 21-H ) :   0.9694
B(  5-C , 22-H ) :   0.9288 B(  6-C ,  7-H ) :   0.9778 B(  6-C ,  8-H ) :   0.9109
B(  6-C ,  9-C ) :   0.9980 B(  6-C , 12-C ) :   0.1120 B(  9-C , 10-H ) :   0.9823
B(  9-C , 11-H ) :   0.9133 B(  9-C , 12-C ) :   0.9705 B(  9-C , 13-C ) :   0.2393
B( 12-C , 13-C ) :   1.0228 B( 12-C , 14-H ) :   0.8566 B( 12-C , 15-H ) :   1.0331
B( 13-C , 19-O ) :   1.2887 B( 13-C , 20-O ) :   1.2862 B( 16-H , 20-O ) :   0.1977
B( 17-H , 19-O ) :   0.1919 B( 19-O , 20-O ) :   0.1269

Dispersion correction           -0.023105877
FINAL SINGLE POINT ENERGY      -480.644384270808

DIPOLE MOMENT
-------------
                                X             Y             Z
Electronic contribution:      2.29088      -3.08365      -6.26761
Nuclear contribution   :     -2.02598       1.95876       8.24116
                        -----------------------------------------
Total Dipole Moment    :      0.26490      -1.12488       1.97355
                        -----------------------------------------
Magnitude (a.u.)       :      2.28702
Magnitude (Debye)      :      5.81313

Rotational constants in cm-1:     0.052900     0.041948     0.028766
Rotational constants in MHz :  1585.892512  1257.572595   862.390225

                             ****ORCA TERMINATED NORMALLY****
TOTAL RUN TIME: 0 days 0 hours 3 minutes 21 seconds 744 msec
