                         Program Version 5.0.0 -  RELEASE  -
|  1> !PBE0 D3BJ RIJCOSX def2-TZVPD def2/J TightSCF
|  2> *xyz 0 1
|  3> C         -0.10608        1.76991       -4.08984
|  4> C         -0.25875        1.00432       -5.40983
|  5> C          0.39596       -0.37070       -5.33994
|  6> H          0.23915        1.56939       -6.20125
|  7> H         -1.30936        0.88869       -5.68245
|  8> F         -0.32633       -1.39040       -5.49128
|  9> O          1.61941       -0.40073       -5.03683
| 10> H         -0.57627        2.72718       -4.17630
| 11> H          0.93321        1.90140       -3.87192
| 12> H         -0.56868        1.21534       -3.30031
| 13> *
| 14> %MaxCore 64000
| 15>
| 16> %pal nprocs 4
| 17> end
| 18>
| 19> %scf
| 20>   MaxIter 150
| 21> end
| 22>
| 23>
| 24>                          ****END OF INPUT****

CARTESIAN COORDINATES (ANGSTROEM)
---------------------------------
  C     -0.106080    1.769910   -4.089840
  C     -0.258750    1.004320   -5.409830
  C      0.395960   -0.370700   -5.339940
  H      0.239150    1.569390   -6.201250
  H     -1.309360    0.888690   -5.682450
  F     -0.326330   -1.390400   -5.491280
  O      1.619410   -0.400730   -5.036830
  H     -0.576270    2.727180   -4.176300
  H      0.933210    1.901400   -3.871920
  H     -0.568680    1.215340   -3.300310

 Total Charge           Charge          ....    0
 Multiplicity           Mult            ....    1
 Number of Electrons    NEL             ....   40
 Basis Dimension        Dim             ....  236

ORBITAL ENERGIES
----------------

  NO   OCC          E(Eh)            E(eV)
   0   2.0000     -24.842060      -675.9868
   1   2.0000     -19.211092      -522.7604
   2   2.0000     -10.399392      -282.9819
   3   2.0000     -10.255248      -279.0595
   4   2.0000     -10.225451      -278.2487
   5   2.0000      -1.350815       -36.7575
   6   2.0000      -1.059575       -28.8325
   7   2.0000      -0.825589       -22.4654
   8   2.0000      -0.712003       -19.3746
   9   2.0000      -0.659111       -17.9353
  10   2.0000      -0.565488       -15.3877
  11   2.0000      -0.552145       -15.0246
  12   2.0000      -0.527032       -14.3413
  13   2.0000      -0.480862       -13.0849
  14   2.0000      -0.449644       -12.2354
  15   2.0000      -0.414205       -11.2711
  16   2.0000      -0.392205       -10.6724
  17   2.0000      -0.388137       -10.5617
  18   2.0000      -0.358856        -9.7650
  19   2.0000      -0.307023        -8.3545
  20   0.0000      -0.028692        -0.7808
  21   0.0000       0.008832         0.2403
  22   0.0000       0.035393         0.9631
  23   0.0000       0.045079         1.2267
  24   0.0000       0.054521         1.4836

MULLIKEN ATOMIC CHARGES
-----------------------
   0 C :   -0.800464
   1 C :    0.118711
   2 C :    0.385835
   3 H :    0.136004
   4 H :    0.150306
   5 F :   -0.170173
   6 O :   -0.468278
   7 H :    0.179090
   8 H :    0.228508
   9 H :    0.240461
Sum of atomic charges:    0.0000000

LOEWDIN ATOMIC CHARGES
----------------------
   0 C :   -0.087289
   1 C :   -0.157382
   2 C :   -0.482534
   3 H :    0.121835
   4 H :    0.109367
   5 F :    0.203915
   6 O :    0.073876
   7 H :    0.069523
   8 H :    0.073399
   9 H :    0.075289

  Mayer bond orders larger than 0.100000
B(  0-C ,  1-C ) :   0.7874 B(  0-C ,  2-C ) :   0.1904 B(  0-C ,  7-H ) :   0.9861
B(  0-C ,  8-H ) :   1.0027 B(  0-C ,  9-H ) :   0.9436 B(  1-C ,  2-C ) :   0.9144
B(  1-C ,  3-H ) :   0.9291 B(  1-C ,  4-H ) :   0.9731 B(  2-C ,  5-F ) :   1.0621
B(  2-C ,  6-O ) :   1.8062

Dispersion correction           -0.005184016
FINAL SINGLE POINT ENERGY      -292.202109632853

DIPOLE MOMENT
-------------
                                X             Y             Z
Electronic contribution:      0.84734      -8.17318      -2.56545
Nuclear contribution   :     -1.80992       8.85192       2.42184
                        -----------------------------------------
Total Dipole Moment    :     -0.96258       0.67874      -0.14360
                        -----------------------------------------
Magnitude (a.u.)       :      1.18654
Magnitude (Debye)      :      3.01595

Rotational constants in cm-1:     0.298360     0.128849     0.102271
Rotational constants in MHz :  8944.606599  3862.796179  3066.020510

                             ****ORCA TERMINATED NORMALLY****
TOTAL RUN TIME: 0 days 0 hours 0 minutes 28 seconds 452 msec
