                         Program Version 5.0.0 -  RELEASE  -
|  1> !PBE0 D3BJ RIJCOSX def2-TZVPD def2/J TightSCF
|  2> *xyz 0 1
|  3> C          0.81607       -2.10149       -2.18655
|  4> H          1.69623       -2.36869       -1.60046
|  5> C          1.10055       -2.46749       -3.59927
|  6> C          0.51624       -0.61363       -2.03937
|  7> H         -0.02007       -2.71285       -1.84084
|  8> H          1.70061       -1.75723       -4.07838
|  9> H          0.29386       -2.35977       -4.25632
| 10> H          1.50132       -3.42848       -3.69491
| 11> H         -0.34841       -0.36504       -2.61858
| 12> H          1.35358       -0.04503       -2.38643
| 13> H          0.33317       -0.38682       -1.00984
| 14> *
| 15> %MaxCore 64000
| 16>
| 17> %pal nprocs 4
| 18> end
| 19>
| 20> %scf
| 21>   MaxIter 150
| 22> end
| 23>
| 24>
| 25>                          ****END OF INPUT****

CARTESIAN COORDINATES (ANGSTROEM)
---------------------------------
  C      0.816070   -2.101490   -2.186550
  H      1.696230   -2.368690   -1.600460
  C      1.100550   -2.467490   -3.599270
  C      0.516240   -0.613630   -2.039370
  H     -0.020070   -2.712850   -1.840840
  H      1.700610   -1.757230   -4.078380
  H      0.293860   -2.359770   -4.256320
  H      1.501320   -3.428480   -3.694910
  H     -0.348410   -0.365040   -2.618580
  H      1.353580   -0.045030   -2.386430
  H      0.333170   -0.386820   -1.009840

 Total Charge           Charge          ....    0
 Multiplicity           Mult            ....    1
 Number of Electrons    NEL             ....   26
 Basis Dimension        Dim             ....  183

ORBITAL ENERGIES
----------------

  NO   OCC          E(Eh)            E(eV)
   0   2.0000     -10.208985      -277.8006
   1   2.0000     -10.197290      -277.4824
   2   2.0000     -10.183921      -277.1186
   3   2.0000      -0.813211       -22.1286
   4   2.0000      -0.709208       -19.2985
   5   2.0000      -0.607588       -16.5333
   6   2.0000      -0.473697       -12.8899
   7   2.0000      -0.459423       -12.5015
   8   2.0000      -0.425239       -11.5714
   9   2.0000      -0.387855       -10.5541
  10   2.0000      -0.352828        -9.6009
  11   2.0000      -0.348181        -9.4745
  12   2.0000      -0.331126        -9.0104
  13   0.0000       0.020147         0.5482
  14   0.0000       0.044217         1.2032
  15   0.0000       0.045640         1.2419
  16   0.0000       0.069115         1.8807
  17   0.0000       0.089927         2.4470

MULLIKEN ATOMIC CHARGES
-----------------------
   0 C :    0.279505
   1 H :    0.125597
   2 C :   -1.012907
   3 C :   -0.831914
   4 H :    0.121406
   5 H :    0.249425
   6 H :    0.260422
   7 H :    0.187996
   8 H :    0.221540
   9 H :    0.230643
  10 H :    0.168287
Sum of atomic charges:   -0.0000000

LOEWDIN ATOMIC CHARGES
----------------------
   0 C :   -0.319746
   1 H :    0.103221
   2 C :   -0.142424
   3 C :   -0.118500
   4 H :    0.104322
   5 H :    0.058237
   6 H :    0.060039
   7 H :    0.059945
   8 H :    0.067390
   9 H :    0.066484
  10 H :    0.061032

  Mayer bond orders larger than 0.100000
B(  0-C ,  1-H ) :   0.9713 B(  0-C ,  2-C ) :   0.7244 B(  0-C ,  3-C ) :   0.7380
B(  0-C ,  4-H ) :   0.9638 B(  2-C ,  3-C ) :   0.2291 B(  2-C ,  5-H ) :   0.9885
B(  2-C ,  6-H ) :   0.9882 B(  2-C ,  7-H ) :   1.0145 B(  3-C ,  8-H ) :   0.9907
B(  3-C ,  9-H ) :   0.9927 B(  3-C , 10-H ) :   1.0226

Dispersion correction           -0.005026992
FINAL SINGLE POINT ENERGY      -119.022103602190

DIPOLE MOMENT
-------------
                                X             Y             Z
Electronic contribution:     -0.01858      -0.30790       0.46421
Nuclear contribution   :      0.01737       0.30387      -0.47422
                        -----------------------------------------
Total Dipole Moment    :     -0.00121      -0.00403      -0.01001
                        -----------------------------------------
Magnitude (a.u.)       :      0.01085
Magnitude (Debye)      :      0.02759

Rotational constants in cm-1:     1.006891     0.295208     0.258491
Rotational constants in MHz : 30185.831813  8850.104914  7749.351732

                             ****ORCA TERMINATED NORMALLY****
TOTAL RUN TIME: 0 days 0 hours 0 minutes 17 seconds 466 msec
