                         Program Version 5.0.0 -  RELEASE  -
|  1> !PBE0 D3BJ RIJCOSX def2-TZVPD def2/J TightSCF
|  2> *xyz 0 1
|  3> C         -0.10608        1.76991       -4.08984
|  4> C         -0.25875        1.00432       -5.40983
|  5> C          0.39596       -0.37070       -5.33994
|  6> H          0.23915        1.56939       -6.20125
|  7> H         -1.30936        0.88869       -5.68245
|  8> O         -0.32633       -1.39040       -5.49128
|  9> F          1.61941       -0.40073       -5.03683
| 10> H         -0.57627        2.72718       -4.17630
| 11> H          0.93321        1.90140       -3.87192
| 12> H         -0.56868        1.21534       -3.30031
| 13> *
| 14> %MaxCore 64000
| 15>
| 16> %pal nprocs 4
| 17> end
| 18>
| 19> %scf
| 20>   MaxIter 150
| 21> end
| 22>
| 23>
| 24>                          ****END OF INPUT****

CARTESIAN COORDINATES (ANGSTROEM)
---------------------------------
  C     -0.106080    1.769910   -4.089840
  C     -0.258750    1.004320   -5.409830
  C      0.395960   -0.370700   -5.339940
  H      0.239150    1.569390   -6.201250
  H     -1.309360    0.888690   -5.682450
  O     -0.326330   -1.390400   -5.491280
  F      1.619410   -0.400730   -5.036830
  H     -0.576270    2.727180   -4.176300
  H      0.933210    1.901400   -3.871920
  H     -0.568680    1.215340   -3.300310

 Total Charge           Charge          ....    0
 Multiplicity           Mult            ....    1
 Number of Electrons    NEL             ....   40
 Basis Dimension        Dim             ....  236

ORBITAL ENERGIES
----------------

  NO   OCC          E(Eh)            E(eV)
   0   2.0000     -24.840507      -675.9446
   1   2.0000     -19.211952      -522.7838
   2   2.0000     -10.398562      -282.9592
   3   2.0000     -10.255066      -279.0545
   4   2.0000     -10.230488      -278.3857
   5   2.0000      -1.349230       -36.7144
   6   2.0000      -1.059694       -28.8357
   7   2.0000      -0.830212       -22.5912
   8   2.0000      -0.709158       -19.2972
   9   2.0000      -0.662743       -18.0341
  10   2.0000      -0.566762       -15.4224
  11   2.0000      -0.555615       -15.1191
  12   2.0000      -0.519832       -14.1454
  13   2.0000      -0.481620       -13.1056
  14   2.0000      -0.450895       -12.2695
  15   2.0000      -0.417296       -11.3552
  16   2.0000      -0.397980       -10.8296
  17   2.0000      -0.391637       -10.6570
  18   2.0000      -0.364130        -9.9085
  19   2.0000      -0.303899        -8.2695
  20   0.0000      -0.025214        -0.6861
  21   0.0000       0.007237         0.1969
  22   0.0000       0.035001         0.9524
  23   0.0000       0.044246         1.2040
  24   0.0000       0.054820         1.4917

MULLIKEN ATOMIC CHARGES
-----------------------
   0 C :   -0.822581
   1 C :    0.154608
   2 C :    0.376577
   3 H :    0.156104
   4 H :    0.118479
   5 O :   -0.458171
   6 F :   -0.182505
   7 H :    0.176992
   8 H :    0.233701
   9 H :    0.246796
Sum of atomic charges:   -0.0000000

LOEWDIN ATOMIC CHARGES
----------------------
   0 C :   -0.089836
   1 C :   -0.152681
   2 C :   -0.489033
   3 H :    0.118169
   4 H :    0.119032
   5 O :    0.076679
   6 F :    0.200888
   7 H :    0.070080
   8 H :    0.069855
   9 H :    0.076847

  Mayer bond orders larger than 0.100000
B(  0-C ,  1-C ) :   0.7365 B(  0-C ,  2-C ) :   0.1852 B(  0-C ,  7-H ) :   0.9951
B(  0-C ,  8-H ) :   0.9756 B(  0-C ,  9-H ) :   0.9719 B(  1-C ,  2-C ) :   0.9266
B(  1-C ,  3-H ) :   0.9252 B(  1-C ,  4-H ) :   0.9984 B(  2-C ,  5-O ) :   1.7950
B(  2-C ,  6-F ) :   1.0505

Dispersion correction           -0.005153860
FINAL SINGLE POINT ENERGY      -292.203582947152

DIPOLE MOMENT
-------------
                                X             Y             Z
Electronic contribution:      4.07166      -6.49927      -1.80528
Nuclear contribution   :     -3.93139       7.77287       1.92635
                        -----------------------------------------
Total Dipole Moment    :      0.14027       1.27360       0.12107
                        -----------------------------------------
Magnitude (a.u.)       :      1.28701
Magnitude (Debye)      :      3.27131

Rotational constants in cm-1:     0.286068     0.133630     0.103472
Rotational constants in MHz :  8576.109806  4006.118234  3102.010802

                             ****ORCA TERMINATED NORMALLY****
TOTAL RUN TIME: 0 days 0 hours 0 minutes 28 seconds 968 msec
