                         Program Version 5.0.0 -  RELEASE  -
|  1> !PBE0 D3BJ RIJCOSX def2-TZVPD def2/J TightSCF xyzfile
|  2>
|  3> *xyzfile 0 1 D1.xyz
|  4>
|  5> %MaxCore 64000
|  6>
|  7> %pal nprocs 4
|  8> end
|  9>
| 10> %scf
| 11>   MaxIter 150
| 12> end
| 13>
| 14>
| 15>                          ****END OF INPUT****

CARTESIAN COORDINATES (ANGSTROEM)
---------------------------------
  C      0.816067   -2.101491   -2.186546
  H      1.696232   -2.368691   -1.600457
  C      1.100552   -2.467492   -3.599269
  C      0.516243   -0.613634   -2.039373
  H     -0.020066   -2.712849   -1.840844
  C     -0.868621   -0.193925   -2.546303
  C     -0.984801    1.284739   -2.928686
  H     -0.764939    1.904116   -2.051568
  H     -2.032613    1.478953   -3.178952
  C     -0.106085    1.769914   -4.089836
  H     -0.347744    2.822196   -4.262942
  H      0.949683    1.745875   -3.808781
  C     -0.258747    1.004323   -5.409829
  C      0.395958   -0.370696   -5.339939
  H      0.239150    1.569393   -6.201253
  H     -1.309360    0.888694   -5.682455
  H      1.700606   -1.757225   -4.078378
  H      0.293855   -2.359766   -4.256324
  H      1.501324   -3.428479   -3.694915
  F     -0.326329   -1.390398   -5.491279
  O      1.619412   -0.400726   -5.036827
  H     -1.607271   -0.412651   -1.768955
  H     -1.157234   -0.796164   -3.409254
  H      1.299044   -0.056805   -2.558982
  H      0.612393   -0.365579   -0.979171

 Total Charge           Charge          ....    0
 Multiplicity           Mult            ....    1
 Number of Electrons    NEL             ....   80
 Basis Dimension        Dim             ....  511

ORBITAL ENERGIES
----------------

  NO   OCC          E(Eh)            E(eV)
   0   2.0000     -24.849701      -676.1947
   1   2.0000     -19.217889      -522.9453
   2   2.0000     -10.407421      -283.2003
   3   2.0000     -10.256276      -279.0875
   4   2.0000     -10.236539      -278.5504
   5   2.0000     -10.224645      -278.2267
   6   2.0000     -10.216968      -278.0178
   7   2.0000     -10.203194      -277.6430
   8   2.0000     -10.193621      -277.3825
   9   2.0000     -10.142828      -276.0004
  10   2.0000      -1.364217       -37.1222
  11   2.0000      -1.074539       -29.2397
  12   2.0000      -0.850178       -23.1345
  13   2.0000      -0.817194       -22.2370
  14   2.0000      -0.768521       -20.9125
  15   2.0000      -0.729283       -19.8448
  16   2.0000      -0.687363       -18.7041
  17   2.0000      -0.658089       -17.9075
  18   2.0000      -0.618518       -16.8307
  19   2.0000      -0.577073       -15.7030
  20   2.0000      -0.573324       -15.6009
  21   2.0000      -0.559376       -15.2214
  22   2.0000      -0.543350       -14.7853
  23   2.0000      -0.492975       -13.4145
  24   2.0000      -0.473026       -12.8717
  25   2.0000      -0.457592       -12.4517
  26   2.0000      -0.452498       -12.3131
  27   2.0000      -0.439007       -11.9460
  28   2.0000      -0.425531       -11.5793
  29   2.0000      -0.413835       -11.2610
  30   2.0000      -0.395440       -10.7605
  31   2.0000      -0.380174       -10.3451
  32   2.0000      -0.375412       -10.2155
  33   2.0000      -0.362908        -9.8752
  34   2.0000      -0.349442        -9.5088
  35   2.0000      -0.337715        -9.1897
  36   2.0000      -0.328710        -8.9447
  37   2.0000      -0.317589        -8.6420
  38   2.0000      -0.308619        -8.3979
  39   2.0000      -0.276433        -7.5221
  40   0.0000      -0.038704        -1.0532
  41   0.0000       0.007693         0.2093
  42   0.0000       0.026226         0.7136
  43   0.0000       0.029339         0.7984
  44   0.0000       0.031890         0.8678

MULLIKEN ATOMIC CHARGES
-----------------------
   0 C :    0.152490
   1 H :    0.104269
   2 C :   -1.463234
   3 C :   -0.190180
   4 H :    0.084140
   5 C :   -0.333542
   6 C :   -0.309442
   7 H :    0.102286
   8 H :    0.150986
   9 C :   -0.362952
  10 H :    0.082716
  11 H :    0.227938
  12 C :   -0.048622
  13 C :    0.399452
  14 H :    0.171182
  15 H :    0.129643
  16 H :    0.506158
  17 H :    0.463696
  18 H :    0.214450
  19 F :   -0.241768
  20 O :   -0.528530
  21 H :    0.161619
  22 H :    0.222697
  23 H :    0.125169
  24 H :    0.179377
Sum of atomic charges:    0.0000000

LOEWDIN ATOMIC CHARGES
----------------------
   0 C :   -0.243106
   1 H :    0.107888
   2 C :   -0.127218
   3 C :   -0.207980
   4 H :    0.110293
   5 C :   -0.200748
   6 C :   -0.202181
   7 H :    0.115102
   8 H :    0.110008
   9 C :   -0.195103
  10 H :    0.113234
  11 H :    0.110157
  12 C :   -0.088147
  13 C :   -0.458673
  14 H :    0.127960
  15 H :    0.121246
  16 H :    0.024829
  17 H :    0.038687
  18 H :    0.072912
  19 F :    0.173960
  20 O :    0.063503
  21 H :    0.117343
  22 H :    0.100643
  23 H :    0.103686
  24 H :    0.111706

  Mayer bond orders larger than 0.100000
B(  0-C ,  1-H ) :   0.9137 B(  0-C ,  2-C ) :   0.5371 B(  0-C ,  3-C ) :   1.0222
B(  0-C ,  4-H ) :   0.9324 B(  0-C ,  5-C ) :   0.3596 B(  2-C , 13-C ) :   0.1471
B(  2-C , 16-H ) :   0.9453 B(  2-C , 17-H ) :   0.9149 B(  2-C , 18-H ) :   0.8997
B(  2-C , 20-O ) :   0.1280 B(  3-C ,  5-C ) :   0.6686 B(  3-C ,  6-C ) :   0.2700
B(  3-C ,  9-C ) :   0.1192 B(  3-C , 23-H ) :   1.0261 B(  3-C , 24-H ) :   0.9009
B(  5-C ,  6-C ) :   1.1031 B(  5-C , 13-C ) :   0.1202 B(  5-C , 21-H ) :   0.9623
B(  5-C , 22-H ) :   0.9386 B(  6-C ,  7-H ) :   0.9795 B(  6-C ,  8-H ) :   0.9224
B(  6-C ,  9-C ) :   1.0164 B(  6-C , 12-C ) :   0.1167 B(  9-C , 10-H ) :   0.9799
B(  9-C , 11-H ) :   0.9043 B(  9-C , 12-C ) :   0.9608 B(  9-C , 13-C ) :   0.2171
B( 12-C , 13-C ) :   0.9874 B( 12-C , 14-H ) :   0.8671 B( 12-C , 15-H ) :   1.0085
B( 13-C , 19-F ) :   0.9459 B( 13-C , 20-O ) :   1.7518 B( 16-H , 20-O ) :  -0.1589
B( 17-H , 19-F ) :  -0.1002 B( 19-F , 20-O ) :   0.1012

Dispersion correction           -0.022552047
FINAL SINGLE POINT ENERGY      -488.551396683495

DIPOLE MOMENT
-------------
                                X             Y             Z
Electronic contribution:      0.34682      -1.98056     -10.57006
Nuclear contribution   :     -1.21560       2.80077      10.24180
                        -----------------------------------------
Total Dipole Moment    :     -0.86878       0.82021      -0.32826
                        -----------------------------------------
Magnitude (a.u.)       :      1.23906
Magnitude (Debye)      :      3.14945

Rotational constants in cm-1:     0.051255     0.042531     0.028894
Rotational constants in MHz :  1536.587743  1275.050721   866.218876

                             ****ORCA TERMINATED NORMALLY****
TOTAL RUN TIME: 0 days 0 hours 3 minutes 33 seconds 947 msec
