                         Program Version 5.0.0 -  RELEASE  -
|  1> !PBE0 D3BJ RIJCOSX def2-TZVPD def2/J TightSCF xyzfile
|  2>
|  3> *xyzfile 0 1 D2.xyz
|  4>
|  5> %MaxCore 64000
|  6>
|  7> %pal nprocs 4
|  8> end
|  9>
| 10> %scf
| 11>   MaxIter 150
| 12> end
| 13>
| 14>
| 15>                          ****END OF INPUT****

CARTESIAN COORDINATES (ANGSTROEM)
---------------------------------
  C      0.816067   -2.101491   -2.186546
  H      1.696232   -2.368691   -1.600457
  C      1.100552   -2.467492   -3.599269
  C      0.516243   -0.613634   -2.039373
  H     -0.020066   -2.712849   -1.840844
  C     -0.868621   -0.193925   -2.546303
  C     -0.984801    1.284739   -2.928686
  H     -0.764939    1.904116   -2.051568
  H     -2.032613    1.478953   -3.178952
  C     -0.106085    1.769914   -4.089836
  H     -0.347744    2.822196   -4.262942
  H      0.949683    1.745875   -3.808781
  C     -0.258747    1.004323   -5.409829
  C      0.395958   -0.370696   -5.339939
  H      0.239150    1.569393   -6.201253
  H     -1.309360    0.888694   -5.682455
  H      1.700606   -1.757225   -4.078378
  H      0.293855   -2.359766   -4.256324
  H      1.501324   -3.428479   -3.694915
  O     -0.326329   -1.390398   -5.491279
  F      1.619412   -0.400726   -5.036827
  H     -1.607271   -0.412651   -1.768955
  H     -1.157234   -0.796164   -3.409254
  H      1.299044   -0.056805   -2.558982
  H      0.612393   -0.365579   -0.979171

 Total Charge           Charge          ....    0
 Multiplicity           Mult            ....    1
 Number of Electrons    NEL             ....   80
 Basis Dimension        Dim             ....  511

ORBITAL ENERGIES
----------------

  NO   OCC          E(Eh)            E(eV)
   0   2.0000     -24.849693      -676.1945
   1   2.0000     -19.217767      -522.9420
   2   2.0000     -10.406956      -283.1877
   3   2.0000     -10.256160      -279.0843
   4   2.0000     -10.240517      -278.6586
   5   2.0000     -10.224685      -278.2278
   6   2.0000     -10.211625      -277.8725
   7   2.0000     -10.207102      -277.7494
   8   2.0000     -10.194672      -277.4111
   9   2.0000     -10.144002      -276.0323
  10   2.0000      -1.363899       -37.1136
  11   2.0000      -1.074352       -29.2346
  12   2.0000      -0.852697       -23.2031
  13   2.0000      -0.818923       -22.2840
  14   2.0000      -0.769228       -20.9317
  15   2.0000      -0.728432       -19.8216
  16   2.0000      -0.686749       -18.6874
  17   2.0000      -0.658925       -17.9303
  18   2.0000      -0.619487       -16.8571
  19   2.0000      -0.580704       -15.8018
  20   2.0000      -0.577710       -15.7203
  21   2.0000      -0.562799       -15.3145
  22   2.0000      -0.529856       -14.4181
  23   2.0000      -0.493989       -13.4421
  24   2.0000      -0.472376       -12.8540
  25   2.0000      -0.458570       -12.4783
  26   2.0000      -0.453939       -12.3523
  27   2.0000      -0.443896       -12.0790
  28   2.0000      -0.429259       -11.6807
  29   2.0000      -0.405733       -11.0405
  30   2.0000      -0.398038       -10.8312
  31   2.0000      -0.389765       -10.6060
  32   2.0000      -0.380511       -10.3542
  33   2.0000      -0.362319        -9.8592
  34   2.0000      -0.343978        -9.3601
  35   2.0000      -0.340905        -9.2765
  36   2.0000      -0.328423        -8.9368
  37   2.0000      -0.313601        -8.5335
  38   2.0000      -0.312092        -8.4925
  39   2.0000      -0.277206        -7.5431
  40   0.0000      -0.037076        -1.0089
  41   0.0000       0.006635         0.1805
  42   0.0000       0.026266         0.7147
  43   0.0000       0.027190         0.7399
  44   0.0000       0.031947         0.8693

MULLIKEN ATOMIC CHARGES
-----------------------
   0 C :    0.162564
   1 H :    0.095814
   2 C :   -1.433539
   3 C :   -0.189960
   4 H :    0.090319
   5 C :   -0.369828
   6 C :   -0.244352
   7 H :    0.106958
   8 H :    0.155919
   9 C :   -0.403776
  10 H :    0.070617
  11 H :    0.233252
  12 C :   -0.006895
  13 C :    0.402285
  14 H :    0.177750
  15 H :    0.104188
  16 H :    0.408433
  17 H :    0.532555
  18 H :    0.208038
  19 O :   -0.534016
  20 F :   -0.246397
  21 H :    0.161998
  22 H :    0.248468
  23 H :    0.097765
  24 H :    0.171841
Sum of atomic charges:   -0.0000000

LOEWDIN ATOMIC CHARGES
----------------------
   0 C :   -0.243415
   1 H :    0.105836
   2 C :   -0.124208
   3 C :   -0.208645
   4 H :    0.113042
   5 C :   -0.200406
   6 C :   -0.201314
   7 H :    0.113873
   8 H :    0.111841
   9 C :   -0.199747
  10 H :    0.112495
  11 H :    0.106756
  12 C :   -0.082426
  13 C :   -0.464067
  14 H :    0.124939
  15 H :    0.129936
  16 H :    0.042404
  17 H :    0.022755
  18 H :    0.073877
  19 O :    0.056510
  20 F :    0.178439
  21 H :    0.117289
  22 H :    0.101826
  23 H :    0.100880
  24 H :    0.111530

  Mayer bond orders larger than 0.100000
B(  0-C ,  1-H ) :   0.9285 B(  0-C ,  2-C ) :   0.5361 B(  0-C ,  3-C ) :   1.0240
B(  0-C ,  4-H ) :   0.9243 B(  0-C ,  5-C ) :   0.3314 B(  2-C ,  4-H ) :   0.1001
B(  2-C , 13-C ) :   0.1341 B(  2-C , 16-H ) :   0.9765 B(  2-C , 17-H ) :   0.8978
B(  2-C , 18-H ) :   0.8955 B(  2-C , 19-O ) :   0.1005 B(  2-C , 20-F ) :   0.1043
B(  3-C ,  5-C ) :   0.6806 B(  3-C ,  6-C ) :   0.2413 B(  3-C ,  9-C ) :   0.1315
B(  3-C , 23-H ) :   1.0296 B(  3-C , 24-H ) :   0.9065 B(  5-C ,  6-C ) :   1.1005
B(  5-C , 13-C ) :   0.1317 B(  5-C , 21-H ) :   0.9514 B(  5-C , 22-H ) :   0.9700
B(  6-C ,  7-H ) :   0.9903 B(  6-C ,  8-H ) :   0.9194 B(  6-C ,  9-C ) :   1.0186
B(  9-C , 10-H ) :   1.0013 B(  9-C , 11-H ) :   0.8964 B(  9-C , 12-C ) :   0.9225
B(  9-C , 13-C ) :   0.2001 B( 12-C , 13-C ) :   1.0097 B( 12-C , 14-H ) :   0.8833
B( 12-C , 15-H ) :   1.0015 B( 13-C , 19-O ) :   1.7208 B( 13-C , 20-F ) :   0.9318
B( 17-H , 19-O ) :  -0.1222

Dispersion correction           -0.022514524
FINAL SINGLE POINT ENERGY      -488.551499974759

DIPOLE MOMENT
-------------
                                X             Y             Z
Electronic contribution:      3.59159      -0.32148      -9.80632
Nuclear contribution   :     -3.57245       1.60200       9.69133
                        -----------------------------------------
Total Dipole Moment    :      0.01914       1.28052      -0.11498
                        -----------------------------------------
Magnitude (a.u.)       :      1.28581
Magnitude (Debye)      :      3.26828

Rotational constants in cm-1:     0.051520     0.042563     0.028962
Rotational constants in MHz :  1544.537298  1275.996546   868.258224

                             ****ORCA TERMINATED NORMALLY****
TOTAL RUN TIME: 0 days 0 hours 3 minutes 7 seconds 251 msec
