                         Program Version 5.0.0 -  RELEASE  -
|  1> !wB97X-D3 RIJCOSX def2-TZVPD def2/J TightSCF
|  2> *xyz -1 1
|  3> C          0.28725       -1.71177       -2.52740
|  4> O          0.71050       -0.92751       -1.48177
|  5> H          0.92384       -1.55316       -3.37267
|  6> H         -0.71828       -1.45137       -2.78433
|  7> H          0.32655       -2.74158       -2.23955
|  8> *
|  9> %MaxCore 64000
| 10>
| 11> %pal nprocs 18
| 12> end
| 13>
| 14> %scf
| 15>   MaxIter 150
| 16> end
| 17>
| 18>
| 19>                          ****END OF INPUT****

CARTESIAN COORDINATES (ANGSTROEM)
---------------------------------
  C      0.287250   -1.711770   -2.527400
  O      0.710500   -0.927510   -1.481770
  H      0.923840   -1.553160   -3.372670
  H     -0.718280   -1.451370   -2.784330
  H      0.326550   -2.741580   -2.239550

 Total Charge           Charge          ....   -1
 Multiplicity           Mult            ....    1
 Number of Electrons    NEL             ....   18
 Basis Dimension        Dim             ....  104

ORBITAL ENERGIES
----------------

  NO   OCC          E(Eh)            E(eV)
   0   2.0000     -18.874379      -513.5980
   1   2.0000     -10.056167      -273.6422
   2   2.0000      -0.771528       -20.9943
   3   2.0000      -0.509317       -13.8592
   4   2.0000      -0.295064        -8.0291
   5   2.0000      -0.295038        -8.0284
   6   2.0000      -0.194240        -5.2855
   7   2.0000      -0.041758        -1.1363
   8   2.0000      -0.041745        -1.1359
   9   0.0000       0.226144         6.1537
  10   0.0000       0.274857         7.4792
  11   0.0000       0.280267         7.6265
  12   0.0000       0.280271         7.6266
  13   0.0000       0.329729         8.9724

MULLIKEN ATOMIC CHARGES
-----------------------
   0 C :   -0.549465
   1 O :   -0.944568
   2 H :    0.164877
   3 H :    0.164525
   4 H :    0.164632
Sum of atomic charges:   -1.0000000

LOEWDIN ATOMIC CHARGES
----------------------
   0 C :   -0.508639
   1 O :   -0.520137
   2 H :    0.009578
   3 H :    0.009600
   4 H :    0.009598

  Mayer bond orders larger than 0.100000
B(  0-C ,  1-O ) :   1.0520 B(  0-C ,  2-H ) :   0.9586 B(  0-C ,  3-H ) :   0.9587
B(  0-C ,  4-H ) :   0.9589

Dispersion correction           -0.000091576
FINAL SINGLE POINT ENERGY      -115.107497900790

DIPOLE MOMENT
-------------
                                X             Y             Z
Electronic contribution:      0.56983       1.05562       1.40761
Nuclear contribution   :     -0.89006      -1.64923      -2.19886
                        -----------------------------------------
Total Dipole Moment    :     -0.32023      -0.59361      -0.79125
                        -----------------------------------------
Magnitude (a.u.)       :      1.03972
Magnitude (Debye)      :      2.64275

Rotational constants in cm-1:     5.477712     0.934243     0.934241
Rotational constants in MHz : 164217.678885 28007.889263 28007.851448

                             ****ORCA TERMINATED NORMALLY****
TOTAL RUN TIME: 0 days 0 hours 0 minutes 4 seconds 24 msec
