                         Program Version 5.0.0 -  RELEASE  -
|  1> !wB97X-D3 RIJCOSX def2-TZVPD def2/J TightSCF
|  2> *xyz 1 1
|  3> C          3.48828        1.60092       -1.52204
|  4> N          2.81029        0.42878       -1.01420
|  5> C          3.29098       -0.41802       -0.12908
|  6> N          2.51754       -1.43202        0.23936
|  7> N          4.53549       -0.28441        0.39580
|  8> H          5.04363        0.57189        0.22290
|  9> H          4.72335       -0.73327        1.28180
| 10> H          1.93479        0.10230       -1.40379
| 11> H          1.67464       -1.50562       -0.31610
| 12> H          2.92850       -2.21850        0.72549
| 13> H          2.85802        2.09943       -2.22855
| 14> H          4.39853        1.30677       -2.00144
| 15> H          3.70992        2.26379       -0.71187
| 16> *
| 17> %MaxCore 64000
| 18>
| 19> %pal nprocs 18
| 20> end
| 21>
| 22> %scf
| 23>   MaxIter 150
| 24> end
| 25>
| 26>
| 27>                          ****END OF INPUT****

CARTESIAN COORDINATES (ANGSTROEM)
---------------------------------
  C      3.488280    1.600920   -1.522040
  N      2.810290    0.428780   -1.014200
  C      3.290980   -0.418020   -0.129080
  N      2.517540   -1.432020    0.239360
  N      4.535490   -0.284410    0.395800
  H      5.043630    0.571890    0.222900
  H      4.723350   -0.733270    1.281800
  H      1.934790    0.102300   -1.403790
  H      1.674640   -1.505620   -0.316100
  H      2.928500   -2.218500    0.725490
  H      2.858020    2.099430   -2.228550
  H      4.398530    1.306770   -2.001440
  H      3.709920    2.263790   -0.711870

 Total Charge           Charge          ....    1
 Multiplicity           Mult            ....    1
 Number of Electrons    NEL             ....   40
 Basis Dimension        Dim             ....  257

ORBITAL ENERGIES
----------------

  NO   OCC          E(Eh)            E(eV)
   0   2.0000     -14.657109      -398.8402
   1   2.0000     -14.648435      -398.6042
   2   2.0000     -14.648001      -398.5924
   3   2.0000     -10.616782      -288.8973
   4   2.0000     -10.481416      -285.2138
   5   2.0000      -1.342970       -36.5441
   6   2.0000      -1.227674       -33.4067
   7   2.0000      -1.213692       -33.0262
   8   2.0000      -1.026756       -27.9395
   9   2.0000      -0.938124       -25.5276
  10   2.0000      -0.887592       -24.1526
  11   2.0000      -0.863793       -23.5050
  12   2.0000      -0.796208       -21.6659
  13   2.0000      -0.785567       -21.3764
  14   2.0000      -0.766061       -20.8456
  15   2.0000      -0.746325       -20.3085
  16   2.0000      -0.695318       -18.9206
  17   2.0000      -0.681156       -18.5352
  18   2.0000      -0.578641       -15.7456
  19   2.0000      -0.553501       -15.0615
  20   0.0000      -0.096152        -2.6164
  21   0.0000      -0.093073        -2.5326
  22   0.0000      -0.059673        -1.6238
  23   0.0000      -0.052762        -1.4357
  24   0.0000      -0.025753        -0.7008

MULLIKEN ATOMIC CHARGES
-----------------------
   0 C :   -1.027802
   1 N :   -0.172254
   2 C :    0.734179
   3 N :   -0.404196
   4 N :   -0.421429
   5 H :    0.261368
   6 H :    0.253838
   7 H :    0.210224
   8 H :    0.224430
   9 H :    0.242261
  10 H :    0.325253
  11 H :    0.399599
  12 H :    0.374529
Sum of atomic charges:    1.0000000

LOEWDIN ATOMIC CHARGES
----------------------
   0 C :   -0.024095
   1 N :    0.040037
   2 C :   -0.430569
   3 N :    0.198795
   4 N :    0.209259
   5 H :    0.121839
   6 H :    0.137861
   7 H :    0.165310
   8 H :    0.138340
   9 H :    0.146265
  10 H :    0.102615
  11 H :    0.097656
  12 H :    0.096688

  Mayer bond orders larger than 0.100000
B(  0-C ,  1-N ) :   0.8715 B(  0-C , 10-H ) :   0.8966 B(  0-C , 11-H ) :   0.8206
B(  0-C , 12-H ) :   0.8612 B(  1-N ,  2-C ) :   1.2318 B(  1-N ,  3-N ) :   0.1004
B(  1-N ,  7-H ) :   1.0022 B(  2-C ,  3-N ) :   1.1071 B(  2-C ,  4-N ) :   1.1607
B(  3-N ,  8-H ) :   0.9583 B(  3-N ,  9-H ) :   0.9723 B(  4-N ,  5-H ) :   0.9406
B(  4-N ,  6-H ) :   0.9561

Dispersion correction           -0.002381218
FINAL SINGLE POINT ENERGY      -245.106281138334

DIPOLE MOMENT
-------------
                                X             Y             Z
Electronic contribution:     -0.68345      -2.29406       1.34110
Nuclear contribution   :      0.56176       1.95858      -1.15445
                        -----------------------------------------
Total Dipole Moment    :     -0.12168      -0.33548       0.18665
                        -----------------------------------------
Magnitude (a.u.)       :      0.40273
Magnitude (Debye)      :      1.02366

Rotational constants in cm-1:     0.309570     0.135399     0.096056
Rotational constants in MHz :  9280.673410  4059.171112  2879.675555

                             ****ORCA TERMINATED NORMALLY****
TOTAL RUN TIME: 0 days 0 hours 0 minutes 15 seconds 946 msec
