                         Program Version 5.0.0 -  RELEASE  -
|  1> !wB97X-D3 RIJCOSX def2-TZVPD def2/J TightSCF
|  2> *xyz 0 1
|  3> C          0.28725       -1.71177       -2.52740
|  4> F          0.71050       -0.92751       -1.48177
|  5> H          0.92384       -1.55316       -3.37267
|  6> H         -0.71828       -1.45137       -2.78433
|  7> H          0.32655       -2.74158       -2.23955
|  8> *
|  9> %MaxCore 64000
| 10>
| 11> %pal nprocs 18
| 12> end
| 13>
| 14> %scf
| 15>   MaxIter 150
| 16> end
| 17>
| 18>
| 19>                          ****END OF INPUT****

CARTESIAN COORDINATES (ANGSTROEM)
---------------------------------
  C      0.287250   -1.711770   -2.527400
  F      0.710500   -0.927510   -1.481770
  H      0.923840   -1.553160   -3.372670
  H     -0.718280   -1.451370   -2.784330
  H      0.326550   -2.741580   -2.239550

 Total Charge           Charge          ....    0
 Multiplicity           Mult            ....    1
 Number of Electrons    NEL             ....   18
 Basis Dimension        Dim             ....  104

ORBITAL ENERGIES
----------------

  NO   OCC          E(Eh)            E(eV)
   0   2.0000     -24.767760      -673.9650
   1   2.0000     -10.340078      -281.3678
   2   2.0000      -1.310292       -35.6549
   3   2.0000      -0.821479       -22.3536
   4   2.0000      -0.594762       -16.1843
   5   2.0000      -0.591520       -16.0961
   6   2.0000      -0.591499       -16.0955
   7   2.0000      -0.448327       -12.1996
   8   2.0000      -0.448317       -12.1993
   9   0.0000       0.074094         2.0162
  10   0.0000       0.116002         3.1566
  11   0.0000       0.134550         3.6613
  12   0.0000       0.134554         3.6614
  13   0.0000       0.161051         4.3824

MULLIKEN ATOMIC CHARGES
-----------------------
   0 C :   -0.334826
   1 F :   -0.288243
   2 H :    0.207853
   3 H :    0.207502
   4 H :    0.207713
Sum of atomic charges:    0.0000000

LOEWDIN ATOMIC CHARGES
----------------------
   0 C :   -0.111710
   1 F :   -0.102323
   2 H :    0.071336
   3 H :    0.071342
   4 H :    0.071355

  Mayer bond orders larger than 0.100000
B(  0-C ,  1-F ) :   0.8298 B(  0-C ,  2-H ) :   0.9497 B(  0-C ,  3-H ) :   0.9498
B(  0-C ,  4-H ) :   0.9499

Dispersion correction           -0.000131477
FINAL SINGLE POINT ENERGY      -139.766347588751

DIPOLE MOMENT
-------------
                                X             Y             Z
Electronic contribution:      0.90846       1.68313       2.24415
Nuclear contribution   :     -1.12906      -2.09208      -2.78929
                        -----------------------------------------
Total Dipole Moment    :     -0.22059      -0.40894      -0.54514
                        -----------------------------------------
Magnitude (a.u.)       :      0.71629
Magnitude (Debye)      :      1.82066

Rotational constants in cm-1:     5.477712     0.869598     0.869597
Rotational constants in MHz : 164217.678885 26069.889584 26069.856821

                             ****ORCA TERMINATED NORMALLY****
TOTAL RUN TIME: 0 days 0 hours 0 minutes 4 seconds 79 msec
