                         Program Version 5.0.0 -  RELEASE  -
|  1> !wB97X-D3 RIJCOSX def2-TZVPD def2/J TightSCF
|  2> *xyz 0 1
|  3> C          3.48828        1.60092       -1.52204
|  4> C          2.81029        0.42878       -1.01420
|  5> C          3.29098       -0.41802       -0.12908
|  6> N          2.51754       -1.43202        0.23936
|  7> N          4.53549       -0.28441        0.39580
|  8> H          5.04363        0.57189        0.22290
|  9> H          4.72335       -0.73327        1.28180
| 10> H          1.93479        0.10230       -1.40379
| 11> H          1.67464       -1.50562       -0.31610
| 12> H          2.92850       -2.21850        0.72549
| 13> H          2.85802        2.09943       -2.22855
| 14> H          4.39853        1.30677       -2.00144
| 15> H          3.70992        2.26379       -0.71187
| 16> *
| 17> %MaxCore 64000
| 18>
| 19> %pal nprocs 18
| 20> end
| 21>
| 22> %scf
| 23>   MaxIter 150
| 24> end
| 25>
| 26>
| 27>                          ****END OF INPUT****

CARTESIAN COORDINATES (ANGSTROEM)
---------------------------------
  C      3.488280    1.600920   -1.522040
  C      2.810290    0.428780   -1.014200
  C      3.290980   -0.418020   -0.129080
  N      2.517540   -1.432020    0.239360
  N      4.535490   -0.284410    0.395800
  H      5.043630    0.571890    0.222900
  H      4.723350   -0.733270    1.281800
  H      1.934790    0.102300   -1.403790
  H      1.674640   -1.505620   -0.316100
  H      2.928500   -2.218500    0.725490
  H      2.858020    2.099430   -2.228550
  H      4.398530    1.306770   -2.001440
  H      3.709920    2.263790   -0.711870

 Total Charge           Charge          ....    0
 Multiplicity           Mult            ....    1
 Number of Electrons    NEL             ....   40
 Basis Dimension        Dim             ....  257

ORBITAL ENERGIES
----------------

  NO   OCC          E(Eh)            E(eV)
   0   2.0000     -14.422656      -392.4604
   1   2.0000     -14.415317      -392.2607
   2   2.0000     -10.313489      -280.6443
   3   2.0000     -10.238319      -278.5988
   4   2.0000     -10.196714      -277.4667
   5   2.0000      -1.075708       -29.2715
   6   2.0000      -0.985219       -26.8092
   7   2.0000      -0.871701       -23.7202
   8   2.0000      -0.769289       -20.9334
   9   2.0000      -0.688678       -18.7399
  10   2.0000      -0.637988       -17.3605
  11   2.0000      -0.611621       -16.6430
  12   2.0000      -0.561593       -15.2817
  13   2.0000      -0.528383       -14.3780
  14   2.0000      -0.513305       -13.9677
  15   2.0000      -0.473147       -12.8750
  16   2.0000      -0.461705       -12.5636
  17   2.0000      -0.437501       -11.9050
  18   2.0000      -0.360484        -9.8093
  19   2.0000      -0.247280        -6.7288
  20   0.0000       0.065576         1.7844
  21   0.0000       0.089168         2.4264
  22   0.0000       0.095623         2.6020
  23   0.0000       0.120880         3.2893
  24   0.0000       0.134860         3.6697

MULLIKEN ATOMIC CHARGES
-----------------------
   0 C :   -1.199334
   1 C :   -0.410815
   2 C :    0.523919
   3 N :   -0.459699
   4 N :   -0.460334
   5 H :    0.227759
   6 H :    0.201407
   7 H :    0.300533
   8 H :    0.198921
   9 H :    0.190104
  10 H :    0.313835
  11 H :    0.276284
  12 H :    0.297421
Sum of atomic charges:    0.0000000

LOEWDIN ATOMIC CHARGES
----------------------
   0 C :   -0.133975
   1 C :   -0.191110
   2 C :   -0.554138
   3 N :    0.091351
   4 N :    0.121891
   5 H :    0.093396
   6 H :    0.097320
   7 H :    0.061237
   8 H :    0.107679
   9 H :    0.102973
  10 H :    0.068921
  11 H :    0.067963
  12 H :    0.066492

  Mayer bond orders larger than 0.100000
B(  0-C ,  1-C ) :   0.6289 B(  0-C ,  2-C ) :   0.1774 B(  0-C , 10-H ) :   0.9671
B(  0-C , 11-H ) :   0.9202 B(  0-C , 12-H ) :   0.9610 B(  1-C ,  2-C ) :   1.2116
B(  1-C ,  7-H ) :   0.9801 B(  2-C ,  3-N ) :   1.1218 B(  2-C ,  4-N ) :   1.0347
B(  2-C ,  7-H ) :  -0.2215 B(  3-N ,  8-H ) :   0.9572 B(  3-N ,  9-H ) :   1.0162
B(  4-N ,  5-H ) :   0.9423 B(  4-N ,  6-H ) :   0.9842

Dispersion correction           -0.002384138
FINAL SINGLE POINT ENERGY      -228.628124959543

DIPOLE MOMENT
-------------
                                X             Y             Z
Electronic contribution:     -0.23228      -2.55489       1.79855
Nuclear contribution   :      0.45569       2.05070      -1.27895
                        -----------------------------------------
Total Dipole Moment    :      0.22341      -0.50419       0.51960
                        -----------------------------------------
Magnitude (a.u.)       :      0.75770
Magnitude (Debye)      :      1.92592

Rotational constants in cm-1:     0.314404     0.136412     0.097030
Rotational constants in MHz :  9425.600285  4089.541372  2908.875289

                             ****ORCA TERMINATED NORMALLY****
TOTAL RUN TIME: 0 days 0 hours 0 minutes 17 seconds 99 msec
