                         Program Version 5.0.0 -  RELEASE  -
|  1> !wB97X-D3 RIJCOSX def2-TZVPD def2/J TightSCF
|  2> *xyz 0 1
|  3> C          3.48828        1.60092       -1.52204
|  4> N          2.81029        0.42878       -1.01420
|  5> C          3.29098       -0.41802       -0.12908
|  6> C          2.51754       -1.43202        0.23936
|  7> N          4.53549       -0.28441        0.39580
|  8> H          5.04363        0.57189        0.22290
|  9> H          4.72335       -0.73327        1.28180
| 10> H          1.93479        0.10230       -1.40379
| 11> H          1.67464       -1.50562       -0.31610
| 12> H          2.92850       -2.21850        0.72549
| 13> H          2.85802        2.09943       -2.22855
| 14> H          4.39853        1.30677       -2.00144
| 15> H          3.70992        2.26379       -0.71187
| 16> *
| 17> %MaxCore 64000
| 18>
| 19> %pal nprocs 18
| 20> end
| 21>
| 22> %scf
| 23>   MaxIter 150
| 24> end
| 25>
| 26>
| 27>                          ****END OF INPUT****

CARTESIAN COORDINATES (ANGSTROEM)
---------------------------------
  C      3.488280    1.600920   -1.522040
  N      2.810290    0.428780   -1.014200
  C      3.290980   -0.418020   -0.129080
  C      2.517540   -1.432020    0.239360
  N      4.535490   -0.284410    0.395800
  H      5.043630    0.571890    0.222900
  H      4.723350   -0.733270    1.281800
  H      1.934790    0.102300   -1.403790
  H      1.674640   -1.505620   -0.316100
  H      2.928500   -2.218500    0.725490
  H      2.858020    2.099430   -2.228550
  H      4.398530    1.306770   -2.001440
  H      3.709920    2.263790   -0.711870

 Total Charge           Charge          ....    0
 Multiplicity           Mult            ....    1
 Number of Electrons    NEL             ....   40
 Basis Dimension        Dim             ....  257

ORBITAL ENERGIES
----------------

  NO   OCC          E(Eh)            E(eV)
   0   2.0000     -14.423987      -392.4966
   1   2.0000     -14.422806      -392.4645
   2   2.0000     -10.321466      -280.8614
   3   2.0000     -10.307742      -280.4879
   4   2.0000     -10.180655      -277.0297
   5   2.0000      -1.087761       -29.5995
   6   2.0000      -0.999106       -27.1870
   7   2.0000      -0.865647       -23.5555
   8   2.0000      -0.779969       -21.2240
   9   2.0000      -0.704596       -19.1730
  10   2.0000      -0.636346       -17.3159
  11   2.0000      -0.594922       -16.1887
  12   2.0000      -0.578585       -15.7441
  13   2.0000      -0.559466       -15.2239
  14   2.0000      -0.504813       -13.7367
  15   2.0000      -0.483007       -13.1433
  16   2.0000      -0.474473       -12.9111
  17   2.0000      -0.466075       -12.6825
  18   2.0000      -0.354596        -9.6490
  19   2.0000      -0.248665        -6.7665
  20   0.0000       0.060878         1.6566
  21   0.0000       0.090491         2.4624
  22   0.0000       0.095267         2.5923
  23   0.0000       0.122570         3.3353
  24   0.0000       0.129026         3.5110

MULLIKEN ATOMIC CHARGES
-----------------------
   0 C :   -1.009576
   1 N :   -0.164918
   2 C :    0.887265
   3 C :   -1.551495
   4 N :   -0.457392
   5 H :    0.209196
   6 H :    0.235076
   7 H :    0.180514
   8 H :    0.331522
   9 H :    0.356512
  10 H :    0.307462
  11 H :    0.346705
  12 H :    0.329127
Sum of atomic charges:   -0.0000000

LOEWDIN ATOMIC CHARGES
----------------------
   0 C :   -0.081275
   1 N :   -0.036376
   2 C :   -0.565010
   3 C :   -0.018531
   4 N :    0.116487
   5 H :    0.085570
   6 H :    0.108796
   7 H :    0.140731
   8 H :    0.007699
   9 H :    0.010771
  10 H :    0.080532
  11 H :    0.075658
  12 H :    0.074948

  Mayer bond orders larger than 0.100000
B(  0-C ,  1-N ) :   0.8284 B(  0-C , 10-H ) :   0.9205 B(  0-C , 11-H ) :   0.8735
B(  0-C , 12-H ) :   0.8989 B(  1-N ,  2-C ) :   1.1519 B(  1-N ,  7-H ) :   0.9544
B(  2-C ,  3-C ) :   0.9004 B(  2-C ,  4-N ) :   1.0509 B(  3-C ,  8-H ) :   0.9614
B(  3-C ,  9-H ) :   0.9773 B(  4-N ,  5-H ) :   0.9888 B(  4-N ,  6-H ) :   0.9438

Dispersion correction           -0.002394858
FINAL SINGLE POINT ENERGY      -228.613677295398

DIPOLE MOMENT
-------------
                                X             Y             Z
Electronic contribution:      0.11452      -0.70293       0.62616
Nuclear contribution   :      0.39640       1.67380      -1.02505
                        -----------------------------------------
Total Dipole Moment    :      0.51092       0.97087      -0.39889
                        -----------------------------------------
Magnitude (a.u.)       :      1.16736
Magnitude (Debye)      :      2.96720

Rotational constants in cm-1:     0.316500     0.141146     0.099607
Rotational constants in MHz :  9488.425850  4231.454938  2986.155520

                             ****ORCA TERMINATED NORMALLY****
TOTAL RUN TIME: 0 days 0 hours 0 minutes 16 seconds 441 msec
