                         Program Version 5.0.0 -  RELEASE  -
|  1> !wB97X-D3 RIJCOSX def2-TZVPD def2/J TightSCF
|  2> *xyz 0 1
|  3> C          3.48828        1.60092       -1.52204
|  4> N          2.81029        0.42878       -1.01420
|  5> C          3.29098       -0.41802       -0.12908
|  6> N          2.51754       -1.43202        0.23936
|  7> C          4.53549       -0.28441        0.39580
|  8> H          5.04363        0.57189        0.22290
|  9> H          4.72335       -0.73327        1.28180
| 10> H          1.93479        0.10230       -1.40379
| 11> H          1.67464       -1.50562       -0.31610
| 12> H          2.92850       -2.21850        0.72549
| 13> H          2.85802        2.09943       -2.22855
| 14> H          4.39853        1.30677       -2.00144
| 15> H          3.70992        2.26379       -0.71187
| 16> *
| 17> %MaxCore 64000
| 18>
| 19> %pal nprocs 18
| 20> end
| 21>
| 22> %scf
| 23>   MaxIter 150
| 24> end
| 25>
| 26>
| 27>                          ****END OF INPUT****

CARTESIAN COORDINATES (ANGSTROEM)
---------------------------------
  C      3.488280    1.600920   -1.522040
  N      2.810290    0.428780   -1.014200
  C      3.290980   -0.418020   -0.129080
  N      2.517540   -1.432020    0.239360
  C      4.535490   -0.284410    0.395800
  H      5.043630    0.571890    0.222900
  H      4.723350   -0.733270    1.281800
  H      1.934790    0.102300   -1.403790
  H      1.674640   -1.505620   -0.316100
  H      2.928500   -2.218500    0.725490
  H      2.858020    2.099430   -2.228550
  H      4.398530    1.306770   -2.001440
  H      3.709920    2.263790   -0.711870

 Total Charge           Charge          ....    0
 Multiplicity           Mult            ....    1
 Number of Electrons    NEL             ....   40
 Basis Dimension        Dim             ....  257

ORBITAL ENERGIES
----------------

  NO   OCC          E(Eh)            E(eV)
   0   2.0000     -14.431765      -392.7083
   1   2.0000     -14.423885      -392.4939
   2   2.0000     -10.324268      -280.9376
   3   2.0000     -10.301059      -280.3061
   4   2.0000     -10.184356      -277.1304
   5   2.0000      -1.097400       -29.8618
   6   2.0000      -1.004133       -27.3239
   7   2.0000      -0.834655       -22.7121
   8   2.0000      -0.813885       -22.1469
   9   2.0000      -0.674762       -18.3612
  10   2.0000      -0.645810       -17.5734
  11   2.0000      -0.633128       -17.2283
  12   2.0000      -0.559085       -15.2135
  13   2.0000      -0.549333       -14.9481
  14   2.0000      -0.513924       -13.9846
  15   2.0000      -0.484543       -13.1851
  16   2.0000      -0.467243       -12.7143
  17   2.0000      -0.463500       -12.6125
  18   2.0000      -0.346431        -9.4269
  19   2.0000      -0.254686        -6.9304
  20   0.0000       0.062226         1.6933
  21   0.0000       0.082252         2.2382
  22   0.0000       0.095800         2.6069
  23   0.0000       0.124125         3.3776
  24   0.0000       0.130618         3.5543

MULLIKEN ATOMIC CHARGES
-----------------------
   0 C :   -0.999158
   1 N :   -0.201023
   2 C :    0.817419
   3 N :   -0.446413
   4 C :   -1.456074
   5 H :    0.379305
   6 H :    0.350888
   7 H :    0.178063
   8 H :    0.161873
   9 H :    0.223902
  10 H :    0.329420
  11 H :    0.340961
  12 H :    0.320838
Sum of atomic charges:   -0.0000000

LOEWDIN ATOMIC CHARGES
----------------------
   0 C :   -0.076217
   1 N :   -0.037672
   2 C :   -0.576286
   3 N :    0.106484
   4 C :   -0.003044
   5 H :   -0.010377
   6 H :    0.003747
   7 H :    0.133906
   8 H :    0.099855
   9 H :    0.117247
  10 H :    0.079106
  11 H :    0.081432
  12 H :    0.081819

  Mayer bond orders larger than 0.100000
B(  0-C ,  1-N ) :   0.8663 B(  0-C ,  4-C ) :   0.1582 B(  0-C , 10-H ) :   0.8638
B(  0-C , 11-H ) :   0.8941 B(  0-C , 12-H ) :   0.9167 B(  1-N ,  2-C ) :   1.1104
B(  1-N ,  7-H ) :   1.0145 B(  2-C ,  3-N ) :   0.9945 B(  2-C ,  4-C ) :   1.1644
B(  2-C ,  6-H ) :  -0.1008 B(  3-N ,  8-H ) :   1.0185 B(  3-N ,  9-H ) :   0.9670
B(  4-C ,  5-H ) :   0.9260 B(  4-C ,  6-H ) :   0.9951

Dispersion correction           -0.002378018
FINAL SINGLE POINT ENERGY      -228.615531848198

DIPOLE MOMENT
-------------
                                X             Y             Z
Electronic contribution:     -1.86407      -1.94263       0.39225
Nuclear contribution   :      0.80512       1.90624      -0.99336
                        -----------------------------------------
Total Dipole Moment    :     -1.05894      -0.03639      -0.60111
                        -----------------------------------------
Magnitude (a.u.)       :      1.21821
Magnitude (Debye)      :      3.09643

Rotational constants in cm-1:     0.332728     0.136065     0.098521
Rotational constants in MHz :  9974.927067  4079.126590  2953.598000

                             ****ORCA TERMINATED NORMALLY****
TOTAL RUN TIME: 0 days 0 hours 0 minutes 18 seconds 450 msec
