                         Program Version 5.0.0 -  RELEASE  -
|  1> !wB97X-D3 RIJCOSX def2-TZVPD def2/J TightSCF xyzfile
|  2>
|  3> *xyzfile 0 1 D1.xyz
|  4>
|  5> %MaxCore 64000
|  6>
|  7> %pal nprocs 18
|  8> end
|  9>
| 10> %scf
| 11>   MaxIter 150
| 12> end
| 13>
| 14>
| 15>                          ****END OF INPUT****

CARTESIAN COORDINATES (ANGSTROEM)
---------------------------------
  C      3.488276    1.600919   -1.522040
  C      4.342970    1.313419   -2.756826
  C      2.810285    0.428783   -1.014196
  H      5.132033    0.604994   -2.484466
  C      3.535896    0.749253   -3.924604
  H      4.841247    2.242136   -3.054083
  H      2.991617   -0.132199   -3.574137
  H      4.225505    0.392784   -4.695962
  C      2.564776    1.750890   -4.544523
  H      1.918749    2.171679   -3.769419
  C      1.686235    1.161657   -5.650111
  H      3.132494    2.594775   -4.951604
  C      0.839616   -0.037582   -5.220473
  H      2.323886    0.866395   -6.490796
  H      1.029518    1.951850   -6.029329
  C     -0.151019    0.254955   -4.094256
  H      1.499442   -0.857141   -4.922958
  H      0.290097   -0.410143   -6.091131
  H      0.328265    0.833022   -3.299125
  C     -0.721843   -0.999513   -3.439309
  H     -0.957367    0.884951   -4.485450
  H     -1.083403   -1.697555   -4.205656
  H     -1.581056   -0.723848   -2.820490
  C      0.287250   -1.711771   -2.527405
  H      1.131780   -2.067380   -3.159396
  H     -0.204137   -2.637326   -2.170480
  F      0.710505   -0.927506   -1.481767
  H      2.714548    2.331455   -1.760302
  H      4.090991    2.063151   -0.733382
  C      3.290978   -0.418021   -0.129083
  N      2.517536   -1.432017    0.239360
  N      4.535490   -0.284410    0.395800
  H      5.043627    0.571888    0.222899
  H      4.723346   -0.733273    1.281800
  H      1.934787    0.102305   -1.403788
  H      1.674638   -1.505616   -0.316095
  H      2.928503   -2.218502    0.725494

 Total Charge           Charge          ....    0
 Multiplicity           Mult            ....    1
 Number of Electrons    NEL             ....  112
 Basis Dimension        Dim             ....  728

ORBITAL ENERGIES
----------------

  NO   OCC          E(Eh)            E(eV)
   0   2.0000     -24.801260      -674.8766
   1   2.0000     -14.407479      -392.0474
   2   2.0000     -14.390838      -391.5946
   3   2.0000     -10.365907      -282.0707
   4   2.0000     -10.298485      -280.2360
   5   2.0000     -10.286931      -279.9216
   6   2.0000     -10.271774      -279.5092
   7   2.0000     -10.267779      -279.4005
   8   2.0000     -10.263294      -279.2784
   9   2.0000     -10.255567      -279.0682
  10   2.0000     -10.250078      -278.9188
  11   2.0000     -10.245027      -278.7814
  12   2.0000     -10.238278      -278.5977
  13   2.0000     -10.169274      -276.7200
  14   2.0000      -1.352187       -36.7949
  15   2.0000      -1.058953       -28.8156
  16   2.0000      -0.969217       -26.3737
  17   2.0000      -0.937525       -25.5114
  18   2.0000      -0.912425       -24.8283
  19   2.0000      -0.882381       -24.0108
  20   2.0000      -0.847098       -23.0507
  21   2.0000      -0.807465       -21.9722
  22   2.0000      -0.780437       -21.2368
  23   2.0000      -0.745724       -20.2922
  24   2.0000      -0.713631       -19.4189
  25   2.0000      -0.697502       -18.9800
  26   2.0000      -0.672894       -18.3104
  27   2.0000      -0.655816       -17.8457
  28   2.0000      -0.639487       -17.4013
  29   2.0000      -0.625262       -17.0143
  30   2.0000      -0.615124       -16.7384
  31   2.0000      -0.599193       -16.3049
  32   2.0000      -0.589709       -16.0468
  33   2.0000      -0.566548       -15.4166
  34   2.0000      -0.557333       -15.1658
  35   2.0000      -0.543291       -14.7837
  36   2.0000      -0.536437       -14.5972
  37   2.0000      -0.523334       -14.2407
  38   2.0000      -0.513032       -13.9603
  39   2.0000      -0.501284       -13.6406
  40   2.0000      -0.493275       -13.4227
  41   2.0000      -0.476718       -12.9722
  42   2.0000      -0.468735       -12.7549
  43   2.0000      -0.462143       -12.5756
  44   2.0000      -0.456513       -12.4223
  45   2.0000      -0.453628       -12.3438
  46   2.0000      -0.431853       -11.7513
  47   2.0000      -0.424246       -11.5443
  48   2.0000      -0.414175       -11.2703
  49   2.0000      -0.411205       -11.1895
  50   2.0000      -0.407107       -11.0780
  51   2.0000      -0.392161       -10.6712
  52   2.0000      -0.385959       -10.5025
  53   2.0000      -0.380313       -10.3488
  54   2.0000      -0.343579        -9.3493
  55   2.0000      -0.231798        -6.3075
  56   0.0000       0.064836         1.7643
  57   0.0000       0.074036         2.0146
  58   0.0000       0.076187         2.0731
  59   0.0000       0.081666         2.2222
  60   0.0000       0.094233         2.5642

MULLIKEN ATOMIC CHARGES
-----------------------
   0 C :   -0.678093
   1 C :   -0.508086
   2 C :   -0.731681
   3 H :    0.323119
   4 C :   -0.159801
   5 H :    0.248433
   6 H :   -0.082075
   7 H :    0.311337
   8 C :   -0.402897
   9 H :    0.200579
  10 C :   -0.826540
  11 H :    0.286706
  12 C :   -0.482207
  13 H :    0.318899
  14 H :    0.313872
  15 C :   -0.228973
  16 H :    0.229473
  17 H :    0.325823
  18 H :    0.091000
  19 C :   -0.693463
  20 H :    0.306849
  21 H :    0.306323
  22 H :    0.326370
  23 C :   -0.407973
  24 H :    0.321253
  25 H :    0.291039
  26 F :   -0.479011
  27 H :    0.240312
  28 H :    0.373401
  29 C :   -0.527498
  30 N :   -0.405726
  31 N :   -0.421800
  32 H :    0.227996
  33 H :    0.169850
  34 H :    1.334055
  35 H :    0.333050
  36 H :    0.156082
Sum of atomic charges:   -0.0000000

LOEWDIN ATOMIC CHARGES
----------------------
   0 C :   -0.224781
   1 C :   -0.203604
   2 C :   -0.133648
   3 H :    0.109574
   4 C :   -0.211500
   5 H :    0.106676
   6 H :    0.093213
   7 H :    0.116082
   8 C :   -0.215648
   9 H :    0.095732
  10 C :   -0.211083
  11 H :    0.115672
  12 C :   -0.218923
  13 H :    0.110354
  14 H :    0.110181
  15 C :   -0.208919
  16 H :    0.093445
  17 H :    0.113780
  18 H :    0.102466
  19 C :   -0.178653
  20 H :    0.119018
  21 H :    0.121765
  22 H :    0.113437
  23 C :   -0.191034
  24 H :    0.125410
  25 H :    0.124349
  26 F :   -0.081453
  27 H :    0.101917
  28 H :    0.102346
  29 C :   -0.519263
  30 N :    0.108509
  31 N :    0.121185
  32 H :    0.088916
  33 H :    0.094844
  34 H :    0.038586
  35 H :    0.067392
  36 H :    0.103662

  Mayer bond orders larger than 0.100000
B(  0-C ,  1-C ) :   0.8321 B(  0-C ,  2-C ) :   0.7036 B(  0-C ,  8-C ) :   0.1326
B(  0-C , 27-H ) :   0.9825 B(  0-C , 28-H ) :   0.9043 B(  0-C , 29-C ) :   0.2173
B(  1-C ,  2-C ) :   0.2102 B(  1-C ,  3-H ) :   0.8819 B(  1-C ,  4-C ) :   1.1832
B(  1-C ,  5-H ) :   0.9349 B(  1-C ,  8-C ) :   0.2802 B(  1-C , 29-C ) :  -0.1043
B(  2-C ,  4-C ) :   0.1404 B(  2-C , 26-F ) :   0.4430 B(  2-C , 27-H ) :  -0.1227
B(  2-C , 28-H ) :  -0.1541 B(  2-C , 29-C ) :   1.6678 B(  2-C , 30-N ) :  -0.1533
B(  2-C , 31-N ) :  -0.1478 B(  2-C , 32-H ) :  -0.1079 B(  2-C , 34-H ) :  -0.1409
B(  4-C ,  6-H ) :   1.4074 B(  4-C ,  7-H ) :   0.7908 B(  4-C ,  8-C ) :   0.3757
B(  4-C , 10-C ) :   0.3070 B(  4-C , 12-C ) :   0.1266 B(  6-H ,  8-C ) :  -0.1359
B(  8-C ,  9-H ) :   1.0532 B(  8-C , 10-C ) :   0.9379 B(  8-C , 11-H ) :   0.9052
B( 10-C , 12-C ) :   1.0201 B( 10-C , 13-H ) :   0.9271 B( 10-C , 14-H ) :   0.9235
B( 10-C , 15-C ) :   0.3628 B( 12-C , 15-C ) :   0.2952 B( 12-C , 16-H ) :   1.0190
B( 12-C , 17-H ) :   0.8976 B( 12-C , 19-C ) :   0.3896 B( 12-C , 23-C ) :   0.1163
B( 15-C , 16-H ) :  -0.1020 B( 15-C , 18-H ) :   1.1804 B( 15-C , 19-C ) :   0.9416
B( 15-C , 20-H ) :   0.8505 B( 19-C , 21-H ) :   0.9198 B( 19-C , 22-H ) :   0.8933
B( 19-C , 23-C ) :   0.9505 B( 19-C , 26-F ) :   0.1587 B( 23-C , 24-H ) :   0.9439
B( 23-C , 25-H ) :   0.9029 B( 23-C , 26-F ) :   0.6356 B( 26-F , 29-C ) :   0.1188
B( 26-F , 34-H ) :  -0.7629 B( 26-F , 35-H ) :   0.1159 B( 29-C , 30-N ) :   1.2043
B( 29-C , 31-N ) :   1.1344 B( 29-C , 32-H ) :   0.1026 B( 29-C , 34-H ) :  -0.2514
B( 29-C , 35-H ) :   0.1355 B( 30-N , 35-H ) :   0.7607 B( 30-N , 36-H ) :   1.0417
B( 31-N , 32-H ) :   0.9146 B( 31-N , 33-H ) :   1.0282

Dispersion correction           -0.017675501
FINAL SINGLE POINT ENERGY      -642.399694342208

DIPOLE MOMENT
-------------
                                X             Y             Z
Electronic contribution:     -1.58934      -4.84586      10.68793
Nuclear contribution   :      1.15699       3.94991     -10.89335
                        -----------------------------------------
Total Dipole Moment    :     -0.43236      -0.89595      -0.20542
                        -----------------------------------------
Magnitude (a.u.)       :      1.01580
Magnitude (Debye)      :      2.58196

Rotational constants in cm-1:     0.026548     0.016177     0.010851
Rotational constants in MHz :   795.884848   484.988695   325.313537

                             ****ORCA TERMINATED NORMALLY****
TOTAL RUN TIME: 0 days 0 hours 3 minutes 54 seconds 573 msec
