                         Program Version 5.0.0 -  RELEASE  -
|  1> !wB97X-D3 RIJCOSX def2-TZVPD def2/J TightSCF xyzfile
|  2>
|  3> *xyzfile 0 1 D3.xyz
|  4>
|  5> %MaxCore 64000
|  6>
|  7> %pal nprocs 18
|  8> end
|  9>
| 10> %scf
| 11>   MaxIter 150
| 12> end
| 13>
| 14>
| 15>                          ****END OF INPUT****

CARTESIAN COORDINATES (ANGSTROEM)
---------------------------------
  C      3.488276    1.600919   -1.522040
  C      4.342970    1.313419   -2.756826
  N      2.810285    0.428783   -1.014196
  H      5.132033    0.604994   -2.484466
  C      3.535896    0.749253   -3.924604
  H      4.841247    2.242136   -3.054083
  H      2.991617   -0.132199   -3.574137
  H      4.225505    0.392784   -4.695962
  C      2.564776    1.750890   -4.544523
  H      1.918749    2.171679   -3.769419
  C      1.686235    1.161657   -5.650111
  H      3.132494    2.594775   -4.951604
  C      0.839616   -0.037582   -5.220473
  H      2.323886    0.866395   -6.490796
  H      1.029518    1.951850   -6.029329
  C     -0.151019    0.254955   -4.094256
  H      1.499442   -0.857141   -4.922958
  H      0.290097   -0.410143   -6.091131
  H      0.328265    0.833022   -3.299125
  C     -0.721843   -0.999513   -3.439309
  H     -0.957367    0.884951   -4.485450
  H     -1.083403   -1.697555   -4.205656
  H     -1.581056   -0.723848   -2.820490
  C      0.287250   -1.711771   -2.527405
  H      1.131780   -2.067380   -3.159396
  H     -0.204137   -2.637326   -2.170480
  F      0.710505   -0.927506   -1.481767
  H      2.714548    2.331455   -1.760302
  H      4.090991    2.063151   -0.733382
  C      3.290978   -0.418021   -0.129083
  N      2.517536   -1.432017    0.239360
  C      4.535490   -0.284410    0.395800
  H      5.043627    0.571888    0.222899
  H      4.723346   -0.733273    1.281800
  H      1.934787    0.102305   -1.403788
  H      1.674638   -1.505616   -0.316095
  H      2.928503   -2.218502    0.725494

 Total Charge           Charge          ....    0
 Multiplicity           Mult            ....    1
 Number of Electrons    NEL             ....  112
 Basis Dimension        Dim             ....  728

ORBITAL ENERGIES
----------------

  NO   OCC          E(Eh)            E(eV)
   0   2.0000     -24.828838      -675.6270
   1   2.0000     -14.400632      -391.8611
   2   2.0000     -14.394208      -391.6863
   3   2.0000     -10.383099      -282.5385
   4   2.0000     -10.305045      -280.4145
   5   2.0000     -10.300959      -280.3033
   6   2.0000     -10.294730      -280.1338
   7   2.0000     -10.286328      -279.9052
   8   2.0000     -10.280294      -279.7410
   9   2.0000     -10.275296      -279.6050
  10   2.0000     -10.269703      -279.4528
  11   2.0000     -10.265841      -279.3477
  12   2.0000     -10.260110      -279.1918
  13   2.0000     -10.164576      -276.5922
  14   2.0000      -1.378504       -37.5110
  15   2.0000      -1.075530       -29.2667
  16   2.0000      -0.985244       -26.8099
  17   2.0000      -0.951507       -25.8918
  18   2.0000      -0.920929       -25.0597
  19   2.0000      -0.886074       -24.1113
  20   2.0000      -0.842939       -22.9375
  21   2.0000      -0.808874       -22.0106
  22   2.0000      -0.802552       -21.8385
  23   2.0000      -0.767224       -20.8772
  24   2.0000      -0.731959       -19.9176
  25   2.0000      -0.704694       -19.1757
  26   2.0000      -0.680866       -18.5273
  27   2.0000      -0.668594       -18.1934
  28   2.0000      -0.662065       -18.0157
  29   2.0000      -0.633498       -17.2384
  30   2.0000      -0.624177       -16.9847
  31   2.0000      -0.612094       -16.6559
  32   2.0000      -0.596234       -16.2243
  33   2.0000      -0.580754       -15.8031
  34   2.0000      -0.565420       -15.3859
  35   2.0000      -0.555040       -15.1034
  36   2.0000      -0.540815       -14.7163
  37   2.0000      -0.537194       -14.6178
  38   2.0000      -0.528940       -14.3932
  39   2.0000      -0.508334       -13.8325
  40   2.0000      -0.500653       -13.6235
  41   2.0000      -0.482310       -13.1243
  42   2.0000      -0.476565       -12.9680
  43   2.0000      -0.468866       -12.7585
  44   2.0000      -0.467725       -12.7274
  45   2.0000      -0.456017       -12.4089
  46   2.0000      -0.446991       -12.1632
  47   2.0000      -0.444121       -12.0851
  48   2.0000      -0.434164       -11.8142
  49   2.0000      -0.430606       -11.7174
  50   2.0000      -0.423435       -11.5223
  51   2.0000      -0.408916       -11.1272
  52   2.0000      -0.407431       -11.0868
  53   2.0000      -0.400119       -10.8878
  54   2.0000      -0.323575        -8.8049
  55   2.0000      -0.234253        -6.3744
  56   0.0000       0.058159         1.5826
  57   0.0000       0.066608         1.8125
  58   0.0000       0.073811         2.0085
  59   0.0000       0.077517         2.1093
  60   0.0000       0.091262         2.4834

MULLIKEN ATOMIC CHARGES
-----------------------
   0 C :   -1.278633
   1 C :   -0.450882
   2 N :   -0.053293
   3 H :    0.324424
   4 C :   -0.223892
   5 H :    0.314077
   6 H :   -0.030351
   7 H :    0.300332
   8 C :   -0.400297
   9 H :    0.199056
  10 C :   -0.852934
  11 H :    0.298315
  12 C :   -0.489807
  13 H :    0.322036
  14 H :    0.314576
  15 C :   -0.267205
  16 H :    0.241780
  17 H :    0.332750
  18 H :    0.106159
  19 C :   -0.700619
  20 H :    0.316749
  21 H :    0.303847
  22 H :    0.325763
  23 C :   -0.385353
  24 H :    0.312331
  25 H :    0.305042
  26 F :   -0.556059
  27 H :    0.295194
  28 H :    0.450091
  29 C :    1.024039
  30 N :   -0.431056
  31 C :   -1.755988
  32 H :    0.339183
  33 H :    0.399120
  34 H :    0.490495
  35 H :    0.364288
  36 H :    0.196724
Sum of atomic charges:    0.0000000

LOEWDIN ATOMIC CHARGES
----------------------
   0 C :   -0.184629
   1 C :   -0.183586
   2 N :    0.031310
   3 H :    0.112206
   4 C :   -0.211018
   5 H :    0.113204
   6 H :    0.092648
   7 H :    0.118688
   8 C :   -0.217933
   9 H :    0.093297
  10 C :   -0.209354
  11 H :    0.117155
  12 C :   -0.218196
  13 H :    0.112063
  14 H :    0.111503
  15 C :   -0.209516
  16 H :    0.093525
  17 H :    0.115504
  18 H :    0.099749
  19 C :   -0.176937
  20 H :    0.120667
  21 H :    0.124086
  22 H :    0.114780
  23 C :   -0.186105
  24 H :    0.127038
  25 H :    0.128142
  26 F :   -0.071972
  27 H :    0.109883
  28 H :    0.115558
  29 C :   -0.549054
  30 N :    0.118748
  31 C :   -0.008170
  32 H :   -0.014038
  33 H :   -0.000164
  34 H :    0.091941
  35 H :    0.061925
  36 H :    0.117055

  Mayer bond orders larger than 0.100000
B(  0-C ,  1-C ) :   0.8363 B(  0-C ,  2-N ) :   1.2192 B(  0-C ,  4-C ) :   0.1181
B(  0-C ,  8-C ) :   0.1624 B(  0-C , 27-H ) :   0.8527 B(  0-C , 28-H ) :   0.7187
B(  0-C , 29-C ) :  -0.2665 B(  0-C , 31-C ) :   0.2162 B(  0-C , 34-H ) :  -0.3762
B(  1-C ,  3-H ) :   0.9199 B(  1-C ,  4-C ) :   1.0765 B(  1-C ,  5-H ) :   0.9060
B(  1-C ,  8-C ) :   0.2967 B(  2-N , 29-C ) :   0.9024 B(  2-N , 34-H ) :   0.8416
B(  4-C ,  6-H ) :   1.3827 B(  4-C ,  7-H ) :   0.8155 B(  4-C ,  8-C ) :   0.3658
B(  4-C , 10-C ) :   0.3191 B(  4-C , 12-C ) :   0.1214 B(  6-H ,  8-C ) :  -0.1131
B(  8-C ,  9-H ) :   1.0501 B(  8-C , 10-C ) :   0.9432 B(  8-C , 11-H ) :   0.8936
B(  9-H , 15-C ) :   0.1028 B( 10-C , 12-C ) :   1.0176 B( 10-C , 13-H ) :   0.9267
B( 10-C , 14-H ) :   0.9243 B( 10-C , 15-C ) :   0.3850 B( 12-C , 15-C ) :   0.3006
B( 12-C , 16-H ) :   1.0120 B( 12-C , 17-H ) :   0.8877 B( 12-C , 19-C ) :   0.3806
B( 12-C , 23-C ) :   0.1223 B( 15-C , 16-H ) :  -0.1079 B( 15-C , 18-H ) :   1.1733
B( 15-C , 19-C ) :   0.9615 B( 15-C , 20-H ) :   0.8464 B( 19-C , 21-H ) :   0.9164
B( 19-C , 22-H ) :   0.8988 B( 19-C , 23-C ) :   0.9619 B( 19-C , 26-F ) :   0.1653
B( 23-C , 24-H ) :   0.9613 B( 23-C , 25-H ) :   0.8806 B( 23-C , 26-F ) :   0.6230
B( 29-C , 30-N ) :   1.1457 B( 29-C , 31-C ) :   0.7940 B( 29-C , 33-H ) :  -0.1264
B( 30-N , 35-H ) :   0.7589 B( 30-N , 36-H ) :   0.9867 B( 31-C , 32-H ) :   0.9859
B( 31-C , 33-H ) :   0.9974

Dispersion correction           -0.017696423
FINAL SINGLE POINT ENERGY      -642.399576738114

DIPOLE MOMENT
-------------
                                X             Y             Z
Electronic contribution:     -3.25878      -4.29717       9.06216
Nuclear contribution   :      1.49917       3.80845     -10.61369
                        -----------------------------------------
Total Dipole Moment    :     -1.75961      -0.48872      -1.55153
                        -----------------------------------------
Magnitude (a.u.)       :      2.39631
Magnitude (Debye)      :      6.09094

Rotational constants in cm-1:     0.026547     0.016542     0.011018
Rotational constants in MHz :   795.873737   495.912559   330.323979

                             ****ORCA TERMINATED NORMALLY****
TOTAL RUN TIME: 0 days 0 hours 3 minutes 51 seconds 155 msec
