                         Program Version 5.0.0 -  RELEASE  -
|  1> !LC-PBE RIJCOSX def2-SVPD def2/J TightSCF
|  2> *xyz -1 1
|  3> C         -1.91658       -2.48508       -3.64367
|  4> C         -1.36353       -1.98134       -2.29361
|  5> O         -0.35039       -2.74969       -1.79601
|  6> H         -2.22622       -1.90839       -1.60204
|  7> H         -1.05135       -0.91567       -2.44333
|  8> H         -1.11522       -2.57167       -4.34739
|  9> H         -2.64227       -1.79099       -4.01314
| 10> H         -2.37564       -3.44180       -3.50640
| 11> *
| 12>
| 13> %MaxCore 64000
| 14> %pal nprocs 4
| 15> end
| 16>
| 17> %scf
| 18>   MaxIter 150
| 19> end
| 20>
| 21>
| 22>                          ****END OF INPUT****

CARTESIAN COORDINATES (ANGSTROEM)
---------------------------------
  C     -1.916580   -2.485080   -3.643670
  C     -1.363530   -1.981340   -2.293610
  O     -0.350390   -2.749690   -1.796010
  H     -2.226220   -1.908390   -1.602040
  H     -1.051350   -0.915670   -2.443330
  H     -1.115220   -2.571670   -4.347390
  H     -2.642270   -1.790990   -4.013140
  H     -2.375640   -3.441800   -3.506400

 Total Charge           Charge          ....   -1
 Multiplicity           Mult            ....    1
 Number of Electrons    NEL             ....   26
 Basis Dimension        Dim             ....  103

ORBITAL ENERGIES
----------------

  NO   OCC          E(Eh)            E(eV)
   0   2.0000     -18.647921      -507.4357
   1   2.0000      -9.940440      -270.4931
   2   2.0000      -9.917510      -269.8692
   3   2.0000      -0.833661       -22.6851
   4   2.0000      -0.688314       -18.7300
   5   2.0000      -0.521981       -14.2038
   6   2.0000      -0.394067       -10.7231
   7   2.0000      -0.367490        -9.9999
   8   2.0000      -0.309482        -8.4214
   9   2.0000      -0.288010        -7.8372
  10   2.0000      -0.243142        -6.6162
  11   2.0000      -0.092519        -2.5176
  12   2.0000      -0.089091        -2.4243
  13   0.0000       0.244558         6.6548
  14   0.0000       0.277011         7.5378
  15   0.0000       0.317327         8.6349
  16   0.0000       0.330142         8.9836
  17   0.0000       0.345143         9.3918

MULLIKEN ATOMIC CHARGES
-----------------------
   0 C :    0.139033
   1 C :   -0.048453
   2 O :   -0.858614
   3 H :   -0.096633
   4 H :   -0.070484
   5 H :   -0.032569
   6 H :   -0.003245
   7 H :   -0.029035
Sum of atomic charges:   -1.0000000

LOEWDIN ATOMIC CHARGES
----------------------
   0 C :    0.030932
   1 C :   -0.295350
   2 O :   -0.594603
   3 H :   -0.020342
   4 H :   -0.015326
   5 H :   -0.029648
   6 H :   -0.044766
   7 H :   -0.030896

  Mayer bond orders larger than 0.100000
B(  0-C ,  1-C ) :   1.1807 B(  0-C ,  5-H ) :   0.9307 B(  0-C ,  6-H ) :   0.9027
B(  0-C ,  7-H ) :   0.9271 B(  1-C ,  2-O ) :   1.2981 B(  1-C ,  3-H ) :   1.0037
B(  1-C ,  4-H ) :   0.9967 B(  1-C ,  5-H ) :   0.1427 B(  1-C ,  7-H ) :   0.1321

FINAL SINGLE POINT ENERGY      -153.847759502043

DIPOLE MOMENT
-------------
                                X             Y             Z
Electronic contribution:      1.88894      -0.78801       1.71791
Nuclear contribution   :     -3.14382       1.30299      -2.83231
                        -----------------------------------------
Total Dipole Moment    :     -1.25489       0.51498      -1.11440
                        -----------------------------------------
Magnitude (a.u.)       :      1.75551
Magnitude (Debye)      :      4.46216

Rotational constants in cm-1:     1.288206     0.322942     0.285188
Rotational constants in MHz : 38619.437223  9681.562038  8549.712012

                             ****ORCA TERMINATED NORMALLY****
TOTAL RUN TIME: 0 days 0 hours 0 minutes 11 seconds 251 msec
