                         Program Version 5.0.0 -  RELEASE  -
|  1> !LC-PBE RIJCOSX def2-SVPD def2/J TightSCF
|  2> *xyz 1 1
|  3> C          1.64703       -2.34528       -5.02041
|  4> C          2.20996       -2.81239       -3.66571
|  5> C          2.48901       -1.66851       -2.73754
|  6> N          3.59631       -0.94761       -2.95225
|  7> N          1.66394       -1.41369       -1.77781
|  8> H          0.81164       -1.96318       -1.70275
|  9> H          1.84550       -0.63508       -1.15875
| 10> H          4.20535       -1.17600       -3.73383
| 11> H          3.81723       -0.12585       -2.40604
| 12> H          3.14311       -3.36280       -3.81152
| 13> H          1.48768       -3.45893       -3.16521
| 14> H          1.46566       -3.19589       -5.64368
| 15> H          2.35406       -1.69850       -5.49654
| 16> H          0.73014       -1.81680       -4.86253
| 17> *
| 18>
| 19> %MaxCore 64000
| 20> %pal nprocs 4
| 21> end
| 22>
| 23> %scf
| 24>   MaxIter 150
| 25> end
| 26>
| 27>
| 28>                          ****END OF INPUT****

CARTESIAN COORDINATES (ANGSTROEM)
---------------------------------
  C      1.647030   -2.345280   -5.020410
  C      2.209960   -2.812390   -3.665710
  C      2.489010   -1.668510   -2.737540
  N      3.596310   -0.947610   -2.952250
  N      1.663940   -1.413690   -1.777810
  H      0.811640   -1.963180   -1.702750
  H      1.845500   -0.635080   -1.158750
  H      4.205350   -1.176000   -3.733830
  H      3.817230   -0.125850   -2.406040
  H      3.143110   -3.362800   -3.811520
  H      1.487680   -3.458930   -3.165210
  H      1.465660   -3.195890   -5.643680
  H      2.354060   -1.698500   -5.496540
  H      0.730140   -1.816800   -4.862530

 Total Charge           Charge          ....    1
 Multiplicity           Mult            ....    1
 Number of Electrons    NEL             ....   40
 Basis Dimension        Dim             ....  172

ORBITAL ENERGIES
----------------

  NO   OCC          E(Eh)            E(eV)
   0   2.0000     -14.482823      -394.0976
   1   2.0000     -14.472639      -393.8205
   2   2.0000     -10.460507      -284.6449
   3   2.0000     -10.328482      -281.0523
   4   2.0000     -10.282912      -279.8123
   5   2.0000      -1.377895       -37.4944
   6   2.0000      -1.271801       -34.6075
   7   2.0000      -1.141237       -31.0546
   8   2.0000      -1.019570       -27.7439
   9   2.0000      -0.974790       -26.5254
  10   2.0000      -0.927953       -25.2509
  11   2.0000      -0.901308       -24.5258
  12   2.0000      -0.846273       -23.0283
  13   2.0000      -0.801018       -21.7968
  14   2.0000      -0.766152       -20.8480
  15   2.0000      -0.757489       -20.6123
  16   2.0000      -0.679617       -18.4933
  17   2.0000      -0.668214       -18.1830
  18   2.0000      -0.661486       -17.9999
  19   2.0000      -0.624497       -16.9934
  20   0.0000      -0.117661        -3.2017
  21   0.0000      -0.079343        -2.1590
  22   0.0000      -0.036566        -0.9950
  23   0.0000      -0.036091        -0.9821
  24   0.0000      -0.011570        -0.3148

MULLIKEN ATOMIC CHARGES
-----------------------
   0 C :    0.398727
   1 C :   -0.495234
   2 C :    0.636040
   3 N :   -0.025951
   4 N :    0.011172
   5 H :    0.107131
   6 H :   -0.042199
   7 H :    0.088854
   8 H :   -0.085197
   9 H :    0.115917
  10 H :    0.104522
  11 H :    0.109246
  12 H :    0.041048
  13 H :    0.035925
Sum of atomic charges:    1.0000000

LOEWDIN ATOMIC CHARGES
----------------------
   0 C :    0.140916
   1 C :   -0.012838
   2 C :   -0.048661
   3 N :    0.266031
   4 N :    0.272201
   5 H :    0.070969
   6 H :    0.063808
   7 H :    0.060164
   8 H :    0.051412
   9 H :    0.059964
  10 H :    0.047396
  11 H :    0.018121
  12 H :    0.001401
  13 H :    0.009115

  Mayer bond orders larger than 0.100000
B(  0-C ,  1-C ) :   1.2581 B(  0-C , 11-H ) :   0.8664 B(  0-C , 12-H ) :   0.8311
B(  0-C , 13-H ) :   0.8851 B(  1-C ,  2-C ) :   1.1357 B(  1-C ,  9-H ) :   0.9228
B(  1-C , 10-H ) :   0.9240 B(  1-C , 11-H ) :   0.1121 B(  1-C , 12-H ) :   0.1509
B(  1-C , 13-H ) :   0.1276 B(  2-C ,  3-N ) :   1.1092 B(  2-C ,  4-N ) :   1.1649
B(  2-C ,  6-H ) :  -0.1446 B(  2-C ,  8-H ) :  -0.1545 B(  3-N ,  4-N ) :   0.1378
B(  3-N ,  7-H ) :   1.0724 B(  3-N ,  8-H ) :   1.2742 B(  4-N ,  5-H ) :   1.0626
B(  4-N ,  6-H ) :   1.2619 B(  5-H ,  6-H ) :  -0.1512 B(  7-H ,  8-H ) :  -0.1617

FINAL SINGLE POINT ENERGY      -228.136290411287

DIPOLE MOMENT
-------------
                                X             Y             Z
Electronic contribution:      1.19200       1.65492       3.63677
Nuclear contribution   :     -0.98617      -1.03178      -2.77619
                        -----------------------------------------
Total Dipole Moment    :      0.20584       0.62315       0.86058
                        -----------------------------------------
Magnitude (a.u.)       :      1.08225
Magnitude (Debye)      :      2.75087

Rotational constants in cm-1:     0.257311     0.127495     0.099037
Rotational constants in MHz :  7713.982239  3822.189706  2969.039713

                             ****ORCA TERMINATED NORMALLY****
TOTAL RUN TIME: 0 days 0 hours 0 minutes 23 seconds 669 msec
