                         Program Version 5.0.0 -  RELEASE  -
|  1> !LC-PBE RIJCOSX def2-SVPD def2/J TightSCF
|  2> *xyz 0 1
|  3> C         -1.91658       -2.48508       -3.64367
|  4> C         -1.36353       -1.98134       -2.29361
|  5> F         -0.35039       -2.74969       -1.79601
|  6> H         -2.22622       -1.90839       -1.60204
|  7> H         -1.05135       -0.91567       -2.44333
|  8> H         -1.11522       -2.57167       -4.34739
|  9> H         -2.64227       -1.79099       -4.01314
| 10> H         -2.37564       -3.44180       -3.50640
| 11> *
| 12>
| 13> %MaxCore 64000
| 14> %pal nprocs 4
| 15> end
| 16>
| 17> %scf
| 18>   MaxIter 150
| 19> end
| 20>
| 21>
| 22>                          ****END OF INPUT****

CARTESIAN COORDINATES (ANGSTROEM)
---------------------------------
  C     -1.916580   -2.485080   -3.643670
  C     -1.363530   -1.981340   -2.293610
  F     -0.350390   -2.749690   -1.796010
  H     -2.226220   -1.908390   -1.602040
  H     -1.051350   -0.915670   -2.443330
  H     -1.115220   -2.571670   -4.347390
  H     -2.642270   -1.790990   -4.013140
  H     -2.375640   -3.441800   -3.506400

 Total Charge           Charge          ....    0
 Multiplicity           Mult            ....    1
 Number of Electrons    NEL             ....   26
 Basis Dimension        Dim             ....  103

ORBITAL ENERGIES
----------------

  NO   OCC          E(Eh)            E(eV)
   0   2.0000     -24.496298      -666.5782
   1   2.0000     -10.211020      -277.8560
   2   2.0000     -10.124380      -275.4984
   3   2.0000      -1.343269       -36.5522
   4   2.0000      -0.934238       -25.4219
   5   2.0000      -0.790114       -21.5001
   6   2.0000      -0.661659       -18.0046
   7   2.0000      -0.650070       -17.6893
   8   2.0000      -0.610414       -16.6102
   9   2.0000      -0.548525       -14.9261
  10   2.0000      -0.539006       -14.6671
  11   2.0000      -0.472494       -12.8572
  12   2.0000      -0.462153       -12.5758
  13   0.0000       0.091189         2.4814
  14   0.0000       0.121191         3.2978
  15   0.0000       0.155978         4.2444
  16   0.0000       0.158590         4.3155
  17   0.0000       0.187621         5.1054

MULLIKEN ATOMIC CHARGES
-----------------------
   0 C :    0.092137
   1 C :    0.200579
   2 F :   -0.417135
   3 H :    0.014830
   4 H :    0.041529
   5 H :    0.010684
   6 H :    0.040770
   7 H :    0.016605
Sum of atomic charges:   -0.0000000

LOEWDIN ATOMIC CHARGES
----------------------
   0 C :    0.101957
   1 C :    0.030804
   2 F :   -0.209473
   3 H :    0.040141
   4 H :    0.046724
   5 H :   -0.003419
   6 H :   -0.002286
   7 H :   -0.004448

  Mayer bond orders larger than 0.100000
B(  0-C ,  1-C ) :   1.3118 B(  0-C ,  5-H ) :   0.9261 B(  0-C ,  6-H ) :   0.8897
B(  0-C ,  7-H ) :   0.9243 B(  1-C ,  2-F ) :   0.8169 B(  1-C ,  3-H ) :   0.9743
B(  1-C ,  4-H ) :   0.9658 B(  1-C ,  5-H ) :   0.1065

FINAL SINGLE POINT ENERGY      -178.437681515522

DIPOLE MOMENT
-------------
                                X             Y             Z
Electronic contribution:      3.56978      -1.31879       3.40269
Nuclear contribution   :     -4.15401       1.70894      -3.75000
                        -----------------------------------------
Total Dipole Moment    :     -0.58423       0.39014      -0.34730
                        -----------------------------------------
Magnitude (a.u.)       :      0.78368
Magnitude (Debye)      :      1.99197

Rotational constants in cm-1:     1.266842     0.300492     0.266603
Rotational constants in MHz : 37978.968232  9008.526876  7992.551454

                             ****ORCA TERMINATED NORMALLY****
TOTAL RUN TIME: 0 days 0 hours 0 minutes 10 seconds 59 msec
