                         Program Version 5.0.0 -  RELEASE  -
|  1> !LC-PBE RIJCOSX def2-SVPD def2/J TightSCF
|  2> *xyz 0 1
|  3> C          1.64703       -2.34528       -5.02041
|  4> C          2.20996       -2.81239       -3.66571
|  5> C          2.48901       -1.66851       -2.73754
|  6> C          3.59631       -0.94761       -2.95225
|  7> N          1.66394       -1.41369       -1.77781
|  8> H          0.81164       -1.96318       -1.70275
|  9> H          1.84550       -0.63508       -1.15875
| 10> H          4.20535       -1.17600       -3.73383
| 11> H          3.81723       -0.12585       -2.40604
| 12> H          3.14311       -3.36280       -3.81152
| 13> H          1.48768       -3.45893       -3.16521
| 14> H          1.46566       -3.19589       -5.64368
| 15> H          2.35406       -1.69850       -5.49654
| 16> H          0.73014       -1.81680       -4.86253
| 17> *
| 18>
| 19> %MaxCore 64000
| 20> %pal nprocs 4
| 21> end
| 22>
| 23> %scf
| 24>   MaxIter 150
| 25> end
| 26>
| 27>
| 28>                          ****END OF INPUT****

CARTESIAN COORDINATES (ANGSTROEM)
---------------------------------
  C      1.647030   -2.345280   -5.020410
  C      2.209960   -2.812390   -3.665710
  C      2.489010   -1.668510   -2.737540
  C      3.596310   -0.947610   -2.952250
  N      1.663940   -1.413690   -1.777810
  H      0.811640   -1.963180   -1.702750
  H      1.845500   -0.635080   -1.158750
  H      4.205350   -1.176000   -3.733830
  H      3.817230   -0.125850   -2.406040
  H      3.143110   -3.362800   -3.811520
  H      1.487680   -3.458930   -3.165210
  H      1.465660   -3.195890   -5.643680
  H      2.354060   -1.698500   -5.496540
  H      0.730140   -1.816800   -4.862530

 Total Charge           Charge          ....    0
 Multiplicity           Mult            ....    1
 Number of Electrons    NEL             ....   40
 Basis Dimension        Dim             ....  172

ORBITAL ENERGIES
----------------

  NO   OCC          E(Eh)            E(eV)
   0   2.0000     -14.233737      -387.3197
   1   2.0000     -10.153130      -276.2807
   2   2.0000     -10.128362      -275.6068
   3   2.0000     -10.111518      -275.1484
   4   2.0000     -10.055628      -273.6276
   5   2.0000      -1.107203       -30.1285
   6   2.0000      -0.950413       -25.8621
   7   2.0000      -0.872771       -23.7493
   8   2.0000      -0.798922       -21.7398
   9   2.0000      -0.719043       -19.5662
  10   2.0000      -0.679198       -18.4819
  11   2.0000      -0.628174       -17.0935
  12   2.0000      -0.585922       -15.9437
  13   2.0000      -0.552852       -15.0439
  14   2.0000      -0.534086       -14.5332
  15   2.0000      -0.517393       -14.0790
  16   2.0000      -0.481014       -13.0891
  17   2.0000      -0.472320       -12.8525
  18   2.0000      -0.463306       -12.6072
  19   2.0000      -0.303155        -8.2493
  20   0.0000       0.088548         2.4095
  21   0.0000       0.117551         3.1987
  22   0.0000       0.123150         3.3511
  23   0.0000       0.127910         3.4806
  24   0.0000       0.143062         3.8929

MULLIKEN ATOMIC CHARGES
-----------------------
   0 C :    0.394074
   1 C :   -0.295491
   2 C :   -0.046110
   3 C :    0.316399
   4 N :    0.130186
   5 H :   -0.039464
   6 H :   -0.090045
   7 H :   -0.139190
   8 H :   -0.422379
   9 H :    0.126397
  10 H :   -0.000993
  11 H :    0.067767
  12 H :   -0.000497
  13 H :   -0.000653
Sum of atomic charges:    0.0000000

LOEWDIN ATOMIC CHARGES
----------------------
   0 C :    0.105105
   1 C :   -0.054269
   2 C :   -0.275774
   3 C :    0.144642
   4 N :    0.152124
   5 H :    0.018299
   6 H :    0.024757
   7 H :   -0.070686
   8 H :   -0.081582
   9 H :    0.039541
  10 H :    0.021783
  11 H :   -0.009504
  12 H :   -0.008997
  13 H :   -0.005439

  Mayer bond orders larger than 0.100000
B(  0-C ,  1-C ) :   1.2717 B(  0-C , 11-H ) :   0.8456 B(  0-C , 12-H ) :   0.8768
B(  0-C , 13-H ) :   0.8816 B(  1-C ,  2-C ) :   1.1069 B(  1-C ,  3-C ) :   0.1667
B(  1-C ,  4-N ) :   0.1029 B(  1-C ,  9-H ) :   0.8780 B(  1-C , 10-H ) :   0.8909
B(  1-C , 11-H ) :   0.1163 B(  1-C , 12-H ) :   0.1576 B(  1-C , 13-H ) :   0.1506
B(  2-C ,  3-C ) :   1.8267 B(  2-C ,  4-N ) :   1.2154 B(  2-C ,  8-H ) :   0.1453
B(  2-C , 10-H ) :   0.1345 B(  3-C ,  4-N ) :   0.2238 B(  3-C ,  7-H ) :   0.8735
B(  3-C ,  8-H ) :   0.8520 B(  4-N ,  5-H ) :   1.0879 B(  4-N ,  6-H ) :   1.2267
B(  5-H ,  6-H ) :  -0.1370

FINAL SINGLE POINT ENERGY      -211.694070256544

DIPOLE MOMENT
-------------
                                X             Y             Z
Electronic contribution:     -0.04890       0.64910       3.01050
Nuclear contribution   :     -0.69146      -0.83112      -2.71336
                        -----------------------------------------
Total Dipole Moment    :     -0.74036      -0.18202       0.29714
                        -----------------------------------------
Magnitude (a.u.)       :      0.81827
Magnitude (Debye)      :      2.07986

Rotational constants in cm-1:     0.270661     0.129240     0.102040
Rotational constants in MHz :  8114.202941  3874.518141  3059.074383

                             ****ORCA TERMINATED NORMALLY****
TOTAL RUN TIME: 0 days 0 hours 0 minutes 26 seconds 23 msec
