                         Program Version 5.0.0 -  RELEASE  -
|  1> !LC-PBE RIJCOSX def2-SVPD def2/J TightSCF
|  2> *xyz 0 1
|  3> C          1.64703       -2.34528       -5.02041
|  4> C          2.20996       -2.81239       -3.66571
|  5> C          2.48901       -1.66851       -2.73754
|  6> N          3.59631       -0.94761       -2.95225
|  7> C          1.66394       -1.41369       -1.77781
|  8> H          0.81164       -1.96318       -1.70275
|  9> H          1.84550       -0.63508       -1.15875
| 10> H          4.20535       -1.17600       -3.73383
| 11> H          3.81723       -0.12585       -2.40604
| 12> H          3.14311       -3.36280       -3.81152
| 13> H          1.48768       -3.45893       -3.16521
| 14> H          1.46566       -3.19589       -5.64368
| 15> H          2.35406       -1.69850       -5.49654
| 16> H          0.73014       -1.81680       -4.86253
| 17> *
| 18>
| 19> %MaxCore 64000
| 20> %pal nprocs 4
| 21> end
| 22>
| 23> %scf
| 24>   MaxIter 150
| 25> end
| 26>
| 27>
| 28>                          ****END OF INPUT****

CARTESIAN COORDINATES (ANGSTROEM)
---------------------------------
  C      1.647030   -2.345280   -5.020410
  C      2.209960   -2.812390   -3.665710
  C      2.489010   -1.668510   -2.737540
  N      3.596310   -0.947610   -2.952250
  C      1.663940   -1.413690   -1.777810
  H      0.811640   -1.963180   -1.702750
  H      1.845500   -0.635080   -1.158750
  H      4.205350   -1.176000   -3.733830
  H      3.817230   -0.125850   -2.406040
  H      3.143110   -3.362800   -3.811520
  H      1.487680   -3.458930   -3.165210
  H      1.465660   -3.195890   -5.643680
  H      2.354060   -1.698500   -5.496540
  H      0.730140   -1.816800   -4.862530

 Total Charge           Charge          ....    0
 Multiplicity           Mult            ....    1
 Number of Electrons    NEL             ....   40
 Basis Dimension        Dim             ....  172

ORBITAL ENERGIES
----------------

  NO   OCC          E(Eh)            E(eV)
   0   2.0000     -14.226793      -387.1307
   1   2.0000     -10.149244      -276.1750
   2   2.0000     -10.126696      -275.5614
   3   2.0000     -10.112599      -275.1778
   4   2.0000     -10.059410      -273.7305
   5   2.0000      -1.089095       -29.6358
   6   2.0000      -0.949394       -25.8343
   7   2.0000      -0.887593       -24.1526
   8   2.0000      -0.793658       -21.5965
   9   2.0000      -0.715441       -19.4681
  10   2.0000      -0.667204       -18.1555
  11   2.0000      -0.628268       -17.0960
  12   2.0000      -0.576387       -15.6843
  13   2.0000      -0.565587       -15.3904
  14   2.0000      -0.534561       -14.5461
  15   2.0000      -0.522587       -14.2203
  16   2.0000      -0.481154       -13.0929
  17   2.0000      -0.464295       -12.6341
  18   2.0000      -0.461642       -12.5619
  19   2.0000      -0.316278        -8.6064
  20   0.0000       0.089081         2.4240
  21   0.0000       0.118625         3.2280
  22   0.0000       0.125190         3.4066
  23   0.0000       0.127528         3.4702
  24   0.0000       0.147478         4.0131

MULLIKEN ATOMIC CHARGES
-----------------------
   0 C :    0.422152
   1 C :   -0.328912
   2 C :   -0.005087
   3 N :    0.085198
   4 C :    0.189228
   5 H :   -0.079444
   6 H :   -0.299110
   7 H :   -0.071406
   8 H :   -0.143869
   9 H :    0.016041
  10 H :    0.144107
  11 H :    0.057549
  12 H :    0.010234
  13 H :    0.003317
Sum of atomic charges:   -0.0000000

LOEWDIN ATOMIC CHARGES
----------------------
   0 C :    0.103329
   1 C :   -0.055128
   2 C :   -0.276433
   3 N :    0.154126
   4 C :    0.141866
   5 H :   -0.059376
   6 H :   -0.065127
   7 H :    0.007690
   8 H :    0.010815
   9 H :    0.033117
  10 H :    0.031413
  11 H :   -0.009286
  12 H :   -0.014214
  13 H :   -0.002792

  Mayer bond orders larger than 0.100000
B(  0-C ,  1-C ) :   1.2392 B(  0-C , 11-H ) :   0.8555 B(  0-C , 12-H ) :   0.8342
B(  0-C , 13-H ) :   0.8949 B(  1-C ,  2-C ) :   1.2054 B(  1-C ,  4-C ) :   0.1355
B(  1-C ,  9-H ) :   0.9129 B(  1-C , 10-H ) :   0.8807 B(  1-C , 11-H ) :   0.1239
B(  1-C , 12-H ) :   0.1712 B(  1-C , 13-H ) :   0.1393 B(  2-C ,  3-N ) :   1.1495
B(  2-C ,  4-C ) :   1.8428 B(  2-C ,  6-H ) :   0.2166 B(  2-C ,  9-H ) :   0.1306
B(  2-C , 10-H ) :   0.1209 B(  3-N ,  4-C ) :   0.2277 B(  3-N ,  7-H ) :   1.1345
B(  3-N ,  8-H ) :   1.2400 B(  4-C ,  5-H ) :   0.9705 B(  4-C ,  6-H ) :   0.7271
B(  7-H ,  8-H ) :  -0.1438

FINAL SINGLE POINT ENERGY      -211.698727438660

DIPOLE MOMENT
-------------
                                X             Y             Z
Electronic contribution:      1.63007       1.06286       1.99620
Nuclear contribution   :     -1.13902      -0.93906      -2.44135
                        -----------------------------------------
Total Dipole Moment    :      0.49105       0.12379      -0.44515
                        -----------------------------------------
Magnitude (a.u.)       :      0.67425
Magnitude (Debye)      :      1.71381

Rotational constants in cm-1:     0.267243     0.130607     0.102304
Rotational constants in MHz :  8011.748167  3915.504600  3066.999841

                             ****ORCA TERMINATED NORMALLY****
TOTAL RUN TIME: 0 days 0 hours 0 minutes 24 seconds 647 msec
