                         Program Version 5.0.0 -  RELEASE  -
|  1> !B3LYP D3BJ RIJCOSX def2-SVPD def2/J TightSCF
|  2> *xyz -1 1
|  3> C          1.36401        0.46874       -2.81376
|  4> C          0.96805        1.63064       -3.71575
|  5> C         -0.50835        1.72268       -4.12430
|  6> S         -1.32861        0.14674       -4.43578
|  7> H         -0.59151        2.29496       -5.04722
|  8> H         -1.11411        2.23561       -3.37436
|  9> O         -2.57135        0.47573       -5.06834
| 10> O         -1.51496       -0.40051       -3.06342
| 11> H          1.57869        1.52065       -4.61273
| 12> H          1.26665        2.57599       -3.25045
| 13> O         -0.37793       -0.62756       -5.20114
| 14> H          1.07115       -0.45339       -3.27071
| 15> H          0.87480        0.56905       -1.86745
| 16> H          2.42423        0.47442       -2.66954
| 17> *
| 18> %MaxCore 64000
| 19>
| 20> %pal nprocs 4
| 21> end
| 22>
| 23> %scf
| 24>   MaxIter 150
| 25> end
| 26>
| 27>
| 28>                          ****END OF INPUT****

CARTESIAN COORDINATES (ANGSTROEM)
---------------------------------
  C      1.364010    0.468740   -2.813760
  C      0.968050    1.630640   -3.715750
  C     -0.508350    1.722680   -4.124300
  S     -1.328610    0.146740   -4.435780
  H     -0.591510    2.294960   -5.047220
  H     -1.114110    2.235610   -3.374360
  O     -2.571350    0.475730   -5.068340
  O     -1.514960   -0.400510   -3.063420
  H      1.578690    1.520650   -4.612730
  H      1.266650    2.575990   -3.250450
  O     -0.377930   -0.627560   -5.201140
  H      1.071150   -0.453390   -3.270710
  H      0.874800    0.569050   -1.867450
  H      2.424230    0.474420   -2.669540

 Total Charge           Charge          ....   -1
 Multiplicity           Mult            ....    1
 Number of Electrons    NEL             ....   66
 Basis Dimension        Dim             ....  212

ORBITAL ENERGIES
----------------

  NO   OCC          E(Eh)            E(eV)
   0   2.0000     -88.884209     -2418.6623
   1   2.0000     -18.926662      -515.0207
   2   2.0000     -18.924578      -514.9639
   3   2.0000     -18.907967      -514.5119
   4   2.0000     -10.051211      -273.5074
   5   2.0000     -10.043734      -273.3039
   6   2.0000     -10.024762      -272.7876
   7   2.0000      -7.937795      -215.9984
   8   2.0000      -5.906803      -160.7323
   9   2.0000      -5.906574      -160.7261
  10   2.0000      -5.906060      -160.7121
  11   2.0000      -0.936582       -25.4857
  12   2.0000      -0.801441       -21.8083
  13   2.0000      -0.770190       -20.9579
  14   2.0000      -0.645449       -17.5636
  15   2.0000      -0.556906       -15.1542
  16   2.0000      -0.462287       -12.5795
  17   2.0000      -0.377977       -10.2853
  18   2.0000      -0.331224        -9.0131
  19   2.0000      -0.316658        -8.6167
  20   2.0000      -0.296491        -8.0679
  21   2.0000      -0.281226        -7.6525
  22   2.0000      -0.263509        -7.1704
  23   2.0000      -0.248039        -6.7495
  24   2.0000      -0.222481        -6.0540
  25   2.0000      -0.216177        -5.8825
  26   2.0000      -0.196585        -5.3494
  27   2.0000      -0.157429        -4.2839
  28   2.0000      -0.153498        -4.1769
  29   2.0000      -0.124015        -3.3746
  30   2.0000      -0.112863        -3.0712
  31   2.0000      -0.099683        -2.7125
  32   2.0000      -0.070806        -1.9267
  33   0.0000       0.136484         3.7139
  34   0.0000       0.162206         4.4139
  35   0.0000       0.170137         4.6297
  36   0.0000       0.174034         4.7357
  37   0.0000       0.197027         5.3614

MULLIKEN ATOMIC CHARGES
-----------------------
   0 C :    0.974765
   1 C :   -0.117085
   2 C :    0.303154
   3 S :    1.298598
   4 H :   -0.155180
   5 H :   -0.064255
   6 O :   -0.823953
   7 O :   -0.831882
   8 H :   -0.052984
   9 H :   -0.252953
  10 O :   -0.809142
  11 H :   -0.115277
  12 H :   -0.116091
  13 H :   -0.237718
Sum of atomic charges:   -1.0000000

LOEWDIN ATOMIC CHARGES
----------------------
   0 C :    0.115690
   1 C :   -0.085010
   2 C :   -0.081391
   3 S :    0.862563
   4 H :   -0.006362
   5 H :    0.002011
   6 O :   -0.565304
   7 O :   -0.588304
   8 H :    0.009554
   9 H :    0.001674
  10 O :   -0.564742
  11 H :   -0.042055
  12 H :   -0.021527
  13 H :   -0.036797

  Mayer bond orders larger than 0.100000
B(  0-C ,  1-C ) :   1.3116 B(  0-C ,  8-H ) :   0.1113 B(  0-C ,  9-H ) :   0.1095
B(  0-C , 11-H ) :   0.7735 B(  0-C , 12-H ) :   0.7088 B(  0-C , 13-H ) :   0.6613
B(  1-C ,  2-C ) :   1.2543 B(  1-C ,  4-H ) :   0.1675 B(  1-C ,  5-H ) :   0.1598
B(  1-C ,  8-H ) :   0.8363 B(  1-C ,  9-H ) :   0.8091 B(  1-C , 11-H ) :   0.2273
B(  1-C , 12-H ) :   0.2323 B(  1-C , 13-H ) :   0.2627 B(  2-C ,  3-S ) :   0.8861
B(  2-C ,  4-H ) :   0.8668 B(  2-C ,  5-H ) :   0.8800 B(  2-C ,  8-H ) :   0.1294
B(  2-C ,  9-H ) :   0.1396 B(  3-S ,  6-O ) :   1.3729 B(  3-S ,  7-O ) :   1.2462
B(  3-S , 10-O ) :   1.2685

Dispersion correction           -0.023247335
FINAL SINGLE POINT ENERGY      -741.848409208619

DIPOLE MOMENT
-------------
                                X             Y             Z
Electronic contribution:     -8.31574      -4.42841      -4.07198
Nuclear contribution   :      9.76868       5.90538       4.47074
                        -----------------------------------------
Total Dipole Moment    :      1.45294       1.47696       0.39876
                        -----------------------------------------
Magnitude (a.u.)       :      2.10985
Magnitude (Debye)      :      5.36282

Rotational constants in cm-1:     0.135183     0.058485     0.054837
Rotational constants in MHz :  4052.676901  1753.343161  1643.972690

                             ****ORCA TERMINATED NORMALLY****
TOTAL RUN TIME: 0 days 0 hours 0 minutes 24 seconds 611 msec
