                         Program Version 5.0.0 -  RELEASE  -
|  1> !B3LYP D3BJ RIJCOSX def2-SVPD def2/J TightSCF
|  2> *xyz 1 1
|  3> C          1.36401        0.46874       -2.81376
|  4> N          0.42884        0.32140       -1.65531
|  5> C          0.96805        1.63064       -3.71575
|  6> C         -0.50835        1.72268       -4.12430
|  7> H          0.74858       -0.40054       -1.00134
|  8> H         -0.46105        0.02333       -2.07773
|  9> H          0.31026        1.20137       -1.13495
| 10> H          1.29485       -0.46874       -3.36468
| 11> H          2.37622        0.59740       -2.43149
| 12> H          1.57869        1.52065       -4.61273
| 13> H          1.26665        2.57599       -3.25045
| 14> H         -0.65192        2.57663       -4.75283
| 15> H         -1.11549        1.81835       -3.24844
| 16> H         -0.78702        0.83723       -4.65648
| 17> *
| 18> %MaxCore 64000
| 19>
| 20> %pal nprocs 4
| 21> end
| 22>
| 23> %scf
| 24>   MaxIter 150
| 25> end
| 26>
| 27>
| 28>                          ****END OF INPUT****

CARTESIAN COORDINATES (ANGSTROEM)
---------------------------------
  C      1.364010    0.468740   -2.813760
  N      0.428840    0.321400   -1.655310
  C      0.968050    1.630640   -3.715750
  C     -0.508350    1.722680   -4.124300
  H      0.748580   -0.400540   -1.001340
  H     -0.461050    0.023330   -2.077730
  H      0.310260    1.201370   -1.134950
  H      1.294850   -0.468740   -3.364680
  H      2.376220    0.597400   -2.431490
  H      1.578690    1.520650   -4.612730
  H      1.266650    2.575990   -3.250450
  H     -0.651920    2.576630   -4.752830
  H     -1.115490    1.818350   -3.248440
  H     -0.787020    0.837230   -4.656480

 Total Charge           Charge          ....    1
 Multiplicity           Mult            ....    1
 Number of Electrons    NEL             ....   34
 Basis Dimension        Dim             ....  160

ORBITAL ENERGIES
----------------

  NO   OCC          E(Eh)            E(eV)
   0   2.0000     -14.659107      -398.8946
   1   2.0000     -10.431761      -283.8626
   2   2.0000     -10.361927      -281.9624
   3   2.0000     -10.335022      -281.2303
   4   2.0000      -1.201076       -32.6829
   5   2.0000      -0.966105       -26.2891
   6   2.0000      -0.879922       -23.9439
   7   2.0000      -0.804053       -21.8794
   8   2.0000      -0.792858       -21.5748
   9   2.0000      -0.768766       -20.9192
  10   2.0000      -0.684586       -18.6285
  11   2.0000      -0.638452       -17.3732
  12   2.0000      -0.608875       -16.5683
  13   2.0000      -0.587465       -15.9857
  14   2.0000      -0.534226       -14.5370
  15   2.0000      -0.525069       -14.2879
  16   2.0000      -0.513177       -13.9643
  17   0.0000      -0.192021        -5.2252
  18   0.0000      -0.132577        -3.6076
  19   0.0000      -0.130933        -3.5629
  20   0.0000      -0.121346        -3.3020
  21   0.0000      -0.092037        -2.5044

MULLIKEN ATOMIC CHARGES
-----------------------
   0 C :    0.749507
   1 N :   -0.565055
   2 C :   -0.161769
   3 C :    0.967412
   4 H :    0.255292
   5 H :    0.370067
   6 H :    0.342296
   7 H :   -0.104526
   8 H :   -0.210856
   9 H :   -0.094734
  10 H :   -0.123451
  11 H :   -0.196416
  12 H :   -0.146097
  13 H :   -0.081669
Sum of atomic charges:    1.0000000

LOEWDIN ATOMIC CHARGES
----------------------
   0 C :    0.094696
   1 N :    0.338214
   2 C :   -0.037888
   3 C :    0.156437
   4 H :    0.104031
   5 H :    0.088144
   6 H :    0.109148
   7 H :    0.052007
   8 H :    0.050084
   9 H :    0.041484
  10 H :    0.033670
  11 H :    0.004676
  12 H :   -0.029744
  13 H :   -0.004957

  Mayer bond orders larger than 0.100000
B(  0-C ,  1-N ) :   0.8179 B(  0-C ,  2-C ) :   1.1921 B(  0-C ,  7-H ) :   0.7906
B(  0-C ,  8-H ) :   0.8754 B(  0-C ,  9-H ) :   0.1716 B(  0-C , 10-H ) :   0.1100
B(  1-N ,  4-H ) :   0.8527 B(  1-N ,  5-H ) :   0.7802 B(  1-N ,  6-H ) :   0.8136
B(  1-N ,  7-H ) :   0.1392 B(  2-C ,  3-C ) :   1.3017 B(  2-C ,  7-H ) :   0.1237
B(  2-C ,  9-H ) :   0.8424 B(  2-C , 10-H ) :   0.8978 B(  2-C , 11-H ) :   0.2435
B(  2-C , 12-H ) :   0.1981 B(  2-C , 13-H ) :   0.2119 B(  3-C , 11-H ) :   0.7515
B(  3-C , 12-H ) :   0.7823 B(  3-C , 13-H ) :   0.7628

Dispersion correction           -0.015394231
FINAL SINGLE POINT ENERGY      -174.624803627992

DIPOLE MOMENT
-------------
                                X             Y             Z
Electronic contribution:      0.76737      -1.07815       1.94613
Nuclear contribution   :     -0.79558       0.15863      -0.24664
                        -----------------------------------------
Total Dipole Moment    :     -0.02820      -0.91951       1.69949
                        -----------------------------------------
Magnitude (a.u.)       :      1.93250
Magnitude (Debye)      :      4.91203

Rotational constants in cm-1:     0.425244     0.165801     0.135024
Rotational constants in MHz : 12748.492920  4970.589839  4047.903558

                             ****ORCA TERMINATED NORMALLY****
TOTAL RUN TIME: 0 days 0 hours 0 minutes 13 seconds 673 msec
