                         Program Version 5.0.0 -  RELEASE  -
|  1> !B3LYP D3BJ RIJCOSX def2-SVPD def2/J TightSCF
|  2> *xyz 0 1
|  3> C          1.36401        0.46874       -2.81376
|  4> C          0.96805        1.63064       -3.71575
|  5> C         -0.50835        1.72268       -4.12430
|  6> S         -1.32861        0.14674       -4.43578
|  7> H         -0.59151        2.29496       -5.04722
|  8> H         -1.11411        2.23561       -3.37436
|  9> F         -2.57135        0.47573       -5.06834
| 10> O         -1.51496       -0.40051       -3.06342
| 11> H          1.57869        1.52065       -4.61273
| 12> H          1.26665        2.57599       -3.25045
| 13> O         -0.37793       -0.62756       -5.20114
| 14> H          1.07115       -0.45339       -3.27071
| 15> H          0.87480        0.56905       -1.86745
| 16> H          2.42423        0.47442       -2.66954
| 17> *
| 18> %MaxCore 64000
| 19>
| 20> %pal nprocs 4
| 21> end
| 22>
| 23> %scf
| 24>   MaxIter 150
| 25> end
| 26>
| 27>
| 28>                          ****END OF INPUT****

CARTESIAN COORDINATES (ANGSTROEM)
---------------------------------
  C      1.364010    0.468740   -2.813760
  C      0.968050    1.630640   -3.715750
  C     -0.508350    1.722680   -4.124300
  S     -1.328610    0.146740   -4.435780
  H     -0.591510    2.294960   -5.047220
  H     -1.114110    2.235610   -3.374360
  F     -2.571350    0.475730   -5.068340
  O     -1.514960   -0.400510   -3.063420
  H      1.578690    1.520650   -4.612730
  H      1.266650    2.575990   -3.250450
  O     -0.377930   -0.627560   -5.201140
  H      1.071150   -0.453390   -3.270710
  H      0.874800    0.569050   -1.867450
  H      2.424230    0.474420   -2.669540

 Total Charge           Charge          ....    0
 Multiplicity           Mult            ....    1
 Number of Electrons    NEL             ....   66
 Basis Dimension        Dim             ....  212

ORBITAL ENERGIES
----------------

  NO   OCC          E(Eh)            E(eV)
   0   2.0000     -89.140654     -2425.6405
   1   2.0000     -24.821907      -675.4384
   2   2.0000     -19.155793      -521.2556
   3   2.0000     -19.139522      -520.8129
   4   2.0000     -10.243191      -278.7314
   5   2.0000     -10.209678      -277.8195
   6   2.0000     -10.168597      -276.7016
   7   2.0000      -8.195203      -223.0028
   8   2.0000      -6.168104      -167.8426
   9   2.0000      -6.161847      -167.6724
  10   2.0000      -6.160438      -167.6340
  11   2.0000      -1.387041       -37.7433
  12   2.0000      -1.108674       -30.1686
  13   2.0000      -1.002361       -27.2756
  14   2.0000      -0.821891       -22.3648
  15   2.0000      -0.756256       -20.5788
  16   2.0000      -0.709240       -19.2994
  17   2.0000      -0.635273       -17.2866
  18   2.0000      -0.597574       -16.2608
  19   2.0000      -0.582401       -15.8479
  20   2.0000      -0.554261       -15.0822
  21   2.0000      -0.495724       -13.4893
  22   2.0000      -0.484393       -13.1810
  23   2.0000      -0.457616       -12.4524
  24   2.0000      -0.452325       -12.3084
  25   2.0000      -0.422211       -11.4890
  26   2.0000      -0.391175       -10.6444
  27   2.0000      -0.377192       -10.2639
  28   2.0000      -0.366379        -9.9697
  29   2.0000      -0.351274        -9.5587
  30   2.0000      -0.334883        -9.1126
  31   2.0000      -0.318710        -8.6725
  32   2.0000      -0.308171        -8.3858
  33   0.0000      -0.006491        -0.1766
  34   0.0000       0.014153         0.3851
  35   0.0000       0.032479         0.8838
  36   0.0000       0.036474         0.9925
  37   0.0000       0.049871         1.3571

MULLIKEN ATOMIC CHARGES
-----------------------
   0 C :    0.993203
   1 C :   -0.112405
   2 C :    0.260440
   3 S :    1.492666
   4 H :   -0.096538
   5 H :   -0.008183
   6 F :   -0.459856
   7 O :   -0.687465
   8 H :   -0.029491
   9 H :   -0.221360
  10 O :   -0.668352
  11 H :   -0.140229
  12 H :   -0.102065
  13 H :   -0.220364
Sum of atomic charges:   -0.0000000

LOEWDIN ATOMIC CHARGES
----------------------
   0 C :    0.137879
   1 C :   -0.053895
   2 C :   -0.046759
   3 S :    1.126704
   4 H :    0.011257
   5 H :    0.021037
   6 F :   -0.251190
   7 O :   -0.480148
   8 H :    0.025592
   9 H :    0.029167
  10 O :   -0.459149
  11 H :   -0.036554
  12 H :   -0.009881
  13 H :   -0.014059

  Mayer bond orders larger than 0.100000
B(  0-C ,  1-C ) :   1.3272 B(  0-C ,  8-H ) :   0.1061 B(  0-C ,  9-H ) :   0.1038
B(  0-C , 11-H ) :   0.7735 B(  0-C , 12-H ) :   0.7120 B(  0-C , 13-H ) :   0.6685
B(  1-C ,  2-C ) :   1.3077 B(  1-C ,  4-H ) :   0.1756 B(  1-C ,  5-H ) :   0.1492
B(  1-C ,  8-H ) :   0.8355 B(  1-C ,  9-H ) :   0.8121 B(  1-C , 11-H ) :   0.2147
B(  1-C , 12-H ) :   0.2256 B(  1-C , 13-H ) :   0.2517 B(  2-C ,  3-S ) :   0.9215
B(  2-C ,  4-H ) :   0.8356 B(  2-C ,  5-H ) :   0.8770 B(  2-C ,  8-H ) :   0.1314
B(  2-C ,  9-H ) :   0.1371 B(  3-S ,  6-F ) :   0.6957 B(  3-S ,  7-O ) :   1.4470
B(  3-S , 10-O ) :   1.4661

Dispersion correction           -0.022483553
FINAL SINGLE POINT ENERGY      -766.327043210797

DIPOLE MOMENT
-------------
                                X             Y             Z
Electronic contribution:    -11.75176      -4.29368      -5.80686
Nuclear contribution   :     11.77809       5.83971       5.48704
                        -----------------------------------------
Total Dipole Moment    :      0.02632       1.54603      -0.31982
                        -----------------------------------------
Magnitude (a.u.)       :      1.57898
Magnitude (Debye)      :      4.01345

Rotational constants in cm-1:     0.133968     0.056186     0.052650
Rotational constants in MHz :  4016.256208  1684.422248  1578.415210

                             ****ORCA TERMINATED NORMALLY****
TOTAL RUN TIME: 0 days 0 hours 0 minutes 23 seconds 549 msec
