                         Program Version 5.0.0 -  RELEASE  -
|  1> !B3LYP D3BJ RIJCOSX def2-SVPD def2/J TightSCF
|  2> *xyz 0 1
|  3> C          1.36401        0.46874       -2.81376
|  4> C          0.42884        0.32140       -1.65531
|  5> C          0.96805        1.63064       -3.71575
|  6> C         -0.50835        1.72268       -4.12430
|  7> H          0.74858       -0.40054       -1.00134
|  8> H         -0.46105        0.02333       -2.07773
|  9> H          0.31026        1.20137       -1.13495
| 10> H          1.29485       -0.46874       -3.36468
| 11> H          2.37622        0.59740       -2.43149
| 12> H          1.57869        1.52065       -4.61273
| 13> H          1.26665        2.57599       -3.25045
| 14> H         -0.65192        2.57663       -4.75283
| 15> H         -1.11549        1.81835       -3.24844
| 16> H         -0.78702        0.83723       -4.65648
| 17> *
| 18> %MaxCore 64000
| 19>
| 20> %pal nprocs 4
| 21> end
| 22>
| 23> %scf
| 24>   MaxIter 150
| 25> end
| 26>
| 27>
| 28>                          ****END OF INPUT****

CARTESIAN COORDINATES (ANGSTROEM)
---------------------------------
  C      1.364010    0.468740   -2.813760
  C      0.428840    0.321400   -1.655310
  C      0.968050    1.630640   -3.715750
  C     -0.508350    1.722680   -4.124300
  H      0.748580   -0.400540   -1.001340
  H     -0.461050    0.023330   -2.077730
  H      0.310260    1.201370   -1.134950
  H      1.294850   -0.468740   -3.364680
  H      2.376220    0.597400   -2.431490
  H      1.578690    1.520650   -4.612730
  H      1.266650    2.575990   -3.250450
  H     -0.651920    2.576630   -4.752830
  H     -1.115490    1.818350   -3.248440
  H     -0.787020    0.837230   -4.656480

 Total Charge           Charge          ....    0
 Multiplicity           Mult            ....    1
 Number of Electrons    NEL             ....   34
 Basis Dimension        Dim             ....  160

ORBITAL ENERGIES
----------------

  NO   OCC          E(Eh)            E(eV)
   0   2.0000     -10.171752      -276.7874
   1   2.0000     -10.168426      -276.6969
   2   2.0000     -10.164031      -276.5773
   3   2.0000     -10.144688      -276.0510
   4   2.0000      -0.794359       -21.6156
   5   2.0000      -0.720138       -19.5960
   6   2.0000      -0.641076       -17.4446
   7   2.0000      -0.556597       -15.1458
   8   2.0000      -0.469125       -12.7656
   9   2.0000      -0.460583       -12.5331
  10   2.0000      -0.424796       -11.5593
  11   2.0000      -0.388397       -10.5688
  12   2.0000      -0.383274       -10.4294
  13   2.0000      -0.365822        -9.9545
  14   2.0000      -0.327641        -8.9156
  15   2.0000      -0.320267        -8.7149
  16   2.0000      -0.316260        -8.6059
  17   0.0000       0.022963         0.6249
  18   0.0000       0.049906         1.3580
  19   0.0000       0.052368         1.4250
  20   0.0000       0.063130         1.7179
  21   0.0000       0.092665         2.5215

MULLIKEN ATOMIC CHARGES
-----------------------
   0 C :   -0.100024
   1 C :    1.218918
   2 C :   -0.161201
   3 C :    0.896592
   4 H :   -0.445520
   5 H :   -0.144406
   6 H :   -0.241778
   7 H :   -0.093467
   8 H :   -0.226610
   9 H :   -0.185894
  10 H :   -0.090134
  11 H :   -0.234619
  12 H :   -0.097943
  13 H :   -0.093913
Sum of atomic charges:    0.0000000

LOEWDIN ATOMIC CHARGES
----------------------
   0 C :   -0.071597
   1 C :    0.126397
   2 C :   -0.073705
   3 C :    0.131505
   4 H :   -0.037546
   5 H :   -0.041607
   6 H :   -0.026991
   7 H :    0.020820
   8 H :    0.017487
   9 H :    0.008887
  10 H :    0.018072
  11 H :   -0.023105
  12 H :   -0.030743
  13 H :   -0.017873

  Mayer bond orders larger than 0.100000
B(  0-C ,  1-C ) :   1.2634 B(  0-C ,  2-C ) :   1.1978 B(  0-C ,  4-H ) :   0.2555
B(  0-C ,  5-H ) :   0.2932 B(  0-C ,  6-H ) :   0.2569 B(  0-C ,  7-H ) :   0.8073
B(  0-C ,  8-H ) :   0.8836 B(  0-C ,  9-H ) :   0.1603 B(  0-C , 10-H ) :   0.1427
B(  1-C ,  4-H ) :   0.6038 B(  1-C ,  5-H ) :   0.6798 B(  1-C ,  6-H ) :   0.6472
B(  1-C ,  7-H ) :   0.1446 B(  2-C ,  3-C ) :   1.2992 B(  2-C ,  7-H ) :   0.1480
B(  2-C ,  9-H ) :   0.8696 B(  2-C , 10-H ) :   0.8678 B(  2-C , 11-H ) :   0.2506
B(  2-C , 12-H ) :   0.2053 B(  2-C , 13-H ) :   0.2155 B(  3-C , 10-H ) :   0.1035
B(  3-C , 11-H ) :   0.7186 B(  3-C , 12-H ) :   0.8021 B(  3-C , 13-H ) :   0.7651
B(  4-H ,  6-H ) :  -0.1141

Dispersion correction           -0.015507474
FINAL SINGLE POINT ENERGY      -158.225203506978

DIPOLE MOMENT
-------------
                                X             Y             Z
Electronic contribution:      0.84383       0.05434      -0.18665
Nuclear contribution   :     -0.83100      -0.05970       0.18742
                        -----------------------------------------
Total Dipole Moment    :      0.01282      -0.00536       0.00077
                        -----------------------------------------
Magnitude (a.u.)       :      0.01392
Magnitude (Debye)      :      0.03538

Rotational constants in cm-1:     0.433656     0.172838     0.140497
Rotational constants in MHz : 13000.688694  5181.547473  4211.992439

                             ****ORCA TERMINATED NORMALLY****
TOTAL RUN TIME: 0 days 0 hours 0 minutes 11 seconds 858 msec
