                         Program Version 5.0.0 -  RELEASE  -
|  1> !B3LYP D3BJ RIJCOSX def2-SVPD def2/J TightSCF
|  2> *xyz 0 1
|  3> C          1.36401        0.46874       -2.81376
|  4> C          0.96805        1.63064       -3.71575
|  5> C         -0.50835        1.72268       -4.12430
|  6> S         -1.32861        0.14674       -4.43578
|  7> H         -0.59151        2.29496       -5.04722
|  8> H         -1.11411        2.23561       -3.37436
|  9> O         -2.57135        0.47573       -5.06834
| 10> F         -1.51496       -0.40051       -3.06342
| 11> H          1.57869        1.52065       -4.61273
| 12> H          1.26665        2.57599       -3.25045
| 13> O         -0.37793       -0.62756       -5.20114
| 14> H          1.07115       -0.45339       -3.27071
| 15> H          0.87480        0.56905       -1.86745
| 16> H          2.42423        0.47442       -2.66954
| 17> *
| 18> %MaxCore 64000
| 19>
| 20> %pal nprocs 4
| 21> end
| 22>
| 23> %scf
| 24>   MaxIter 150
| 25> end
| 26>
| 27>
| 28>                          ****END OF INPUT****

CARTESIAN COORDINATES (ANGSTROEM)
---------------------------------
  C      1.364010    0.468740   -2.813760
  C      0.968050    1.630640   -3.715750
  C     -0.508350    1.722680   -4.124300
  S     -1.328610    0.146740   -4.435780
  H     -0.591510    2.294960   -5.047220
  H     -1.114110    2.235610   -3.374360
  O     -2.571350    0.475730   -5.068340
  F     -1.514960   -0.400510   -3.063420
  H      1.578690    1.520650   -4.612730
  H      1.266650    2.575990   -3.250450
  O     -0.377930   -0.627560   -5.201140
  H      1.071150   -0.453390   -3.270710
  H      0.874800    0.569050   -1.867450
  H      2.424230    0.474420   -2.669540

 Total Charge           Charge          ....    0
 Multiplicity           Mult            ....    1
 Number of Electrons    NEL             ....   66
 Basis Dimension        Dim             ....  212

ORBITAL ENERGIES
----------------

  NO   OCC          E(Eh)            E(eV)
   0   2.0000     -89.137879     -2425.5650
   1   2.0000     -24.793663      -674.6699
   2   2.0000     -19.157905      -521.3131
   3   2.0000     -19.154254      -521.2138
   4   2.0000     -10.242275      -278.7065
   5   2.0000     -10.211349      -277.8649
   6   2.0000     -10.182742      -277.0865
   7   2.0000      -8.192263      -222.9228
   8   2.0000      -6.165077      -167.7603
   9   2.0000      -6.159146      -167.5989
  10   2.0000      -6.157644      -167.5580
  11   2.0000      -1.339656       -36.4539
  12   2.0000      -1.122438       -30.5431
  13   2.0000      -1.028509       -27.9872
  14   2.0000      -0.826030       -22.4774
  15   2.0000      -0.747678       -20.3454
  16   2.0000      -0.698622       -19.0105
  17   2.0000      -0.633470       -17.2376
  18   2.0000      -0.567822       -15.4512
  19   2.0000      -0.564988       -15.3741
  20   2.0000      -0.550684       -14.9849
  21   2.0000      -0.501754       -13.6534
  22   2.0000      -0.478091       -13.0095
  23   2.0000      -0.464742       -12.6463
  24   2.0000      -0.455909       -12.4059
  25   2.0000      -0.436765       -11.8850
  26   2.0000      -0.400311       -10.8930
  27   2.0000      -0.384686       -10.4678
  28   2.0000      -0.380916       -10.3653
  29   2.0000      -0.357596        -9.7307
  30   2.0000      -0.345744        -9.4082
  31   2.0000      -0.331617        -9.0238
  32   2.0000      -0.324457        -8.8289
  33   0.0000      -0.004571        -0.1244
  34   0.0000       0.019853         0.5402
  35   0.0000       0.029522         0.8033
  36   0.0000       0.033472         0.9108
  37   0.0000       0.045122         1.2278

MULLIKEN ATOMIC CHARGES
-----------------------
   0 C :    0.977351
   1 C :   -0.059088
   2 C :    0.266046
   3 S :    1.438208
   4 H :   -0.103276
   5 H :   -0.015649
   6 O :   -0.680278
   7 F :   -0.409836
   8 H :   -0.025335
   9 H :   -0.217609
  10 O :   -0.677488
  11 H :   -0.163697
  12 H :   -0.117967
  13 H :   -0.211381
Sum of atomic charges:   -0.0000000

LOEWDIN ATOMIC CHARGES
----------------------
   0 C :    0.133405
   1 C :   -0.063469
   2 C :   -0.035537
   3 S :    1.115499
   4 H :    0.026557
   5 H :    0.020364
   6 O :   -0.453039
   7 F :   -0.273910
   8 H :    0.026439
   9 H :    0.026323
  10 O :   -0.456787
  11 H :   -0.040656
  12 H :   -0.013634
  13 H :   -0.011555

  Mayer bond orders larger than 0.100000
B(  0-C ,  1-C ) :   1.3271 B(  0-C ,  8-H ) :   0.1084 B(  0-C ,  9-H ) :   0.1019
B(  0-C , 11-H ) :   0.7790 B(  0-C , 12-H ) :   0.7109 B(  0-C , 13-H ) :   0.6862
B(  1-C ,  2-C ) :   1.2933 B(  1-C ,  4-H ) :   0.1543 B(  1-C ,  5-H ) :   0.1508
B(  1-C ,  8-H ) :   0.8403 B(  1-C ,  9-H ) :   0.8092 B(  1-C , 11-H ) :   0.2098
B(  1-C , 12-H ) :   0.2220 B(  1-C , 13-H ) :   0.2479 B(  2-C ,  3-S ) :   0.9470
B(  2-C ,  4-H ) :   0.8592 B(  2-C ,  5-H ) :   0.8833 B(  2-C ,  8-H ) :   0.1348
B(  2-C ,  9-H ) :   0.1267 B(  3-S ,  6-O ) :   1.5850 B(  3-S ,  7-F ) :   0.6070
B(  3-S , 10-O ) :   1.5013

Dispersion correction           -0.022281914
FINAL SINGLE POINT ENERGY      -766.351253202606

DIPOLE MOMENT
-------------
                                X             Y             Z
Electronic contribution:     -9.89255      -5.77828      -2.35610
Nuclear contribution   :     10.64200       6.78206       3.33086
                        -----------------------------------------
Total Dipole Moment    :      0.74945       1.00378       0.97476
                        -----------------------------------------
Magnitude (a.u.)       :      1.58727
Magnitude (Debye)      :      4.03451

Rotational constants in cm-1:     0.128573     0.057881     0.053975
Rotational constants in MHz :  3854.523324  1735.233387  1618.120420

                             ****ORCA TERMINATED NORMALLY****
TOTAL RUN TIME: 0 days 0 hours 0 minutes 23 seconds 776 msec
