                         Program Version 5.0.0 -  RELEASE  -
|  1> !B3LYP D3BJ RIJCOSX def2-SVPD def2/J TightSCF
|  2> *xyz 0 1
|  3> C          1.36401        0.46874       -2.81376
|  4> C          0.96805        1.63064       -3.71575
|  5> C         -0.50835        1.72268       -4.12430
|  6> S         -1.32861        0.14674       -4.43578
|  7> H         -0.59151        2.29496       -5.04722
|  8> H         -1.11411        2.23561       -3.37436
|  9> O         -2.57135        0.47573       -5.06834
| 10> O         -1.51496       -0.40051       -3.06342
| 11> H          1.57869        1.52065       -4.61273
| 12> H          1.26665        2.57599       -3.25045
| 13> F         -0.37793       -0.62756       -5.20114
| 14> H          1.07115       -0.45339       -3.27071
| 15> H          0.87480        0.56905       -1.86745
| 16> H          2.42423        0.47442       -2.66954
| 17> *
| 18> %MaxCore 64000
| 19>
| 20> %pal nprocs 4
| 21> end
| 22>
| 23> %scf
| 24>   MaxIter 150
| 25> end
| 26>
| 27>
| 28>                          ****END OF INPUT****

CARTESIAN COORDINATES (ANGSTROEM)
---------------------------------
  C      1.364010    0.468740   -2.813760
  C      0.968050    1.630640   -3.715750
  C     -0.508350    1.722680   -4.124300
  S     -1.328610    0.146740   -4.435780
  H     -0.591510    2.294960   -5.047220
  H     -1.114110    2.235610   -3.374360
  O     -2.571350    0.475730   -5.068340
  O     -1.514960   -0.400510   -3.063420
  H      1.578690    1.520650   -4.612730
  H      1.266650    2.575990   -3.250450
  F     -0.377930   -0.627560   -5.201140
  H      1.071150   -0.453390   -3.270710
  H      0.874800    0.569050   -1.867450
  H      2.424230    0.474420   -2.669540

 Total Charge           Charge          ....    0
 Multiplicity           Mult            ....    1
 Number of Electrons    NEL             ....   66
 Basis Dimension        Dim             ....  212

ORBITAL ENERGIES
----------------

  NO   OCC          E(Eh)            E(eV)
   0   2.0000     -89.139413     -2425.6067
   1   2.0000     -24.816755      -675.2982
   2   2.0000     -19.158036      -521.3167
   3   2.0000     -19.137834      -520.7669
   4   2.0000     -10.242770      -278.7200
   5   2.0000     -10.214336      -277.9462
   6   2.0000     -10.181547      -277.0540
   7   2.0000      -8.193922      -222.9679
   8   2.0000      -6.167043      -167.8138
   9   2.0000      -6.160474      -167.6350
  10   2.0000      -6.159084      -167.5972
  11   2.0000      -1.377232       -37.4764
  12   2.0000      -1.112855       -30.2823
  13   2.0000      -1.004100       -27.3229
  14   2.0000      -0.827569       -22.5193
  15   2.0000      -0.752553       -20.4780
  16   2.0000      -0.712680       -19.3930
  17   2.0000      -0.637523       -17.3479
  18   2.0000      -0.592425       -16.1207
  19   2.0000      -0.590643       -16.0722
  20   2.0000      -0.545674       -14.8486
  21   2.0000      -0.496835       -13.5196
  22   2.0000      -0.482406       -13.1269
  23   2.0000      -0.466668       -12.6987
  24   2.0000      -0.449766       -12.2387
  25   2.0000      -0.432853       -11.7785
  26   2.0000      -0.393074       -10.6961
  27   2.0000      -0.386491       -10.5170
  28   2.0000      -0.381363       -10.3774
  29   2.0000      -0.357921        -9.7395
  30   2.0000      -0.336292        -9.1510
  31   2.0000      -0.319565        -8.6958
  32   2.0000      -0.307160        -8.3583
  33   0.0000      -0.010890        -0.2963
  34   0.0000       0.020360         0.5540
  35   0.0000       0.030111         0.8194
  36   0.0000       0.034633         0.9424
  37   0.0000       0.044659         1.2152

MULLIKEN ATOMIC CHARGES
-----------------------
   0 C :    1.019399
   1 C :   -0.088707
   2 C :    0.282118
   3 S :    1.426186
   4 H :   -0.111314
   5 H :   -0.011682
   6 O :   -0.669512
   7 O :   -0.688224
   8 H :   -0.051906
   9 H :   -0.223504
  10 F :   -0.405527
  11 H :   -0.157279
  12 H :   -0.104881
  13 H :   -0.215167
Sum of atomic charges:   -0.0000000

LOEWDIN ATOMIC CHARGES
----------------------
   0 C :    0.133399
   1 C :   -0.068035
   2 C :   -0.033922
   3 S :    1.118419
   4 H :    0.014873
   5 H :    0.034314
   6 O :   -0.452743
   7 O :   -0.478694
   8 H :    0.019868
   9 H :    0.027643
  10 F :   -0.255037
  11 H :   -0.040160
  12 H :   -0.006515
  13 H :   -0.013409

  Mayer bond orders larger than 0.100000
B(  0-C ,  1-C ) :   1.3228 B(  0-C ,  8-H ) :   0.1039 B(  0-C ,  9-H ) :   0.1012
B(  0-C , 11-H ) :   0.7681 B(  0-C , 12-H ) :   0.7147 B(  0-C , 13-H ) :   0.6684
B(  1-C ,  2-C ) :   1.2643 B(  1-C ,  4-H ) :   0.1609 B(  1-C ,  5-H ) :   0.1557
B(  1-C ,  8-H ) :   0.8421 B(  1-C ,  9-H ) :   0.8145 B(  1-C , 11-H ) :   0.2166
B(  1-C , 12-H ) :   0.2329 B(  1-C , 13-H ) :   0.2524 B(  2-C ,  3-S ) :   0.9548
B(  2-C ,  4-H ) :   0.8742 B(  2-C ,  5-H ) :   0.8748 B(  2-C ,  8-H ) :   0.1254
B(  2-C ,  9-H ) :   0.1368 B(  3-S ,  6-O ) :   1.5855 B(  3-S ,  7-O ) :   1.4778
B(  3-S , 10-F ) :   0.6540

Dispersion correction           -0.022277532
FINAL SINGLE POINT ENERGY      -766.330753541689

DIPOLE MOMENT
-------------
                                X             Y             Z
Electronic contribution:     -7.96398      -6.14390      -5.97999
Nuclear contribution   :      9.41919       7.02624       5.62986
                        -----------------------------------------
Total Dipole Moment    :      1.45521       0.88234      -0.35014
                        -----------------------------------------
Magnitude (a.u.)       :      1.73746
Magnitude (Debye)      :      4.41627

Rotational constants in cm-1:     0.128702     0.057313     0.054552
Rotational constants in MHz :  3858.395793  1718.208003  1635.420361

                             ****ORCA TERMINATED NORMALLY****
TOTAL RUN TIME: 0 days 0 hours 0 minutes 23 seconds 695 msec
