                         Program Version 5.0.0 -  RELEASE  -
|  1> !B3LYP D3BJ RIJCOSX def2-SVPD def2/J TightSCF xyzfile
|  2>
|  3> *xyzfile 0 1 D1.xyz
|  4>
|  5> %MaxCore 64000
|  6>
|  7> %pal nprocs 4
|  8> end
|  9>
| 10> %scf
| 11>   MaxIter 150
| 12> end
| 13>
| 14>
| 15>                          ****END OF INPUT****

CARTESIAN COORDINATES (ANGSTROEM)
---------------------------------
  C      1.364014    0.468742   -2.813764
  C      0.428844    0.321402   -1.655312
  C      0.968045    1.630639   -3.715749
  C     -0.508347    1.722679   -4.124300
  S     -1.328608    0.146737   -4.435781
  H     -0.591511    2.294958   -5.047219
  H     -1.114114    2.235610   -3.374362
  H      0.748578   -0.400542   -1.001345
  H     -0.461053    0.023332   -2.077731
  H      0.310258    1.201375   -1.134948
  F     -2.571347    0.475733   -5.068341
  O     -1.514963   -0.400512   -3.063420
  H      1.294847   -0.468742   -3.364684
  H      2.376216    0.597400   -2.431495
  H      1.578688    1.520652   -4.612733
  H      1.266653    2.575988   -3.250448
  O     -0.377928   -0.627558   -5.201141

 Total Charge           Charge          ....    0
 Multiplicity           Mult            ....    1
 Number of Electrons    NEL             ....   74
 Basis Dimension        Dim             ....  248

ORBITAL ENERGIES
----------------

  NO   OCC          E(Eh)            E(eV)
   0   2.0000     -89.146771     -2425.8070
   1   2.0000     -24.825757      -675.5432
   2   2.0000     -19.159740      -521.3630
   3   2.0000     -19.146461      -521.0017
   4   2.0000     -10.246154      -278.8120
   5   2.0000     -10.206027      -277.7201
   6   2.0000     -10.169495      -276.7260
   7   2.0000     -10.113309      -275.1971
   8   2.0000      -8.201057      -223.1621
   9   2.0000      -6.174093      -168.0056
  10   2.0000      -6.167872      -167.8363
  11   2.0000      -6.166095      -167.7880
  12   2.0000      -1.390901       -37.8483
  13   2.0000      -1.116195       -30.3732
  14   2.0000      -1.014728       -27.6121
  15   2.0000      -0.827530       -22.5182
  16   2.0000      -0.773581       -21.0502
  17   2.0000      -0.724627       -19.7181
  18   2.0000      -0.676755       -18.4154
  19   2.0000      -0.611659       -16.6441
  20   2.0000      -0.602446       -16.3934
  21   2.0000      -0.580269       -15.7899
  22   2.0000      -0.547398       -14.8954
  23   2.0000      -0.509797       -13.8723
  24   2.0000      -0.497130       -13.5276
  25   2.0000      -0.465311       -12.6618
  26   2.0000      -0.461175       -12.5492
  27   2.0000      -0.425608       -11.5814
  28   2.0000      -0.407864       -11.0985
  29   2.0000      -0.403675       -10.9846
  30   2.0000      -0.387577       -10.5465
  31   2.0000      -0.359521        -9.7831
  32   2.0000      -0.349317        -9.5054
  33   2.0000      -0.325593        -8.8598
  34   2.0000      -0.323636        -8.8066
  35   2.0000      -0.317192        -8.6312
  36   2.0000      -0.280072        -7.6212
  37   0.0000      -0.008316        -0.2263
  38   0.0000       0.012007         0.3267
  39   0.0000       0.029982         0.8159
  40   0.0000       0.037382         1.0172
  41   0.0000       0.047518         1.2930

MULLIKEN ATOMIC CHARGES
-----------------------
   0 C :   -0.189188
   1 C :    2.365397
   2 C :    0.428995
   3 C :    0.239739
   4 S :    1.644188
   5 H :   -0.304724
   6 H :    0.159607
   7 H :   -0.218113
   8 H :   -1.340845
   9 H :   -0.218137
  10 F :   -0.492721
  11 O :   -0.856313
  12 H :    0.026499
  13 H :   -0.421956
  14 H :   -0.055560
  15 H :   -0.096328
  16 O :   -0.670541
Sum of atomic charges:    0.0000000

LOEWDIN ATOMIC CHARGES
----------------------
   0 C :   -0.040132
   1 C :    0.147776
   2 C :   -0.011328
   3 C :   -0.029938
   4 S :    1.176450
   5 H :    0.011507
   6 H :    0.025149
   7 H :   -0.024856
   8 H :   -0.176232
   9 H :   -0.024601
  10 F :   -0.246660
  11 O :   -0.450970
  12 H :    0.015114
  13 H :    0.020242
  14 H :    0.024471
  15 H :    0.034314
  16 O :   -0.450304

  Mayer bond orders larger than 0.100000
B(  0-C ,  1-C ) :   0.9400 B(  0-C ,  2-C ) :   1.1976 B(  0-C ,  7-H ) :   0.2817
B(  0-C ,  8-H ) :   0.6090 B(  0-C ,  9-H ) :   0.3198 B(  0-C , 12-H ) :   0.7952
B(  0-C , 13-H ) :   0.8821 B(  0-C , 14-H ) :   0.1646 B(  0-C , 15-H ) :   0.1867
B(  1-C ,  7-H ) :   0.3175 B(  1-C ,  8-H ) :  -1.1319 B(  1-C , 11-O ) :  -0.2031
B(  1-C , 12-H ) :   0.1608 B(  2-C ,  3-C ) :   1.2693 B(  2-C ,  5-H ) :   0.2271
B(  2-C ,  6-H ) :   0.1166 B(  2-C , 12-H ) :   0.1628 B(  2-C , 14-H ) :   0.7882
B(  2-C , 15-H ) :   0.7206 B(  3-C ,  4-S ) :   0.9336 B(  3-C ,  5-H ) :   0.7885
B(  3-C ,  6-H ) :   0.8388 B(  3-C ,  8-H ) :   0.1514 B(  3-C , 11-O ) :   0.1529
B(  3-C , 14-H ) :   0.1508 B(  3-C , 15-H ) :   0.1095 B(  4-S ,  8-H ) :  -0.1646
B(  4-S , 10-F ) :   0.6575 B(  4-S , 11-O ) :   1.3300 B(  4-S , 16-O ) :   1.4809
B(  7-H ,  8-H ) :   0.3535 B(  7-H ,  9-H ) :  -0.2348 B(  8-H ,  9-H ) :   0.6024
B(  8-H , 11-O ) :   0.3332 B( 12-H , 13-H ) :  -0.1231

Dispersion correction           -0.030142512
FINAL SINGLE POINT ENERGY      -805.549555628591

DIPOLE MOMENT
-------------
                                X             Y             Z
Electronic contribution:    -12.44093      -4.04330      -9.70538
Nuclear contribution   :     12.25227       5.48563       9.26621
                        -----------------------------------------
Total Dipole Moment    :     -0.18866       1.44233      -0.43917
                        -----------------------------------------
Magnitude (a.u.)       :      1.51946
Magnitude (Debye)      :      3.86217

Rotational constants in cm-1:     0.103176     0.044975     0.040960
Rotational constants in MHz :  3093.138469  1348.317425  1227.945122

                             ****ORCA TERMINATED NORMALLY****
TOTAL RUN TIME: 0 days 0 hours 0 minutes 41 seconds 47 msec
