                         Program Version 5.0.0 -  RELEASE  -
|  1> !wB97X-D3 RIJCOSX def2-TZVPD def2/J TightSCF
|  2> *xyz -1 1
|  3> C          4.08422        1.74208       -2.11472
|  4> C          4.26524        2.50052       -0.79589
|  5> H          4.86853        3.39267       -0.98113
|  6> H          3.30764        2.82457       -0.38781
|  7> C          4.98224        1.65026        0.24742
|  8> O          4.36806        1.38927        1.31371
|  9> O          6.12892        1.23351       -0.04562
| 10> C          3.41275        0.37689       -1.96550
| 11> H          5.06847        1.59850       -2.56573
| 12> H          3.50336        2.36394       -2.80457
| 13> H          3.32456       -0.08422       -2.92701
| 14> H          2.43923        0.50287       -1.53972
| 15> H          4.00446       -0.24355       -1.32531
| 16> *
| 17> %MaxCore 64000
| 18> %pal nprocs 8
| 19> end
| 20> %scf
| 21>   MaxIter 150
| 22> end
| 23>
| 24>
| 25>                          ****END OF INPUT****

CARTESIAN COORDINATES (ANGSTROEM)
---------------------------------
  C      4.084220    1.742080   -2.114720
  C      4.265240    2.500520   -0.795890
  H      4.868530    3.392670   -0.981130
  H      3.307640    2.824570   -0.387810
  C      4.982240    1.650260    0.247420
  O      4.368060    1.389270    1.313710
  O      6.128920    1.233510   -0.045620
  C      3.412750    0.376890   -1.965500
  H      5.068470    1.598500   -2.565730
  H      3.503360    2.363940   -2.804570
  H      3.324560   -0.084220   -2.927010
  H      2.439230    0.502870   -1.539720
  H      4.004460   -0.243550   -1.325310

 Total Charge           Charge          ....   -1
 Multiplicity           Mult            ....    1
 Number of Electrons    NEL             ....   48
 Basis Dimension        Dim             ....  291

ORBITAL ENERGIES
----------------

  NO   OCC          E(Eh)            E(eV)
   0   2.0000     -18.965858      -516.0872
   1   2.0000     -18.965792      -516.0854
   2   2.0000     -10.159489      -276.4537
   3   2.0000     -10.126384      -275.5529
   4   2.0000     -10.116558      -275.2856
   5   2.0000     -10.100847      -274.8580
   6   2.0000      -0.938222       -25.5303
   7   2.0000      -0.842513       -22.9259
   8   2.0000      -0.754768       -20.5383
   9   2.0000      -0.656679       -17.8692
  10   2.0000      -0.555919       -15.1273
  11   2.0000      -0.432971       -11.7817
  12   2.0000      -0.405498       -11.0342
  13   2.0000      -0.392401       -10.6778
  14   2.0000      -0.354437        -9.6447
  15   2.0000      -0.335270        -9.1231
  16   2.0000      -0.309796        -8.4300
  17   2.0000      -0.303992        -8.2720
  18   2.0000      -0.291451        -7.9308
  19   2.0000      -0.268438        -7.3046
  20   2.0000      -0.258124        -7.0239
  21   2.0000      -0.143033        -3.8921
  22   2.0000      -0.136835        -3.7235
  23   2.0000      -0.124713        -3.3936
  24   0.0000       0.186102         5.0641
  25   0.0000       0.202484         5.5099
  26   0.0000       0.210876         5.7382
  27   0.0000       0.218405         5.9431
  28   0.0000       0.239894         6.5278

MULLIKEN ATOMIC CHARGES
-----------------------
   0 C :   -0.274403
   1 C :   -0.186819
   2 H :    0.209918
   3 H :    0.233624
   4 C :    0.323162
   5 O :   -0.766679
   6 O :   -0.758828
   7 C :   -1.228548
   8 H :    0.250439
   9 H :    0.233893
  10 H :    0.312857
  11 H :    0.307758
  12 H :    0.343627
Sum of atomic charges:   -1.0000000

LOEWDIN ATOMIC CHARGES
----------------------
   0 C :   -0.278182
   1 C :   -0.173229
   2 H :    0.098515
   3 H :    0.094969
   4 C :   -0.777404
   5 O :   -0.109172
   6 O :   -0.101862
   7 C :   -0.117924
   8 H :    0.096702
   9 H :    0.087593
  10 H :    0.049602
  11 H :    0.063276
  12 H :    0.067114

  Mayer bond orders larger than 0.100000
B(  0-C ,  1-C ) :   0.7894 B(  0-C ,  4-C ) :   0.1357 B(  0-C ,  7-C ) :   0.6709
B(  0-C ,  8-H ) :   0.9364 B(  0-C ,  9-H ) :   0.9532 B(  1-C ,  2-H ) :   0.9487
B(  1-C ,  3-H ) :   0.9767 B(  1-C ,  4-C ) :   0.8797 B(  4-C ,  5-O ) :   1.4385
B(  4-C ,  6-O ) :   1.4748 B(  7-C , 10-H ) :   0.9244 B(  7-C , 11-H ) :   0.9671
B(  7-C , 12-H ) :   0.9563

Dispersion correction           -0.003443983
FINAL SINGLE POINT ENERGY      -307.190419453976

DIPOLE MOMENT
-------------
                                X             Y             Z
Electronic contribution:      3.73045       0.39186       6.01351
Nuclear contribution   :     -4.94481       0.08097      -8.10693
                        -----------------------------------------
Total Dipole Moment    :     -1.21436       0.47283      -2.09341
                        -----------------------------------------
Magnitude (a.u.)       :      2.46589
Magnitude (Debye)      :      6.26779

Rotational constants in cm-1:     0.192263     0.082741     0.079730
Rotational constants in MHz :  5763.914333  2480.509926  2390.233107

                             ****ORCA TERMINATED NORMALLY****
TOTAL RUN TIME: 0 days 0 hours 0 minutes 36 seconds 473 msec
