                         Program Version 5.0.0 -  RELEASE  -
|  1> !wB97X-D3 RIJCOSX def2-TZVPD def2/J TightSCF
|  2> *xyz 1 1
|  3> C          3.91385       -1.65829        3.01513
|  4> N          5.03927       -0.90115        2.49282
|  5> C          6.21038       -1.41726        2.17824
|  6> N          6.53591       -2.67712        2.55608
|  7> N          7.07675       -0.70082        1.47891
|  8> H          7.95464       -1.12155        1.20755
|  9> H          6.75616        0.10664        0.96028
| 10> H          4.84217        0.01761        2.11519
| 11> H          5.99388       -3.12692        3.28278
| 12> H          7.49844       -2.97548        2.46878
| 13> C          3.13916       -2.37657        1.91061
| 14> H          3.26723       -0.93940        3.52069
| 15> H          4.24720       -2.35509        3.79006
| 16> C          2.39995       -1.38958        1.00949
| 17> H          2.44075       -3.08712        2.36298
| 18> H          3.84448       -2.97046        1.31868
| 19> H          1.87065       -1.92698        0.25058
| 20> H          3.10498       -0.72749        0.55181
| 21> H          1.70633       -0.82279        1.59477
| 22> *
| 23> %MaxCore 64000
| 24> %pal nprocs 8
| 25> end
| 26> %scf
| 27>   MaxIter 150
| 28> end
| 29>
| 30>
| 31>                          ****END OF INPUT****

CARTESIAN COORDINATES (ANGSTROEM)
---------------------------------
  C      3.913850   -1.658290    3.015130
  N      5.039270   -0.901150    2.492820
  C      6.210380   -1.417260    2.178240
  N      6.535910   -2.677120    2.556080
  N      7.076750   -0.700820    1.478910
  H      7.954640   -1.121550    1.207550
  H      6.756160    0.106640    0.960280
  H      4.842170    0.017610    2.115190
  H      5.993880   -3.126920    3.282780
  H      7.498440   -2.975480    2.468780
  C      3.139160   -2.376570    1.910610
  H      3.267230   -0.939400    3.520690
  H      4.247200   -2.355090    3.790060
  C      2.399950   -1.389580    1.009490
  H      2.440750   -3.087120    2.362980
  H      3.844480   -2.970460    1.318680
  H      1.870650   -1.926980    0.250580
  H      3.104980   -0.727490    0.551810
  H      1.706330   -0.822790    1.594770

 Total Charge           Charge          ....    1
 Multiplicity           Mult            ....    1
 Number of Electrons    NEL             ....   56
 Basis Dimension        Dim             ....  367

ORBITAL ENERGIES
----------------

  NO   OCC          E(Eh)            E(eV)
   0   2.0000     -14.645042      -398.5119
   1   2.0000     -14.643440      -398.4683
   2   2.0000     -14.640918      -398.3996
   3   2.0000     -10.612040      -288.7683
   4   2.0000     -10.478058      -285.1225
   5   2.0000     -10.416175      -283.4385
   6   2.0000     -10.387174      -282.6494
   7   2.0000      -1.333562       -36.2881
   8   2.0000      -1.222019       -33.2528
   9   2.0000      -1.204989       -32.7894
  10   2.0000      -1.056694       -28.7541
  11   2.0000      -0.975802       -26.5529
  12   2.0000      -0.931820       -25.3561
  13   2.0000      -0.889199       -24.1963
  14   2.0000      -0.870064       -23.6756
  15   2.0000      -0.834697       -22.7133
  16   2.0000      -0.789701       -21.4889
  17   2.0000      -0.782276       -21.2868
  18   2.0000      -0.756050       -20.5732
  19   2.0000      -0.728738       -19.8300
  20   2.0000      -0.697743       -18.9866
  21   2.0000      -0.678879       -18.4732
  22   2.0000      -0.647874       -17.6295
  23   2.0000      -0.600132       -16.3304
  24   2.0000      -0.582480       -15.8501
  25   2.0000      -0.579404       -15.7664
  26   2.0000      -0.568023       -15.4567
  27   2.0000      -0.536328       -14.5942
  28   0.0000      -0.089968        -2.4482
  29   0.0000      -0.086077        -2.3423
  30   0.0000      -0.058655        -1.5961
  31   0.0000      -0.047259        -1.2860
  32   0.0000      -0.025638        -0.6976

MULLIKEN ATOMIC CHARGES
-----------------------
   0 C :   -0.872662
   1 N :   -0.179830
   2 C :    0.757288
   3 N :   -0.356958
   4 N :   -0.416240
   5 H :    0.221637
   6 H :    0.230178
   7 H :    0.273311
   8 H :    0.213394
   9 H :    0.219591
  10 C :   -0.092340
  11 H :    0.364988
  12 H :    0.301112
  13 C :   -1.296178
  14 H :    0.337379
  15 H :    0.286297
  16 H :    0.331938
  17 H :    0.323043
  18 H :    0.354052
Sum of atomic charges:    1.0000000

LOEWDIN ATOMIC CHARGES
----------------------
   0 C :   -0.171958
   1 N :    0.088678
   2 C :   -0.423591
   3 N :    0.207584
   4 N :    0.202913
   5 H :    0.140495
   6 H :    0.143057
   7 H :    0.168053
   8 H :    0.122778
   9 H :    0.136887
  10 C :   -0.228651
  11 H :    0.136043
  12 H :    0.119379
  13 C :   -0.091331
  14 H :    0.121284
  15 H :    0.110501
  16 H :    0.078719
  17 H :    0.061361
  18 H :    0.077799

  Mayer bond orders larger than 0.100000
B(  0-C ,  1-N ) :   0.9956 B(  0-C , 10-C ) :   0.8451 B(  0-C , 11-H ) :   0.8723
B(  0-C , 12-H ) :   0.9162 B(  0-C , 13-C ) :   0.2243 B(  1-N ,  2-C ) :   1.2347
B(  1-N ,  4-N ) :   0.1166 B(  1-N ,  7-H ) :   0.9424 B(  2-C ,  3-N ) :   1.1346
B(  2-C ,  4-N ) :   1.0715 B(  3-N ,  8-H ) :   0.9456 B(  3-N ,  9-H ) :   1.0022
B(  4-N ,  5-H ) :   0.9941 B(  4-N ,  6-H ) :   0.9715 B( 10-C , 13-C ) :   0.6016
B( 10-C , 14-H ) :   0.9207 B( 10-C , 15-H ) :   0.9155 B( 13-C , 16-H ) :   0.9673
B( 13-C , 17-H ) :   0.9414 B( 13-C , 18-H ) :   0.9532

Dispersion correction           -0.005320907
FINAL SINGLE POINT ENERGY      -323.750392878566

DIPOLE MOMENT
-------------
                                X             Y             Z
Electronic contribution:      6.88341       1.01132       1.46514
Nuclear contribution   :     -5.22950      -0.81973      -1.43960
                        -----------------------------------------
Total Dipole Moment    :      1.65391       0.19159       0.02555
                        -----------------------------------------
Magnitude (a.u.)       :      1.66516
Magnitude (Debye)      :      4.23251

Rotational constants in cm-1:     0.158118     0.049676     0.044442
Rotational constants in MHz :  4740.256785  1489.254255  1332.331442

                             ****ORCA TERMINATED NORMALLY****
TOTAL RUN TIME: 0 days 0 hours 1 minutes 5 seconds 164 msec
