                         Program Version 5.0.0 -  RELEASE  -
|  1> !wB97X-D3 RIJCOSX def2-TZVPD def2/J TightSCF
|  2> *xyz 0 1
|  3> C          4.08422        1.74208       -2.11472
|  4> C          4.26524        2.50052       -0.79589
|  5> H          4.86853        3.39267       -0.98113
|  6> H          3.30764        2.82457       -0.38781
|  7> C          4.98224        1.65026        0.24742
|  8> F          4.36806        1.38927        1.31371
|  9> O          6.12892        1.23351       -0.04562
| 10> C          3.41275        0.37689       -1.96550
| 11> H          5.06847        1.59850       -2.56573
| 12> H          3.50336        2.36394       -2.80457
| 13> H          3.32456       -0.08422       -2.92701
| 14> H          2.43923        0.50287       -1.53972
| 15> H          4.00446       -0.24355       -1.32531
| 16> *
| 17> %MaxCore 64000
| 18> %pal nprocs 8
| 19> end
| 20> %scf
| 21>   MaxIter 150
| 22> end
| 23>
| 24>
| 25>                          ****END OF INPUT****

CARTESIAN COORDINATES (ANGSTROEM)
---------------------------------
  C      4.084220    1.742080   -2.114720
  C      4.265240    2.500520   -0.795890
  H      4.868530    3.392670   -0.981130
  H      3.307640    2.824570   -0.387810
  C      4.982240    1.650260    0.247420
  F      4.368060    1.389270    1.313710
  O      6.128920    1.233510   -0.045620
  C      3.412750    0.376890   -1.965500
  H      5.068470    1.598500   -2.565730
  H      3.503360    2.363940   -2.804570
  H      3.324560   -0.084220   -2.927010
  H      2.439230    0.502870   -1.539720
  H      4.004460   -0.243550   -1.325310

 Total Charge           Charge          ....    0
 Multiplicity           Mult            ....    1
 Number of Electrons    NEL             ....   48
 Basis Dimension        Dim             ....  291

ORBITAL ENERGIES
----------------

  NO   OCC          E(Eh)            E(eV)
   0   2.0000     -24.854756      -676.3323
   1   2.0000     -19.235537      -523.4256
   2   2.0000     -10.454896      -284.4922
   3   2.0000     -10.304987      -280.4130
   4   2.0000     -10.289951      -280.0038
   5   2.0000     -10.266472      -279.3649
   6   2.0000      -1.433943       -39.0196
   7   2.0000      -1.149415       -31.2772
   8   2.0000      -0.932539       -25.3757
   9   2.0000      -0.845037       -22.9946
  10   2.0000      -0.772787       -21.0286
  11   2.0000      -0.720473       -19.6051
  12   2.0000      -0.652738       -17.7619
  13   2.0000      -0.636177       -17.3113
  14   2.0000      -0.615716       -16.7545
  15   2.0000      -0.566491       -15.4150
  16   2.0000      -0.557651       -15.1745
  17   2.0000      -0.518187       -14.1006
  18   2.0000      -0.501331       -13.6419
  19   2.0000      -0.469253       -12.7690
  20   2.0000      -0.452069       -12.3014
  21   2.0000      -0.443164       -12.0591
  22   2.0000      -0.437444       -11.9035
  23   2.0000      -0.389466       -10.5979
  24   0.0000       0.051058         1.3894
  25   0.0000       0.066780         1.8172
  26   0.0000       0.086467         2.3529
  27   0.0000       0.090107         2.4519
  28   0.0000       0.094140         2.5617

MULLIKEN ATOMIC CHARGES
-----------------------
   0 C :   -0.290146
   1 C :   -0.280771
   2 H :    0.254210
   3 H :    0.301290
   4 C :    0.542303
   5 F :   -0.244836
   6 O :   -0.569067
   7 C :   -1.300655
   8 H :    0.292248
   9 H :    0.271250
  10 H :    0.323949
  11 H :    0.334464
  12 H :    0.365760
Sum of atomic charges:    0.0000000

LOEWDIN ATOMIC CHARGES
----------------------
   0 C :   -0.248575
   1 C :   -0.120437
   2 H :    0.124923
   3 H :    0.114518
   4 C :   -0.484718
   5 F :    0.205142
   6 O :    0.077304
   7 C :   -0.098605
   8 H :    0.111153
   9 H :    0.110130
  10 H :    0.069056
  11 H :    0.072023
  12 H :    0.068086

  Mayer bond orders larger than 0.100000
B(  0-C ,  1-C ) :   0.8343 B(  0-C ,  4-C ) :   0.1247 B(  0-C ,  7-C ) :   0.6234
B(  0-C ,  8-H ) :   0.9306 B(  0-C ,  9-H ) :   0.9404 B(  1-C ,  2-H ) :   0.9392
B(  1-C ,  3-H ) :   0.9290 B(  1-C ,  4-C ) :   0.8520 B(  4-C ,  5-F ) :   0.9079
B(  4-C ,  6-O ) :   1.6736 B(  4-C ,  7-C ) :   0.1302 B(  7-C , 10-H ) :   0.9406
B(  7-C , 11-H ) :   0.9544 B(  7-C , 12-H ) :   0.9198

Dispersion correction           -0.003354679
FINAL SINGLE POINT ENERGY      -331.757107799610

DIPOLE MOMENT
-------------
                                X             Y             Z
Electronic contribution:      3.77840       0.36511       9.81166
Nuclear contribution   :     -4.74589       0.16790     -10.21257
                        -----------------------------------------
Total Dipole Moment    :     -0.96749       0.53301      -0.40091
                        -----------------------------------------
Magnitude (a.u.)       :      1.17511
Magnitude (Debye)      :      2.98688

Rotational constants in cm-1:     0.185977     0.079908     0.076069
Rotational constants in MHz :  5575.451195  2395.576856  2280.481791

                             ****ORCA TERMINATED NORMALLY****
TOTAL RUN TIME: 0 days 0 hours 0 minutes 36 seconds 773 msec
