                         Program Version 5.0.0 -  RELEASE  -
|  1> !wB97X-D3 RIJCOSX def2-TZVPD def2/J TightSCF
|  2> *xyz 0 1
|  3> C          3.91385       -1.65829        3.01513
|  4> C          5.03927       -0.90115        2.49282
|  5> C          6.21038       -1.41726        2.17824
|  6> N          6.53591       -2.67712        2.55608
|  7> N          7.07675       -0.70082        1.47891
|  8> H          7.95464       -1.12155        1.20755
|  9> H          6.75616        0.10664        0.96028
| 10> H          4.84217        0.01761        2.11519
| 11> H          5.99388       -3.12692        3.28278
| 12> H          7.49844       -2.97548        2.46878
| 13> C          3.13916       -2.37657        1.91061
| 14> H          3.26723       -0.93940        3.52069
| 15> H          4.24720       -2.35509        3.79006
| 16> C          2.39995       -1.38958        1.00949
| 17> H          2.44075       -3.08712        2.36298
| 18> H          3.84448       -2.97046        1.31868
| 19> H          1.87065       -1.92698        0.25058
| 20> H          3.10498       -0.72749        0.55181
| 21> H          1.70633       -0.82279        1.59477
| 22> *
| 23> %MaxCore 64000
| 24> %pal nprocs 8
| 25> end
| 26> %scf
| 27>   MaxIter 150
| 28> end
| 29>
| 30>
| 31>                          ****END OF INPUT****

CARTESIAN COORDINATES (ANGSTROEM)
---------------------------------
  C      3.913850   -1.658290    3.015130
  C      5.039270   -0.901150    2.492820
  C      6.210380   -1.417260    2.178240
  N      6.535910   -2.677120    2.556080
  N      7.076750   -0.700820    1.478910
  H      7.954640   -1.121550    1.207550
  H      6.756160    0.106640    0.960280
  H      4.842170    0.017610    2.115190
  H      5.993880   -3.126920    3.282780
  H      7.498440   -2.975480    2.468780
  C      3.139160   -2.376570    1.910610
  H      3.267230   -0.939400    3.520690
  H      4.247200   -2.355090    3.790060
  C      2.399950   -1.389580    1.009490
  H      2.440750   -3.087120    2.362980
  H      3.844480   -2.970460    1.318680
  H      1.870650   -1.926980    0.250580
  H      3.104980   -0.727490    0.551810
  H      1.706330   -0.822790    1.594770

 Total Charge           Charge          ....    0
 Multiplicity           Mult            ....    1
 Number of Electrons    NEL             ....   56
 Basis Dimension        Dim             ....  367

ORBITAL ENERGIES
----------------

  NO   OCC          E(Eh)            E(eV)
   0   2.0000     -14.422477      -392.4556
   1   2.0000     -14.420558      -392.4033
   2   2.0000     -10.319240      -280.8008
   3   2.0000     -10.249464      -278.9021
   4   2.0000     -10.247574      -278.8507
   5   2.0000     -10.239576      -278.6330
   6   2.0000     -10.194446      -277.4050
   7   2.0000      -1.078548       -29.3488
   8   2.0000      -0.985850       -26.8263
   9   2.0000      -0.903893       -24.5962
  10   2.0000      -0.836094       -22.7513
  11   2.0000      -0.769823       -20.9479
  12   2.0000      -0.703446       -19.1417
  13   2.0000      -0.675017       -18.3682
  14   2.0000      -0.642533       -17.4842
  15   2.0000      -0.611324       -16.6350
  16   2.0000      -0.571622       -15.5546
  17   2.0000      -0.540760       -14.7148
  18   2.0000      -0.537575       -14.6282
  19   2.0000      -0.505871       -13.7655
  20   2.0000      -0.490938       -13.3591
  21   2.0000      -0.466525       -12.6948
  22   2.0000      -0.454623       -12.3709
  23   2.0000      -0.422253       -11.4901
  24   2.0000      -0.406935       -11.0733
  25   2.0000      -0.402918       -10.9640
  26   2.0000      -0.362035        -9.8515
  27   2.0000      -0.247975        -6.7477
  28   0.0000       0.063341         1.7236
  29   0.0000       0.087112         2.3704
  30   0.0000       0.089040         2.4229
  31   0.0000       0.099577         2.7096
  32   0.0000       0.112236         3.0541

MULLIKEN ATOMIC CHARGES
-----------------------
   0 C :   -0.506704
   1 C :   -0.729989
   2 C :    0.257045
   3 N :   -0.395245
   4 N :   -0.449456
   5 H :    0.170419
   6 H :    0.208951
   7 H :    0.412683
   8 H :    0.188438
   9 H :    0.167407
  10 C :   -0.144191
  11 H :    0.254904
  12 H :    0.346977
  13 C :   -1.334894
  14 H :    0.262369
  15 H :    0.284966
  16 H :    0.322219
  17 H :    0.343660
  18 H :    0.340441
Sum of atomic charges:   -0.0000000

LOEWDIN ATOMIC CHARGES
----------------------
   0 C :   -0.247356
   1 C :   -0.150706
   2 C :   -0.537126
   3 N :    0.122018
   4 N :    0.104748
   5 H :    0.100748
   6 H :    0.114079
   7 H :    0.070611
   8 H :    0.096244
   9 H :    0.098092
  10 C :   -0.259980
  11 H :    0.108999
  12 H :    0.096745
  13 C :   -0.111671
  14 H :    0.100097
  15 H :    0.105457
  16 H :    0.061181
  17 H :    0.061053
  18 H :    0.066768

  Mayer bond orders larger than 0.100000
B(  0-C ,  1-C ) :   0.6438 B(  0-C , 10-C ) :   0.6458 B(  0-C , 11-H ) :   1.0253
B(  0-C , 12-H ) :   0.9673 B(  0-C , 13-C ) :   0.2523 B(  1-C ,  2-C ) :   1.4836
B(  1-C ,  7-H ) :   0.8539 B(  1-C , 10-C ) :   0.1800 B(  1-C , 12-H ) :  -0.1498
B(  1-C , 13-C ) :   0.1818 B(  2-C ,  3-N ) :   1.0324 B(  2-C ,  4-N ) :   1.0643
B(  2-C ,  7-H ) :  -0.1608 B(  3-N ,  8-H ) :   0.9504 B(  3-N ,  9-H ) :   1.0417
B(  4-N ,  5-H ) :   1.0244 B(  4-N ,  6-H ) :   0.9744 B( 10-C , 13-C ) :   0.5349
B( 10-C , 14-H ) :   0.9536 B( 10-C , 15-H ) :   0.9467 B( 13-C , 16-H ) :   0.9425
B( 13-C , 17-H ) :   0.9617 B( 13-C , 18-H ) :   0.9519

Dispersion correction           -0.005293992
FINAL SINGLE POINT ENERGY      -307.264963592996

DIPOLE MOMENT
-------------
                                X             Y             Z
Electronic contribution:      6.10267       0.39701       1.08028
Nuclear contribution   :     -5.20491      -0.66934      -1.34917
                        -----------------------------------------
Total Dipole Moment    :      0.89777      -0.27233      -0.26889
                        -----------------------------------------
Magnitude (a.u.)       :      0.97594
Magnitude (Debye)      :      2.48064

Rotational constants in cm-1:     0.160002     0.049848     0.044470
Rotational constants in MHz :  4796.743477  1494.412607  1333.165890

                             ****ORCA TERMINATED NORMALLY****
TOTAL RUN TIME: 0 days 0 hours 1 minutes 10 seconds 373 msec
