                         Program Version 5.0.0 -  RELEASE  -
|  1> !wB97X-D3 RIJCOSX def2-TZVPD def2/J TightSCF
|  2> *xyz 0 1
|  3> C          4.08422        1.74208       -2.11472
|  4> C          4.26524        2.50052       -0.79589
|  5> H          4.86853        3.39267       -0.98113
|  6> H          3.30764        2.82457       -0.38781
|  7> C          4.98224        1.65026        0.24742
|  8> O          4.36806        1.38927        1.31371
|  9> F          6.12892        1.23351       -0.04562
| 10> C          3.41275        0.37689       -1.96550
| 11> H          5.06847        1.59850       -2.56573
| 12> H          3.50336        2.36394       -2.80457
| 13> H          3.32456       -0.08422       -2.92701
| 14> H          2.43923        0.50287       -1.53972
| 15> H          4.00446       -0.24355       -1.32531
| 16> *
| 17> %MaxCore 64000
| 18> %pal nprocs 8
| 19> end
| 20> %scf
| 21>   MaxIter 150
| 22> end
| 23>
| 24>
| 25>                          ****END OF INPUT****

CARTESIAN COORDINATES (ANGSTROEM)
---------------------------------
  C      4.084220    1.742080   -2.114720
  C      4.265240    2.500520   -0.795890
  H      4.868530    3.392670   -0.981130
  H      3.307640    2.824570   -0.387810
  C      4.982240    1.650260    0.247420
  O      4.368060    1.389270    1.313710
  F      6.128920    1.233510   -0.045620
  C      3.412750    0.376890   -1.965500
  H      5.068470    1.598500   -2.565730
  H      3.503360    2.363940   -2.804570
  H      3.324560   -0.084220   -2.927010
  H      2.439230    0.502870   -1.539720
  H      4.004460   -0.243550   -1.325310

 Total Charge           Charge          ....    0
 Multiplicity           Mult            ....    1
 Number of Electrons    NEL             ....   48
 Basis Dimension        Dim             ....  291

ORBITAL ENERGIES
----------------

  NO   OCC          E(Eh)            E(eV)
   0   2.0000     -24.856128      -676.3696
   1   2.0000     -19.234898      -523.4082
   2   2.0000     -10.454264      -284.4750
   3   2.0000     -10.304479      -280.3991
   4   2.0000     -10.293984      -280.1135
   5   2.0000     -10.268389      -279.4171
   6   2.0000      -1.436743       -39.0958
   7   2.0000      -1.146117       -31.1874
   8   2.0000      -0.936390       -25.4805
   9   2.0000      -0.845296       -23.0017
  10   2.0000      -0.771773       -21.0010
  11   2.0000      -0.725463       -19.7409
  12   2.0000      -0.656757       -17.8713
  13   2.0000      -0.645337       -17.5605
  14   2.0000      -0.599875       -16.3234
  15   2.0000      -0.573699       -15.6111
  16   2.0000      -0.558913       -15.2088
  17   2.0000      -0.518648       -14.1131
  18   2.0000      -0.498025       -13.5520
  19   2.0000      -0.470284       -12.7971
  20   2.0000      -0.461227       -12.5506
  21   2.0000      -0.446088       -12.1387
  22   2.0000      -0.440200       -11.9784
  23   2.0000      -0.383650       -10.4397
  24   0.0000       0.053158         1.4465
  25   0.0000       0.066511         1.8099
  26   0.0000       0.086966         2.3665
  27   0.0000       0.089486         2.4350
  28   0.0000       0.092594         2.5196

MULLIKEN ATOMIC CHARGES
-----------------------
   0 C :   -0.348908
   1 C :   -0.240051
   2 H :    0.284095
   3 H :    0.261281
   4 C :    0.533978
   5 O :   -0.583006
   6 F :   -0.237194
   7 C :   -1.248149
   8 H :    0.293317
   9 H :    0.262742
  10 H :    0.327096
  11 H :    0.335416
  12 H :    0.359381
Sum of atomic charges:    0.0000000

LOEWDIN ATOMIC CHARGES
----------------------
   0 C :   -0.252683
   1 C :   -0.117464
   2 H :    0.121234
   3 H :    0.123439
   4 C :   -0.491244
   5 O :    0.072829
   6 F :    0.210467
   7 C :   -0.097044
   8 H :    0.107210
   9 H :    0.110406
  10 H :    0.068514
  11 H :    0.076112
  12 H :    0.068224

  Mayer bond orders larger than 0.100000
B(  0-C ,  1-C ) :   0.7939 B(  0-C ,  4-C ) :   0.1256 B(  0-C ,  7-C ) :   0.6888
B(  0-C ,  8-H ) :   0.9255 B(  0-C ,  9-H ) :   0.9490 B(  1-C ,  2-H ) :   0.9344
B(  1-C ,  3-H ) :   0.9715 B(  1-C ,  4-C ) :   0.8665 B(  4-C ,  5-O ) :   1.6399
B(  4-C ,  6-F ) :   0.9130 B(  4-C ,  7-C ) :   0.1292 B(  7-C , 10-H ) :   0.9471
B(  7-C , 11-H ) :   0.9628 B(  7-C , 12-H ) :   0.9126

Dispersion correction           -0.003364086
FINAL SINGLE POINT ENERGY      -331.756213560530

DIPOLE MOMENT
-------------
                                X             Y             Z
Electronic contribution:      6.75935       0.10289       7.47400
Nuclear contribution   :     -6.73491       0.34384      -8.67711
                        -----------------------------------------
Total Dipole Moment    :      0.02444       0.44674      -1.20310
                        -----------------------------------------
Magnitude (a.u.)       :      1.28360
Magnitude (Debye)      :      3.26265

Rotational constants in cm-1:     0.183378     0.080817     0.077085
Rotational constants in MHz :  5497.543257  2422.830825  2310.936171

                             ****ORCA TERMINATED NORMALLY****
TOTAL RUN TIME: 0 days 0 hours 0 minutes 36 seconds 157 msec
