                         Program Version 5.0.0 -  RELEASE  -
|  1> !wB97X-D3 RIJCOSX def2-TZVPD def2/J TightSCF
|  2> *xyz 0 1
|  3> C          3.91385       -1.65829        3.01513
|  4> N          5.03927       -0.90115        2.49282
|  5> C          6.21038       -1.41726        2.17824
|  6> C          6.53591       -2.67712        2.55608
|  7> N          7.07675       -0.70082        1.47891
|  8> H          7.95464       -1.12155        1.20755
|  9> H          6.75616        0.10664        0.96028
| 10> H          4.84217        0.01761        2.11519
| 11> H          5.99388       -3.12692        3.28278
| 12> H          7.49844       -2.97548        2.46878
| 13> C          3.13916       -2.37657        1.91061
| 14> H          3.26723       -0.93940        3.52069
| 15> H          4.24720       -2.35509        3.79006
| 16> C          2.39995       -1.38958        1.00949
| 17> H          2.44075       -3.08712        2.36298
| 18> H          3.84448       -2.97046        1.31868
| 19> H          1.87065       -1.92698        0.25058
| 20> H          3.10498       -0.72749        0.55181
| 21> H          1.70633       -0.82279        1.59477
| 22> *
| 23> %MaxCore 64000
| 24> %pal nprocs 8
| 25> end
| 26> %scf
| 27>   MaxIter 150
| 28> end
| 29>
| 30>
| 31>                          ****END OF INPUT****

CARTESIAN COORDINATES (ANGSTROEM)
---------------------------------
  C      3.913850   -1.658290    3.015130
  N      5.039270   -0.901150    2.492820
  C      6.210380   -1.417260    2.178240
  C      6.535910   -2.677120    2.556080
  N      7.076750   -0.700820    1.478910
  H      7.954640   -1.121550    1.207550
  H      6.756160    0.106640    0.960280
  H      4.842170    0.017610    2.115190
  H      5.993880   -3.126920    3.282780
  H      7.498440   -2.975480    2.468780
  C      3.139160   -2.376570    1.910610
  H      3.267230   -0.939400    3.520690
  H      4.247200   -2.355090    3.790060
  C      2.399950   -1.389580    1.009490
  H      2.440750   -3.087120    2.362980
  H      3.844480   -2.970460    1.318680
  H      1.870650   -1.926980    0.250580
  H      3.104980   -0.727490    0.551810
  H      1.706330   -0.822790    1.594770

 Total Charge           Charge          ....    0
 Multiplicity           Mult            ....    1
 Number of Electrons    NEL             ....   56
 Basis Dimension        Dim             ....  367

ORBITAL ENERGIES
----------------

  NO   OCC          E(Eh)            E(eV)
   0   2.0000     -14.427035      -392.5796
   1   2.0000     -14.423734      -392.4898
   2   2.0000     -10.325751      -280.9780
   3   2.0000     -10.306046      -280.4418
   4   2.0000     -10.266368      -279.3621
   5   2.0000     -10.257492      -279.1206
   6   2.0000     -10.183582      -277.1093
   7   2.0000      -1.092430       -29.7265
   8   2.0000      -1.007025       -27.4025
   9   2.0000      -0.896118       -24.3846
  10   2.0000      -0.823847       -22.4180
  11   2.0000      -0.803309       -21.8591
  12   2.0000      -0.718116       -19.5409
  13   2.0000      -0.664465       -18.0810
  14   2.0000      -0.654260       -17.8033
  15   2.0000      -0.624045       -16.9811
  16   2.0000      -0.575737       -15.6666
  17   2.0000      -0.550860       -14.9897
  18   2.0000      -0.530948       -14.4478
  19   2.0000      -0.504691       -13.7333
  20   2.0000      -0.498151       -13.5554
  21   2.0000      -0.478675       -13.0254
  22   2.0000      -0.465214       -12.6591
  23   2.0000      -0.444373       -12.0920
  24   2.0000      -0.433814       -11.8047
  25   2.0000      -0.429639       -11.6911
  26   2.0000      -0.344954        -9.3867
  27   2.0000      -0.251722        -6.8497
  28   0.0000       0.062199         1.6925
  29   0.0000       0.083675         2.2769
  30   0.0000       0.088500         2.4082
  31   0.0000       0.092349         2.5130
  32   0.0000       0.112715         3.0671

MULLIKEN ATOMIC CHARGES
-----------------------
   0 C :   -0.799435
   1 N :   -0.253741
   2 C :    0.976516
   3 C :   -1.559677
   4 N :   -0.454909
   5 H :    0.201033
   6 H :    0.184312
   7 H :    0.244601
   8 H :    0.294476
   9 H :    0.387805
  10 C :   -0.145356
  11 H :    0.344655
  12 H :    0.268747
  13 C :   -1.295737
  14 H :    0.312712
  15 H :    0.319161
  16 H :    0.323140
  17 H :    0.321581
  18 H :    0.330117
Sum of atomic charges:   -0.0000000

LOEWDIN ATOMIC CHARGES
----------------------
   0 C :   -0.201686
   1 N :    0.015455
   2 C :   -0.560708
   3 C :   -0.000243
   4 N :    0.110653
   5 H :    0.113269
   6 H :    0.104177
   7 H :    0.139201
   8 H :   -0.003148
   9 H :    0.005625
  10 C :   -0.240466
  11 H :    0.117612
  12 H :    0.109918
  13 C :   -0.111805
  14 H :    0.107280
  15 H :    0.106842
  16 H :    0.064337
  17 H :    0.058192
  18 H :    0.065496

  Mayer bond orders larger than 0.100000
B(  0-C ,  1-N ) :   0.9733 B(  0-C ,  3-C ) :   0.1369 B(  0-C , 10-C ) :   0.8311
B(  0-C , 11-H ) :   0.8478 B(  0-C , 12-H ) :   0.9327 B(  0-C , 13-C ) :   0.2389
B(  1-N ,  2-C ) :   1.0468 B(  1-N ,  7-H ) :   0.9514 B(  2-C ,  3-C ) :   0.9511
B(  2-C ,  4-N ) :   0.9519 B(  2-C ,  9-H ) :  -0.1217 B(  3-C ,  4-N ) :   0.1119
B(  3-C ,  8-H ) :   1.0125 B(  3-C ,  9-H ) :   0.9583 B(  4-N ,  5-H ) :   0.9812
B(  4-N ,  6-H ) :   1.0102 B( 10-C , 13-C ) :   0.5397 B( 10-C , 14-H ) :   0.9262
B( 10-C , 15-H ) :   0.9361 B( 13-C , 16-H ) :   0.9535 B( 13-C , 17-H ) :   0.9696
B( 13-C , 18-H ) :   0.9623

Dispersion correction           -0.005320703
FINAL SINGLE POINT ENERGY      -307.256012989331

DIPOLE MOMENT
-------------
                                X             Y             Z
Electronic contribution:      4.51433       1.97929       0.88370
Nuclear contribution   :     -4.87706      -1.05838      -1.33532
                        -----------------------------------------
Total Dipole Moment    :     -0.36273       0.92091      -0.45161
                        -----------------------------------------
Magnitude (a.u.)       :      1.08793
Magnitude (Debye)      :      2.76531

Rotational constants in cm-1:     0.163042     0.050484     0.045356
Rotational constants in MHz :  4887.864082  1513.473419  1359.735450

                             ****ORCA TERMINATED NORMALLY****
TOTAL RUN TIME: 0 days 0 hours 1 minutes 5 seconds 328 msec
