                         Program Version 5.0.0 -  RELEASE  -
|  1> !wB97X-D3 RIJCOSX def2-TZVPD def2/J TightSCF
|  2> *xyz 0 1
|  3> C          3.91385       -1.65829        3.01513
|  4> N          5.03927       -0.90115        2.49282
|  5> C          6.21038       -1.41726        2.17824
|  6> N          6.53591       -2.67712        2.55608
|  7> C          7.07675       -0.70082        1.47891
|  8> H          7.95464       -1.12155        1.20755
|  9> H          6.75616        0.10664        0.96028
| 10> H          4.84217        0.01761        2.11519
| 11> H          5.99388       -3.12692        3.28278
| 12> H          7.49844       -2.97548        2.46878
| 13> C          3.13916       -2.37657        1.91061
| 14> H          3.26723       -0.93940        3.52069
| 15> H          4.24720       -2.35509        3.79006
| 16> C          2.39995       -1.38958        1.00949
| 17> H          2.44075       -3.08712        2.36298
| 18> H          3.84448       -2.97046        1.31868
| 19> H          1.87065       -1.92698        0.25058
| 20> H          3.10498       -0.72749        0.55181
| 21> H          1.70633       -0.82279        1.59477
| 22> *
| 23> %MaxCore 64000
| 24> %pal nprocs 8
| 25> end
| 26> %scf
| 27>   MaxIter 150
| 28> end
| 29>
| 30>
| 31>                          ****END OF INPUT****

CARTESIAN COORDINATES (ANGSTROEM)
---------------------------------
  C      3.913850   -1.658290    3.015130
  N      5.039270   -0.901150    2.492820
  C      6.210380   -1.417260    2.178240
  N      6.535910   -2.677120    2.556080
  C      7.076750   -0.700820    1.478910
  H      7.954640   -1.121550    1.207550
  H      6.756160    0.106640    0.960280
  H      4.842170    0.017610    2.115190
  H      5.993880   -3.126920    3.282780
  H      7.498440   -2.975480    2.468780
  C      3.139160   -2.376570    1.910610
  H      3.267230   -0.939400    3.520690
  H      4.247200   -2.355090    3.790060
  C      2.399950   -1.389580    1.009490
  H      2.440750   -3.087120    2.362980
  H      3.844480   -2.970460    1.318680
  H      1.870650   -1.926980    0.250580
  H      3.104980   -0.727490    0.551810
  H      1.706330   -0.822790    1.594770

 Total Charge           Charge          ....    0
 Multiplicity           Mult            ....    1
 Number of Electrons    NEL             ....   56
 Basis Dimension        Dim             ....  367

ORBITAL ENERGIES
----------------

  NO   OCC          E(Eh)            E(eV)
   0   2.0000     -14.422774      -392.4636
   1   2.0000     -14.421142      -392.4192
   2   2.0000     -10.322542      -280.8906
   3   2.0000     -10.313925      -280.6562
   4   2.0000     -10.273575      -279.5582
   5   2.0000     -10.260652      -279.2065
   6   2.0000     -10.181733      -277.0590
   7   2.0000      -1.087093       -29.5813
   8   2.0000      -0.999111       -27.1872
   9   2.0000      -0.906466       -24.6662
  10   2.0000      -0.840311       -22.8660
  11   2.0000      -0.783372       -21.3166
  12   2.0000      -0.720027       -19.5929
  13   2.0000      -0.695849       -18.9350
  14   2.0000      -0.637297       -17.3417
  15   2.0000      -0.603176       -16.4132
  16   2.0000      -0.576030       -15.6746
  17   2.0000      -0.560203       -15.2439
  18   2.0000      -0.540248       -14.7009
  19   2.0000      -0.510016       -13.8782
  20   2.0000      -0.494031       -13.4433
  21   2.0000      -0.487565       -13.2673
  22   2.0000      -0.463682       -12.6174
  23   2.0000      -0.446202       -12.1418
  24   2.0000      -0.441136       -12.0039
  25   2.0000      -0.436689       -11.8829
  26   2.0000      -0.348929        -9.4948
  27   2.0000      -0.250596        -6.8191
  28   0.0000       0.064473         1.7544
  29   0.0000       0.079980         2.1764
  30   0.0000       0.088105         2.3975
  31   0.0000       0.089377         2.4321
  32   0.0000       0.113942         3.1005

MULLIKEN ATOMIC CHARGES
-----------------------
   0 C :   -0.863590
   1 N :   -0.160870
   2 C :    0.964712
   3 N :   -0.403919
   4 C :   -1.595641
   5 H :    0.325801
   6 H :    0.331510
   7 H :    0.232615
   8 H :    0.162489
   9 H :    0.189431
  10 C :   -0.093114
  11 H :    0.328757
  12 H :    0.279324
  13 C :   -1.280118
  14 H :    0.316244
  15 H :    0.295246
  16 H :    0.318014
  17 H :    0.325895
  18 H :    0.327214
Sum of atomic charges:    0.0000000

LOEWDIN ATOMIC CHARGES
----------------------
   0 C :   -0.205936
   1 N :    0.018134
   2 C :   -0.558909
   3 N :    0.117339
   4 C :   -0.010222
   5 H :    0.007466
   6 H :    0.010217
   7 H :    0.146391
   8 H :    0.086862
   9 H :    0.109584
  10 C :   -0.244880
  11 H :    0.118148
  12 H :    0.105401
  13 C :   -0.107859
  14 H :    0.105161
  15 H :    0.108216
  16 H :    0.065174
  17 H :    0.062898
  18 H :    0.066815

  Mayer bond orders larger than 0.100000
B(  0-C ,  1-N ) :   1.0033 B(  0-C , 10-C ) :   0.8051 B(  0-C , 11-H ) :   0.9132
B(  0-C , 12-H ) :   0.9374 B(  0-C , 13-C ) :   0.2318 B(  1-N ,  2-C ) :   1.1149
B(  1-N ,  4-C ) :   0.1182 B(  1-N ,  7-H ) :   0.9097 B(  2-C ,  3-N ) :   0.9804
B(  2-C ,  4-C ) :   0.8718 B(  2-C ,  5-H ) :  -0.1483 B(  3-N ,  8-H ) :   1.0028
B(  3-N ,  9-H ) :   0.9887 B(  4-C ,  5-H ) :   1.0720 B(  4-C ,  6-H ) :   0.9126
B( 10-C , 13-C ) :   0.5568 B( 10-C , 14-H ) :   0.9442 B( 10-C , 15-H ) :   0.9278
B( 13-C , 16-H ) :   0.9548 B( 13-C , 17-H ) :   0.9637 B( 13-C , 18-H ) :   0.9647

Dispersion correction           -0.005364493
FINAL SINGLE POINT ENERGY      -307.256140934648

DIPOLE MOMENT
-------------
                                X             Y             Z
Electronic contribution:      3.95283       0.07878       2.04855
Nuclear contribution   :     -4.75859      -0.62546      -1.57128
                        -----------------------------------------
Total Dipole Moment    :     -0.80575      -0.54667       0.47727
                        -----------------------------------------
Magnitude (a.u.)       :      1.08438
Magnitude (Debye)      :      2.75627

Rotational constants in cm-1:     0.161886     0.051080     0.045854
Rotational constants in MHz :  4853.220099  1531.326912  1374.680035

                             ****ORCA TERMINATED NORMALLY****
TOTAL RUN TIME: 0 days 0 hours 1 minutes 5 seconds 707 msec
