                         Program Version 5.0.0 -  RELEASE  -
|  1> !wB97X-D3 RIJCOSX def2-TZVPD def2/J TightSCF xyzfile
|  2>
|  3> *xyzfile 0 1 D1.xyz
|  4>
|  5> %MaxCore 64000
|  6>
|  7> %pal nprocs 18
|  8> end
|  9>
| 10> %scf
| 11>   MaxIter 150
| 12> end
| 13>
| 14>
| 15>                          ****END OF INPUT****

CARTESIAN COORDINATES (ANGSTROEM)
---------------------------------
  C      3.913853   -1.658291    3.015134
  C      5.039266   -0.901154    2.492821
  C      4.084215    1.742081   -2.114724
  C      4.265245    2.500518   -0.795890
  H      4.868534    3.392674   -0.981134
  H      3.307640    2.824571   -0.387809
  C      4.982240    1.650257    0.247422
  C      6.210384   -1.417261    2.178244
  N      6.535913   -2.677122    2.556078
  N      7.076754   -0.700820    1.478906
  H      7.954643   -1.121554    1.207554
  H      6.756161    0.106637    0.960278
  H      4.842168    0.017609    2.115191
  H      5.993876   -3.126918    3.282784
  H      7.498441   -2.975482    2.468776
  F      4.368065    1.389270    1.313706
  O      6.128919    1.233512   -0.045620
  C      3.139159   -2.376572    1.910609
  H      3.267235   -0.939401    3.520693
  H      4.247195   -2.355095    3.790065
  C      1.997274    0.430918   -1.399218
  C      3.412746    0.376886   -1.965497
  H      4.047407   -0.246590   -1.326706
  H      3.390774   -0.118719   -2.942839
  H      5.068475    1.598504   -2.565728
  H      3.503356    2.363939   -2.804565
  C      2.399946   -1.389579    1.009490
  H      2.440750   -3.087118    2.362976
  H      3.844475   -2.970462    1.318677
  C      2.070177   -1.936705   -0.372401
  H      1.481611   -1.061542    1.509912
  H      3.008628   -0.490001    0.897451
  C      1.322238   -0.935775   -1.256413
  H      1.472747   -2.850902   -0.283997
  H      3.003539   -2.234041   -0.862535
  H      1.376444    1.058920   -2.047420
  H      2.015341    0.929780   -0.426535
  H      0.316648   -0.787213   -0.848278
  H      1.185611   -1.379252   -2.248613

 Total Charge           Charge          ....    0
 Multiplicity           Mult            ....    1
 Number of Electrons    NEL             ....  126
 Basis Dimension        Dim             ....  805

ORBITAL ENERGIES
----------------

  NO   OCC          E(Eh)            E(eV)
   0   2.0000     -24.869970      -676.7463
   1   2.0000     -19.258319      -524.0455
   2   2.0000     -14.405675      -391.9984
   3   2.0000     -14.379773      -391.2935
   4   2.0000     -10.477010      -285.0939
   5   2.0000     -10.313850      -280.6541
   6   2.0000     -10.299099      -280.2527
   7   2.0000     -10.293902      -280.1113
   8   2.0000     -10.277825      -279.6738
   9   2.0000     -10.272744      -279.5356
  10   2.0000     -10.266599      -279.3684
  11   2.0000     -10.258789      -279.1558
  12   2.0000     -10.252366      -278.9811
  13   2.0000     -10.243860      -278.7496
  14   2.0000     -10.238569      -278.6056
  15   2.0000     -10.169372      -276.7227
  16   2.0000      -1.453948       -39.5639
  17   2.0000      -1.177862       -32.0513
  18   2.0000      -1.054770       -28.7018
  19   2.0000      -0.961794       -26.1717
  20   2.0000      -0.950578       -25.8665
  21   2.0000      -0.921338       -25.0709
  22   2.0000      -0.892190       -24.2777
  23   2.0000      -0.861949       -23.4548
  24   2.0000      -0.823563       -22.4103
  25   2.0000      -0.800025       -21.7698
  26   2.0000      -0.773146       -21.0384
  27   2.0000      -0.747677       -20.3453
  28   2.0000      -0.714482       -19.4420
  29   2.0000      -0.696492       -18.9525
  30   2.0000      -0.674509       -18.3543
  31   2.0000      -0.667265       -18.1572
  32   2.0000      -0.662942       -18.0396
  33   2.0000      -0.659123       -17.9356
  34   2.0000      -0.630769       -17.1641
  35   2.0000      -0.617056       -16.7910
  36   2.0000      -0.591496       -16.0954
  37   2.0000      -0.583013       -15.8646
  38   2.0000      -0.579559       -15.7706
  39   2.0000      -0.561135       -15.2693
  40   2.0000      -0.547258       -14.8916
  41   2.0000      -0.536364       -14.5952
  42   2.0000      -0.527050       -14.3418
  43   2.0000      -0.516891       -14.0653
  44   2.0000      -0.512923       -13.9574
  45   2.0000      -0.506932       -13.7943
  46   2.0000      -0.489083       -13.3086
  47   2.0000      -0.486308       -13.2331
  48   2.0000      -0.467413       -12.7190
  49   2.0000      -0.461214       -12.5503
  50   2.0000      -0.460140       -12.5210
  51   2.0000      -0.455678       -12.3996
  52   2.0000      -0.443531       -12.0691
  53   2.0000      -0.432043       -11.7565
  54   2.0000      -0.429092       -11.6762
  55   2.0000      -0.416165       -11.3244
  56   2.0000      -0.404184       -10.9984
  57   2.0000      -0.400065       -10.8863
  58   2.0000      -0.396607       -10.7922
  59   2.0000      -0.390725       -10.6322
  60   2.0000      -0.384168       -10.4537
  61   2.0000      -0.337754        -9.1908
  62   2.0000      -0.228698        -6.2232
  63   0.0000       0.033410         0.9091
  64   0.0000       0.063246         1.7210
  65   0.0000       0.071389         1.9426
  66   0.0000       0.076463         2.0807
  67   0.0000       0.078873         2.1462

MULLIKEN ATOMIC CHARGES
-----------------------
   0 C :   -0.657865
   1 C :   -0.491180
   2 C :   -0.641763
   3 C :   -0.470611
   4 H :    0.319062
   5 H :    0.318220
   6 C :    0.740753
   7 C :   -0.325905
   8 N :   -0.378032
   9 N :   -0.328310
  10 H :    0.172076
  11 H :    0.249386
  12 H :    0.497518
  13 H :    0.202608
  14 H :    0.156757
  15 F :   -0.252174
  16 O :   -0.739094
  17 C :   -0.539671
  18 H :    0.281096
  19 H :    0.451022
  20 C :   -0.427686
  21 C :   -0.545578
  22 H :    0.273718
  23 H :    0.307317
  24 H :    0.312294
  25 H :    0.290905
  26 C :    0.446435
  27 H :    0.301609
  28 H :    0.345674
  29 C :   -0.433511
  30 H :    0.294014
  31 H :   -0.706024
  32 C :   -0.802544
  33 H :    0.291915
  34 H :    0.341772
  35 H :    0.285696
  36 H :    0.264668
  37 H :    0.297408
  38 H :    0.298021
Sum of atomic charges:    0.0000000

LOEWDIN ATOMIC CHARGES
----------------------
   0 C :   -0.227566
   1 C :   -0.139588
   2 C :   -0.191481
   3 C :   -0.094058
   4 H :    0.129350
   5 H :    0.115130
   6 C :   -0.423514
   7 C :   -0.519509
   8 N :    0.120667
   9 N :    0.117823
  10 H :    0.101990
  11 H :    0.031103
  12 H :    0.031971
  13 H :    0.093052
  14 H :    0.096109
  15 F :    0.186305
  16 O :    0.085096
  17 C :   -0.202253
  18 H :    0.111449
  19 H :    0.096778
  20 C :   -0.218220
  21 C :   -0.207111
  22 H :    0.109097
  23 H :    0.123446
  24 H :    0.115650
  25 H :    0.118227
  26 C :   -0.217660
  27 H :    0.108011
  28 H :    0.113255
  29 C :   -0.218122
  30 H :    0.125590
  31 H :    0.080206
  32 C :   -0.212145
  33 H :    0.115012
  34 H :    0.110211
  35 H :    0.116867
  36 H :    0.098810
  37 H :    0.110502
  38 H :    0.109520

  Mayer bond orders larger than 0.100000
B(  0-C ,  1-C ) :   0.5540 B(  0-C ,  7-C ) :   0.1006 B(  0-C , 12-H ) :  -0.1385
B(  0-C , 17-C ) :   0.7169 B(  0-C , 18-H ) :   1.0232 B(  0-C , 19-H ) :   0.9437
B(  0-C , 26-C ) :   0.3541 B(  0-C , 31-H ) :   0.1007 B(  1-C ,  7-C ) :   1.5276
B(  1-C ,  8-N ) :  -0.1413 B(  1-C ,  9-N ) :  -0.1145 B(  1-C , 12-H ) :   0.5438
B(  1-C , 13-H ) :  -0.1032 B(  1-C , 17-C ) :   0.1082 B(  1-C , 18-H ) :  -0.1118
B(  1-C , 19-H ) :  -0.2593 B(  1-C , 26-C ) :   0.1243 B(  2-C ,  3-C ) :   0.8313
B(  2-C ,  6-C ) :   0.2113 B(  2-C , 20-C ) :   0.2774 B(  2-C , 21-C ) :   1.0153
B(  2-C , 24-H ) :   0.9035 B(  2-C , 25-H ) :   0.9215 B(  3-C ,  4-H ) :   0.8308
B(  3-C ,  5-H ) :   0.9741 B(  3-C ,  6-C ) :   0.9549 B(  3-C , 20-C ) :   0.1733
B(  6-C , 15-F ) :   0.9076 B(  6-C , 16-O ) :   1.4808 B(  6-C , 21-C ) :   0.1309
B(  7-C ,  8-N ) :   1.1739 B(  7-C ,  9-N ) :   1.1980 B(  7-C , 13-H ) :   0.1360
B(  7-C , 17-C ) :   0.1198 B(  8-N , 13-H ) :   0.9304 B(  8-N , 14-H ) :   1.0458
B(  9-N , 10-H ) :   0.9972 B(  9-N , 11-H ) :   0.8765 B( 12-H , 15-F ) :  -0.2503
B( 17-C , 26-C ) :   0.6291 B( 17-C , 27-H ) :   0.9682 B( 17-C , 28-H ) :   0.8375
B( 17-C , 29-C ) :   0.5821 B( 17-C , 30-H ) :  -0.1369 B( 20-C , 21-C ) :   0.3004
B( 20-C , 22-H ) :  -0.1097 B( 20-C , 26-C ) :   0.1141 B( 20-C , 32-C ) :   0.9638
B( 20-C , 35-H ) :   0.8868 B( 20-C , 36-H ) :   1.0206 B( 21-C , 22-H ) :   1.0629
B( 21-C , 23-H ) :   0.8469 B( 21-C , 29-C ) :   0.1934 B( 21-C , 32-C ) :   0.2979
B( 21-C , 36-H ) :  -0.1372 B( 26-C , 29-C ) :   0.4857 B( 26-C , 30-H ) :   0.8115
B( 26-C , 31-H ) :   1.3022 B( 26-C , 32-C ) :   0.3542 B( 29-C , 31-H ) :  -0.1525
B( 29-C , 32-C ) :   0.8588 B( 29-C , 33-H ) :   0.9119 B( 29-C , 34-H ) :   0.9016
B( 32-C , 37-H ) :   0.9376 B( 32-C , 38-H ) :   0.9280

Dispersion correction           -0.020017275
FINAL SINGLE POINT ENERGY      -755.760234421708

DIPOLE MOMENT
-------------
                                X             Y             Z
Electronic contribution:     11.27700       8.97773       5.89940
Nuclear contribution   :    -11.48003      -8.36271      -6.78621
                        -----------------------------------------
Total Dipole Moment    :     -0.20303       0.61502      -0.88681
                        -----------------------------------------
Magnitude (a.u.)       :      1.09814
Magnitude (Debye)      :      2.79124

Rotational constants in cm-1:     0.020055     0.013548     0.009477
Rotational constants in MHz :   601.234832   406.162779   284.104317

                             ****ORCA TERMINATED NORMALLY****
TOTAL RUN TIME: 0 days 0 hours 4 minutes 5 seconds 652 msec
