                         Program Version 5.0.0 -  RELEASE  -
|  1> !wB97X-D3 RIJCOSX def2-TZVPD def2/J TightSCF xyzfile
|  2>
|  3> *xyzfile 0 1 D2.xyz
|  4>
|  5> %MaxCore 64000
|  6>
|  7> %pal nprocs 18
|  8> end
|  9>
| 10> %scf
| 11>   MaxIter 150
| 12> end
| 13>
| 14>
| 15>                          ****END OF INPUT****

CARTESIAN COORDINATES (ANGSTROEM)
---------------------------------
  C      3.913853   -1.658291    3.015134
  N      5.039266   -0.901154    2.492821
  C      4.084215    1.742081   -2.114724
  C      4.265245    2.500518   -0.795890
  H      4.868534    3.392674   -0.981134
  H      3.307640    2.824571   -0.387809
  C      4.982240    1.650257    0.247422
  C      6.210384   -1.417261    2.178244
  C      6.535913   -2.677122    2.556078
  N      7.076754   -0.700820    1.478906
  H      7.954643   -1.121554    1.207554
  H      6.756161    0.106637    0.960278
  H      4.842168    0.017609    2.115191
  H      5.993876   -3.126918    3.282784
  H      7.498441   -2.975482    2.468776
  F      4.368065    1.389270    1.313706
  O      6.128919    1.233512   -0.045620
  C      3.139159   -2.376572    1.910609
  H      3.267235   -0.939401    3.520693
  H      4.247195   -2.355095    3.790065
  C      1.997274    0.430918   -1.399218
  C      3.412746    0.376886   -1.965497
  H      4.047407   -0.246590   -1.326706
  H      3.390774   -0.118719   -2.942839
  H      5.068475    1.598504   -2.565728
  H      3.503356    2.363939   -2.804565
  C      2.399946   -1.389579    1.009490
  H      2.440750   -3.087118    2.362976
  H      3.844475   -2.970462    1.318677
  C      2.070177   -1.936705   -0.372401
  H      1.481611   -1.061542    1.509912
  H      3.008628   -0.490001    0.897451
  C      1.322238   -0.935775   -1.256413
  H      1.472747   -2.850902   -0.283997
  H      3.003539   -2.234041   -0.862535
  H      1.376444    1.058920   -2.047420
  H      2.015341    0.929780   -0.426535
  H      0.316648   -0.787213   -0.848278
  H      1.185611   -1.379252   -2.248613

 Total Charge           Charge          ....    0
 Multiplicity           Mult            ....    1
 Number of Electrons    NEL             ....  126
 Basis Dimension        Dim             ....  805

ORBITAL ENERGIES
----------------

  NO   OCC          E(Eh)            E(eV)
   0   2.0000     -24.898136      -677.5127
   1   2.0000     -19.273974      -524.4715
   2   2.0000     -14.403255      -391.9325
   3   2.0000     -14.380725      -391.3194
   4   2.0000     -10.493086      -285.5314
   5   2.0000     -10.326079      -280.9869
   6   2.0000     -10.303595      -280.3751
   7   2.0000     -10.302473      -280.3445
   8   2.0000     -10.295703      -280.1603
   9   2.0000     -10.287436      -279.9354
  10   2.0000     -10.282523      -279.8017
  11   2.0000     -10.275955      -279.6230
  12   2.0000     -10.269693      -279.4526
  13   2.0000     -10.268346      -279.4159
  14   2.0000     -10.259483      -279.1747
  15   2.0000     -10.162312      -276.5306
  16   2.0000      -1.480618       -40.2897
  17   2.0000      -1.193418       -32.4746
  18   2.0000      -1.068842       -29.0847
  19   2.0000      -0.981126       -26.6978
  20   2.0000      -0.961749       -26.1705
  21   2.0000      -0.930173       -25.3113
  22   2.0000      -0.894546       -24.3418
  23   2.0000      -0.859856       -23.3979
  24   2.0000      -0.828821       -22.5534
  25   2.0000      -0.806579       -21.9481
  26   2.0000      -0.791937       -21.5497
  27   2.0000      -0.768089       -20.9008
  28   2.0000      -0.731076       -19.8936
  29   2.0000      -0.709066       -19.2947
  30   2.0000      -0.696686       -18.9578
  31   2.0000      -0.686774       -18.6881
  32   2.0000      -0.676461       -18.4074
  33   2.0000      -0.658187       -17.9102
  34   2.0000      -0.640233       -17.4216
  35   2.0000      -0.616106       -16.7651
  36   2.0000      -0.600776       -16.3479
  37   2.0000      -0.591619       -16.0988
  38   2.0000      -0.590511       -16.0686
  39   2.0000      -0.571060       -15.5393
  40   2.0000      -0.555135       -15.1060
  41   2.0000      -0.548149       -14.9159
  42   2.0000      -0.533942       -14.5293
  43   2.0000      -0.528444       -14.3797
  44   2.0000      -0.518013       -14.0959
  45   2.0000      -0.507788       -13.8176
  46   2.0000      -0.501173       -13.6376
  47   2.0000      -0.489866       -13.3299
  48   2.0000      -0.478167       -13.0116
  49   2.0000      -0.473362       -12.8808
  50   2.0000      -0.467129       -12.7112
  51   2.0000      -0.458865       -12.4864
  52   2.0000      -0.455089       -12.3836
  53   2.0000      -0.446332       -12.1453
  54   2.0000      -0.439338       -11.9550
  55   2.0000      -0.432617       -11.7721
  56   2.0000      -0.422924       -11.5084
  57   2.0000      -0.411251       -11.1907
  58   2.0000      -0.410734       -11.1766
  59   2.0000      -0.408782       -11.1235
  60   2.0000      -0.403112       -10.9692
  61   2.0000      -0.319999        -8.7076
  62   2.0000      -0.230439        -6.2706
  63   0.0000       0.018138         0.4936
  64   0.0000       0.054200         1.4749
  65   0.0000       0.067889         1.8474
  66   0.0000       0.070130         1.9083
  67   0.0000       0.076767         2.0889

MULLIKEN ATOMIC CHARGES
-----------------------
   0 C :   -1.091590
   1 N :   -0.144113
   2 C :   -0.647528
   3 C :   -0.494986
   4 H :    0.320908
   5 H :    0.327106
   6 C :    0.724684
   7 C :    0.985817
   8 C :   -1.685027
   9 N :   -0.374271
  10 H :    0.187982
  11 H :    0.253642
  12 H :    0.307289
  13 H :    0.306082
  14 H :    0.394816
  15 F :   -0.367507
  16 O :   -0.734132
  17 C :   -0.504865
  18 H :    0.340285
  19 H :    0.336823
  20 C :   -0.398251
  21 C :   -0.541014
  22 H :    0.253249
  23 H :    0.319886
  24 H :    0.318039
  25 H :    0.294141
  26 C :    0.452208
  27 H :    0.338489
  28 H :    0.354184
  29 C :   -0.431603
  30 H :    0.335120
  31 H :   -0.709495
  32 C :   -0.827532
  33 H :    0.311996
  34 H :    0.330419
  35 H :    0.295556
  36 H :    0.252437
  37 H :    0.311098
  38 H :    0.299655
Sum of atomic charges:    0.0000000

LOEWDIN ATOMIC CHARGES
----------------------
   0 C :   -0.184241
   1 N :    0.029613
   2 C :   -0.189350
   3 C :   -0.093224
   4 H :    0.131041
   5 H :    0.115567
   6 C :   -0.424007
   7 C :   -0.549024
   8 C :   -0.008051
   9 N :    0.125042
  10 H :    0.114425
  11 H :    0.025788
  12 H :    0.088104
  13 H :   -0.009223
  14 H :    0.001410
  15 F :    0.191450
  16 O :    0.090247
  17 C :   -0.182970
  18 H :    0.119744
  19 H :    0.110040
  20 C :   -0.218214
  21 C :   -0.206319
  22 H :    0.108763
  23 H :    0.124954
  24 H :    0.117065
  25 H :    0.119673
  26 C :   -0.220165
  27 H :    0.114939
  28 H :    0.113828
  29 C :   -0.215886
  30 H :    0.125068
  31 H :    0.076831
  32 C :   -0.210483
  33 H :    0.117076
  34 H :    0.112468
  35 H :    0.117925
  36 H :    0.097711
  37 H :    0.111271
  38 H :    0.111113

  Mayer bond orders larger than 0.100000
B(  0-C ,  1-N ) :   1.0387 B(  0-C ,  8-C ) :   0.1337 B(  0-C , 12-H ) :  -0.1028
B(  0-C , 17-C ) :   0.7650 B(  0-C , 18-H ) :   0.7886 B(  0-C , 19-H ) :   0.8500
B(  0-C , 26-C ) :   0.2920 B(  1-N ,  7-C ) :   1.0417 B(  1-N , 12-H ) :   0.7354
B(  2-C ,  3-C ) :   0.8242 B(  2-C ,  6-C ) :   0.2136 B(  2-C , 20-C ) :   0.2773
B(  2-C , 21-C ) :   1.0272 B(  2-C , 24-H ) :   0.8958 B(  2-C , 25-H ) :   0.9213
B(  3-C ,  4-H ) :   0.8401 B(  3-C ,  5-H ) :   0.9633 B(  3-C ,  6-C ) :   0.9518
B(  3-C , 20-C ) :   0.1737 B(  6-C , 15-F ) :   0.8388 B(  6-C , 16-O ) :   1.5107
B(  6-C , 21-C ) :   0.1286 B(  7-C ,  8-C ) :   0.7772 B(  7-C ,  9-N ) :   0.9811
B(  7-C , 12-H ) :  -0.1088 B(  8-C ,  9-N ) :   0.1090 B(  8-C , 13-H ) :   1.0153
B(  8-C , 14-H ) :   0.9484 B(  9-N , 10-H ) :   0.9778 B(  9-N , 11-H ) :   0.8748
B( 17-C , 26-C ) :   0.6367 B( 17-C , 27-H ) :   0.9408 B( 17-C , 28-H ) :   0.8059
B( 17-C , 29-C ) :   0.5601 B( 17-C , 30-H ) :  -0.1449 B( 20-C , 21-C ) :   0.2633
B( 20-C , 22-H ) :  -0.1180 B( 20-C , 32-C ) :   0.9891 B( 20-C , 35-H ) :   0.8863
B( 20-C , 36-H ) :   1.0171 B( 21-C , 22-H ) :   1.0856 B( 21-C , 23-H ) :   0.8377
B( 21-C , 29-C ) :   0.1775 B( 21-C , 32-C ) :   0.3247 B( 21-C , 36-H ) :  -0.1416
B( 26-C , 29-C ) :   0.5254 B( 26-C , 30-H ) :   0.7995 B( 26-C , 31-H ) :   1.3802
B( 26-C , 32-C ) :   0.3602 B( 29-C , 31-H ) :  -0.1644 B( 29-C , 32-C ) :   0.8969
B( 29-C , 33-H ) :   0.8839 B( 29-C , 34-H ) :   0.9229 B( 32-C , 37-H ) :   0.9235
B( 32-C , 38-H ) :   0.9260

Dispersion correction           -0.020061608
FINAL SINGLE POINT ENERGY      -755.756805352131

DIPOLE MOMENT
-------------
                                X             Y             Z
Electronic contribution:      9.72077      10.58615       5.51125
Nuclear contribution   :    -11.22009      -8.67117      -6.77523
                        -----------------------------------------
Total Dipole Moment    :     -1.49932       1.91498      -1.26398
                        -----------------------------------------
Magnitude (a.u.)       :      2.74094
Magnitude (Debye)      :      6.96692

Rotational constants in cm-1:     0.020086     0.013778     0.009581
Rotational constants in MHz :   602.172053   413.051122   287.243919

                             ****ORCA TERMINATED NORMALLY****
TOTAL RUN TIME: 0 days 0 hours 3 minutes 50 seconds 841 msec
