                         Program Version 5.0.0 -  RELEASE  -
|  1> !wB97X-D3 RIJCOSX def2-TZVPD def2/J TightSCF xyzfile
|  2>
|  3> *xyzfile 0 1 D4.xyz
|  4>
|  5> %MaxCore 64000
|  6>
|  7> %pal nprocs 18
|  8> end
|  9>
| 10> %scf
| 11>   MaxIter 150
| 12> end
| 13>
| 14>
| 15>                          ****END OF INPUT****

CARTESIAN COORDINATES (ANGSTROEM)
---------------------------------
  C      3.913853   -1.658291    3.015134
  C      5.039266   -0.901154    2.492821
  C      4.084215    1.742081   -2.114724
  C      4.265245    2.500518   -0.795890
  H      4.868534    3.392674   -0.981134
  H      3.307640    2.824571   -0.387809
  C      4.982240    1.650257    0.247422
  C      6.210384   -1.417261    2.178244
  N      6.535913   -2.677122    2.556078
  N      7.076754   -0.700820    1.478906
  H      7.954643   -1.121554    1.207554
  H      6.756161    0.106637    0.960278
  H      4.842168    0.017609    2.115191
  H      5.993876   -3.126918    3.282784
  H      7.498441   -2.975482    2.468776
  O      4.368065    1.389270    1.313706
  F      6.128919    1.233512   -0.045620
  C      3.139159   -2.376572    1.910609
  H      3.267235   -0.939401    3.520693
  H      4.247195   -2.355095    3.790065
  C      1.997274    0.430918   -1.399218
  C      3.412746    0.376886   -1.965497
  H      4.047407   -0.246590   -1.326706
  H      3.390774   -0.118719   -2.942839
  H      5.068475    1.598504   -2.565728
  H      3.503356    2.363939   -2.804565
  C      2.399946   -1.389579    1.009490
  H      2.440750   -3.087118    2.362976
  H      3.844475   -2.970462    1.318677
  C      2.070177   -1.936705   -0.372401
  H      1.481611   -1.061542    1.509912
  H      3.008628   -0.490001    0.897451
  C      1.322238   -0.935775   -1.256413
  H      1.472747   -2.850902   -0.283997
  H      3.003539   -2.234041   -0.862535
  H      1.376444    1.058920   -2.047420
  H      2.015341    0.929780   -0.426535
  H      0.316648   -0.787213   -0.848278
  H      1.185611   -1.379252   -2.248613

 Total Charge           Charge          ....    0
 Multiplicity           Mult            ....    1
 Number of Electrons    NEL             ....  126
 Basis Dimension        Dim             ....  805

ORBITAL ENERGIES
----------------

  NO   OCC          E(Eh)            E(eV)
   0   2.0000     -24.883683      -677.1194
   1   2.0000     -19.248764      -523.7855
   2   2.0000     -14.404688      -391.9715
   3   2.0000     -14.395840      -391.7307
   4   2.0000     -10.471644      -284.9479
   5   2.0000     -10.312430      -280.6155
   6   2.0000     -10.296450      -280.1807
   7   2.0000     -10.296290      -280.1763
   8   2.0000     -10.279260      -279.7129
   9   2.0000     -10.268772      -279.4275
  10   2.0000     -10.262871      -279.2669
  11   2.0000     -10.254067      -279.0273
  12   2.0000     -10.243013      -278.7266
  13   2.0000     -10.238522      -278.6044
  14   2.0000     -10.231858      -278.4230
  15   2.0000     -10.159785      -276.4618
  16   2.0000      -1.467466       -39.9318
  17   2.0000      -1.167187       -31.7608
  18   2.0000      -1.058813       -28.8118
  19   2.0000      -0.968076       -26.3427
  20   2.0000      -0.951675       -25.8964
  21   2.0000      -0.917536       -24.9674
  22   2.0000      -0.887959       -24.1626
  23   2.0000      -0.857998       -23.3473
  24   2.0000      -0.823644       -22.4125
  25   2.0000      -0.797481       -21.7006
  26   2.0000      -0.780663       -21.2429
  27   2.0000      -0.744465       -20.2579
  28   2.0000      -0.714952       -19.4548
  29   2.0000      -0.698201       -18.9990
  30   2.0000      -0.681767       -18.5518
  31   2.0000      -0.678582       -18.4652
  32   2.0000      -0.658551       -17.9201
  33   2.0000      -0.647615       -17.6225
  34   2.0000      -0.635102       -17.2820
  35   2.0000      -0.613734       -16.7006
  36   2.0000      -0.588576       -16.0160
  37   2.0000      -0.583870       -15.8879
  38   2.0000      -0.580168       -15.7872
  39   2.0000      -0.558714       -15.2034
  40   2.0000      -0.548873       -14.9356
  41   2.0000      -0.536279       -14.5929
  42   2.0000      -0.526248       -14.3199
  43   2.0000      -0.510620       -13.8947
  44   2.0000      -0.506786       -13.7903
  45   2.0000      -0.499317       -13.5871
  46   2.0000      -0.490395       -13.3443
  47   2.0000      -0.482630       -13.1330
  48   2.0000      -0.475250       -12.9322
  49   2.0000      -0.469030       -12.7629
  50   2.0000      -0.459475       -12.5029
  51   2.0000      -0.455793       -12.4027
  52   2.0000      -0.435776       -11.8581
  53   2.0000      -0.426910       -11.6168
  54   2.0000      -0.425437       -11.5767
  55   2.0000      -0.420167       -11.4333
  56   2.0000      -0.400390       -10.8952
  57   2.0000      -0.394176       -10.7261
  58   2.0000      -0.389156       -10.5895
  59   2.0000      -0.384353       -10.4588
  60   2.0000      -0.356022        -9.6879
  61   2.0000      -0.343877        -9.3574
  62   2.0000      -0.225862        -6.1460
  63   0.0000       0.038434         1.0459
  64   0.0000       0.059815         1.6276
  65   0.0000       0.071249         1.9388
  66   0.0000       0.076473         2.0809
  67   0.0000       0.079340         2.1590

MULLIKEN ATOMIC CHARGES
-----------------------
   0 C :   -0.679099
   1 C :   -0.441418
   2 C :   -0.678417
   3 C :   -0.410104
   4 H :    0.336906
   5 H :    0.291104
   6 C :    0.677938
   7 C :   -0.375221
   8 N :   -0.382335
   9 N :   -0.349748
  10 H :    0.175002
  11 H :    0.285859
  12 H :    0.521641
  13 H :    0.205694
  14 H :    0.150118
  15 O :   -0.593151
  16 F :   -0.404467
  17 C :   -0.577052
  18 H :    0.266972
  19 H :    0.455933
  20 C :   -0.491250
  21 C :   -0.415015
  22 H :    0.212624
  23 H :    0.300772
  24 H :    0.317148
  25 H :    0.299078
  26 C :    0.516223
  27 H :    0.293742
  28 H :    0.335623
  29 C :   -0.413782
  30 H :    0.279615
  31 H :   -0.699479
  32 C :   -0.800107
  33 H :    0.284253
  34 H :    0.334434
  35 H :    0.289626
  36 H :    0.290611
  37 H :    0.295652
  38 H :    0.294074
Sum of atomic charges:   -0.0000000

LOEWDIN ATOMIC CHARGES
----------------------
   0 C :   -0.222270
   1 C :   -0.136535
   2 C :   -0.196995
   3 C :   -0.092334
   4 H :    0.125308
   5 H :    0.122692
   6 C :   -0.431316
   7 C :   -0.522797
   8 N :    0.117739
   9 N :    0.117234
  10 H :    0.101892
  11 H :    0.059911
  12 H :    0.010811
  13 H :    0.093269
  14 H :    0.093727
  15 O :    0.075489
  16 F :    0.199521
  17 C :   -0.201816
  18 H :    0.113750
  19 H :    0.095696
  20 C :   -0.215010
  21 C :   -0.208033
  22 H :    0.108353
  23 H :    0.122476
  24 H :    0.111843
  25 H :    0.117988
  26 C :   -0.215342
  27 H :    0.107193
  28 H :    0.111820
  29 C :   -0.219474
  30 H :    0.126325
  31 H :    0.080176
  32 C :   -0.212262
  33 H :    0.114052
  34 H :    0.108478
  35 H :    0.116716
  36 H :    0.102561
  37 H :    0.110723
  38 H :    0.108441

  Mayer bond orders larger than 0.100000
B(  0-C ,  1-C ) :   0.6716 B(  0-C ,  7-C ) :   0.1231 B(  0-C , 12-H ) :  -0.1033
B(  0-C , 17-C ) :   0.7323 B(  0-C , 18-H ) :   1.0147 B(  0-C , 19-H ) :   0.9422
B(  0-C , 26-C ) :   0.3138 B(  0-C , 31-H ) :   0.1175 B(  1-C ,  7-C ) :   1.4674
B(  1-C ,  8-N ) :  -0.1425 B(  1-C ,  9-N ) :  -0.1454 B(  1-C , 12-H ) :   0.6395
B(  1-C , 17-C ) :   0.1314 B(  1-C , 19-H ) :  -0.2654 B(  2-C ,  3-C ) :   0.7870
B(  2-C ,  6-C ) :   0.2195 B(  2-C , 20-C ) :   0.2946 B(  2-C , 21-C ) :   0.9204
B(  2-C , 24-H ) :   0.9256 B(  2-C , 25-H ) :   0.9014 B(  3-C ,  4-H ) :   0.8457
B(  3-C ,  5-H ) :   0.9848 B(  3-C ,  6-C ) :   0.9147 B(  3-C , 20-C ) :   0.1790
B(  3-C , 21-C ) :  -0.1003 B(  6-C , 15-O ) :   1.7369 B(  6-C , 16-F ) :   0.6405
B(  6-C , 21-C ) :   0.1057 B(  7-C ,  8-N ) :   1.1574 B(  7-C ,  9-N ) :   1.2193
B(  7-C , 12-H ) :   0.1092 B(  7-C , 13-H ) :   0.1335 B(  7-C , 17-C ) :   0.1177
B(  8-N , 13-H ) :   0.9292 B(  8-N , 14-H ) :   1.0542 B(  9-N , 10-H ) :   1.0045
B(  9-N , 11-H ) :   0.8508 B( 12-H , 15-O ) :  -0.3302 B( 15-O , 16-F ) :   0.1348
B( 17-C , 26-C ) :   0.6378 B( 17-C , 27-H ) :   0.9685 B( 17-C , 28-H ) :   0.8384
B( 17-C , 29-C ) :   0.5750 B( 17-C , 30-H ) :  -0.1335 B( 20-C , 21-C ) :   0.3831
B( 20-C , 26-C ) :   0.1157 B( 20-C , 32-C ) :   0.9650 B( 20-C , 35-H ) :   0.8829
B( 20-C , 36-H ) :   0.9885 B( 21-C , 22-H ) :   1.0488 B( 21-C , 23-H ) :   0.8801
B( 21-C , 29-C ) :   0.1989 B( 21-C , 32-C ) :   0.2904 B( 21-C , 36-H ) :  -0.1180
B( 26-C , 29-C ) :   0.4890 B( 26-C , 30-H ) :   0.8090 B( 26-C , 31-H ) :   1.2958
B( 26-C , 32-C ) :   0.3424 B( 29-C , 31-H ) :  -0.1943 B( 29-C , 32-C ) :   0.8587
B( 29-C , 33-H ) :   0.9172 B( 29-C , 34-H ) :   0.9035 B( 32-C , 37-H ) :   0.9358
B( 32-C , 38-H ) :   0.9309

Dispersion correction           -0.020074327
FINAL SINGLE POINT ENERGY      -755.747696851143

DIPOLE MOMENT
-------------
                                X             Y             Z
Electronic contribution:     14.27041       8.78832       3.66542
Nuclear contribution   :    -13.61164      -8.17416      -5.14068
                        -----------------------------------------
Total Dipole Moment    :      0.65877       0.61415      -1.47526
                        -----------------------------------------
Magnitude (a.u.)       :      1.72846
Magnitude (Debye)      :      4.39339

Rotational constants in cm-1:     0.019858     0.013613     0.009401
Rotational constants in MHz :   595.331791   408.100423   281.843625

                             ****ORCA TERMINATED NORMALLY****
TOTAL RUN TIME: 0 days 0 hours 5 minutes 7 seconds 585 msec
