                         Program Version 5.0.0 -  RELEASE  -
|  1> !wB97X-D3 RIJCOSX def2-TZVPD def2/J TightSCF xyzfile
|  2>
|  3> *xyzfile 0 1 D5.xyz
|  4>
|  5> %MaxCore 64000
|  6>
|  7> %pal nprocs 18
|  8> end
|  9>
| 10> %scf
| 11>   MaxIter 150
| 12> end
| 13>
| 14>
| 15>                          ****END OF INPUT****

CARTESIAN COORDINATES (ANGSTROEM)
---------------------------------
  C      3.913853   -1.658291    3.015134
  N      5.039266   -0.901154    2.492821
  C      4.084215    1.742081   -2.114724
  C      4.265245    2.500518   -0.795890
  H      4.868534    3.392674   -0.981134
  H      3.307640    2.824571   -0.387809
  C      4.982240    1.650257    0.247422
  C      6.210384   -1.417261    2.178244
  C      6.535913   -2.677122    2.556078
  N      7.076754   -0.700820    1.478906
  H      7.954643   -1.121554    1.207554
  H      6.756161    0.106637    0.960278
  H      4.842168    0.017609    2.115191
  H      5.993876   -3.126918    3.282784
  H      7.498441   -2.975482    2.468776
  O      4.368065    1.389270    1.313706
  F      6.128919    1.233512   -0.045620
  C      3.139159   -2.376572    1.910609
  H      3.267235   -0.939401    3.520693
  H      4.247195   -2.355095    3.790065
  C      1.997274    0.430918   -1.399218
  C      3.412746    0.376886   -1.965497
  H      4.047407   -0.246590   -1.326706
  H      3.390774   -0.118719   -2.942839
  H      5.068475    1.598504   -2.565728
  H      3.503356    2.363939   -2.804565
  C      2.399946   -1.389579    1.009490
  H      2.440750   -3.087118    2.362976
  H      3.844475   -2.970462    1.318677
  C      2.070177   -1.936705   -0.372401
  H      1.481611   -1.061542    1.509912
  H      3.008628   -0.490001    0.897451
  C      1.322238   -0.935775   -1.256413
  H      1.472747   -2.850902   -0.283997
  H      3.003539   -2.234041   -0.862535
  H      1.376444    1.058920   -2.047420
  H      2.015341    0.929780   -0.426535
  H      0.316648   -0.787213   -0.848278
  H      1.185611   -1.379252   -2.248613

 Total Charge           Charge          ....    0
 Multiplicity           Mult            ....    1
 Number of Electrons    NEL             ....  126
 Basis Dimension        Dim             ....  805

ORBITAL ENERGIES
----------------

  NO   OCC          E(Eh)            E(eV)
   0   2.0000     -24.900281      -677.5711
   1   2.0000     -19.275487      -524.5127
   2   2.0000     -14.398201      -391.7950
   3   2.0000     -14.388377      -391.5276
   4   2.0000     -10.494237      -285.5627
   5   2.0000     -10.326577      -281.0004
   6   2.0000     -10.307616      -280.4845
   7   2.0000     -10.303115      -280.3620
   8   2.0000     -10.289461      -279.9905
   9   2.0000     -10.286462      -279.9089
  10   2.0000     -10.278742      -279.6988
  11   2.0000     -10.271966      -279.5144
  12   2.0000     -10.264251      -279.3045
  13   2.0000     -10.257504      -279.1209
  14   2.0000     -10.252265      -278.9783
  15   2.0000     -10.162918      -276.5471
  16   2.0000      -1.484121       -40.3850
  17   2.0000      -1.192602       -32.4523
  18   2.0000      -1.067009       -29.0348
  19   2.0000      -0.983834       -26.7715
  20   2.0000      -0.964179       -26.2366
  21   2.0000      -0.927012       -25.2253
  22   2.0000      -0.889783       -24.2122
  23   2.0000      -0.858621       -23.3643
  24   2.0000      -0.821268       -22.3478
  25   2.0000      -0.808405       -21.9978
  26   2.0000      -0.793653       -21.5964
  27   2.0000      -0.763343       -20.7716
  28   2.0000      -0.730298       -19.8724
  29   2.0000      -0.703738       -19.1497
  30   2.0000      -0.699752       -19.0412
  31   2.0000      -0.696625       -18.9561
  32   2.0000      -0.665334       -18.1047
  33   2.0000      -0.658686       -17.9238
  34   2.0000      -0.639896       -17.4124
  35   2.0000      -0.610807       -16.6209
  36   2.0000      -0.604289       -16.4436
  37   2.0000      -0.594074       -16.1656
  38   2.0000      -0.590040       -16.0558
  39   2.0000      -0.569241       -15.4898
  40   2.0000      -0.551539       -15.0081
  41   2.0000      -0.545661       -14.8482
  42   2.0000      -0.531294       -14.4573
  43   2.0000      -0.521755       -14.1977
  44   2.0000      -0.513458       -13.9719
  45   2.0000      -0.511989       -13.9319
  46   2.0000      -0.499439       -13.5904
  47   2.0000      -0.488604       -13.2956
  48   2.0000      -0.485080       -13.1997
  49   2.0000      -0.473833       -12.8936
  50   2.0000      -0.465641       -12.6707
  51   2.0000      -0.456192       -12.4136
  52   2.0000      -0.451607       -12.2889
  53   2.0000      -0.443692       -12.0735
  54   2.0000      -0.436843       -11.8871
  55   2.0000      -0.434065       -11.8115
  56   2.0000      -0.417783       -11.3685
  57   2.0000      -0.409141       -11.1333
  58   2.0000      -0.404734       -11.0134
  59   2.0000      -0.401010       -10.9120
  60   2.0000      -0.395440       -10.7605
  61   2.0000      -0.320141        -8.7115
  62   2.0000      -0.230636        -6.2759
  63   0.0000       0.019309         0.5254
  64   0.0000       0.052596         1.4312
  65   0.0000       0.066829         1.8185
  66   0.0000       0.071400         1.9429
  67   0.0000       0.077459         2.1078

MULLIKEN ATOMIC CHARGES
-----------------------
   0 C :   -1.064732
   1 N :   -0.112374
   2 C :   -0.686339
   3 C :   -0.413255
   4 H :    0.342011
   5 H :    0.292169
   6 C :    0.660141
   7 C :    1.004569
   8 C :   -1.691726
   9 N :   -0.394455
  10 H :    0.194889
  11 H :    0.290649
  12 H :    0.206530
  13 H :    0.304573
  14 H :    0.394460
  15 O :   -0.703248
  16 F :   -0.422889
  17 C :   -0.531724
  18 H :    0.352870
  19 H :    0.327039
  20 C :   -0.452853
  21 C :   -0.423085
  22 H :    0.195928
  23 H :    0.314703
  24 H :    0.321551
  25 H :    0.304315
  26 C :    0.509630
  27 H :    0.331686
  28 H :    0.343550
  29 C :   -0.410148
  30 H :    0.313405
  31 H :   -0.676732
  32 C :   -0.823103
  33 H :    0.303736
  34 H :    0.321073
  35 H :    0.296904
  36 H :    0.276586
  37 H :    0.308312
  38 H :    0.295384
Sum of atomic charges:   -0.0000000

LOEWDIN ATOMIC CHARGES
----------------------
   0 C :   -0.182766
   1 N :    0.027856
   2 C :   -0.194055
   3 C :   -0.089373
   4 H :    0.127768
   5 H :    0.123874
   6 C :   -0.425425
   7 C :   -0.549334
   8 C :   -0.007372
   9 N :    0.126662
  10 H :    0.114855
  11 H :    0.054267
  12 H :    0.061533
  13 H :   -0.007699
  14 H :   -0.000253
  15 O :    0.078114
  16 F :    0.203254
  17 C :   -0.183638
  18 H :    0.121393
  19 H :    0.108264
  20 C :   -0.214965
  21 C :   -0.207060
  22 H :    0.108153
  23 H :    0.124144
  24 H :    0.113451
  25 H :    0.119830
  26 C :   -0.218394
  27 H :    0.113620
  28 H :    0.112119
  29 C :   -0.217520
  30 H :    0.125600
  31 H :    0.076413
  32 C :   -0.210668
  33 H :    0.115988
  34 H :    0.110582
  35 H :    0.117715
  36 H :    0.101607
  37 H :    0.111509
  38 H :    0.109954

  Mayer bond orders larger than 0.100000
B(  0-C ,  1-N ) :   1.0160 B(  0-C ,  8-C ) :   0.1334 B(  0-C , 12-H ) :  -0.1414
B(  0-C , 17-C ) :   0.7913 B(  0-C , 18-H ) :   0.7712 B(  0-C , 19-H ) :   0.8587
B(  0-C , 26-C ) :   0.2556 B(  0-C , 31-H ) :   0.1121 B(  1-N ,  7-C ) :   1.0110
B(  1-N , 12-H ) :   0.8051 B(  2-C ,  3-C ) :   0.7803 B(  2-C ,  6-C ) :   0.2336
B(  2-C , 20-C ) :   0.2974 B(  2-C , 21-C ) :   0.9346 B(  2-C , 24-H ) :   0.9199
B(  2-C , 25-H ) :   0.9009 B(  3-C ,  4-H ) :   0.8491 B(  3-C ,  5-H ) :   0.9776
B(  3-C ,  6-C ) :   0.9231 B(  3-C , 20-C ) :   0.1770 B(  6-C , 15-O ) :   1.6602
B(  6-C , 16-F ) :   0.6710 B(  6-C , 21-C ) :   0.1025 B(  7-C ,  8-C ) :   0.7657
B(  7-C ,  9-N ) :   1.0000 B(  7-C , 12-H ) :  -0.1578 B(  7-C , 14-H ) :  -0.1071
B(  8-C ,  9-N ) :   0.1030 B(  8-C , 13-H ) :   1.0192 B(  8-C , 14-H ) :   0.9596
B(  9-N , 10-H ) :   0.9743 B(  9-N , 11-H ) :   0.8398 B( 15-O , 16-F ) :   0.1339
B( 17-C , 26-C ) :   0.6261 B( 17-C , 27-H ) :   0.9432 B( 17-C , 28-H ) :   0.8067
B( 17-C , 29-C ) :   0.5448 B( 17-C , 30-H ) :  -0.1467 B( 20-C , 21-C ) :   0.3425
B( 20-C , 32-C ) :   0.9908 B( 20-C , 35-H ) :   0.8838 B( 20-C , 36-H ) :   0.9886
B( 21-C , 22-H ) :   1.0662 B( 21-C , 23-H ) :   0.8678 B( 21-C , 29-C ) :   0.1812
B( 21-C , 32-C ) :   0.3170 B( 21-C , 36-H ) :  -0.1219 B( 26-C , 29-C ) :   0.5349
B( 26-C , 30-H ) :   0.7940 B( 26-C , 31-H ) :   1.3909 B( 26-C , 32-C ) :   0.3484
B( 29-C , 31-H ) :  -0.2115 B( 29-C , 32-C ) :   0.8902 B( 29-C , 33-H ) :   0.8918
B( 29-C , 34-H ) :   0.9255 B( 32-C , 37-H ) :   0.9228 B( 32-C , 38-H ) :   0.9281

Dispersion correction           -0.020119603
FINAL SINGLE POINT ENERGY      -755.756731201502

DIPOLE MOMENT
-------------
                                X             Y             Z
Electronic contribution:     12.75787      10.42047       3.22055
Nuclear contribution   :    -13.35170      -8.48261      -5.12969
                        -----------------------------------------
Total Dipole Moment    :     -0.59383       1.93785      -1.90914
                        -----------------------------------------
Magnitude (a.u.)       :      2.78437
Magnitude (Debye)      :      7.07731

Rotational constants in cm-1:     0.019886     0.013843     0.009504
Rotational constants in MHz :   596.157485   415.004628   284.931121

                             ****ORCA TERMINATED NORMALLY****
TOTAL RUN TIME: 0 days 0 hours 4 minutes 3 seconds 157 msec
