                         Program Version 5.0.0 -  RELEASE  -
|  1> !LC-BLYP RIJCOSX def2-SVP def2/J TightSCF
|  2> *xyz -1 1
|  3> C         -0.05517        1.61942       -3.78858
|  4> C          1.22302        2.46987       -3.75691
|  5> H          1.11470        3.25807       -4.53300
|  6> H          1.23773        3.01124       -2.79216
|  7> O          2.35381        1.71203       -3.93448
|  8> H         -0.10198        1.08015       -4.71156
|  9> H         -0.91014        2.25726       -3.70441
| 10> H         -0.04403        0.92826       -2.97183
| 11> *
| 12>
| 13> %MaxCore 64000
| 14>
| 15> %pal nprocs 4
| 16> end
| 17>
| 18> %scf
| 19>   MaxIter 150
| 20> end
| 21>
| 22>
| 23>                          ****END OF INPUT****

CARTESIAN COORDINATES (ANGSTROEM)
---------------------------------
  C     -0.055170    1.619420   -3.788580
  C      1.223020    2.469870   -3.756910
  H      1.114700    3.258070   -4.533000
  H      1.237730    3.011240   -2.792160
  O      2.353810    1.712030   -3.934480
  H     -0.101980    1.080150   -4.711560
  H     -0.910140    2.257260   -3.704410
  H     -0.044030    0.928260   -2.971830

 Total Charge           Charge          ....   -1
 Multiplicity           Mult            ....    1
 Number of Electrons    NEL             ....   26
 Basis Dimension        Dim             ....   67

ORBITAL ENERGIES
----------------

  NO   OCC          E(Eh)            E(eV)
   0   2.0000     -18.552499      -504.8392
   1   2.0000      -9.870345      -268.5858
   2   2.0000      -9.859509      -268.2909
   3   2.0000      -0.717425       -19.5221
   4   2.0000      -0.601751       -16.3745
   5   2.0000      -0.448262       -12.1978
   6   2.0000      -0.336977        -9.1696
   7   2.0000      -0.310694        -8.4544
   8   2.0000      -0.252845        -6.8803
   9   2.0000      -0.233537        -6.3549
  10   2.0000      -0.159358        -4.3364
  11   2.0000      -0.010896        -0.2965
  12   2.0000      -0.008404        -0.2287
  13   0.0000       0.325583         8.8596
  14   0.0000       0.372069        10.1245
  15   0.0000       0.384950        10.4750
  16   0.0000       0.394147        10.7253
  17   0.0000       0.439006        11.9460

MULLIKEN ATOMIC CHARGES
-----------------------
   0 C :    0.065245
   1 C :    0.224945
   2 H :   -0.182802
   3 H :   -0.180579
   4 O :   -0.665073
   5 H :   -0.069756
   6 H :   -0.122763
   7 H :   -0.069215
Sum of atomic charges:   -1.0000000

LOEWDIN ATOMIC CHARGES
----------------------
   0 C :   -0.121716
   1 C :   -0.010203
   2 H :   -0.080954
   3 H :   -0.078426
   4 O :   -0.655780
   5 H :   -0.011136
   6 H :   -0.030926
   7 H :   -0.010859

  Mayer bond orders larger than 0.100000
B(  0-C ,  1-C ) :   1.0077 B(  0-C ,  5-H ) :   0.9520 B(  0-C ,  6-H ) :   0.9161
B(  0-C ,  7-H ) :   0.9551 B(  1-C ,  2-H ) :   0.8642 B(  1-C ,  3-H ) :   0.8663
B(  1-C ,  4-O ) :   1.5645

FINAL SINGLE POINT ENERGY      -153.884930723128

DIPOLE MOMENT
-------------
                                X             Y             Z
Electronic contribution:      3.05208      -0.73132      -0.28794
Nuclear contribution   :     -4.28298       0.81046       0.39340
                        -----------------------------------------
Total Dipole Moment    :     -1.23090       0.07914       0.10546
                        -----------------------------------------
Magnitude (a.u.)       :      1.23794
Magnitude (Debye)      :      3.14661

Rotational constants in cm-1:     1.266793     0.328147     0.288309
Rotational constants in MHz : 37977.512300  9837.594308  8643.275638

                             ****ORCA TERMINATED NORMALLY****
TOTAL RUN TIME: 0 days 0 hours 0 minutes 8 seconds 190 msec
