                         Program Version 5.0.0 -  RELEASE  -
|  1> !LC-BLYP RIJCOSX def2-SVP def2/J TightSCF
|  2> *xyz 1 1
|  3> C          1.63556       -1.67040       -5.29211
|  4> C          0.33848       -1.50091       -4.50540
|  5> N          2.48451       -0.50741       -5.14039
|  6> H          1.39834       -1.82924       -6.35259
|  7> H          2.15586       -2.56540       -4.93209
|  8> C          3.45115       -0.14953       -5.95259
|  9> N          3.92267        1.08956       -5.85071
| 10> N          3.96616       -1.00618       -6.86788
| 11> H          3.52139       -1.90647       -6.99527
| 12> H          4.44482       -0.62347       -7.67035
| 13> H          2.25200        0.24080       -4.49879
| 14> H          3.46428        1.64078       -5.13639
| 15> H          4.83447        1.31375       -6.22465
| 16> H         -0.17658       -0.62881       -4.85045
| 17> H          0.56384       -1.39374       -3.46490
| 18> H         -0.28102       -2.36136       -4.64938
| 19> *
| 20>
| 21> %MaxCore 64000
| 22>
| 23> %pal nprocs 4
| 24> end
| 25>
| 26> %scf
| 27>   MaxIter 150
| 28> end
| 29>
| 30>
| 31>                          ****END OF INPUT****

CARTESIAN COORDINATES (ANGSTROEM)
---------------------------------
  C      1.635560   -1.670400   -5.292110
  C      0.338480   -1.500910   -4.505400
  N      2.484510   -0.507410   -5.140390
  H      1.398340   -1.829240   -6.352590
  H      2.155860   -2.565400   -4.932090
  C      3.451150   -0.149530   -5.952590
  N      3.922670    1.089560   -5.850710
  N      3.966160   -1.006180   -6.867880
  H      3.521390   -1.906470   -6.995270
  H      4.444820   -0.623470   -7.670350
  H      2.252000    0.240800   -4.498790
  H      3.464280    1.640780   -5.136390
  H      4.834470    1.313750   -6.224650
  H     -0.176580   -0.628810   -4.850450
  H      0.563840   -1.393740   -3.464900
  H     -0.281020   -2.361360   -4.649380

 Total Charge           Charge          ....    1
 Multiplicity           Mult            ....    1
 Number of Electrons    NEL             ....   48
 Basis Dimension        Dim             ....  134

ORBITAL ENERGIES
----------------

  NO   OCC          E(Eh)            E(eV)
   0   2.0000     -14.411261      -392.1504
   1   2.0000     -14.407859      -392.0578
   2   2.0000     -14.405105      -391.9828
   3   2.0000     -10.417718      -283.4805
   4   2.0000     -10.291863      -280.0558
   5   2.0000     -10.223215      -278.1878
   6   2.0000      -1.310358       -35.6566
   7   2.0000      -1.196944       -32.5705
   8   2.0000      -1.182276       -32.1714
   9   2.0000      -1.036514       -28.2050
  10   2.0000      -0.929267       -25.2866
  11   2.0000      -0.916260       -24.9327
  12   2.0000      -0.879118       -23.9220
  13   2.0000      -0.845531       -23.0081
  14   2.0000      -0.788942       -21.4682
  15   2.0000      -0.783759       -21.3272
  16   2.0000      -0.767812       -20.8932
  17   2.0000      -0.742185       -20.1959
  18   2.0000      -0.706689       -19.2300
  19   2.0000      -0.645270       -17.5587
  20   2.0000      -0.627997       -17.0887
  21   2.0000      -0.617205       -16.7950
  22   2.0000      -0.572289       -15.5728
  23   2.0000      -0.546269       -14.8647
  24   0.0000      -0.075514        -2.0548
  25   0.0000      -0.066858        -1.8193
  26   0.0000      -0.032739        -0.8909
  27   0.0000      -0.014349        -0.3905
  28   0.0000       0.009024         0.2455

MULLIKEN ATOMIC CHARGES
-----------------------
   0 C :    0.003935
   1 C :   -0.027780
   2 N :   -0.030070
   3 H :    0.061307
   4 H :    0.075461
   5 C :   -0.108933
   6 N :    0.026142
   7 N :   -0.007887
   8 H :    0.166561
   9 H :    0.173311
  10 H :    0.153749
  11 H :    0.163296
  12 H :    0.180354
  13 H :    0.047329
  14 H :    0.052909
  15 H :    0.070314
Sum of atomic charges:    1.0000000

LOEWDIN ATOMIC CHARGES
----------------------
   0 C :    0.019833
   1 C :   -0.052730
   2 N :    0.043907
   3 H :    0.038561
   4 H :    0.044282
   5 C :    0.132874
   6 N :    0.048021
   7 N :    0.037029
   8 H :    0.109018
   9 H :    0.112724
  10 H :    0.104454
  11 H :    0.109186
  12 H :    0.116743
  13 H :    0.038145
  14 H :    0.040956
  15 H :    0.056995

  Mayer bond orders larger than 0.100000
B(  0-C ,  1-C ) :   1.1116 B(  0-C ,  2-N ) :   0.9339 B(  0-C ,  3-H ) :   0.9482
B(  0-C ,  4-H ) :   0.9478 B(  1-C , 13-H ) :   0.9719 B(  1-C , 14-H ) :   0.9681
B(  1-C , 15-H ) :   0.9568 B(  2-N ,  5-C ) :   1.4151 B(  2-N , 10-H ) :   0.9042
B(  5-C ,  6-N ) :   1.4030 B(  5-C ,  7-N ) :   1.3973 B(  6-N , 11-H ) :   0.9202
B(  6-N , 12-H ) :   0.9226 B(  7-N ,  8-H ) :   0.9238 B(  7-N ,  9-H ) :   0.9257

FINAL SINGLE POINT ENERGY      -283.452198758209

DIPOLE MOMENT
-------------
                                X             Y             Z
Electronic contribution:      4.77910       2.53928      -1.74020
Nuclear contribution   :     -3.96322      -1.85512       1.24891
                        -----------------------------------------
Total Dipole Moment    :      0.81588       0.68416      -0.49129
                        -----------------------------------------
Magnitude (a.u.)       :      1.17265
Magnitude (Debye)      :      2.98063

Rotational constants in cm-1:     0.261404     0.067000     0.054949
Rotational constants in MHz :  7836.702504  2008.609425  1647.329138

                             ****ORCA TERMINATED NORMALLY****
TOTAL RUN TIME: 0 days 0 hours 0 minutes 18 seconds 213 msec
