                         Program Version 5.0.0 -  RELEASE  -
|  1> !LC-BLYP RIJCOSX def2-TZVP def2/J TightSCF xyzfile
|  2>
|  3> *xyzfile 0 1 B.xyz
|  4>
|  5> %MaxCore 64000
|  6>
|  7> %pal nprocs 18
|  8> end
|  9>
| 10> %scf
| 11>   MaxIter 150
| 12> end
| 13>
| 14>
| 15>                          ****END OF INPUT****

CARTESIAN COORDINATES (ANGSTROEM)
---------------------------------
  C      1.635557   -1.670396   -5.292109
  C      0.338484   -1.500907   -4.505398
  N      2.484511   -0.507410   -5.140392
  C     -0.684873   -0.528026   -5.099889
  C     -0.290406    0.951335   -5.153423
  H      0.607991    1.070692   -5.764412
  C     -0.055168    1.619420   -3.788577
  H     -1.080912    1.483775   -5.689436
  H      0.045006    0.862302   -3.003015
  H     -0.922936    2.230329   -3.517028
  C      1.223022    2.469865   -3.756911
  H      1.114701    3.258074   -4.532999
  H      1.237732    3.011242   -2.792157
  O      2.353815    1.712032   -3.934477
  H      1.398337   -1.829239   -6.352591
  H      2.155864   -2.565398   -4.932091
  C      3.451149   -0.149530   -5.952589
  N      3.922667    1.089559   -5.850711
  N      3.966162   -1.006183   -6.867880
  H      3.521391   -1.906467   -6.995270
  H      4.444824   -0.623472   -7.670348
  H      2.251995    0.240804   -4.498792
  H      3.464277    1.640782   -5.136392
  H      4.834470    1.313745   -6.224653
  H     -0.937999   -0.869056   -6.110838
  H     -1.604638   -0.622496   -4.513132
  H      0.594887   -1.211578   -3.482312
  H     -0.126530   -2.487656   -4.434176

 Total Charge           Charge          ....    0
 Multiplicity           Mult            ....    1
 Number of Electrons    NEL             ....   88
 Basis Dimension        Dim             ....  443

ORBITAL ENERGIES
----------------

  NO   OCC          E(Eh)            E(eV)
   0   2.0000     -18.799446      -511.5589
   1   2.0000     -14.226574      -387.1247
   2   2.0000     -14.184448      -385.9784
   3   2.0000     -14.181306      -385.8930
   4   2.0000     -10.215329      -277.9732
   5   2.0000     -10.119829      -275.3746
   6   2.0000     -10.071081      -274.0481
   7   2.0000     -10.057989      -273.6918
   8   2.0000     -10.044293      -273.3191
   9   2.0000     -10.039293      -273.1831
  10   2.0000     -10.021080      -272.6875
  11   2.0000      -1.132274       -30.8108
  12   2.0000      -1.027997       -27.9732
  13   2.0000      -1.007856       -27.4252
  14   2.0000      -0.975025       -26.5318
  15   2.0000      -0.909217       -24.7410
  16   2.0000      -0.854640       -23.2559
  17   2.0000      -0.798380       -21.7250
  18   2.0000      -0.758715       -20.6457
  19   2.0000      -0.733920       -19.9710
  20   2.0000      -0.704207       -19.1624
  21   2.0000      -0.684390       -18.6232
  22   2.0000      -0.667263       -18.1572
  23   2.0000      -0.633667       -17.2430
  24   2.0000      -0.609994       -16.5988
  25   2.0000      -0.603553       -16.4235
  26   2.0000      -0.592546       -16.1240
  27   2.0000      -0.581274       -15.8173
  28   2.0000      -0.546534       -14.8719
  29   2.0000      -0.530311       -14.4305
  30   2.0000      -0.520462       -14.1625
  31   2.0000      -0.513518       -13.9735
  32   2.0000      -0.486035       -13.2257
  33   2.0000      -0.465756       -12.6739
  34   2.0000      -0.457965       -12.4619
  35   2.0000      -0.436047       -11.8655
  36   2.0000      -0.416900       -11.3444
  37   2.0000      -0.409672       -11.1477
  38   2.0000      -0.401474       -10.9247
  39   2.0000      -0.392543       -10.6816
  40   2.0000      -0.385427       -10.4880
  41   2.0000      -0.357130        -9.7180
  42   2.0000      -0.272058        -7.4031
  43   2.0000      -0.264467        -7.1965
  44   0.0000       0.060318         1.6413
  45   0.0000       0.091578         2.4920
  46   0.0000       0.093394         2.5414
  47   0.0000       0.111742         3.0407
  48   0.0000       0.130239         3.5440

MULLIKEN ATOMIC CHARGES
-----------------------
   0 C :   -0.180583
   1 C :   -0.330319
   2 N :   -0.178304
   3 C :   -0.234821
   4 C :   -0.293830
   5 H :    0.133031
   6 C :   -0.184977
   7 H :    0.115423
   8 H :    0.090740
   9 H :    0.094825
  10 C :   -0.027522
  11 H :    0.045296
  12 H :    0.060309
  13 O :   -0.695294
  14 H :    0.124889
  15 H :    0.147723
  16 C :    0.324253
  17 N :   -0.383728
  18 N :   -0.439539
  19 H :    0.256488
  20 H :    0.248788
  21 H :    0.256165
  22 H :    0.275822
  23 H :    0.225614
  24 H :    0.116619
  25 H :    0.129293
  26 H :    0.169822
  27 H :    0.133817
Sum of atomic charges:   -0.0000000

LOEWDIN ATOMIC CHARGES
----------------------
   0 C :   -0.296468
   1 C :   -0.276184
   2 N :    0.177168
   3 C :   -0.282293
   4 C :   -0.283925
   5 H :    0.140739
   6 C :   -0.294024
   7 H :    0.136357
   8 H :    0.131962
   9 H :    0.130723
  10 C :   -0.483541
  11 H :    0.098460
  12 H :    0.105012
  13 O :   -0.294743
  14 H :    0.133024
  15 H :    0.135878
  16 C :   -0.433515
  17 N :    0.038237
  18 N :    0.001225
  19 H :    0.178918
  20 H :    0.178177
  21 H :    0.160189
  22 H :    0.153372
  23 H :    0.170769
  24 H :    0.136590
  25 H :    0.143939
  26 H :    0.148267
  27 H :    0.145687

  Mayer bond orders larger than 0.100000
B(  0-C ,  1-C ) :   0.9544 B(  0-C ,  2-N ) :   0.8874 B(  0-C , 14-H ) :   0.9643
B(  0-C , 15-H ) :   0.9585 B(  1-C ,  3-C ) :   0.9307 B(  1-C , 26-H ) :   0.9791
B(  1-C , 27-H ) :   0.9828 B(  2-N , 16-C ) :   1.4637 B(  2-N , 21-H ) :   0.7279
B(  3-C ,  4-C ) :   0.9221 B(  3-C , 24-H ) :   0.9842 B(  3-C , 25-H ) :   0.9816
B(  4-C ,  5-H ) :   0.9803 B(  4-C ,  6-C ) :   0.8940 B(  4-C ,  7-H ) :   0.9822
B(  6-C ,  8-H ) :   0.9792 B(  6-C ,  9-H ) :   0.9625 B(  6-C , 10-C ) :   0.9280
B( 10-C , 11-H ) :   0.9734 B( 10-C , 12-H ) :   0.9634 B( 10-C , 13-O ) :   1.2007
B( 13-O , 21-H ) :   0.2995 B( 13-O , 22-H ) :   0.2482 B( 16-C , 17-N ) :   1.3933
B( 16-C , 18-N ) :   1.2109 B( 17-N , 22-H ) :   0.7504 B( 17-N , 23-H ) :   0.9221
B( 18-N , 19-H ) :   0.9180 B( 18-N , 20-H ) :   0.9166

FINAL SINGLE POINT ENERGY      -515.338042966003

DIPOLE MOMENT
-------------
                                X             Y             Z
Electronic contribution:      8.36777      -0.92575      -2.26965
Nuclear contribution   :     -7.46499      -1.05836       0.01518
                        -----------------------------------------
Total Dipole Moment    :      0.90278      -1.98411      -2.25447
                        -----------------------------------------
Magnitude (a.u.)       :      3.13598
Magnitude (Debye)      :      7.97102

Rotational constants in cm-1:     0.044680     0.028958     0.019773
Rotational constants in MHz :  1339.486245   868.136755   592.791310

                             ****ORCA TERMINATED NORMALLY****
TOTAL RUN TIME: 0 days 0 hours 0 minutes 39 seconds 684 msec
