                         Program Version 5.0.0 -  RELEASE  -
|  1> !LC-BLYP RIJCOSX def2-SVP def2/J TightSCF
|  2> *xyz 0 1
|  3> C         -0.05517        1.61942       -3.78858
|  4> C          1.22302        2.46987       -3.75691
|  5> H          1.11470        3.25807       -4.53300
|  6> H          1.23773        3.01124       -2.79216
|  7> F          2.35381        1.71203       -3.93448
|  8> H         -0.10198        1.08015       -4.71156
|  9> H         -0.91014        2.25726       -3.70441
| 10> H         -0.04403        0.92826       -2.97183
| 11> *
| 12>
| 13> %MaxCore 64000
| 14>
| 15> %pal nprocs 4
| 16> end
| 17>
| 18> %scf
| 19>   MaxIter 150
| 20> end
| 21>
| 22>
| 23>                          ****END OF INPUT****

CARTESIAN COORDINATES (ANGSTROEM)
---------------------------------
  C     -0.055170    1.619420   -3.788580
  C      1.223020    2.469870   -3.756910
  H      1.114700    3.258070   -4.533000
  H      1.237730    3.011240   -2.792160
  F      2.353810    1.712030   -3.934480
  H     -0.101980    1.080150   -4.711560
  H     -0.910140    2.257260   -3.704410
  H     -0.044030    0.928260   -2.971830

 Total Charge           Charge          ....    0
 Multiplicity           Mult            ....    1
 Number of Electrons    NEL             ....   26
 Basis Dimension        Dim             ....   67

ORBITAL ENERGIES
----------------

  NO   OCC          E(Eh)            E(eV)
   0   2.0000     -24.434125      -664.8863
   1   2.0000     -10.156579      -276.3746
   2   2.0000     -10.078094      -274.2389
   3   2.0000      -1.241606       -33.7858
   4   2.0000      -0.861838       -23.4518
   5   2.0000      -0.725050       -19.7296
   6   2.0000      -0.598878       -16.2963
   7   2.0000      -0.593532       -16.1508
   8   2.0000      -0.548359       -14.9216
   9   2.0000      -0.495871       -13.4933
  10   2.0000      -0.495288       -13.4775
  11   2.0000      -0.422843       -11.5062
  12   2.0000      -0.417737       -11.3672
  13   0.0000       0.136040         3.7018
  14   0.0000       0.183322         4.9885
  15   0.0000       0.191859         5.2208
  16   0.0000       0.211366         5.7516
  17   0.0000       0.229746         6.2517

MULLIKEN ATOMIC CHARGES
-----------------------
   0 C :   -0.040723
   1 C :    0.182387
   2 H :    0.009866
   3 H :    0.009103
   4 F :   -0.228485
   5 H :    0.026733
   6 H :    0.015138
   7 H :    0.025981
Sum of atomic charges:    0.0000000

LOEWDIN ATOMIC CHARGES
----------------------
   0 C :   -0.087275
   1 C :    0.087556
   2 H :    0.014097
   3 H :    0.013621
   4 F :   -0.120882
   5 H :    0.030034
   6 H :    0.033659
   7 H :    0.029190

  Mayer bond orders larger than 0.100000
B(  0-C ,  1-C ) :   1.1004 B(  0-C ,  5-H ) :   0.9688 B(  0-C ,  6-H ) :   0.9585
B(  0-C ,  7-H ) :   0.9702 B(  1-C ,  2-H ) :   0.9571 B(  1-C ,  3-H ) :   0.9570
B(  1-C ,  4-F ) :   1.0547

FINAL SINGLE POINT ENERGY      -178.518641842186

DIPOLE MOMENT
-------------
                                X             Y             Z
Electronic contribution:      5.08189      -0.75909      -0.43788
Nuclear contribution   :     -5.66833       1.07099       0.52006
                        -----------------------------------------
Total Dipole Moment    :     -0.58644       0.31190       0.08218
                        -----------------------------------------
Magnitude (a.u.)       :      0.66929
Magnitude (Debye)      :      1.70119

Rotational constants in cm-1:     1.245689     0.305293     0.269541
Rotational constants in MHz : 37344.801915  9152.442838  8080.640229

                             ****ORCA TERMINATED NORMALLY****
TOTAL RUN TIME: 0 days 0 hours 0 minutes 7 seconds 923 msec
