                         Program Version 5.0.0 -  RELEASE  -
|  1> !LC-BLYP RIJCOSX def2-SVP def2/J TightSCF
|  2> *xyz 0 1
|  3> C          1.63556       -1.67040       -5.29211
|  4> C          0.33848       -1.50091       -4.50540
|  5> C          2.48451       -0.50741       -5.14039
|  6> H          1.39834       -1.82924       -6.35259
|  7> H          2.15586       -2.56540       -4.93209
|  8> C          3.45115       -0.14953       -5.95259
|  9> N          3.92267        1.08956       -5.85071
| 10> N          3.96616       -1.00618       -6.86788
| 11> H          3.52139       -1.90647       -6.99527
| 12> H          4.44482       -0.62347       -7.67035
| 13> H          2.25200        0.24080       -4.49879
| 14> H          3.46428        1.64078       -5.13639
| 15> H          4.83447        1.31375       -6.22465
| 16> H         -0.17658       -0.62881       -4.85045
| 17> H          0.56384       -1.39374       -3.46490
| 18> H         -0.28102       -2.36136       -4.64938
| 19> *
| 20>
| 21> %MaxCore 64000
| 22>
| 23> %pal nprocs 4
| 24> end
| 25>
| 26> %scf
| 27>   MaxIter 150
| 28> end
| 29>
| 30>
| 31>                          ****END OF INPUT****

CARTESIAN COORDINATES (ANGSTROEM)
---------------------------------
  C      1.635560   -1.670400   -5.292110
  C      0.338480   -1.500910   -4.505400
  C      2.484510   -0.507410   -5.140390
  H      1.398340   -1.829240   -6.352590
  H      2.155860   -2.565400   -4.932090
  C      3.451150   -0.149530   -5.952590
  N      3.922670    1.089560   -5.850710
  N      3.966160   -1.006180   -6.867880
  H      3.521390   -1.906470   -6.995270
  H      4.444820   -0.623470   -7.670350
  H      2.252000    0.240800   -4.498790
  H      3.464280    1.640780   -5.136390
  H      4.834470    1.313750   -6.224650
  H     -0.176580   -0.628810   -4.850450
  H      0.563840   -1.393740   -3.464900
  H     -0.281020   -2.361360   -4.649380

 Total Charge           Charge          ....    0
 Multiplicity           Mult            ....    1
 Number of Electrons    NEL             ....   48
 Basis Dimension        Dim             ....  134

ORBITAL ENERGIES
----------------

  NO   OCC          E(Eh)            E(eV)
   0   2.0000     -14.177230      -385.7820
   1   2.0000     -14.172276      -385.6472
   2   2.0000     -10.116302      -275.2786
   3   2.0000     -10.055289      -273.6183
   4   2.0000     -10.049303      -273.4554
   5   2.0000      -9.996438      -272.0169
   6   2.0000      -1.039978       -28.2992
   7   2.0000      -0.951392       -25.8887
   8   2.0000      -0.870064       -23.6756
   9   2.0000      -0.789994       -21.4968
  10   2.0000      -0.705084       -19.1863
  11   2.0000      -0.674942       -18.3661
  12   2.0000      -0.628421       -17.1002
  13   2.0000      -0.606571       -16.5056
  14   2.0000      -0.557187       -15.1618
  15   2.0000      -0.539982       -14.6937
  16   2.0000      -0.522738       -14.2244
  17   2.0000      -0.491014       -13.3612
  18   2.0000      -0.472573       -12.8594
  19   2.0000      -0.432928       -11.7806
  20   2.0000      -0.421262       -11.4631
  21   2.0000      -0.420795       -11.4504
  22   2.0000      -0.351729        -9.5710
  23   2.0000      -0.243709        -6.6316
  24   0.0000       0.122439         3.3317
  25   0.0000       0.151529         4.1233
  26   0.0000       0.164932         4.4880
  27   0.0000       0.175813         4.7841
  28   0.0000       0.181642         4.9427

MULLIKEN ATOMIC CHARGES
-----------------------
   0 C :    0.044514
   1 C :    0.021490
   2 C :   -0.100456
   3 H :   -0.017709
   4 H :   -0.008867
   5 C :   -0.184817
   6 N :   -0.004180
   7 N :   -0.039077
   8 H :    0.110905
   9 H :    0.098066
  10 H :   -0.127926
  11 H :    0.112596
  12 H :    0.098261
  13 H :    0.001087
  14 H :    0.004653
  15 H :   -0.008541
Sum of atomic charges:    0.0000000

LOEWDIN ATOMIC CHARGES
----------------------
   0 C :   -0.049428
   1 C :   -0.058447
   2 C :   -0.227355
   3 H :    0.011037
   4 H :    0.014669
   5 C :    0.021072
   6 N :   -0.025886
   7 N :   -0.032153
   8 H :    0.078720
   9 H :    0.064779
  10 H :   -0.009942
  11 H :    0.083260
  12 H :    0.065748
  13 H :    0.021438
  14 H :    0.023075
  15 H :    0.019413

  Mayer bond orders larger than 0.100000
B(  0-C ,  1-C ) :   1.1130 B(  0-C ,  2-C ) :   1.0340 B(  0-C ,  3-H ) :   0.9408
B(  0-C ,  4-H ) :   0.9239 B(  1-C , 13-H ) :   0.9738 B(  1-C , 14-H ) :   0.9681
B(  1-C , 15-H ) :   0.9631 B(  2-C ,  5-C ) :   1.7013 B(  2-C , 10-H ) :   0.9186
B(  5-C ,  6-N ) :   1.2599 B(  5-C ,  7-N ) :   1.2605 B(  6-N , 11-H ) :   0.9315
B(  6-N , 12-H ) :   0.9451 B(  7-N ,  8-H ) :   0.9396 B(  7-N ,  9-H ) :   0.9452

FINAL SINGLE POINT ENERGY      -266.983021646550

DIPOLE MOMENT
-------------
                                X             Y             Z
Electronic contribution:      4.66385       2.22254      -2.00258
Nuclear contribution   :     -3.99655      -1.83277       1.34879
                        -----------------------------------------
Total Dipole Moment    :      0.66731       0.38977      -0.65379
                        -----------------------------------------
Magnitude (a.u.)       :      1.01226
Magnitude (Debye)      :      2.57295

Rotational constants in cm-1:     0.262971     0.067064     0.055026
Rotational constants in MHz :  7883.664566  2010.513309  1649.636654

                             ****ORCA TERMINATED NORMALLY****
TOTAL RUN TIME: 0 days 0 hours 0 minutes 18 seconds 411 msec
