                         Program Version 5.0.0 -  RELEASE  -
|  1> !LC-BLYP RIJCOSX def2-SVP def2/J TightSCF
|  2> *xyz 0 1
|  3> C          1.63556       -1.67040       -5.29211
|  4> C          0.33848       -1.50091       -4.50540
|  5> N          2.48451       -0.50741       -5.14039
|  6> H          1.39834       -1.82924       -6.35259
|  7> H          2.15586       -2.56540       -4.93209
|  8> C          3.45115       -0.14953       -5.95259
|  9> C          3.92267        1.08956       -5.85071
| 10> N          3.96616       -1.00618       -6.86788
| 11> H          3.52139       -1.90647       -6.99527
| 12> H          4.44482       -0.62347       -7.67035
| 13> H          2.25200        0.24080       -4.49879
| 14> H          3.46428        1.64078       -5.13639
| 15> H          4.83447        1.31375       -6.22465
| 16> H         -0.17658       -0.62881       -4.85045
| 17> H          0.56384       -1.39374       -3.46490
| 18> H         -0.28102       -2.36136       -4.64938
| 19> *
| 20>
| 21> %MaxCore 64000
| 22>
| 23> %pal nprocs 4
| 24> end
| 25>
| 26> %scf
| 27>   MaxIter 150
| 28> end
| 29>
| 30>
| 31>                          ****END OF INPUT****

CARTESIAN COORDINATES (ANGSTROEM)
---------------------------------
  C      1.635560   -1.670400   -5.292110
  C      0.338480   -1.500910   -4.505400
  N      2.484510   -0.507410   -5.140390
  H      1.398340   -1.829240   -6.352590
  H      2.155860   -2.565400   -4.932090
  C      3.451150   -0.149530   -5.952590
  C      3.922670    1.089560   -5.850710
  N      3.966160   -1.006180   -6.867880
  H      3.521390   -1.906470   -6.995270
  H      4.444820   -0.623470   -7.670350
  H      2.252000    0.240800   -4.498790
  H      3.464280    1.640780   -5.136390
  H      4.834470    1.313750   -6.224650
  H     -0.176580   -0.628810   -4.850450
  H      0.563840   -1.393740   -3.464900
  H     -0.281020   -2.361360   -4.649380

 Total Charge           Charge          ....    0
 Multiplicity           Mult            ....    1
 Number of Electrons    NEL             ....   48
 Basis Dimension        Dim             ....  134

ORBITAL ENERGIES
----------------

  NO   OCC          E(Eh)            E(eV)
   0   2.0000     -14.178013      -385.8033
   1   2.0000     -14.176259      -385.7556
   2   2.0000     -10.123709      -275.4801
   3   2.0000     -10.121375      -275.4166
   4   2.0000     -10.084942      -274.4252
   5   2.0000      -9.986836      -271.7556
   6   2.0000      -1.055044       -28.7092
   7   2.0000      -0.967192       -26.3186
   8   2.0000      -0.876393       -23.8479
   9   2.0000      -0.796868       -21.6839
  10   2.0000      -0.725069       -19.7301
  11   2.0000      -0.692214       -18.8361
  12   2.0000      -0.632293       -17.2056
  13   2.0000      -0.592416       -16.1205
  14   2.0000      -0.584145       -15.8954
  15   2.0000      -0.557332       -15.1658
  16   2.0000      -0.515692       -14.0327
  17   2.0000      -0.494977       -13.4690
  18   2.0000      -0.474648       -12.9158
  19   2.0000      -0.470013       -12.7897
  20   2.0000      -0.467832       -12.7303
  21   2.0000      -0.444133       -12.0855
  22   2.0000      -0.346011        -9.4154
  23   2.0000      -0.244443        -6.6516
  24   0.0000       0.121425         3.3041
  25   0.0000       0.142782         3.8853
  26   0.0000       0.151739         4.1290
  27   0.0000       0.172636         4.6977
  28   0.0000       0.186111         5.0643

MULLIKEN ATOMIC CHARGES
-----------------------
   0 C :    0.062439
   1 C :   -0.019571
   2 N :   -0.057262
   3 H :    0.009648
   4 H :    0.013675
   5 C :   -0.131578
   6 C :   -0.061995
   7 N :   -0.054896
   8 H :    0.094265
   9 H :    0.120469
  10 H :    0.115973
  11 H :   -0.090137
  12 H :   -0.068004
  13 H :    0.024401
  14 H :    0.022835
  15 H :    0.019737
Sum of atomic charges:   -0.0000000

LOEWDIN ATOMIC CHARGES
----------------------
   0 C :    0.016111
   1 C :   -0.065700
   2 N :   -0.021797
   3 H :    0.016333
   4 H :    0.016219
   5 C :    0.034886
   6 C :   -0.269435
   7 N :   -0.029280
   8 H :    0.063863
   9 H :    0.082528
  10 H :    0.085492
  11 H :   -0.011821
  12 H :   -0.007970
  13 H :    0.028581
  14 H :    0.028335
  15 H :    0.033655

  Mayer bond orders larger than 0.100000
B(  0-C ,  1-C ) :   1.1160 B(  0-C ,  2-N ) :   1.0108 B(  0-C ,  3-H ) :   0.9429
B(  0-C ,  4-H ) :   0.9466 B(  1-C , 13-H ) :   0.9714 B(  1-C , 14-H ) :   0.9691
B(  1-C , 15-H ) :   0.9626 B(  2-N ,  5-C ) :   1.2405 B(  2-N , 10-H ) :   0.9192
B(  5-C ,  6-C ) :   1.7571 B(  5-C ,  7-N ) :   1.2306 B(  6-C , 11-H ) :   0.9088
B(  6-C , 12-H ) :   0.9403 B(  7-N ,  8-H ) :   0.9527 B(  7-N ,  9-H ) :   0.9489

FINAL SINGLE POINT ENERGY      -266.973317264075

DIPOLE MOMENT
-------------
                                X             Y             Z
Electronic contribution:      2.96818       0.51333      -1.33630
Nuclear contribution   :     -3.69145      -1.49398       1.19810
                        -----------------------------------------
Total Dipole Moment    :     -0.72327      -0.98065      -0.13820
                        -----------------------------------------
Magnitude (a.u.)       :      1.22633
Magnitude (Debye)      :      3.11709

Rotational constants in cm-1:     0.270790     0.068966     0.056679
Rotational constants in MHz :  8118.084803  2067.559423  1699.196934

                             ****ORCA TERMINATED NORMALLY****
TOTAL RUN TIME: 0 days 0 hours 0 minutes 18 seconds 626 msec
