                         Program Version 5.0.0 -  RELEASE  -
|  1> !LC-BLYP RIJCOSX def2-SVP def2/J TightSCF
|  2> *xyz 0 1
|  3> C          1.63556       -1.67040       -5.29211
|  4> C          0.33848       -1.50091       -4.50540
|  5> N          2.48451       -0.50741       -5.14039
|  6> H          1.39834       -1.82924       -6.35259
|  7> H          2.15586       -2.56540       -4.93209
|  8> C          3.45115       -0.14953       -5.95259
|  9> N          3.92267        1.08956       -5.85071
| 10> C          3.96616       -1.00618       -6.86788
| 11> H          3.52139       -1.90647       -6.99527
| 12> H          4.44482       -0.62347       -7.67035
| 13> H          2.25200        0.24080       -4.49879
| 14> H          3.46428        1.64078       -5.13639
| 15> H          4.83447        1.31375       -6.22465
| 16> H         -0.17658       -0.62881       -4.85045
| 17> H          0.56384       -1.39374       -3.46490
| 18> H         -0.28102       -2.36136       -4.64938
| 19> *
| 20>
| 21> %MaxCore 64000
| 22>
| 23> %pal nprocs 4
| 24> end
| 25>
| 26> %scf
| 27>   MaxIter 150
| 28> end
| 29>
| 30>
| 31>                          ****END OF INPUT****

CARTESIAN COORDINATES (ANGSTROEM)
---------------------------------
  C      1.635560   -1.670400   -5.292110
  C      0.338480   -1.500910   -4.505400
  N      2.484510   -0.507410   -5.140390
  H      1.398340   -1.829240   -6.352590
  H      2.155860   -2.565400   -4.932090
  C      3.451150   -0.149530   -5.952590
  N      3.922670    1.089560   -5.850710
  C      3.966160   -1.006180   -6.867880
  H      3.521390   -1.906470   -6.995270
  H      4.444820   -0.623470   -7.670350
  H      2.252000    0.240800   -4.498790
  H      3.464280    1.640780   -5.136390
  H      4.834470    1.313750   -6.224650
  H     -0.176580   -0.628810   -4.850450
  H      0.563840   -1.393740   -3.464900
  H     -0.281020   -2.361360   -4.649380

 Total Charge           Charge          ....    0
 Multiplicity           Mult            ....    1
 Number of Electrons    NEL             ....   48
 Basis Dimension        Dim             ....  134

ORBITAL ENERGIES
----------------

  NO   OCC          E(Eh)            E(eV)
   0   2.0000     -14.184270      -385.9736
   1   2.0000     -14.178967      -385.8293
   2   2.0000     -10.123116      -275.4640
   3   2.0000     -10.115070      -275.2451
   4   2.0000     -10.080498      -274.3043
   5   2.0000      -9.986719      -271.7524
   6   2.0000      -1.062995       -28.9256
   7   2.0000      -0.972845       -26.4725
   8   2.0000      -0.861638       -23.4464
   9   2.0000      -0.795356       -21.6427
  10   2.0000      -0.742968       -20.2172
  11   2.0000      -0.663553       -18.0562
  12   2.0000      -0.631625       -17.1874
  13   2.0000      -0.618617       -16.8334
  14   2.0000      -0.577342       -15.7103
  15   2.0000      -0.563926       -15.3452
  16   2.0000      -0.499564       -13.5938
  17   2.0000      -0.491566       -13.3762
  18   2.0000      -0.486548       -13.2397
  19   2.0000      -0.463408       -12.6100
  20   2.0000      -0.454167       -12.3585
  21   2.0000      -0.443016       -12.0551
  22   2.0000      -0.340125        -9.2553
  23   2.0000      -0.247124        -6.7246
  24   0.0000       0.115094         3.1319
  25   0.0000       0.138159         3.7595
  26   0.0000       0.162395         4.4190
  27   0.0000       0.178305         4.8519
  28   0.0000       0.194195         5.2843

MULLIKEN ATOMIC CHARGES
-----------------------
   0 C :    0.083535
   1 C :   -0.017777
   2 N :   -0.073556
   3 H :    0.027013
   4 H :    0.018798
   5 C :   -0.119353
   6 N :   -0.029061
   7 C :   -0.105449
   8 H :   -0.068774
   9 H :   -0.070103
  10 H :    0.085698
  11 H :    0.089243
  12 H :    0.126426
  13 H :    0.016045
  14 H :    0.015436
  15 H :    0.021879
Sum of atomic charges:    0.0000000

LOEWDIN ATOMIC CHARGES
----------------------
   0 C :    0.031472
   1 C :   -0.069137
   2 N :   -0.016942
   3 H :    0.026277
   4 H :    0.021782
   5 C :    0.028507
   6 N :   -0.019514
   7 C :   -0.280494
   8 H :   -0.009842
   9 H :   -0.009639
  10 H :    0.063585
  11 H :    0.062448
  12 H :    0.086896
  13 H :    0.024912
  14 H :    0.024853
  15 H :    0.034838

  Mayer bond orders larger than 0.100000
B(  0-C ,  1-C ) :   1.1061 B(  0-C ,  2-N ) :   1.0084 B(  0-C ,  3-H ) :   0.9413
B(  0-C ,  4-H ) :   0.9489 B(  1-C , 13-H ) :   0.9704 B(  1-C , 14-H ) :   0.9684
B(  1-C , 15-H ) :   0.9630 B(  2-N ,  5-C ) :   1.2237 B(  2-N , 10-H ) :   0.9303
B(  5-C ,  6-N ) :   1.2429 B(  5-C ,  7-C ) :   1.7520 B(  6-N , 11-H ) :   0.9498
B(  6-N , 12-H ) :   0.9442 B(  7-C ,  8-H ) :   0.9296 B(  7-C ,  9-H ) :   0.9364

FINAL SINGLE POINT ENERGY      -266.973235188648

DIPOLE MOMENT
-------------
                                X             Y             Z
Electronic contribution:      3.05621       2.73937      -0.13690
Nuclear contribution   :     -3.68222      -1.93858       0.98231
                        -----------------------------------------
Total Dipole Moment    :     -0.62601       0.80079       0.84541
                        -----------------------------------------
Magnitude (a.u.)       :      1.32207
Magnitude (Debye)      :      3.36043

Rotational constants in cm-1:     0.275407     0.068040     0.056255
Rotational constants in MHz :  8256.498401  2039.796466  1686.484500

                             ****ORCA TERMINATED NORMALLY****
TOTAL RUN TIME: 0 days 0 hours 0 minutes 18 seconds 911 msec
