                         Program Version 5.0.0 -  RELEASE  -
|  1> !LC-BLYP RIJCOSX def2-TZVP def2/J TightSCF xyzfile
|  2>
|  3> *xyzfile 0 1 D1.xyz
|  4>
|  5> %MaxCore 64000
|  6>
|  7> %pal nprocs 18
|  8> end
|  9>
| 10> %scf
| 11>   MaxIter 150
| 12> end
| 13>
| 14>
| 15>                          ****END OF INPUT****

CARTESIAN COORDINATES (ANGSTROEM)
---------------------------------
  C      1.635557   -1.670396   -5.292109
  C      0.338484   -1.500907   -4.505398
  C      2.484511   -0.507410   -5.140392
  C     -0.684873   -0.528026   -5.099889
  C     -0.290406    0.951335   -5.153423
  H      0.607991    1.070692   -5.764412
  C     -0.055168    1.619420   -3.788577
  H     -1.080912    1.483775   -5.689436
  H      0.045006    0.862302   -3.003015
  H     -0.922936    2.230329   -3.517028
  C      1.223022    2.469865   -3.756911
  H      1.114701    3.258074   -4.532999
  H      1.237732    3.011242   -2.792157
  F      2.353815    1.712032   -3.934477
  H      1.398337   -1.829239   -6.352591
  H      2.155864   -2.565398   -4.932091
  C      3.451149   -0.149530   -5.952589
  N      3.922667    1.089559   -5.850711
  N      3.966162   -1.006183   -6.867880
  H      3.521391   -1.906467   -6.995270
  H      4.444824   -0.623472   -7.670348
  H      2.251995    0.240804   -4.498792
  H      3.464277    1.640782   -5.136392
  H      4.834470    1.313745   -6.224653
  H     -0.937999   -0.869056   -6.110838
  H     -1.604638   -0.622496   -4.513132
  H      0.594887   -1.211578   -3.482312
  H     -0.126530   -2.487656   -4.434176

 Total Charge           Charge          ....    0
 Multiplicity           Mult            ....    1
 Number of Electrons    NEL             ....   88
 Basis Dimension        Dim             ....  443

ORBITAL ENERGIES
----------------

  NO   OCC          E(Eh)            E(eV)
   0   2.0000     -24.466335      -665.7628
   1   2.0000     -14.152744      -385.1158
   2   2.0000     -14.136484      -384.6733
   3   2.0000     -10.156188      -276.3639
   4   2.0000     -10.088619      -274.5253
   5   2.0000     -10.074172      -274.1322
   6   2.0000     -10.056315      -273.6463
   7   2.0000     -10.053469      -273.5688
   8   2.0000     -10.043580      -273.2997
   9   2.0000     -10.032803      -273.0064
  10   2.0000      -9.960435      -271.0372
  11   2.0000      -1.313435       -35.7404
  12   2.0000      -1.039807       -28.2946
  13   2.0000      -0.952783       -25.9265
  14   2.0000      -0.919094       -25.0098
  15   2.0000      -0.884283       -24.0626
  16   2.0000      -0.833829       -22.6897
  17   2.0000      -0.798975       -21.7412
  18   2.0000      -0.746701       -20.3188
  19   2.0000      -0.715478       -19.4691
  20   2.0000      -0.683319       -18.5941
  21   2.0000      -0.662422       -18.0254
  22   2.0000      -0.641240       -17.4490
  23   2.0000      -0.625546       -17.0220
  24   2.0000      -0.609745       -16.5920
  25   2.0000      -0.605432       -16.4746
  26   2.0000      -0.588451       -16.0126
  27   2.0000      -0.562043       -15.2940
  28   2.0000      -0.544079       -14.8051
  29   2.0000      -0.538055       -14.6412
  30   2.0000      -0.518361       -14.1053
  31   2.0000      -0.503224       -13.6934
  32   2.0000      -0.491860       -13.3842
  33   2.0000      -0.480499       -13.0750
  34   2.0000      -0.460298       -12.5254
  35   2.0000      -0.456834       -12.4311
  36   2.0000      -0.448333       -12.1997
  37   2.0000      -0.434284       -11.8175
  38   2.0000      -0.414998       -11.2927
  39   2.0000      -0.403651       -10.9839
  40   2.0000      -0.398138       -10.8339
  41   2.0000      -0.385254       -10.4833
  42   2.0000      -0.345800        -9.4097
  43   2.0000      -0.235768        -6.4156
  44   0.0000       0.096717         2.6318
  45   0.0000       0.104219         2.8360
  46   0.0000       0.114834         3.1248
  47   0.0000       0.128361         3.4929
  48   0.0000       0.135772         3.6945

MULLIKEN ATOMIC CHARGES
-----------------------
   0 C :   -0.247557
   1 C :   -0.305858
   2 C :   -0.381503
   3 C :   -0.236855
   4 C :   -0.305203
   5 H :    0.180665
   6 C :   -0.252922
   7 H :    0.122514
   8 H :    0.141325
   9 H :    0.139935
  10 C :   -0.049461
  11 H :    0.130346
  12 H :    0.128461
  13 F :   -0.209213
  14 H :    0.088466
  15 H :    0.118601
  16 C :    0.293793
  17 N :   -0.447709
  18 N :   -0.460370
  19 H :    0.233820
  20 H :    0.209634
  21 H :    0.168160
  22 H :    0.236860
  23 H :    0.206170
  24 H :    0.124903
  25 H :    0.121071
  26 H :    0.131767
  27 H :    0.120161
Sum of atomic charges:   -0.0000000

LOEWDIN ATOMIC CHARGES
----------------------
   0 C :   -0.293564
   1 C :   -0.273646
   2 C :   -0.294824
   3 C :   -0.276681
   4 C :   -0.279847
   5 H :    0.151455
   6 C :   -0.279619
   7 H :    0.136981
   8 H :    0.145832
   9 H :    0.146720
  10 C :   -0.359300
  11 H :    0.131271
  12 H :    0.129509
  13 F :    0.156382
  14 H :    0.133861
  15 H :    0.137282
  16 C :   -0.469328
  17 N :   -0.032169
  18 N :   -0.033186
  19 H :    0.171701
  20 H :    0.157225
  21 H :    0.120429
  22 H :    0.159881
  23 H :    0.156688
  24 H :    0.141592
  25 H :    0.139598
  26 H :    0.137771
  27 H :    0.137986

  Mayer bond orders larger than 0.100000
B(  0-C ,  1-C ) :   0.9458 B(  0-C ,  2-C ) :   0.8760 B(  0-C , 14-H ) :   0.9745
B(  0-C , 15-H ) :   0.9869 B(  1-C ,  3-C ) :   0.9369 B(  1-C , 26-H ) :   0.9935
B(  1-C , 27-H ) :   0.9980 B(  2-C , 16-C ) :   1.6026 B(  2-C , 21-H ) :   1.0116
B(  3-C ,  4-C ) :   0.9174 B(  3-C , 24-H ) :   0.9797 B(  3-C , 25-H ) :   0.9863
B(  4-C ,  5-H ) :   0.9866 B(  4-C ,  6-C ) :   0.8669 B(  4-C ,  7-H ) :   0.9821
B(  6-C ,  8-H ) :   0.9738 B(  6-C ,  9-H ) :   0.9601 B(  6-C , 10-C ) :   0.9508
B( 10-C , 11-H ) :   0.9764 B( 10-C , 12-H ) :   0.9749 B( 10-C , 13-F ) :   0.9306
B( 16-C , 17-N ) :   1.1898 B( 16-C , 18-N ) :   1.1458 B( 17-N , 22-H ) :   0.8927
B( 17-N , 23-H ) :   0.9341 B( 18-N , 19-H ) :   0.9319 B( 18-N , 20-H ) :   0.9299

FINAL SINGLE POINT ENERGY      -523.255795099572

DIPOLE MOMENT
-------------
                                X             Y             Z
Electronic contribution:      7.86153       3.85382       1.09906
Nuclear contribution   :     -8.11591      -2.99033      -1.35383
                        -----------------------------------------
Total Dipole Moment    :     -0.25438       0.86350      -0.25478
                        -----------------------------------------
Magnitude (a.u.)       :      0.93555
Magnitude (Debye)      :      2.37797

Rotational constants in cm-1:     0.043530     0.028984     0.019589
Rotational constants in MHz :  1305.007140   868.923804   587.262638

                             ****ORCA TERMINATED NORMALLY****
TOTAL RUN TIME: 0 days 0 hours 0 minutes 40 seconds 20 msec
