                         Program Version 5.0.0 -  RELEASE  -
|  1> !LC-BLYP RIJCOSX def2-SVPD def2/J TightSCF
|  2> *xyz -1 1
|  3> C          1.69499        1.54179       -5.57045
|  4> S          1.78029       -0.03313       -6.42874
|  5> O          2.56929        0.21366       -7.60736
|  6> O          0.41688       -0.46297       -6.61859
|  7> O          2.50513       -0.93326       -5.48257
|  8> H          1.18489        2.25500       -6.18367
|  9> H          2.68564        1.89081       -5.36624
| 10> H          1.16361        1.41804       -4.65000
| 11> *
| 12> %MaxCore 64000
| 13>
| 14> %pal nprocs 8
| 15> end
| 16>
| 17> %scf
| 18>   MaxIter 150
| 19> end
| 20>
| 21>
| 22>                          ****END OF INPUT****

CARTESIAN COORDINATES (ANGSTROEM)
---------------------------------
  C      1.694990    1.541790   -5.570450
  S      1.780290   -0.033130   -6.428740
  O      2.569290    0.213660   -7.607360
  O      0.416880   -0.462970   -6.618590
  O      2.505130   -0.933260   -5.482570
  H      1.184890    2.255000   -6.183670
  H      2.685640    1.890810   -5.366240
  H      1.163610    1.418040   -4.650000

 Total Charge           Charge          ....   -1
 Multiplicity           Mult            ....    1
 Number of Electrons    NEL             ....   50
 Basis Dimension        Dim             ....  140

ORBITAL ENERGIES
----------------

  NO   OCC          E(Eh)            E(eV)
   0   2.0000     -88.311148     -2403.0685
   1   2.0000     -18.740853      -509.9645
   2   2.0000     -18.739703      -509.9332
   3   2.0000     -18.722390      -509.4621
   4   2.0000      -9.940592      -270.4973
   5   2.0000      -7.859928      -213.8795
   6   2.0000      -5.894191      -160.3891
   7   2.0000      -5.894101      -160.3866
   8   2.0000      -5.893863      -160.3802
   9   2.0000      -1.032302       -28.0904
  10   2.0000      -0.890470       -24.2309
  11   2.0000      -0.857332       -23.3292
  12   2.0000      -0.692848       -18.8534
  13   2.0000      -0.494226       -13.4486
  14   2.0000      -0.411978       -11.2105
  15   2.0000      -0.397831       -10.8255
  16   2.0000      -0.396405       -10.7867
  17   2.0000      -0.353109        -9.6086
  18   2.0000      -0.350633        -9.5412
  19   2.0000      -0.257432        -7.0051
  20   2.0000      -0.254876        -6.9355
  21   2.0000      -0.218855        -5.9554
  22   2.0000      -0.212768        -5.7897
  23   2.0000      -0.198181        -5.3928
  24   2.0000      -0.162307        -4.4166
  25   0.0000       0.196032         5.3343
  26   0.0000       0.221767         6.0346
  27   0.0000       0.221999         6.0409
  28   0.0000       0.227023         6.1776
  29   0.0000       0.257990         7.0203

MULLIKEN ATOMIC CHARGES
-----------------------
   0 C :    0.733799
   1 S :    0.866736
   2 O :   -0.680819
   3 O :   -0.682452
   4 O :   -0.746068
   5 H :   -0.168827
   6 H :   -0.158664
   7 H :   -0.163705
Sum of atomic charges:   -1.0000000

LOEWDIN ATOMIC CHARGES
----------------------
   0 C :    0.042543
   1 S :    0.777132
   2 O :   -0.564790
   3 O :   -0.563915
   4 O :   -0.593836
   5 H :   -0.034061
   6 H :   -0.031283
   7 H :   -0.031789

  Mayer bond orders larger than 0.100000
B(  0-C ,  1-S ) :   0.9418 B(  0-C ,  5-H ) :   0.8694 B(  0-C ,  6-H ) :   0.8716
B(  0-C ,  7-H ) :   0.8723 B(  1-S ,  2-O ) :   1.4048 B(  1-S ,  3-O ) :   1.4023
B(  1-S ,  4-O ) :   1.3503 B(  1-S ,  5-H ) :   0.1258 B(  1-S ,  6-H ) :   0.1387
B(  1-S ,  7-H ) :   0.1384

FINAL SINGLE POINT ENERGY      -662.776071347509

DIPOLE MOMENT
-------------
                                X             Y             Z
Electronic contribution:      0.11202      -3.61885      -2.14734
Nuclear contribution   :     -0.31747       5.08000       2.69095
                        -----------------------------------------
Total Dipole Moment    :     -0.20545       1.46114       0.54361
                        -----------------------------------------
Magnitude (a.u.)       :      1.57247
Magnitude (Debye)      :      3.99690

Rotational constants in cm-1:     0.172246     0.157831     0.154490
Rotational constants in MHz :  5163.797750  4731.657963  4631.481993

                             ****ORCA TERMINATED NORMALLY****
TOTAL RUN TIME: 0 days 0 hours 0 minutes 7 seconds 489 msec
