                         Program Version 5.0.0 -  RELEASE  -
|  1> !LC-BLYP RIJCOSX def2-SVPD def2/J TightSCF
|  2> *xyz 1 1
|  3> C          1.96337       -1.74915       -1.89689
|  4> N          2.73849       -2.01517       -3.09711
|  5> C          4.04974       -2.15472       -3.15204
|  6> N          4.65821       -1.98629       -4.31866
|  7> N          4.76423       -2.45444       -2.05049
|  8> H          4.28736       -2.77626       -1.21750
|  9> H          5.75082       -2.65835       -2.12599
| 10> H          2.34518       -1.69027       -3.97145
| 11> H          4.10900       -1.59268       -5.07176
| 12> H          5.64910       -2.15646       -4.42724
| 13> H          0.92556       -1.68522       -2.14942
| 14> H          2.28268       -0.82430       -1.46378
| 15> H          2.11118       -2.54207       -1.19381
| 16> *
| 17> %MaxCore 64000
| 18>
| 19> %pal nprocs 8
| 20> end
| 21>
| 22> %scf
| 23>   MaxIter 150
| 24> end
| 25>
| 26>
| 27>                          ****END OF INPUT****

CARTESIAN COORDINATES (ANGSTROEM)
---------------------------------
  C      1.963370   -1.749150   -1.896890
  N      2.738490   -2.015170   -3.097110
  C      4.049740   -2.154720   -3.152040
  N      4.658210   -1.986290   -4.318660
  N      4.764230   -2.454440   -2.050490
  H      4.287360   -2.776260   -1.217500
  H      5.750820   -2.658350   -2.125990
  H      2.345180   -1.690270   -3.971450
  H      4.109000   -1.592680   -5.071760
  H      5.649100   -2.156460   -4.427240
  H      0.925560   -1.685220   -2.149420
  H      2.282680   -0.824300   -1.463780
  H      2.111180   -2.542070   -1.193810

 Total Charge           Charge          ....    1
 Multiplicity           Mult            ....    1
 Number of Electrons    NEL             ....   40
 Basis Dimension        Dim             ....  164

ORBITAL ENERGIES
----------------

  NO   OCC          E(Eh)            E(eV)
   0   2.0000     -14.419417      -392.3723
   1   2.0000     -14.417425      -392.3181
   2   2.0000     -14.416504      -392.2930
   3   2.0000     -10.428893      -283.7846
   4   2.0000     -10.290699      -280.0242
   5   2.0000      -1.317434       -35.8492
   6   2.0000      -1.204725       -32.7822
   7   2.0000      -1.191440       -32.4207
   8   2.0000      -1.014269       -27.5996
   9   2.0000      -0.934476       -25.4284
  10   2.0000      -0.895865       -24.3777
  11   2.0000      -0.864899       -23.5351
  12   2.0000      -0.802361       -21.8333
  13   2.0000      -0.793410       -21.5898
  14   2.0000      -0.768950       -20.9242
  15   2.0000      -0.751167       -20.4403
  16   2.0000      -0.698927       -19.0188
  17   2.0000      -0.680889       -18.5279
  18   2.0000      -0.583245       -15.8709
  19   2.0000      -0.557804       -15.1786
  20   0.0000      -0.100674        -2.7395
  21   0.0000      -0.096734        -2.6323
  22   0.0000      -0.061634        -1.6771
  23   0.0000      -0.058532        -1.5927
  24   0.0000      -0.026776        -0.7286

MULLIKEN ATOMIC CHARGES
-----------------------
   0 C :    1.281426
   1 N :   -0.351695
   2 C :    0.935227
   3 N :    0.143215
   4 N :    0.188411
   5 H :   -0.098640
   6 H :   -0.141489
   7 H :   -0.183602
   8 H :   -0.036109
   9 H :   -0.129305
  10 H :   -0.347768
  11 H :   -0.105614
  12 H :   -0.154057
Sum of atomic charges:    1.0000000

LOEWDIN ATOMIC CHARGES
----------------------
   0 C :    0.237807
   1 N :    0.029151
   2 C :   -0.066129
   3 N :    0.273796
   4 N :    0.291221
   5 H :    0.023530
   6 H :    0.038035
   7 H :    0.054619
   8 H :    0.039326
   9 H :    0.044731
  10 H :    0.018391
  11 H :    0.014312
  12 H :    0.001210

  Mayer bond orders larger than 0.100000
B(  0-C ,  1-N ) :   1.0256 B(  0-C ,  7-H ) :  -0.1005 B(  0-C , 10-H ) :   0.7334
B(  0-C , 11-H ) :   0.7954 B(  0-C , 12-H ) :   0.7918 B(  1-N ,  2-C ) :   1.1291
B(  1-N ,  3-N ) :   0.2610 B(  1-N ,  4-N ) :   0.2207 B(  1-N ,  7-H ) :   1.2059
B(  1-N , 10-H ) :   0.2038 B(  1-N , 11-H ) :   0.1095 B(  1-N , 12-H ) :   0.1530
B(  2-C ,  3-N ) :   0.9596 B(  2-C ,  4-N ) :   1.0685 B(  2-C ,  5-H ) :  -0.1617
B(  2-C ,  6-H ) :  -0.1399 B(  2-C ,  7-H ) :  -0.1993 B(  2-C ,  8-H ) :  -0.1350
B(  2-C ,  9-H ) :  -0.1684 B(  3-N ,  4-N ) :   0.1523 B(  3-N ,  8-H ) :   1.1511
B(  3-N ,  9-H ) :   1.2739 B(  4-N ,  5-H ) :   1.1347 B(  4-N ,  6-H ) :   1.2258
B(  5-H ,  6-H ) :  -0.2021 B(  8-H ,  9-H ) :  -0.1872

FINAL SINGLE POINT ENERGY      -244.309469431787

DIPOLE MOMENT
-------------
                                X             Y             Z
Electronic contribution:      2.04639      -0.55497      -1.80475
Nuclear contribution   :     -1.59972       0.59064       1.48941
                        -----------------------------------------
Total Dipole Moment    :      0.44666       0.03567      -0.31534
                        -----------------------------------------
Magnitude (a.u.)       :      0.54792
Magnitude (Debye)      :      1.39271

Rotational constants in cm-1:     0.309236     0.134358     0.096189
Rotational constants in MHz :  9270.657746  4027.948155  2883.671905

                             ****ORCA TERMINATED NORMALLY****
TOTAL RUN TIME: 0 days 0 hours 0 minutes 10 seconds 661 msec
