                         Program Version 5.0.0 -  RELEASE  -
|  1> !LC-BLYP RIJCOSX def2-SVPD def2/J TightSCF
|  2> *xyz 0 1
|  3> C          1.69499        1.54179       -5.57045
|  4> S          1.78029       -0.03313       -6.42874
|  5> F          2.56929        0.21366       -7.60736
|  6> O          0.41688       -0.46297       -6.61859
|  7> O          2.50513       -0.93326       -5.48257
|  8> H          1.18489        2.25500       -6.18367
|  9> H          2.68564        1.89081       -5.36624
| 10> H          1.16361        1.41804       -4.65000
| 11> *
| 12> %MaxCore 64000
| 13>
| 14> %pal nprocs 8
| 15> end
| 16>
| 17> %scf
| 18>   MaxIter 150
| 19> end
| 20>
| 21>
| 22>                          ****END OF INPUT****

CARTESIAN COORDINATES (ANGSTROEM)
---------------------------------
  C      1.694990    1.541790   -5.570450
  S      1.780290   -0.033130   -6.428740
  F      2.569290    0.213660   -7.607360
  O      0.416880   -0.462970   -6.618590
  O      2.505130   -0.933260   -5.482570
  H      1.184890    2.255000   -6.183670
  H      2.685640    1.890810   -5.366240
  H      1.163610    1.418040   -4.650000

 Total Charge           Charge          ....    0
 Multiplicity           Mult            ....    1
 Number of Electrons    NEL             ....   50
 Basis Dimension        Dim             ....  140

ORBITAL ENERGIES
----------------

  NO   OCC          E(Eh)            E(eV)
   0   2.0000     -88.575376     -2410.2585
   1   2.0000     -24.601386      -669.4378
   2   2.0000     -18.979060      -516.4465
   3   2.0000     -18.960015      -515.9282
   4   2.0000     -10.149836      -276.1911
   5   2.0000      -8.124817      -221.0875
   6   2.0000      -6.163702      -167.7229
   7   2.0000      -6.156626      -167.5303
   8   2.0000      -6.155587      -167.5020
   9   2.0000      -1.468695       -39.9652
  10   2.0000      -1.210259       -32.9328
  11   2.0000      -1.098714       -29.8975
  12   2.0000      -0.915702       -24.9175
  13   2.0000      -0.829014       -22.5586
  14   2.0000      -0.718838       -19.5606
  15   2.0000      -0.701058       -19.0767
  16   2.0000      -0.665041       -18.0967
  17   2.0000      -0.587993       -16.0001
  18   2.0000      -0.586358       -15.9556
  19   2.0000      -0.574418       -15.6307
  20   2.0000      -0.542738       -14.7687
  21   2.0000      -0.495800       -13.4914
  22   2.0000      -0.445578       -12.1248
  23   2.0000      -0.427926       -11.6445
  24   2.0000      -0.409087       -11.1318
  25   0.0000       0.040043         1.0896
  26   0.0000       0.075980         2.0675
  27   0.0000       0.082503         2.2450
  28   0.0000       0.084404         2.2968
  29   0.0000       0.102170         2.7802

MULLIKEN ATOMIC CHARGES
-----------------------
   0 C :    0.699865
   1 S :    1.041648
   2 F :   -0.312042
   3 O :   -0.533521
   4 O :   -0.594192
   5 H :   -0.102318
   6 H :   -0.095854
   7 H :   -0.103586
Sum of atomic charges:   -0.0000000

LOEWDIN ATOMIC CHARGES
----------------------
   0 C :    0.110384
   1 S :    1.050572
   2 F :   -0.237911
   3 O :   -0.444508
   4 O :   -0.472509
   5 H :   -0.007716
   6 H :   -0.005600
   7 H :    0.007288

  Mayer bond orders larger than 0.100000
B(  0-C ,  1-S ) :   0.9975 B(  0-C ,  5-H ) :   0.8733 B(  0-C ,  6-H ) :   0.8753
B(  0-C ,  7-H ) :   0.8727 B(  1-S ,  2-F ) :   0.7910 B(  1-S ,  3-O ) :   1.6069
B(  1-S ,  4-O ) :   1.5548 B(  1-S ,  5-H ) :   0.1005 B(  1-S ,  6-H ) :   0.1115
B(  1-S ,  7-H ) :   0.1366

FINAL SINGLE POINT ENERGY      -687.243492890448

DIPOLE MOMENT
-------------
                                X             Y             Z
Electronic contribution:      1.40213      -3.17145      -4.13726
Nuclear contribution   :     -1.09446       4.91008       3.93848
                        -----------------------------------------
Total Dipole Moment    :      0.30766       1.73863      -0.19879
                        -----------------------------------------
Magnitude (a.u.)       :      1.77680
Magnitude (Debye)      :      4.51626

Rotational constants in cm-1:     0.163326     0.155515     0.146672
Rotational constants in MHz :  4896.387829  4662.220576  4397.127261

                             ****ORCA TERMINATED NORMALLY****
TOTAL RUN TIME: 0 days 0 hours 0 minutes 8 seconds 30 msec
