                         Program Version 5.0.0 -  RELEASE  -
|  1> !LC-BLYP RIJCOSX def2-SVPD def2/J TightSCF
|  2> *xyz 0 1
|  3> C          1.96337       -1.74915       -1.89689
|  4> C          2.73849       -2.01517       -3.09711
|  5> C          4.04974       -2.15472       -3.15204
|  6> N          4.65821       -1.98629       -4.31866
|  7> N          4.76423       -2.45444       -2.05049
|  8> H          4.28736       -2.77626       -1.21750
|  9> H          5.75082       -2.65835       -2.12599
| 10> H          2.34518       -1.69027       -3.97145
| 11> H          4.10900       -1.59268       -5.07176
| 12> H          5.64910       -2.15646       -4.42724
| 13> H          0.92556       -1.68522       -2.14942
| 14> H          2.28268       -0.82430       -1.46378
| 15> H          2.11118       -2.54207       -1.19381
| 16> *
| 17> %MaxCore 64000
| 18>
| 19> %pal nprocs 8
| 20> end
| 21>
| 22> %scf
| 23>   MaxIter 150
| 24> end
| 25>
| 26>
| 27>                          ****END OF INPUT****

CARTESIAN COORDINATES (ANGSTROEM)
---------------------------------
  C      1.963370   -1.749150   -1.896890
  C      2.738490   -2.015170   -3.097110
  C      4.049740   -2.154720   -3.152040
  N      4.658210   -1.986290   -4.318660
  N      4.764230   -2.454440   -2.050490
  H      4.287360   -2.776260   -1.217500
  H      5.750820   -2.658350   -2.125990
  H      2.345180   -1.690270   -3.971450
  H      4.109000   -1.592680   -5.071760
  H      5.649100   -2.156460   -4.427240
  H      0.925560   -1.685220   -2.149420
  H      2.282680   -0.824300   -1.463780
  H      2.111180   -2.542070   -1.193810

 Total Charge           Charge          ....    0
 Multiplicity           Mult            ....    1
 Number of Electrons    NEL             ....   40
 Basis Dimension        Dim             ....  164

ORBITAL ENERGIES
----------------

  NO   OCC          E(Eh)            E(eV)
   0   2.0000     -14.190447      -386.1417
   1   2.0000     -14.185823      -386.0159
   2   2.0000     -10.128183      -275.6019
   3   2.0000     -10.048761      -273.4407
   4   2.0000     -10.006552      -272.2921
   5   2.0000      -1.053354       -28.6632
   6   2.0000      -0.962989       -26.2043
   7   2.0000      -0.855589       -23.2818
   8   2.0000      -0.759238       -20.6599
   9   2.0000      -0.690067       -18.7777
  10   2.0000      -0.647293       -17.6137
  11   2.0000      -0.611813       -16.6483
  12   2.0000      -0.573640       -15.6095
  13   2.0000      -0.526856       -14.3365
  14   2.0000      -0.520164       -14.1544
  15   2.0000      -0.482589       -13.1319
  16   2.0000      -0.459692       -12.5089
  17   2.0000      -0.435087       -11.8393
  18   2.0000      -0.366050        -9.9607
  19   2.0000      -0.251898        -6.8545
  20   0.0000       0.070742         1.9250
  21   0.0000       0.097664         2.6576
  22   0.0000       0.108716         2.9583
  23   0.0000       0.136040         3.7018
  24   0.0000       0.139610         3.7990

MULLIKEN ATOMIC CHARGES
-----------------------
   0 C :    1.091030
   1 C :   -0.520188
   2 C :    0.594709
   3 N :    0.226370
   4 N :    0.174856
   5 H :   -0.100437
   6 H :   -0.295734
   7 H :   -0.434795
   8 H :   -0.041479
   9 H :   -0.238132
  10 H :   -0.137549
  11 H :   -0.185314
  12 H :   -0.133337
Sum of atomic charges:   -0.0000000

LOEWDIN ATOMIC CHARGES
----------------------
   0 C :    0.076191
   1 C :   -0.081337
   2 C :   -0.250049
   3 N :    0.186555
   4 N :    0.211946
   5 H :   -0.009573
   6 H :   -0.013464
   7 H :   -0.054982
   8 H :    0.003703
   9 H :   -0.008728
  10 H :   -0.015296
  11 H :   -0.015322
  12 H :   -0.029643

  Mayer bond orders larger than 0.100000
B(  0-C ,  1-C ) :   1.1690 B(  0-C ,  7-H ) :   0.2328 B(  0-C , 10-H ) :   0.6528
B(  0-C , 11-H ) :   0.6996 B(  0-C , 12-H ) :   0.6340 B(  1-C ,  2-C ) :   1.6293
B(  1-C ,  3-N ) :   0.3207 B(  1-C ,  4-N ) :   0.3051 B(  1-C ,  7-H ) :   0.9149
B(  1-C , 10-H ) :   0.3342 B(  1-C , 11-H ) :   0.1644 B(  1-C , 12-H ) :   0.3399
B(  2-C ,  3-N ) :   1.0062 B(  2-C ,  4-N ) :   0.9985 B(  2-C ,  6-H ) :  -0.1748
B(  2-C ,  7-H ) :   0.2301 B(  3-N ,  7-H ) :   0.1070 B(  3-N ,  8-H ) :   1.1434
B(  3-N ,  9-H ) :   1.2556 B(  4-N ,  5-H ) :   1.1052 B(  4-N ,  6-H ) :   1.3119
B(  5-H ,  6-H ) :  -0.1988 B(  8-H ,  9-H ) :  -0.1836 B( 10-H , 12-H ) :   0.1196

FINAL SINGLE POINT ENERGY      -227.847080682108

DIPOLE MOMENT
-------------
                                X             Y             Z
Electronic contribution:      2.71722      -0.66492      -1.58028
Nuclear contribution   :     -1.78367       0.60166       1.44982
                        -----------------------------------------
Total Dipole Moment    :      0.93355      -0.06326      -0.13046
                        -----------------------------------------
Magnitude (a.u.)       :      0.94475
Magnitude (Debye)      :      2.40135

Rotational constants in cm-1:     0.313991     0.135452     0.097139
Rotational constants in MHz :  9413.212964  4060.745953  2912.144668

                             ****ORCA TERMINATED NORMALLY****
TOTAL RUN TIME: 0 days 0 hours 0 minutes 11 seconds 144 msec
