                         Program Version 5.0.0 -  RELEASE  -
|  1> !LC-BLYP RIJCOSX def2-SVPD def2/J TightSCF
|  2> *xyz 0 1
|  3> C          1.69499        1.54179       -5.57045
|  4> S          1.78029       -0.03313       -6.42874
|  5> O          2.56929        0.21366       -7.60736
|  6> F          0.41688       -0.46297       -6.61859
|  7> O          2.50513       -0.93326       -5.48257
|  8> H          1.18489        2.25500       -6.18367
|  9> H          2.68564        1.89081       -5.36624
| 10> H          1.16361        1.41804       -4.65000
| 11> *
| 12> %MaxCore 64000
| 13>
| 14> %pal nprocs 8
| 15> end
| 16>
| 17> %scf
| 18>   MaxIter 150
| 19> end
| 20>
| 21>
| 22>                          ****END OF INPUT****

CARTESIAN COORDINATES (ANGSTROEM)
---------------------------------
  C      1.694990    1.541790   -5.570450
  S      1.780290   -0.033130   -6.428740
  O      2.569290    0.213660   -7.607360
  F      0.416880   -0.462970   -6.618590
  O      2.505130   -0.933260   -5.482570
  H      1.184890    2.255000   -6.183670
  H      2.685640    1.890810   -5.366240
  H      1.163610    1.418040   -4.650000

 Total Charge           Charge          ....    0
 Multiplicity           Mult            ....    1
 Number of Electrons    NEL             ....   50
 Basis Dimension        Dim             ....  140

ORBITAL ENERGIES
----------------

  NO   OCC          E(Eh)            E(eV)
   0   2.0000     -88.575097     -2410.2509
   1   2.0000     -24.601699      -669.4463
   2   2.0000     -18.977954      -516.4164
   3   2.0000     -18.960042      -515.9290
   4   2.0000     -10.149861      -276.1918
   5   2.0000      -8.124584      -221.0812
   6   2.0000      -6.163436      -167.7156
   7   2.0000      -6.156401      -167.5242
   8   2.0000      -6.155363      -167.4959
   9   2.0000      -1.467556       -39.9342
  10   2.0000      -1.211212       -32.9588
  11   2.0000      -1.098378       -29.8884
  12   2.0000      -0.915291       -24.9063
  13   2.0000      -0.829126       -22.5617
  14   2.0000      -0.718466       -19.5505
  15   2.0000      -0.700506       -19.0617
  16   2.0000      -0.664623       -18.0853
  17   2.0000      -0.588097       -16.0029
  18   2.0000      -0.586129       -15.9494
  19   2.0000      -0.574999       -15.6465
  20   2.0000      -0.542587       -14.7645
  21   2.0000      -0.495997       -13.4968
  22   2.0000      -0.444874       -12.1056
  23   2.0000      -0.427885       -11.6433
  24   2.0000      -0.408579       -11.1180
  25   0.0000       0.039711         1.0806
  26   0.0000       0.075901         2.0654
  27   0.0000       0.082410         2.2425
  28   0.0000       0.084272         2.2932
  29   0.0000       0.101295         2.7564

MULLIKEN ATOMIC CHARGES
-----------------------
   0 C :    0.700524
   1 S :    1.041256
   2 O :   -0.532144
   3 F :   -0.315080
   4 O :   -0.593099
   5 H :   -0.102346
   6 H :   -0.098937
   7 H :   -0.100173
Sum of atomic charges:    0.0000000

LOEWDIN ATOMIC CHARGES
----------------------
   0 C :    0.110507
   1 S :    1.050864
   2 O :   -0.445579
   3 F :   -0.237450
   4 O :   -0.472245
   5 H :   -0.007731
   6 H :    0.007624
   7 H :   -0.005991

  Mayer bond orders larger than 0.100000
B(  0-C ,  1-S ) :   0.9976 B(  0-C ,  5-H ) :   0.8730 B(  0-C ,  6-H ) :   0.8721
B(  0-C ,  7-H ) :   0.8762 B(  1-S ,  2-O ) :   1.6087 B(  1-S ,  3-F ) :   0.7878
B(  1-S ,  4-O ) :   1.5544 B(  1-S ,  5-H ) :   0.1003 B(  1-S ,  6-H ) :   0.1366
B(  1-S ,  7-H ) :   0.1109

FINAL SINGLE POINT ENERGY      -687.242795451246

DIPOLE MOMENT
-------------
                                X             Y             Z
Electronic contribution:     -2.18664      -4.29945      -2.48519
Nuclear contribution   :      1.05593       5.58608       2.95063
                        -----------------------------------------
Total Dipole Moment    :     -1.13071       1.28662       0.46544
                        -----------------------------------------
Magnitude (a.u.)       :      1.77497
Magnitude (Debye)      :      4.51163

Rotational constants in cm-1:     0.163930     0.155251     0.146268
Rotational constants in MHz :  4914.487830  4654.318941  4385.000376

                             ****ORCA TERMINATED NORMALLY****
TOTAL RUN TIME: 0 days 0 hours 0 minutes 7 seconds 868 msec
