                         Program Version 5.0.0 -  RELEASE  -
|  1> !LC-BLYP RIJCOSX def2-SVPD def2/J TightSCF
|  2> *xyz 0 1
|  3> C          1.96337       -1.74915       -1.89689
|  4> N          2.73849       -2.01517       -3.09711
|  5> C          4.04974       -2.15472       -3.15204
|  6> C          4.65821       -1.98629       -4.31866
|  7> N          4.76423       -2.45444       -2.05049
|  8> H          4.28736       -2.77626       -1.21750
|  9> H          5.75082       -2.65835       -2.12599
| 10> H          2.34518       -1.69027       -3.97145
| 11> H          4.10900       -1.59268       -5.07176
| 12> H          5.64910       -2.15646       -4.42724
| 13> H          0.92556       -1.68522       -2.14942
| 14> H          2.28268       -0.82430       -1.46378
| 15> H          2.11118       -2.54207       -1.19381
| 16> *
| 17> %MaxCore 64000
| 18>
| 19> %pal nprocs 8
| 20> end
| 21>
| 22> %scf
| 23>   MaxIter 150
| 24> end
| 25>
| 26>
| 27>                          ****END OF INPUT****

CARTESIAN COORDINATES (ANGSTROEM)
---------------------------------
  C      1.963370   -1.749150   -1.896890
  N      2.738490   -2.015170   -3.097110
  C      4.049740   -2.154720   -3.152040
  C      4.658210   -1.986290   -4.318660
  N      4.764230   -2.454440   -2.050490
  H      4.287360   -2.776260   -1.217500
  H      5.750820   -2.658350   -2.125990
  H      2.345180   -1.690270   -3.971450
  H      4.109000   -1.592680   -5.071760
  H      5.649100   -2.156460   -4.427240
  H      0.925560   -1.685220   -2.149420
  H      2.282680   -0.824300   -1.463780
  H      2.111180   -2.542070   -1.193810

 Total Charge           Charge          ....    0
 Multiplicity           Mult            ....    1
 Number of Electrons    NEL             ....   40
 Basis Dimension        Dim             ....  164

ORBITAL ENERGIES
----------------

  NO   OCC          E(Eh)            E(eV)
   0   2.0000     -14.189223      -386.1084
   1   2.0000     -14.188311      -386.0836
   2   2.0000     -10.132566      -275.7211
   3   2.0000     -10.116641      -275.2878
   4   2.0000      -9.997602      -272.0486
   5   2.0000      -1.063038       -28.9267
   6   2.0000      -0.975944       -26.5568
   7   2.0000      -0.849077       -23.1046
   8   2.0000      -0.768141       -20.9022
   9   2.0000      -0.705388       -19.1946
  10   2.0000      -0.640359       -17.4251
  11   2.0000      -0.596825       -16.2404
  12   2.0000      -0.578104       -15.7310
  13   2.0000      -0.563784       -15.3413
  14   2.0000      -0.504773       -13.7356
  15   2.0000      -0.491460       -13.3733
  16   2.0000      -0.489671       -13.3246
  17   2.0000      -0.465114       -12.6564
  18   2.0000      -0.355728        -9.6799
  19   2.0000      -0.257431        -7.0051
  20   0.0000       0.066182         1.8009
  21   0.0000       0.099813         2.7160
  22   0.0000       0.105865         2.8807
  23   0.0000       0.136283         3.7085
  24   0.0000       0.140999         3.8368

MULLIKEN ATOMIC CHARGES
-----------------------
   0 C :    1.285663
   1 N :   -0.313168
   2 C :    0.476105
   3 C :    0.476095
   4 N :    0.286859
   5 H :   -0.199927
   6 H :   -0.156212
   7 H :   -0.204397
   8 H :   -0.370801
   9 H :   -0.539473
  10 H :   -0.399166
  11 H :   -0.131178
  12 H :   -0.210401
Sum of atomic charges:    0.0000000

LOEWDIN ATOMIC CHARGES
----------------------
   0 C :    0.183488
   1 N :   -0.033183
   2 C :   -0.261168
   3 C :    0.134438
   4 N :    0.209455
   5 H :   -0.023484
   6 H :    0.004013
   7 H :    0.026514
   8 H :   -0.099850
   9 H :   -0.098348
  10 H :   -0.008109
  11 H :   -0.011789
  12 H :   -0.021976

  Mayer bond orders larger than 0.100000
B(  0-C ,  1-N ) :   0.9978 B(  0-C ,  7-H ) :  -0.1006 B(  0-C , 10-H ) :   0.7128
B(  0-C , 11-H ) :   0.7928 B(  0-C , 12-H ) :   0.7830 B(  1-N ,  2-C ) :   1.1564
B(  1-N ,  3-C ) :   0.2512 B(  1-N ,  4-N ) :   0.1403 B(  1-N ,  7-H ) :   1.1701
B(  1-N , 10-H ) :   0.1959 B(  1-N , 11-H ) :   0.1115 B(  1-N , 12-H ) :   0.1734
B(  2-C ,  3-C ) :   1.3129 B(  2-C ,  4-N ) :   1.0589 B(  2-C ,  7-H ) :  -0.1418
B(  2-C ,  8-H ) :   0.1044 B(  2-C ,  9-H ) :   0.1220 B(  3-C ,  4-N ) :   0.2123
B(  3-C ,  8-H ) :   0.8149 B(  3-C ,  9-H ) :   0.7631 B(  4-N ,  5-H ) :   1.1120
B(  4-N ,  6-H ) :   1.1971 B(  5-H ,  6-H ) :  -0.2038

FINAL SINGLE POINT ENERGY      -227.838671267526

DIPOLE MOMENT
-------------
                                X             Y             Z
Electronic contribution:      0.86166      -0.64114      -0.32500
Nuclear contribution   :     -1.39484       0.60751       1.20240
                        -----------------------------------------
Total Dipole Moment    :     -0.53318      -0.03363       0.87740
                        -----------------------------------------
Magnitude (a.u.)       :      1.02725
Magnitude (Debye)      :      2.61105

Rotational constants in cm-1:     0.316419     0.139940     0.099730
Rotational constants in MHz :  9485.991536  4195.289338  2989.818216

                             ****ORCA TERMINATED NORMALLY****
TOTAL RUN TIME: 0 days 0 hours 0 minutes 10 seconds 483 msec
