                         Program Version 5.0.0 -  RELEASE  -
|  1> !LC-BLYP RIJCOSX def2-SVPD def2/J TightSCF
|  2> *xyz 0 1
|  3> C          1.69499        1.54179       -5.57045
|  4> S          1.78029       -0.03313       -6.42874
|  5> O          2.56929        0.21366       -7.60736
|  6> O          0.41688       -0.46297       -6.61859
|  7> F          2.50513       -0.93326       -5.48257
|  8> H          1.18489        2.25500       -6.18367
|  9> H          2.68564        1.89081       -5.36624
| 10> H          1.16361        1.41804       -4.65000
| 11> *
| 12> %MaxCore 64000
| 13>
| 14> %pal nprocs 8
| 15> end
| 16>
| 17> %scf
| 18>   MaxIter 150
| 19> end
| 20>
| 21>
| 22>                          ****END OF INPUT****

CARTESIAN COORDINATES (ANGSTROEM)
---------------------------------
  C      1.694990    1.541790   -5.570450
  S      1.780290   -0.033130   -6.428740
  O      2.569290    0.213660   -7.607360
  O      0.416880   -0.462970   -6.618590
  F      2.505130   -0.933260   -5.482570
  H      1.184890    2.255000   -6.183670
  H      2.685640    1.890810   -5.366240
  H      1.163610    1.418040   -4.650000

 Total Charge           Charge          ....    0
 Multiplicity           Mult            ....    1
 Number of Electrons    NEL             ....   50
 Basis Dimension        Dim             ....  140

ORBITAL ENERGIES
----------------

  NO   OCC          E(Eh)            E(eV)
   0   2.0000     -88.572702     -2410.1858
   1   2.0000     -24.575121      -668.7230
   2   2.0000     -18.978421      -516.4291
   3   2.0000     -18.977299      -516.3985
   4   2.0000     -10.148518      -276.1552
   5   2.0000      -8.122006      -221.0110
   6   2.0000      -6.160598      -167.6384
   7   2.0000      -6.154076      -167.4609
   8   2.0000      -6.153094      -167.4342
   9   2.0000      -1.424809       -38.7710
  10   2.0000      -1.221160       -33.2294
  11   2.0000      -1.125520       -30.6270
  12   2.0000      -0.912773       -24.8378
  13   2.0000      -0.807425       -21.9712
  14   2.0000      -0.700130       -19.0515
  15   2.0000      -0.670494       -18.2451
  16   2.0000      -0.659536       -17.9469
  17   2.0000      -0.588736       -16.0203
  18   2.0000      -0.586981       -15.9726
  19   2.0000      -0.571855       -15.5610
  20   2.0000      -0.550617       -14.9831
  21   2.0000      -0.502615       -13.6769
  22   2.0000      -0.449885       -12.2420
  23   2.0000      -0.445804       -12.1310
  24   2.0000      -0.428408       -11.6576
  25   0.0000       0.043272         1.1775
  26   0.0000       0.078155         2.1267
  27   0.0000       0.084012         2.2861
  28   0.0000       0.084073         2.2878
  29   0.0000       0.101051         2.7497

MULLIKEN ATOMIC CHARGES
-----------------------
   0 C :    0.699758
   1 S :    1.047765
   2 O :   -0.548774
   3 O :   -0.549195
   4 F :   -0.343931
   5 H :   -0.107481
   6 H :   -0.096546
   7 H :   -0.101598
Sum of atomic charges:    0.0000000

LOEWDIN ATOMIC CHARGES
----------------------
   0 C :    0.110829
   1 S :    1.047376
   2 O :   -0.446411
   3 O :   -0.445173
   4 F :   -0.260347
   5 H :    0.005576
   6 H :   -0.005662
   7 H :   -0.006188

  Mayer bond orders larger than 0.100000
B(  0-C ,  1-S ) :   0.9969 B(  0-C ,  5-H ) :   0.8678 B(  0-C ,  6-H ) :   0.8764
B(  0-C ,  7-H ) :   0.8771 B(  1-S ,  2-O ) :   1.6048 B(  1-S ,  3-O ) :   1.6028
B(  1-S ,  4-F ) :   0.7244 B(  1-S ,  5-H ) :   0.1272 B(  1-S ,  6-H ) :   0.1128
B(  1-S ,  7-H ) :   0.1125

FINAL SINGLE POINT ENERGY      -687.266101425919

DIPOLE MOMENT
-------------
                                X             Y             Z
Electronic contribution:      1.31342      -5.10513      -0.56166
Nuclear contribution   :     -1.03036       6.05593       1.81567
                        -----------------------------------------
Total Dipole Moment    :      0.28306       0.95080       1.25402
                        -----------------------------------------
Magnitude (a.u.)       :      1.59897
Magnitude (Debye)      :      4.06426

Rotational constants in cm-1:     0.164224     0.152173     0.148737
Rotational constants in MHz :  4923.310232  4562.031098  4459.033187

                             ****ORCA TERMINATED NORMALLY****
TOTAL RUN TIME: 0 days 0 hours 0 minutes 7 seconds 921 msec
