                         Program Version 5.0.0 -  RELEASE  -
|  1> !LC-BLYP RIJCOSX def2-SVPD def2/J TightSCF
|  2> *xyz 0 1
|  3> C          1.96337       -1.74915       -1.89689
|  4> N          2.73849       -2.01517       -3.09711
|  5> C          4.04974       -2.15472       -3.15204
|  6> N          4.65821       -1.98629       -4.31866
|  7> C          4.76423       -2.45444       -2.05049
|  8> H          4.28736       -2.77626       -1.21750
|  9> H          5.75082       -2.65835       -2.12599
| 10> H          2.34518       -1.69027       -3.97145
| 11> H          4.10900       -1.59268       -5.07176
| 12> H          5.64910       -2.15646       -4.42724
| 13> H          0.92556       -1.68522       -2.14942
| 14> H          2.28268       -0.82430       -1.46378
| 15> H          2.11118       -2.54207       -1.19381
| 16> *
| 17> %MaxCore 64000
| 18>
| 19> %pal nprocs 8
| 20> end
| 21>
| 22> %scf
| 23>   MaxIter 150
| 24> end
| 25>
| 26>
| 27>                          ****END OF INPUT****

CARTESIAN COORDINATES (ANGSTROEM)
---------------------------------
  C      1.963370   -1.749150   -1.896890
  N      2.738490   -2.015170   -3.097110
  C      4.049740   -2.154720   -3.152040
  N      4.658210   -1.986290   -4.318660
  C      4.764230   -2.454440   -2.050490
  H      4.287360   -2.776260   -1.217500
  H      5.750820   -2.658350   -2.125990
  H      2.345180   -1.690270   -3.971450
  H      4.109000   -1.592680   -5.071760
  H      5.649100   -2.156460   -4.427240
  H      0.925560   -1.685220   -2.149420
  H      2.282680   -0.824300   -1.463780
  H      2.111180   -2.542070   -1.193810

 Total Charge           Charge          ....    0
 Multiplicity           Mult            ....    1
 Number of Electrons    NEL             ....   40
 Basis Dimension        Dim             ....  164

ORBITAL ENERGIES
----------------

  NO   OCC          E(Eh)            E(eV)
   0   2.0000     -14.193508      -386.2250
   1   2.0000     -14.190384      -386.1400
   2   2.0000     -10.134252      -275.7670
   3   2.0000     -10.109793      -275.1015
   4   2.0000      -9.999558      -272.1018
   5   2.0000      -1.068780       -29.0830
   6   2.0000      -0.979787       -26.6614
   7   2.0000      -0.822136       -22.3715
   8   2.0000      -0.800721       -21.7887
   9   2.0000      -0.671965       -18.2851
  10   2.0000      -0.653486       -17.7823
  11   2.0000      -0.628618       -17.1056
  12   2.0000      -0.559931       -15.2365
  13   2.0000      -0.552690       -15.0395
  14   2.0000      -0.518505       -14.1092
  15   2.0000      -0.485116       -13.2007
  16   2.0000      -0.475993       -12.9524
  17   2.0000      -0.467785       -12.7291
  18   2.0000      -0.350761        -9.5447
  19   2.0000      -0.261395        -7.1129
  20   0.0000       0.068520         1.8645
  21   0.0000       0.091227         2.4824
  22   0.0000       0.106521         2.8986
  23   0.0000       0.138444         3.7672
  24   0.0000       0.143039         3.8923

MULLIKEN ATOMIC CHARGES
-----------------------
   0 C :    1.294627
   1 N :   -0.288874
   2 C :    0.402195
   3 N :    0.289563
   4 C :    0.540951
   5 H :   -0.226834
   6 H :   -0.713103
   7 H :   -0.332575
   8 H :   -0.167607
   9 H :   -0.151189
  10 H :   -0.423982
  11 H :   -0.158182
  12 H :   -0.064991
Sum of atomic charges:   -0.0000000

LOEWDIN ATOMIC CHARGES
----------------------
   0 C :    0.190914
   1 N :   -0.036322
   2 C :   -0.266814
   3 N :    0.193841
   4 C :    0.153756
   5 H :   -0.112788
   6 H :   -0.105154
   7 H :    0.013131
   8 H :   -0.010611
   9 H :    0.010495
  10 H :   -0.009687
  11 H :   -0.006995
  12 H :   -0.013766

  Mayer bond orders larger than 0.100000
B(  0-C ,  1-N ) :   1.0064 B(  0-C ,  7-H ) :  -0.1165 B(  0-C , 10-H ) :   0.7388
B(  0-C , 11-H ) :   0.7819 B(  0-C , 12-H ) :   0.7994 B(  1-N ,  2-C ) :   1.0778
B(  1-N ,  3-N ) :   0.1479 B(  1-N ,  4-C ) :   0.3608 B(  1-N ,  7-H ) :   1.2309
B(  1-N , 10-H ) :   0.1827 B(  1-N , 11-H ) :   0.1523 B(  2-C ,  3-N ) :   1.0109
B(  2-C ,  4-C ) :   1.6099 B(  2-C ,  5-H ) :   0.2452 B(  2-C ,  6-H ) :   0.1138
B(  2-C ,  7-H ) :  -0.1582 B(  2-C ,  9-H ) :  -0.1064 B(  3-N ,  4-C ) :   0.2206
B(  3-N ,  8-H ) :   1.1461 B(  3-N ,  9-H ) :   1.2466 B(  4-C ,  5-H ) :   0.6682
B(  4-C ,  6-H ) :   0.8270 B(  8-H ,  9-H ) :  -0.1794

FINAL SINGLE POINT ENERGY      -227.839667055273

DIPOLE MOMENT
-------------
                                X             Y             Z
Electronic contribution:      0.78709      -0.12414      -2.54043
Nuclear contribution   :     -1.37336       0.51269       1.66180
                        -----------------------------------------
Total Dipole Moment    :     -0.58627       0.38855      -0.87863
                        -----------------------------------------
Magnitude (a.u.)       :      1.12546
Magnitude (Debye)      :      2.86070

Rotational constants in cm-1:     0.331915     0.135033     0.098638
Rotational constants in MHz :  9950.555862  4048.179255  2957.099162

                             ****ORCA TERMINATED NORMALLY****
TOTAL RUN TIME: 0 days 0 hours 0 minutes 11 seconds 224 msec
