                         Program Version 5.0.0 -  RELEASE  -
|  1> !LC-BLYP RIJCOSX def2-SVPD def2/J TightSCF xyzfile
|  2>
|  3> *xyzfile 0 1 D1.xyz
|  4>
|  5> %MaxCore 64000
|  6>
|  7> %pal nprocs 4
|  8> end
|  9>
| 10> %scf
| 11>   MaxIter 150
| 12> end
| 13>
| 14>
| 15>                          ****END OF INPUT****

CARTESIAN COORDINATES (ANGSTROEM)
---------------------------------
  C      1.963365   -1.749150   -1.896887
  C      2.738490   -2.015170   -3.097113
  C      0.611877    1.657634   -4.500288
  C      1.694991    1.541794   -5.570447
  H      2.697326    1.734659   -5.183996
  H      1.506656    2.272239   -6.358076
  S      1.780287   -0.033128   -6.428739
  C      4.049736   -2.154717   -3.152044
  N      4.658206   -1.986293   -4.318655
  N      4.764231   -2.454435   -2.050491
  H      4.287363   -2.776259   -1.217496
  H      5.750825   -2.658351   -2.125988
  H      2.345176   -1.690274   -3.971447
  H      4.109004   -1.592677   -5.071760
  H      5.649095   -2.156462   -4.427237
  F      2.569287    0.213657   -7.607360
  O      0.416880   -0.462969   -6.618595
  C      2.088520   -0.300912   -1.415204
  H      2.231272   -2.451616   -1.102643
  H      0.930249   -1.977801   -2.155438
  C      0.680356    0.655418   -3.348038
  H     -0.356865    1.549231   -4.991128
  H      0.650228    2.675438   -4.096000
  C      1.968993    0.733582   -2.535654
  H      3.051356   -0.168602   -0.911868
  H      1.316501   -0.136231   -0.657252
  O      2.505129   -0.933263   -5.482570
  H      2.824195    0.624726   -3.208464
  H      2.058919    1.730331   -2.093112
  H      0.542252   -0.344731   -3.766662
  H     -0.174219    0.829692   -2.685182

 Total Charge           Charge          ....    0
 Multiplicity           Mult            ....    1
 Number of Electrons    NEL             ....  120
 Basis Dimension        Dim             ....  432

ORBITAL ENERGIES
----------------

  NO   OCC          E(Eh)            E(eV)
   0   2.0000     -88.578710     -2410.3492
   1   2.0000     -24.606264      -669.5705
   2   2.0000     -18.984304      -516.5892
   3   2.0000     -18.970251      -516.2068
   4   2.0000     -14.172586      -385.6557
   5   2.0000     -14.156507      -385.2181
   6   2.0000     -10.153279      -276.2848
   7   2.0000     -10.111846      -275.1573
   8   2.0000     -10.107250      -275.0323
   9   2.0000     -10.079627      -274.2806
  10   2.0000     -10.068061      -273.9659
  11   2.0000     -10.057233      -273.6712
  12   2.0000     -10.045366      -273.3483
  13   2.0000      -9.974342      -271.4156
  14   2.0000      -8.127439      -221.1588
  15   2.0000      -6.166340      -167.7946
  16   2.0000      -6.159607      -167.6114
  17   2.0000      -6.157814      -167.5626
  18   2.0000      -1.472758       -40.0758
  19   2.0000      -1.217584       -33.1321
  20   2.0000      -1.111578       -30.2476
  21   2.0000      -1.032007       -28.0823
  22   2.0000      -0.947184       -25.7742
  23   2.0000      -0.941311       -25.6144
  24   2.0000      -0.898761       -24.4565
  25   2.0000      -0.861696       -23.4479
  26   2.0000      -0.830953       -22.6114
  27   2.0000      -0.797141       -21.6913
  28   2.0000      -0.758961       -20.6524
  29   2.0000      -0.728471       -19.8227
  30   2.0000      -0.711888       -19.3715
  31   2.0000      -0.694604       -18.9011
  32   2.0000      -0.692509       -18.8441
  33   2.0000      -0.656776       -17.8718
  34   2.0000      -0.654558       -17.8114
  35   2.0000      -0.631766       -17.1912
  36   2.0000      -0.607872       -16.5410
  37   2.0000      -0.603631       -16.4256
  38   2.0000      -0.589954       -16.0535
  39   2.0000      -0.571676       -15.5561
  40   2.0000      -0.571211       -15.5434
  41   2.0000      -0.548429       -14.9235
  42   2.0000      -0.539822       -14.6893
  43   2.0000      -0.531040       -14.4503
  44   2.0000      -0.518940       -14.1211
  45   2.0000      -0.506030       -13.7698
  46   2.0000      -0.487595       -13.2681
  47   2.0000      -0.480476       -13.0744
  48   2.0000      -0.474121       -12.9015
  49   2.0000      -0.464574       -12.6417
  50   2.0000      -0.452240       -12.3061
  51   2.0000      -0.435998       -11.8641
  52   2.0000      -0.429894       -11.6980
  53   2.0000      -0.423793       -11.5320
  54   2.0000      -0.421173       -11.4607
  55   2.0000      -0.410261       -11.1638
  56   2.0000      -0.395504       -10.7622
  57   2.0000      -0.380653       -10.3581
  58   2.0000      -0.344286        -9.3685
  59   2.0000      -0.231281        -6.2935
  60   0.0000       0.040806         1.1104
  61   0.0000       0.065623         1.7857
  62   0.0000       0.069775         1.8987
  63   0.0000       0.080173         2.1816
  64   0.0000       0.093516         2.5447

MULLIKEN ATOMIC CHARGES
-----------------------
   0 C :    0.456606
   1 C :    0.374402
   2 C :    0.597621
   3 C :    0.273234
   4 H :    0.026951
   5 H :   -0.175912
   6 S :    1.371519
   7 C :    0.424189
   8 N :    0.391623
   9 N :    0.189950
  10 H :   -0.066150
  11 H :   -0.300462
  12 H :   -0.833211
  13 H :   -0.267652
  14 H :   -0.299942
  15 F :   -0.397626
  16 O :   -0.599956
  17 C :    0.777829
  18 H :   -0.464363
  19 H :    0.074615
  20 C :    0.240951
  21 H :   -0.099178
  22 H :   -0.115286
  23 C :    0.079346
  24 H :   -0.114656
  25 H :   -0.032924
  26 O :   -0.610489
  27 H :   -0.108978
  28 H :   -0.297612
  29 H :   -0.214882
  30 H :   -0.279556
Sum of atomic charges:   -0.0000000

LOEWDIN ATOMIC CHARGES
----------------------
   0 C :   -0.058152
   1 C :   -0.031810
   2 C :   -0.030203
   3 C :   -0.056509
   4 H :    0.028534
   5 H :    0.025471
   6 S :    1.139818
   7 C :   -0.216993
   8 N :    0.212071
   9 N :    0.208122
  10 H :   -0.013488
  11 H :   -0.017367
  12 H :   -0.131858
  13 H :   -0.086935
  14 H :   -0.010911
  15 F :   -0.226484
  16 O :   -0.419602
  17 C :   -0.031200
  18 H :    0.005192
  19 H :    0.015977
  20 C :   -0.026512
  21 H :    0.034282
  22 H :    0.043438
  23 C :   -0.038804
  24 H :    0.022259
  25 H :    0.020673
  26 O :   -0.455655
  27 H :    0.012307
  28 H :    0.027398
  29 H :    0.016439
  30 H :    0.040501

  Mayer bond orders larger than 0.100000
B(  0-C ,  1-C ) :   1.0015 B(  0-C ,  7-C ) :   0.2155 B(  0-C , 12-H ) :   0.5130
B(  0-C , 17-C ) :   1.0871 B(  0-C , 18-H ) :   0.7081 B(  0-C , 19-H ) :   0.6091
B(  0-C , 23-C ) :   0.2142 B(  0-C , 24-H ) :   0.1358 B(  0-C , 25-H ) :   0.2191
B(  1-C ,  7-C ) :   1.7014 B(  1-C ,  8-N ) :   0.2680 B(  1-C ,  9-N ) :   0.2870
B(  1-C , 12-H ) :  -0.1998 B(  1-C , 17-C ) :   0.1240 B(  1-C , 18-H ) :   0.2799
B(  1-C , 19-H ) :   0.3432 B(  1-C , 26-O ) :  -0.1684 B(  1-C , 28-H ) :   0.1269
B(  2-C ,  3-C ) :   1.2611 B(  2-C ,  4-H ) :   0.1170 B(  2-C ,  5-H ) :   0.2198
B(  2-C , 20-C ) :   1.2222 B(  2-C , 21-H ) :   0.5841 B(  2-C , 22-H ) :   0.7286
B(  3-C ,  4-H ) :   0.8612 B(  3-C ,  5-H ) :   0.7351 B(  3-C ,  6-S ) :   1.0042
B(  3-C , 21-H ) :   0.1223 B(  3-C , 22-H ) :   0.1692 B(  6-S , 15-F ) :   0.7225
B(  6-S , 16-O ) :   1.5470 B(  6-S , 26-O ) :   1.4107 B(  7-C ,  8-N ) :   0.8736
B(  7-C ,  9-N ) :   0.9877 B(  7-C , 11-H ) :  -0.1652 B(  7-C , 12-H ) :   0.7347
B(  7-C , 13-H ) :  -0.1333 B(  7-C , 14-H ) :  -0.2156 B(  8-N , 12-H ) :   0.1349
B(  8-N , 13-H ) :   1.2187 B(  8-N , 14-H ) :   1.3279 B(  9-N , 10-H ) :   1.0821
B(  9-N , 11-H ) :   1.3335 B( 10-H , 11-H ) :  -0.2293 B( 12-H , 23-C ) :   0.1289
B( 12-H , 26-O ) :   0.3043 B( 12-H , 27-H ) :   0.1249 B( 12-H , 28-H ) :  -0.1627
B( 13-H , 14-H ) :  -0.2071 B( 13-H , 26-O ) :   0.1218 B( 16-O , 26-O ) :   0.1315
B( 17-C , 23-C ) :   1.1962 B( 17-C , 24-H ) :   0.6651 B( 17-C , 25-H ) :   0.5977
B( 17-C , 27-H ) :   0.1109 B( 17-C , 28-H ) :   0.1034 B( 20-C , 21-H ) :   0.3358
B( 20-C , 23-C ) :   1.1628 B( 20-C , 27-H ) :   0.1366 B( 20-C , 28-H ) :   0.1763
B( 20-C , 29-H ) :   0.9131 B( 20-C , 30-H ) :   0.7745 B( 21-H , 22-H ) :  -0.1242
B( 23-C , 24-H ) :   0.3160 B( 23-C , 25-H ) :   0.1684 B( 23-C , 27-H ) :   0.8750
B( 23-C , 28-H ) :   0.8098 B( 23-C , 29-H ) :   0.1282 B( 23-C , 30-H ) :   0.1742
B( 24-H , 25-H ) :  -0.1334

FINAL SINGLE POINT ENERGY     -1070.590887705100

DIPOLE MOMENT
-------------
                                X             Y             Z
Electronic contribution:      0.69966      -0.92610     -23.49802
Nuclear contribution   :      0.18720       2.58739      22.98820
                        -----------------------------------------
Total Dipole Moment    :      0.88686       1.66130      -0.50982
                        -----------------------------------------
Magnitude (a.u.)       :      1.95099
Magnitude (Debye)      :      4.95902

Rotational constants in cm-1:     0.028798     0.014448     0.010940
Rotational constants in MHz :   863.355869   433.126694   327.985023

                             ****ORCA TERMINATED NORMALLY****
TOTAL RUN TIME: 0 days 0 hours 3 minutes 16 seconds 300 msec
