                         Program Version 5.0.0 -  RELEASE  -
|  1> !LC-BLYP RIJCOSX def2-SVPD def2/J TightSCF xyzfile
|  2>
|  3> *xyzfile 0 1 D2.xyz
|  4>
|  5> %MaxCore 64000
|  6>
|  7> %pal nprocs 4
|  8> end
|  9>
| 10> %scf
| 11>   MaxIter 150
| 12> end
| 13>
| 14>
| 15>                          ****END OF INPUT****

CARTESIAN COORDINATES (ANGSTROEM)
---------------------------------
  C      1.963365   -1.749150   -1.896887
  N      2.738490   -2.015170   -3.097113
  C      0.611877    1.657634   -4.500288
  C      1.694991    1.541794   -5.570447
  H      2.697326    1.734659   -5.183996
  H      1.506656    2.272239   -6.358076
  S      1.780287   -0.033128   -6.428739
  C      4.049736   -2.154717   -3.152044
  C      4.658206   -1.986293   -4.318655
  N      4.764231   -2.454435   -2.050491
  H      4.287363   -2.776259   -1.217496
  H      5.750825   -2.658351   -2.125988
  H      2.345176   -1.690274   -3.971447
  H      4.109004   -1.592677   -5.071760
  H      5.649095   -2.156462   -4.427237
  F      2.569287    0.213657   -7.607360
  O      0.416880   -0.462969   -6.618595
  C      2.088520   -0.300912   -1.415204
  H      2.231272   -2.451616   -1.102643
  H      0.930249   -1.977801   -2.155438
  C      0.680356    0.655418   -3.348038
  H     -0.356865    1.549231   -4.991128
  H      0.650228    2.675438   -4.096000
  C      1.968993    0.733582   -2.535654
  H      3.051356   -0.168602   -0.911868
  H      1.316501   -0.136231   -0.657252
  O      2.505129   -0.933263   -5.482570
  H      2.824195    0.624726   -3.208464
  H      2.058919    1.730331   -2.093112
  H      0.542252   -0.344731   -3.766662
  H     -0.174219    0.829692   -2.685182

 Total Charge           Charge          ....    0
 Multiplicity           Mult            ....    1
 Number of Electrons    NEL             ....  120
 Basis Dimension        Dim             ....  432

ORBITAL ENERGIES
----------------

  NO   OCC          E(Eh)            E(eV)
   0   2.0000     -88.581408     -2410.4227
   1   2.0000     -24.607650      -669.6082
   2   2.0000     -18.985939      -516.6337
   3   2.0000     -18.969609      -516.1893
   4   2.0000     -14.169990      -385.5850
   5   2.0000     -14.153546      -385.1376
   6   2.0000     -10.156539      -276.3735
   7   2.0000     -10.119535      -275.3665
   8   2.0000     -10.108145      -275.0566
   9   2.0000     -10.107341      -275.0347
  10   2.0000     -10.093306      -274.6528
  11   2.0000     -10.083212      -274.3781
  12   2.0000     -10.077660      -274.2271
  13   2.0000      -9.966922      -271.2137
  14   2.0000      -8.129862      -221.2248
  15   2.0000      -6.168583      -167.8557
  16   2.0000      -6.162152      -167.6807
  17   2.0000      -6.160321      -167.6309
  18   2.0000      -1.473780       -40.1036
  19   2.0000      -1.219124       -33.1741
  20   2.0000      -1.112333       -30.2681
  21   2.0000      -1.040621       -28.3167
  22   2.0000      -0.959668       -26.1139
  23   2.0000      -0.951650       -25.8957
  24   2.0000      -0.900121       -24.4935
  25   2.0000      -0.867083       -23.5945
  26   2.0000      -0.828965       -22.5573
  27   2.0000      -0.803689       -21.8695
  28   2.0000      -0.765289       -20.8246
  29   2.0000      -0.735581       -20.0162
  30   2.0000      -0.714242       -19.4355
  31   2.0000      -0.701657       -19.0931
  32   2.0000      -0.694404       -18.8957
  33   2.0000      -0.670467       -18.2443
  34   2.0000      -0.663683       -18.0597
  35   2.0000      -0.623362       -16.9626
  36   2.0000      -0.612978       -16.6800
  37   2.0000      -0.609517       -16.5858
  38   2.0000      -0.584170       -15.8961
  39   2.0000      -0.581645       -15.8274
  40   2.0000      -0.571164       -15.5422
  41   2.0000      -0.561729       -15.2854
  42   2.0000      -0.547937       -14.9101
  43   2.0000      -0.537062       -14.6142
  44   2.0000      -0.520946       -14.1757
  45   2.0000      -0.505733       -13.7617
  46   2.0000      -0.491484       -13.3740
  47   2.0000      -0.486376       -13.2350
  48   2.0000      -0.473702       -12.8901
  49   2.0000      -0.467984       -12.7345
  50   2.0000      -0.456414       -12.4197
  51   2.0000      -0.455389       -12.3918
  52   2.0000      -0.448281       -12.1984
  53   2.0000      -0.433979       -11.8092
  54   2.0000      -0.428468       -11.6592
  55   2.0000      -0.421900       -11.4805
  56   2.0000      -0.417489       -11.3604
  57   2.0000      -0.401043       -10.9129
  58   2.0000      -0.331220        -9.0130
  59   2.0000      -0.234002        -6.3675
  60   0.0000       0.041994         1.1427
  61   0.0000       0.064618         1.7583
  62   0.0000       0.071089         1.9344
  63   0.0000       0.075846         2.0639
  64   0.0000       0.091291         2.4841

MULLIKEN ATOMIC CHARGES
-----------------------
   0 C :    1.088591
   1 N :    0.322824
   2 C :    0.605360
   3 C :    0.270306
   4 H :    0.030619
   5 H :   -0.170374
   6 S :    1.391559
   7 C :    0.474800
   8 C :    0.876389
   9 N :    0.406277
  10 H :   -0.107200
  11 H :   -0.234171
  12 H :   -0.797620
  13 H :   -0.505093
  14 H :   -0.788176
  15 F :   -0.394574
  16 O :   -0.605921
  17 C :    0.630852
  18 H :   -0.549918
  19 H :   -0.231649
  20 C :    0.228534
  21 H :   -0.088149
  22 H :   -0.110758
  23 C :    0.225712
  24 H :   -0.110775
  25 H :   -0.185791
  26 O :   -0.730731
  27 H :   -0.033709
  28 H :   -0.438538
  29 H :   -0.196311
  30 H :   -0.272365
Sum of atomic charges:   -0.0000000

LOEWDIN ATOMIC CHARGES
----------------------
   0 C :    0.041445
   1 N :    0.025050
   2 C :   -0.028483
   3 C :   -0.055073
   4 H :    0.030558
   5 H :    0.026339
   6 S :    1.141849
   7 C :   -0.237472
   8 C :    0.158060
   9 N :    0.206817
  10 H :   -0.028488
  11 H :   -0.000264
  12 H :   -0.078300
  13 H :   -0.169207
  14 H :   -0.098569
  15 F :   -0.217659
  16 O :   -0.424457
  17 C :   -0.025544
  18 H :    0.011206
  19 H :    0.021700
  20 C :   -0.031334
  21 H :    0.035203
  22 H :    0.044645
  23 C :   -0.036334
  24 H :    0.022857
  25 H :    0.023564
  26 O :   -0.455655
  27 H :    0.014237
  28 H :    0.030273
  29 H :    0.012252
  30 H :    0.040783

  Mayer bond orders larger than 0.100000
B(  0-C ,  1-N ) :   0.9961 B(  0-C , 12-H ) :  -0.3980 B(  0-C , 17-C ) :   1.0339
B(  0-C , 18-H ) :   0.7843 B(  0-C , 19-H ) :   0.5622 B(  0-C , 23-C ) :   0.1773
B(  0-C , 25-H ) :   0.1258 B(  1-N ,  7-C ) :   1.0964 B(  1-N ,  8-C ) :   0.2310
B(  1-N ,  9-N ) :   0.2164 B(  1-N , 12-H ) :   1.0434 B(  1-N , 19-H ) :   0.1383
B(  2-C ,  3-C ) :   1.2609 B(  2-C ,  4-H ) :   0.1087 B(  2-C ,  5-H ) :   0.2137
B(  2-C , 20-C ) :   1.2282 B(  2-C , 21-H ) :   0.5810 B(  2-C , 22-H ) :   0.7293
B(  3-C ,  4-H ) :   0.8654 B(  3-C ,  5-H ) :   0.7423 B(  3-C ,  6-S ) :   0.9898
B(  3-C , 21-H ) :   0.1231 B(  3-C , 22-H ) :   0.1778 B(  6-S , 15-F ) :   0.7292
B(  6-S , 16-O ) :   1.5523 B(  6-S , 26-O ) :   1.4225 B(  7-C ,  8-C ) :   1.3267
B(  7-C ,  9-N ) :   1.0332 B(  7-C , 11-H ) :  -0.1281 B(  7-C , 12-H ) :  -0.4128
B(  7-C , 13-H ) :   0.1191 B(  7-C , 14-H ) :   0.2632 B(  8-C ,  9-N ) :   0.2785
B(  8-C , 13-H ) :   0.5359 B(  8-C , 14-H ) :   0.5016 B(  9-N , 10-H ) :   0.9495
B(  9-N , 11-H ) :   1.2471 B(  9-N , 18-H ) :   0.1111 B( 10-H , 11-H ) :  -0.2258
B( 12-H , 13-H ) :  -0.1030 B( 12-H , 19-H ) :   0.2263 B( 12-H , 24-H ) :   0.1456
B( 12-H , 26-O ) :   0.2085 B( 12-H , 27-H ) :   0.1085 B( 12-H , 28-H ) :  -0.1190
B( 13-H , 14-H ) :  -0.2394 B( 13-H , 26-O ) :   0.3092 B( 16-O , 26-O ) :   0.1211
B( 17-C , 18-H ) :   0.1525 B( 17-C , 19-H ) :   0.1109 B( 17-C , 23-C ) :   1.2352
B( 17-C , 24-H ) :   0.6815 B( 17-C , 25-H ) :   0.8221 B( 18-H , 19-H ) :  -0.1970
B( 19-H , 23-C ) :  -0.1162 B( 19-H , 29-H ) :   0.1022 B( 20-C , 21-H ) :   0.3389
B( 20-C , 23-C ) :   1.1483 B( 20-C , 27-H ) :   0.1378 B( 20-C , 28-H ) :   0.1384
B( 20-C , 29-H ) :   0.9209 B( 20-C , 30-H ) :   0.7826 B( 21-H , 22-H ) :  -0.1229
B( 23-C , 24-H ) :   0.2676 B( 23-C , 25-H ) :   0.1220 B( 23-C , 27-H ) :   0.8485
B( 23-C , 28-H ) :   0.8412 B( 23-C , 29-H ) :   0.1135 B( 23-C , 30-H ) :   0.1474
B( 24-H , 25-H ) :  -0.1242

FINAL SINGLE POINT ENERGY     -1070.586152203278

DIPOLE MOMENT
-------------
                                X             Y             Z
Electronic contribution:     -0.89827      -0.74136     -22.46897
Nuclear contribution   :      0.43347       2.59110      22.83150
                        -----------------------------------------
Total Dipole Moment    :     -0.46481       1.84974       0.36253
                        -----------------------------------------
Magnitude (a.u.)       :      1.94139
Magnitude (Debye)      :      4.93462

Rotational constants in cm-1:     0.029257     0.014415     0.010996
Rotational constants in MHz :   877.098782   432.159206   329.643335

                             ****ORCA TERMINATED NORMALLY****
TOTAL RUN TIME: 0 days 0 hours 3 minutes 14 seconds 853 msec
