                         Program Version 5.0.0 -  RELEASE  -
|  1> !LC-BLYP RIJCOSX def2-SVPD def2/J TightSCF xyzfile
|  2>
|  3> *xyzfile 0 1 D4.xyz
|  4>
|  5> %MaxCore 64000
|  6>
|  7> %pal nprocs 4
|  8> end
|  9>
| 10> %scf
| 11>   MaxIter 150
| 12> end
| 13>
| 14>
| 15>                          ****END OF INPUT****

CARTESIAN COORDINATES (ANGSTROEM)
---------------------------------
  C      1.963365   -1.749150   -1.896887
  C      2.738490   -2.015170   -3.097113
  C      0.611877    1.657634   -4.500288
  C      1.694991    1.541794   -5.570447
  H      2.697326    1.734659   -5.183996
  H      1.506656    2.272239   -6.358076
  S      1.780287   -0.033128   -6.428739
  C      4.049736   -2.154717   -3.152044
  N      4.658206   -1.986293   -4.318655
  N      4.764231   -2.454435   -2.050491
  H      4.287363   -2.776259   -1.217496
  H      5.750825   -2.658351   -2.125988
  H      2.345176   -1.690274   -3.971447
  H      4.109004   -1.592677   -5.071760
  H      5.649095   -2.156462   -4.427237
  O      2.569287    0.213657   -7.607360
  F      0.416880   -0.462969   -6.618595
  C      2.088520   -0.300912   -1.415204
  H      2.231272   -2.451616   -1.102643
  H      0.930249   -1.977801   -2.155438
  C      0.680356    0.655418   -3.348038
  H     -0.356865    1.549231   -4.991128
  H      0.650228    2.675438   -4.096000
  C      1.968993    0.733582   -2.535654
  H      3.051356   -0.168602   -0.911868
  H      1.316501   -0.136231   -0.657252
  O      2.505129   -0.933263   -5.482570
  H      2.824195    0.624726   -3.208464
  H      2.058919    1.730331   -2.093112
  H      0.542252   -0.344731   -3.766662
  H     -0.174219    0.829692   -2.685182

 Total Charge           Charge          ....    0
 Multiplicity           Mult            ....    1
 Number of Electrons    NEL             ....  120
 Basis Dimension        Dim             ....  432

ORBITAL ENERGIES
----------------

  NO   OCC          E(Eh)            E(eV)
   0   2.0000     -88.579256     -2410.3641
   1   2.0000     -24.606165      -669.5678
   2   2.0000     -18.983437      -516.5656
   3   2.0000     -18.968151      -516.1496
   4   2.0000     -14.173102      -385.6697
   5   2.0000     -14.155855      -385.2004
   6   2.0000     -10.153095      -276.2798
   7   2.0000     -10.117078      -275.2997
   8   2.0000     -10.108020      -275.0532
   9   2.0000     -10.088267      -274.5157
  10   2.0000     -10.072508      -274.0869
  11   2.0000     -10.060353      -273.7561
  12   2.0000     -10.048135      -273.4236
  13   2.0000      -9.974115      -271.4095
  14   2.0000      -8.127793      -221.1685
  15   2.0000      -6.166728      -167.8052
  16   2.0000      -6.160082      -167.6244
  17   2.0000      -6.158037      -167.5687
  18   2.0000      -1.471001       -40.0280
  19   2.0000      -1.218323       -33.1522
  20   2.0000      -1.110737       -30.2247
  21   2.0000      -1.032066       -28.0840
  22   2.0000      -0.952106       -25.9081
  23   2.0000      -0.941415       -25.6172
  24   2.0000      -0.900620       -24.5071
  25   2.0000      -0.860112       -23.4048
  26   2.0000      -0.832748       -22.6602
  27   2.0000      -0.801525       -21.8106
  28   2.0000      -0.760056       -20.6822
  29   2.0000      -0.732424       -19.9303
  30   2.0000      -0.711160       -19.3516
  31   2.0000      -0.706172       -19.2159
  32   2.0000      -0.689747       -18.7690
  33   2.0000      -0.659611       -17.9489
  34   2.0000      -0.650774       -17.7085
  35   2.0000      -0.628782       -17.1100
  36   2.0000      -0.606499       -16.5037
  37   2.0000      -0.604635       -16.4530
  38   2.0000      -0.582407       -15.8481
  39   2.0000      -0.582016       -15.8375
  40   2.0000      -0.572931       -15.5902
  41   2.0000      -0.548929       -14.9371
  42   2.0000      -0.544867       -14.8266
  43   2.0000      -0.538195       -14.6450
  44   2.0000      -0.524713       -14.2782
  45   2.0000      -0.500116       -13.6089
  46   2.0000      -0.491009       -13.3610
  47   2.0000      -0.482551       -13.1309
  48   2.0000      -0.476979       -12.9793
  49   2.0000      -0.470918       -12.8143
  50   2.0000      -0.454778       -12.3751
  51   2.0000      -0.441209       -12.0059
  52   2.0000      -0.438083       -11.9208
  53   2.0000      -0.429602       -11.6901
  54   2.0000      -0.417904       -11.3718
  55   2.0000      -0.413190       -11.2435
  56   2.0000      -0.398934       -10.8555
  57   2.0000      -0.376213       -10.2373
  58   2.0000      -0.344140        -9.3645
  59   2.0000      -0.231878        -6.3097
  60   0.0000       0.042126         1.1463
  61   0.0000       0.066638         1.8133
  62   0.0000       0.071297         1.9401
  63   0.0000       0.078872         2.1462
  64   0.0000       0.090121         2.4523

MULLIKEN ATOMIC CHARGES
-----------------------
   0 C :    0.459745
   1 C :    0.349976
   2 C :    0.639048
   3 C :    0.295457
   4 H :   -0.005454
   5 H :   -0.184413
   6 S :    1.284871
   7 C :    0.423403
   8 N :    0.396483
   9 N :    0.192899
  10 H :   -0.064698
  11 H :   -0.301135
  12 H :   -0.815152
  13 H :   -0.260293
  14 H :   -0.299297
  15 O :   -0.543301
  16 F :   -0.398706
  17 C :    0.779523
  18 H :   -0.458339
  19 H :    0.062482
  20 C :    0.258960
  21 H :   -0.122015
  22 H :   -0.121113
  23 C :    0.064799
  24 H :   -0.114161
  25 H :   -0.030938
  26 O :   -0.604581
  27 H :   -0.097315
  28 H :   -0.296119
  29 H :   -0.209751
  30 H :   -0.280867
Sum of atomic charges:    0.0000000

LOEWDIN ATOMIC CHARGES
----------------------
   0 C :   -0.060180
   1 C :   -0.036476
   2 C :   -0.044968
   3 C :   -0.044598
   4 H :    0.040417
   5 H :    0.029286
   6 S :    1.135517
   7 C :   -0.216416
   8 N :    0.216324
   9 N :    0.208369
  10 H :   -0.013681
  11 H :   -0.016618
  12 H :   -0.138159
  13 H :   -0.079098
  14 H :   -0.008454
  15 O :   -0.426049
  16 F :   -0.218686
  17 C :   -0.030905
  18 H :    0.005124
  19 H :    0.013576
  20 C :   -0.032627
  21 H :    0.028990
  22 H :    0.041991
  23 C :   -0.036223
  24 H :    0.023219
  25 H :    0.020503
  26 O :   -0.454434
  27 H :    0.014335
  28 H :    0.028870
  29 H :    0.011075
  30 H :    0.039976

  Mayer bond orders larger than 0.100000
B(  0-C ,  1-C ) :   0.9908 B(  0-C ,  7-C ) :   0.2166 B(  0-C , 12-H ) :   0.5136
B(  0-C , 17-C ) :   1.0860 B(  0-C , 18-H ) :   0.7075 B(  0-C , 19-H ) :   0.6088
B(  0-C , 23-C ) :   0.2117 B(  0-C , 24-H ) :   0.1370 B(  0-C , 25-H ) :   0.2212
B(  1-C ,  7-C ) :   1.7087 B(  1-C ,  8-N ) :   0.2701 B(  1-C ,  9-N ) :   0.2849
B(  1-C , 12-H ) :  -0.1717 B(  1-C , 17-C ) :   0.1197 B(  1-C , 18-H ) :   0.2754
B(  1-C , 19-H ) :   0.3508 B(  1-C , 26-O ) :  -0.1681 B(  1-C , 28-H ) :   0.1367
B(  2-C ,  3-C ) :   1.2218 B(  2-C ,  4-H ) :   0.1114 B(  2-C ,  5-H ) :   0.2012
B(  2-C , 20-C ) :   1.2254 B(  2-C , 21-H ) :   0.5647 B(  2-C , 22-H ) :   0.7286
B(  3-C ,  4-H ) :   0.8732 B(  3-C ,  5-H ) :   0.7965 B(  3-C ,  6-S ) :   1.0242
B(  3-C , 21-H ) :   0.1210 B(  3-C , 22-H ) :   0.1607 B(  6-S , 15-O ) :   1.6711
B(  6-S , 16-F ) :   0.6616 B(  6-S , 26-O ) :   1.4404 B(  7-C ,  8-N ) :   0.8730
B(  7-C ,  9-N ) :   0.9960 B(  7-C , 11-H ) :  -0.1645 B(  7-C , 12-H ) :   0.7353
B(  7-C , 13-H ) :  -0.1360 B(  7-C , 14-H ) :  -0.2179 B(  8-N , 12-H ) :   0.1369
B(  8-N , 13-H ) :   1.2175 B(  8-N , 14-H ) :   1.3285 B(  9-N , 10-H ) :   1.0788
B(  9-N , 11-H ) :   1.3333 B( 10-H , 11-H ) :  -0.2291 B( 12-H , 23-C ) :   0.1290
B( 12-H , 26-O ) :   0.2981 B( 12-H , 27-H ) :   0.1269 B( 12-H , 28-H ) :  -0.1704
B( 13-H , 14-H ) :  -0.2083 B( 13-H , 26-O ) :   0.1099 B( 16-F , 26-O ) :   0.1277
B( 17-C , 23-C ) :   1.1964 B( 17-C , 24-H ) :   0.6644 B( 17-C , 25-H ) :   0.5967
B( 17-C , 27-H ) :   0.1120 B( 17-C , 28-H ) :   0.1062 B( 20-C , 21-H ) :   0.3344
B( 20-C , 23-C ) :   1.1723 B( 20-C , 27-H ) :   0.1385 B( 20-C , 28-H ) :   0.1732
B( 20-C , 29-H ) :   0.8906 B( 20-C , 30-H ) :   0.7753 B( 21-H , 22-H ) :  -0.1403
B( 23-C , 24-H ) :   0.3136 B( 23-C , 25-H ) :   0.1679 B( 23-C , 27-H ) :   0.8699
B( 23-C , 28-H ) :   0.8127 B( 23-C , 29-H ) :   0.1434 B( 23-C , 30-H ) :   0.1719
B( 24-H , 25-H ) :  -0.1334

FINAL SINGLE POINT ENERGY     -1070.590550504886

DIPOLE MOMENT
-------------
                                X             Y             Z
Electronic contribution:     -3.05438      -2.09362     -21.69568
Nuclear contribution   :      2.64598       3.36033      21.85869
                        -----------------------------------------
Total Dipole Moment    :     -0.40840       1.26671       0.16301
                        -----------------------------------------
Magnitude (a.u.)       :      1.34087
Magnitude (Debye)      :      3.40821

Rotational constants in cm-1:     0.028973     0.014435     0.011026
Rotational constants in MHz :   868.588266   432.748309   330.548534

                             ****ORCA TERMINATED NORMALLY****
TOTAL RUN TIME: 0 days 0 hours 3 minutes 35 seconds 648 msec
