                         Program Version 5.0.0 -  RELEASE  -
|  1> !LC-BLYP RIJCOSX def2-SVPD def2/J TightSCF xyzfile
|  2>
|  3> *xyzfile 0 1 D6.xyz
|  4>
|  5> %MaxCore 64000
|  6>
|  7> %pal nprocs 4
|  8> end
|  9>
| 10> %scf
| 11>   MaxIter 150
| 12> end
| 13>
| 14>
| 15>                          ****END OF INPUT****

CARTESIAN COORDINATES (ANGSTROEM)
---------------------------------
  C      1.963365   -1.749150   -1.896887
  N      2.738490   -2.015170   -3.097113
  C      0.611877    1.657634   -4.500288
  C      1.694991    1.541794   -5.570447
  H      2.697326    1.734659   -5.183996
  H      1.506656    2.272239   -6.358076
  S      1.780287   -0.033128   -6.428739
  C      4.049736   -2.154717   -3.152044
  N      4.658206   -1.986293   -4.318655
  C      4.764231   -2.454435   -2.050491
  H      4.287363   -2.776259   -1.217496
  H      5.750825   -2.658351   -2.125988
  H      2.345176   -1.690274   -3.971447
  H      4.109004   -1.592677   -5.071760
  H      5.649095   -2.156462   -4.427237
  O      2.569287    0.213657   -7.607360
  F      0.416880   -0.462969   -6.618595
  C      2.088520   -0.300912   -1.415204
  H      2.231272   -2.451616   -1.102643
  H      0.930249   -1.977801   -2.155438
  C      0.680356    0.655418   -3.348038
  H     -0.356865    1.549231   -4.991128
  H      0.650228    2.675438   -4.096000
  C      1.968993    0.733582   -2.535654
  H      3.051356   -0.168602   -0.911868
  H      1.316501   -0.136231   -0.657252
  O      2.505129   -0.933263   -5.482570
  H      2.824195    0.624726   -3.208464
  H      2.058919    1.730331   -2.093112
  H      0.542252   -0.344731   -3.766662
  H     -0.174219    0.829692   -2.685182

 Total Charge           Charge          ....    0
 Multiplicity           Mult            ....    1
 Number of Electrons    NEL             ....  120
 Basis Dimension        Dim             ....  432

ORBITAL ENERGIES
----------------

  NO   OCC          E(Eh)            E(eV)
   0   2.0000     -88.597533     -2410.8614
   1   2.0000     -24.621785      -669.9928
   2   2.0000     -18.999732      -517.0090
   3   2.0000     -18.991077      -516.7735
   4   2.0000     -14.155965      -385.2034
   5   2.0000     -14.155314      -385.1857
   6   2.0000     -10.167069      -276.6600
   7   2.0000     -10.130809      -275.6733
   8   2.0000     -10.110435      -275.1189
   9   2.0000     -10.105005      -274.9712
  10   2.0000     -10.103323      -274.9254
  11   2.0000     -10.088547      -274.5233
  12   2.0000     -10.075281      -274.1623
  13   2.0000      -9.976040      -271.4618
  14   2.0000      -8.145936      -221.6622
  15   2.0000      -6.184892      -168.2995
  16   2.0000      -6.178323      -168.1207
  17   2.0000      -6.176128      -168.0610
  18   2.0000      -1.486848       -40.4592
  19   2.0000      -1.236073       -33.6353
  20   2.0000      -1.130849       -30.7720
  21   2.0000      -1.042015       -28.3547
  22   2.0000      -0.968012       -26.3409
  23   2.0000      -0.955820       -26.0092
  24   2.0000      -0.905172       -24.6310
  25   2.0000      -0.865348       -23.5473
  26   2.0000      -0.836519       -22.7628
  27   2.0000      -0.795363       -21.6429
  28   2.0000      -0.786808       -21.4101
  29   2.0000      -0.752172       -20.4677
  30   2.0000      -0.725281       -19.7359
  31   2.0000      -0.722136       -19.6503
  32   2.0000      -0.693671       -18.8758
  33   2.0000      -0.680545       -18.5186
  34   2.0000      -0.641398       -17.4533
  35   2.0000      -0.632380       -17.2079
  36   2.0000      -0.621313       -16.9068
  37   2.0000      -0.614365       -16.7177
  38   2.0000      -0.605713       -16.4823
  39   2.0000      -0.594211       -16.1693
  40   2.0000      -0.572771       -15.5859
  41   2.0000      -0.564822       -15.3696
  42   2.0000      -0.549263       -14.9462
  43   2.0000      -0.538264       -14.6469
  44   2.0000      -0.531213       -14.4550
  45   2.0000      -0.515690       -14.0326
  46   2.0000      -0.499326       -13.5873
  47   2.0000      -0.495395       -13.4804
  48   2.0000      -0.479802       -13.0561
  49   2.0000      -0.472081       -12.8460
  50   2.0000      -0.463896       -12.6233
  51   2.0000      -0.461776       -12.5656
  52   2.0000      -0.448619       -12.2075
  53   2.0000      -0.441829       -12.0228
  54   2.0000      -0.436198       -11.8695
  55   2.0000      -0.431255       -11.7350
  56   2.0000      -0.427402       -11.6302
  57   2.0000      -0.415185       -11.2978
  58   2.0000      -0.323233        -8.7956
  59   2.0000      -0.237012        -6.4494
  60   0.0000       0.031226         0.8497
  61   0.0000       0.057661         1.5690
  62   0.0000       0.062818         1.7094
  63   0.0000       0.072755         1.9798
  64   0.0000       0.082962         2.2575

MULLIKEN ATOMIC CHARGES
-----------------------
   0 C :    1.041780
   1 N :    0.454858
   2 C :    0.642539
   3 C :    0.296031
   4 H :    0.001304
   5 H :   -0.182354
   6 S :    1.293881
   7 C :    0.490324
   8 N :    0.681638
   9 C :    0.578135
  10 H :   -0.099879
  11 H :   -0.808851
  12 H :   -1.003141
  13 H :   -0.408982
  14 H :   -0.275450
  15 O :   -0.531945
  16 F :   -0.395817
  17 C :    0.684447
  18 H :   -0.436883
  19 H :   -0.278169
  20 C :    0.233271
  21 H :   -0.110703
  22 H :   -0.115761
  23 C :    0.201785
  24 H :   -0.206140
  25 H :   -0.116107
  26 O :   -0.701194
  27 H :   -0.055406
  28 H :   -0.411958
  29 H :   -0.183932
  30 H :   -0.277322
Sum of atomic charges:   -0.0000000

LOEWDIN ATOMIC CHARGES
----------------------
   0 C :    0.048198
   1 N :    0.021261
   2 C :   -0.042694
   3 C :   -0.041946
   4 H :    0.042156
   5 H :    0.031826
   6 S :    1.139879
   7 C :   -0.239867
   8 N :    0.221919
   9 C :    0.143511
  10 H :   -0.117968
  11 H :   -0.109674
  12 H :   -0.094766
  13 H :   -0.091448
  14 H :    0.009888
  15 O :   -0.414685
  16 F :   -0.216206
  17 C :   -0.018925
  18 H :    0.018886
  19 H :    0.018918
  20 C :   -0.037729
  21 H :    0.030451
  22 H :    0.044575
  23 C :   -0.035649
  24 H :    0.024164
  25 H :    0.025588
  26 O :   -0.453607
  27 H :    0.014278
  28 H :    0.031951
  29 H :    0.006054
  30 H :    0.041662

  Mayer bond orders larger than 0.100000
B(  0-C ,  1-N ) :   1.0525 B(  0-C ,  7-C ) :  -0.1107 B(  0-C ,  9-C ) :   0.1003
B(  0-C , 12-H ) :  -0.4176 B(  0-C , 17-C ) :   0.9947 B(  0-C , 18-H ) :   0.8191
B(  0-C , 19-H ) :   0.6398 B(  0-C , 23-C ) :   0.1662 B(  0-C , 25-H ) :   0.1141
B(  1-N ,  7-C ) :   0.9735 B(  1-N ,  9-C ) :   0.5078 B(  1-N , 12-H ) :   0.8109
B(  1-N , 13-H ) :   0.1235 B(  1-N , 19-H ) :   0.1628 B(  2-C ,  3-C ) :   1.2218
B(  2-C ,  4-H ) :   0.1071 B(  2-C ,  5-H ) :   0.1970 B(  2-C , 20-C ) :   1.2245
B(  2-C , 21-H ) :   0.5577 B(  2-C , 22-H ) :   0.7351 B(  3-C ,  4-H ) :   0.8777
B(  3-C ,  5-H ) :   0.8001 B(  3-C ,  6-S ) :   1.0157 B(  3-C , 21-H ) :   0.1210
B(  3-C , 22-H ) :   0.1619 B(  6-S , 15-O ) :   1.6820 B(  6-S , 16-F ) :   0.6646
B(  6-S , 26-O ) :   1.4288 B(  7-C ,  8-N ) :   0.9144 B(  7-C ,  9-C ) :   1.3939
B(  7-C , 10-H ) :   0.3485 B(  7-C , 11-H ) :   0.2595 B(  7-C , 12-H ) :  -0.4090
B(  7-C , 14-H ) :  -0.1699 B(  7-C , 19-H ) :   0.1047 B(  8-N ,  9-C ) :   0.2164
B(  8-N , 13-H ) :   1.0271 B(  8-N , 14-H ) :   1.2804 B(  9-C , 10-H ) :   0.5244
B(  9-C , 11-H ) :   0.6208 B(  9-C , 12-H ) :  -0.1504 B(  9-C , 19-H ) :  -0.1041
B( 10-H , 18-H ) :   0.1757 B( 10-H , 19-H ) :  -0.1317 B( 12-H , 19-H ) :   0.1226
B( 12-H , 26-O ) :   0.2497 B( 12-H , 27-H ) :   0.1192 B( 12-H , 28-H ) :  -0.1190
B( 13-H , 14-H ) :  -0.2102 B( 13-H , 26-O ) :   0.2064 B( 16-F , 26-O ) :   0.1323
B( 17-C , 18-H ) :   0.1179 B( 17-C , 19-H ) :   0.1045 B( 17-C , 23-C ) :   1.2218
B( 17-C , 24-H ) :   0.7092 B( 17-C , 25-H ) :   0.7748 B( 17-C , 27-H ) :   0.1049
B( 18-H , 19-H ) :  -0.2521 B( 19-H , 23-C ) :  -0.1009 B( 20-C , 21-H ) :   0.3352
B( 20-C , 23-C ) :   1.1703 B( 20-C , 27-H ) :   0.1487 B( 20-C , 28-H ) :   0.1592
B( 20-C , 29-H ) :   0.9029 B( 20-C , 30-H ) :   0.7801 B( 21-H , 22-H ) :  -0.1362
B( 23-C , 24-H ) :   0.2768 B( 23-C , 25-H ) :   0.1317 B( 23-C , 27-H ) :   0.8279
B( 23-C , 28-H ) :   0.8202 B( 23-C , 29-H ) :   0.1232 B( 23-C , 30-H ) :   0.1489
B( 24-H , 25-H ) :  -0.1342

FINAL SINGLE POINT ENERGY     -1070.598486567484

DIPOLE MOMENT
-------------
                                X             Y             Z
Electronic contribution:     -4.88959      -1.32199     -22.70565
Nuclear contribution   :      2.90585       3.30398      21.99296
                        -----------------------------------------
Total Dipole Moment    :     -1.98374       1.98199      -0.71269
                        -----------------------------------------
Magnitude (a.u.)       :      2.89334
Magnitude (Debye)      :      7.35430

Rotational constants in cm-1:     0.029065     0.014689     0.011200
Rotational constants in MHz :   871.338526   440.374927   335.770911

                             ****ORCA TERMINATED NORMALLY****
TOTAL RUN TIME: 0 days 0 hours 3 minutes 25 seconds 609 msec
