                         Program Version 5.0.0 -  RELEASE  -
|  1> !LC-BLYP RIJCOSX def2-SVPD def2/J TightSCF xyzfile
|  2>
|  3> *xyzfile 0 1 D7.xyz
|  4>
|  5> %MaxCore 64000
|  6>
|  7> %pal nprocs 4
|  8> end
|  9>
| 10> %scf
| 11>   MaxIter 150
| 12> end
| 13>
| 14>
| 15>                          ****END OF INPUT****

CARTESIAN COORDINATES (ANGSTROEM)
---------------------------------
  C      1.963365   -1.749150   -1.896887
  C      2.738490   -2.015170   -3.097113
  C      0.611877    1.657634   -4.500288
  C      1.694991    1.541794   -5.570447
  H      2.697326    1.734659   -5.183996
  H      1.506656    2.272239   -6.358076
  S      1.780287   -0.033128   -6.428739
  C      4.049736   -2.154717   -3.152044
  N      4.658206   -1.986293   -4.318655
  N      4.764231   -2.454435   -2.050491
  H      4.287363   -2.776259   -1.217496
  H      5.750825   -2.658351   -2.125988
  H      2.345176   -1.690274   -3.971447
  H      4.109004   -1.592677   -5.071760
  H      5.649095   -2.156462   -4.427237
  O      2.569287    0.213657   -7.607360
  O      0.416880   -0.462969   -6.618595
  C      2.088520   -0.300912   -1.415204
  H      2.231272   -2.451616   -1.102643
  H      0.930249   -1.977801   -2.155438
  C      0.680356    0.655418   -3.348038
  H     -0.356865    1.549231   -4.991128
  H      0.650228    2.675438   -4.096000
  C      1.968993    0.733582   -2.535654
  H      3.051356   -0.168602   -0.911868
  H      1.316501   -0.136231   -0.657252
  F      2.505129   -0.933263   -5.482570
  H      2.824195    0.624726   -3.208464
  H      2.058919    1.730331   -2.093112
  H      0.542252   -0.344731   -3.766662
  H     -0.174219    0.829692   -2.685182

 Total Charge           Charge          ....    0
 Multiplicity           Mult            ....    1
 Number of Electrons    NEL             ....  120
 Basis Dimension        Dim             ....  432

ORBITAL ENERGIES
----------------

  NO   OCC          E(Eh)            E(eV)
   0   2.0000     -88.569236     -2410.0914
   1   2.0000     -24.581691      -668.9018
   2   2.0000     -18.977777      -516.4116
   3   2.0000     -18.977267      -516.3977
   4   2.0000     -14.192650      -386.2016
   5   2.0000     -14.187016      -386.0483
   6   2.0000     -10.147303      -276.1221
   7   2.0000     -10.132738      -275.7258
   8   2.0000     -10.109617      -275.0967
   9   2.0000     -10.089384      -274.5461
  10   2.0000     -10.080834      -274.3134
  11   2.0000     -10.070889      -274.0428
  12   2.0000     -10.063014      -273.8285
  13   2.0000     -10.003444      -272.2075
  14   2.0000      -8.117833      -220.8975
  15   2.0000      -6.156785      -167.5346
  16   2.0000      -6.149973      -167.3493
  17   2.0000      -6.148383      -167.3060
  18   2.0000      -1.433939       -39.0195
  19   2.0000      -1.221901       -33.2496
  20   2.0000      -1.124670       -30.6038
  21   2.0000      -1.057026       -28.7631
  22   2.0000      -0.967205       -26.3190
  23   2.0000      -0.946949       -25.7678
  24   2.0000      -0.908090       -24.7104
  25   2.0000      -0.861997       -23.4561
  26   2.0000      -0.841020       -22.8853
  27   2.0000      -0.803228       -21.8569
  28   2.0000      -0.773409       -21.0455
  29   2.0000      -0.735287       -20.0082
  30   2.0000      -0.699175       -19.0255
  31   2.0000      -0.688402       -18.7324
  32   2.0000      -0.683013       -18.5857
  33   2.0000      -0.671858       -18.2822
  34   2.0000      -0.651386       -17.7251
  35   2.0000      -0.648810       -17.6550
  36   2.0000      -0.612275       -16.6608
  37   2.0000      -0.602739       -16.4013
  38   2.0000      -0.599519       -16.3137
  39   2.0000      -0.578305       -15.7365
  40   2.0000      -0.574346       -15.6288
  41   2.0000      -0.561166       -15.2701
  42   2.0000      -0.553974       -15.0744
  43   2.0000      -0.538270       -14.6471
  44   2.0000      -0.527848       -14.3635
  45   2.0000      -0.505879       -13.7657
  46   2.0000      -0.502948       -13.6859
  47   2.0000      -0.495912       -13.4945
  48   2.0000      -0.490214       -13.3394
  49   2.0000      -0.470343       -12.7987
  50   2.0000      -0.458840       -12.4857
  51   2.0000      -0.445630       -12.1262
  52   2.0000      -0.442688       -12.0461
  53   2.0000      -0.433777       -11.8037
  54   2.0000      -0.428241       -11.6530
  55   2.0000      -0.421316       -11.4646
  56   2.0000      -0.411482       -11.1970
  57   2.0000      -0.406227       -11.0540
  58   2.0000      -0.368126       -10.0172
  59   2.0000      -0.256320        -6.9748
  60   0.0000       0.053096         1.4448
  61   0.0000       0.067086         1.8255
  62   0.0000       0.074851         2.0368
  63   0.0000       0.075312         2.0494
  64   0.0000       0.090518         2.4631

MULLIKEN ATOMIC CHARGES
-----------------------
   0 C :    0.470129
   1 C :    0.385419
   2 C :    0.664439
   3 C :    0.290869
   4 H :    0.030232
   5 H :   -0.249937
   6 S :    1.299227
   7 C :    0.443751
   8 N :    0.453242
   9 N :    0.191208
  10 H :   -0.055320
  11 H :   -0.297218
  12 H :   -0.827628
  13 H :   -0.321779
  14 H :   -0.291192
  15 O :   -0.570008
  16 O :   -0.626867
  17 C :    0.760659
  18 H :   -0.455058
  19 H :    0.064247
  20 C :    0.242771
  21 H :   -0.110224
  22 H :   -0.112107
  23 C :    0.066351
  24 H :   -0.119944
  25 H :   -0.028778
  26 F :   -0.412129
  27 H :   -0.108626
  28 H :   -0.275801
  29 H :   -0.254756
  30 H :   -0.245171
Sum of atomic charges:   -0.0000000

LOEWDIN ATOMIC CHARGES
----------------------
   0 C :   -0.056250
   1 C :   -0.034364
   2 C :   -0.040120
   3 C :   -0.050376
   4 H :    0.026645
   5 H :    0.038452
   6 S :    1.087366
   7 C :   -0.215158
   8 N :    0.214055
   9 N :    0.215175
  10 H :   -0.008851
  11 H :   -0.011721
  12 H :   -0.108681
  13 H :   -0.054814
  14 H :   -0.000859
  15 O :   -0.432675
  16 O :   -0.424156
  17 C :   -0.029605
  18 H :    0.008736
  19 H :    0.018273
  20 C :   -0.030859
  21 H :    0.034389
  22 H :    0.041200
  23 C :   -0.041160
  24 H :    0.023349
  25 H :    0.023593
  26 F :   -0.285004
  27 H :    0.009052
  28 H :    0.030792
  29 H :    0.011657
  30 H :    0.041920

  Mayer bond orders larger than 0.100000
B(  0-C ,  1-C ) :   1.0210 B(  0-C ,  7-C ) :   0.2122 B(  0-C , 12-H ) :   0.5116
B(  0-C , 17-C ) :   1.0990 B(  0-C , 18-H ) :   0.6852 B(  0-C , 19-H ) :   0.6114
B(  0-C , 23-C ) :   0.2152 B(  0-C , 24-H ) :   0.1240 B(  0-C , 25-H ) :   0.2068
B(  1-C ,  7-C ) :   1.6271 B(  1-C ,  8-N ) :   0.2709 B(  1-C ,  9-N ) :   0.2705
B(  1-C , 12-H ) :  -0.3985 B(  1-C , 17-C ) :   0.1123 B(  1-C , 18-H ) :   0.3047
B(  1-C , 19-H ) :   0.3623 B(  2-C ,  3-C ) :   1.2152 B(  2-C ,  4-H ) :   0.1312
B(  2-C ,  5-H ) :   0.1965 B(  2-C , 20-C ) :   1.2299 B(  2-C , 21-H ) :   0.5820
B(  2-C , 22-H ) :   0.7092 B(  3-C ,  4-H ) :   0.8656 B(  3-C ,  5-H ) :   0.7328
B(  3-C ,  6-S ) :   1.0134 B(  3-C , 20-C ) :   0.1064 B(  3-C , 21-H ) :   0.1347
B(  3-C , 22-H ) :   0.1588 B(  5-H ,  6-S ) :   0.1218 B(  6-S , 15-O ) :   1.6216
B(  6-S , 16-O ) :   1.5245 B(  6-S , 26-F ) :   0.6961 B(  7-C ,  8-N ) :   0.8986
B(  7-C ,  9-N ) :   1.0199 B(  7-C , 11-H ) :  -0.1738 B(  7-C , 12-H ) :   0.7591
B(  7-C , 13-H ) :  -0.1092 B(  7-C , 14-H ) :  -0.2143 B(  8-N , 12-H ) :   0.1031
B(  8-N , 13-H ) :   1.2231 B(  8-N , 14-H ) :   1.3104 B(  9-N , 10-H ) :   1.0690
B(  9-N , 11-H ) :   1.3368 B( 10-H , 11-H ) :  -0.2288 B( 12-H , 23-C ) :   0.1425
B( 12-H , 28-H ) :  -0.1233 B( 12-H , 29-H ) :   0.1016 B( 13-H , 14-H ) :  -0.1888
B( 13-H , 26-F ) :   0.1176 B( 17-C , 23-C ) :   1.1928 B( 17-C , 24-H ) :   0.6791
B( 17-C , 25-H ) :   0.6054 B( 17-C , 27-H ) :   0.1242 B( 17-C , 28-H ) :   0.1144
B( 20-C , 21-H ) :   0.3351 B( 20-C , 23-C ) :   1.1750 B( 20-C , 27-H ) :   0.1222
B( 20-C , 28-H ) :   0.1749 B( 20-C , 29-H ) :   0.9046 B( 20-C , 30-H ) :   0.7678
B( 21-H , 22-H ) :  -0.1262 B( 23-C , 24-H ) :   0.3162 B( 23-C , 25-H ) :   0.1676
B( 23-C , 27-H ) :   0.8711 B( 23-C , 28-H ) :   0.8225 B( 23-C , 29-H ) :   0.1196
B( 23-C , 30-H ) :   0.1879 B( 24-H , 25-H ) :  -0.1311

FINAL SINGLE POINT ENERGY     -1070.609437525144

DIPOLE MOMENT
-------------
                                X             Y             Z
Electronic contribution:      0.75304      -3.07011     -19.33807
Nuclear contribution   :      0.26049       3.89757      20.56096
                        -----------------------------------------
Total Dipole Moment    :      1.01353       0.82746       1.22289
                        -----------------------------------------
Magnitude (a.u.)       :      1.79092
Magnitude (Debye)      :      4.55215

Rotational constants in cm-1:     0.029090     0.014735     0.011139
Rotational constants in MHz :   872.086433   441.731892   333.928051

                             ****ORCA TERMINATED NORMALLY****
TOTAL RUN TIME: 0 days 0 hours 3 minutes 13 seconds 125 msec
