                         Program Version 5.0.0 -  RELEASE  -
|  1> !LC-BLYP RIJCOSX def2-SVPD def2/J TightSCF xyzfile
|  2>
|  3> *xyzfile 0 1 D8.xyz
|  4>
|  5> %MaxCore 64000
|  6>
|  7> %pal nprocs 4
|  8> end
|  9>
| 10> %scf
| 11>   MaxIter 150
| 12> end
| 13>
| 14>
| 15>                          ****END OF INPUT****

CARTESIAN COORDINATES (ANGSTROEM)
---------------------------------
  C      1.963365   -1.749150   -1.896887
  N      2.738490   -2.015170   -3.097113
  C      0.611877    1.657634   -4.500288
  C      1.694991    1.541794   -5.570447
  H      2.697326    1.734659   -5.183996
  H      1.506656    2.272239   -6.358076
  S      1.780287   -0.033128   -6.428739
  C      4.049736   -2.154717   -3.152044
  C      4.658206   -1.986293   -4.318655
  N      4.764231   -2.454435   -2.050491
  H      4.287363   -2.776259   -1.217496
  H      5.750825   -2.658351   -2.125988
  H      2.345176   -1.690274   -3.971447
  H      4.109004   -1.592677   -5.071760
  H      5.649095   -2.156462   -4.427237
  O      2.569287    0.213657   -7.607360
  O      0.416880   -0.462969   -6.618595
  C      2.088520   -0.300912   -1.415204
  H      2.231272   -2.451616   -1.102643
  H      0.930249   -1.977801   -2.155438
  C      0.680356    0.655418   -3.348038
  H     -0.356865    1.549231   -4.991128
  H      0.650228    2.675438   -4.096000
  C      1.968993    0.733582   -2.535654
  H      3.051356   -0.168602   -0.911868
  H      1.316501   -0.136231   -0.657252
  F      2.505129   -0.933263   -5.482570
  H      2.824195    0.624726   -3.208464
  H      2.058919    1.730331   -2.093112
  H      0.542252   -0.344731   -3.766662
  H     -0.174219    0.829692   -2.685182

 Total Charge           Charge          ....    0
 Multiplicity           Mult            ....    1
 Number of Electrons    NEL             ....  120
 Basis Dimension        Dim             ....  432

ORBITAL ENERGIES
----------------

  NO   OCC          E(Eh)            E(eV)
   0   2.0000     -88.570766     -2410.1331
   1   2.0000     -24.582440      -668.9222
   2   2.0000     -18.979336      -516.4540
   3   2.0000     -18.977416      -516.4017
   4   2.0000     -14.190066      -386.1313
   5   2.0000     -14.183977      -385.9656
   6   2.0000     -10.150448      -276.2077
   7   2.0000     -10.133460      -275.7455
   8   2.0000     -10.125908      -275.5400
   9   2.0000     -10.117574      -275.3132
  10   2.0000     -10.103946      -274.9424
  11   2.0000     -10.096670      -274.7443
  12   2.0000     -10.091987      -274.6169
  13   2.0000      -9.995776      -271.9989
  14   2.0000      -8.119194      -220.9345
  15   2.0000      -6.158130      -167.5712
  16   2.0000      -6.151323      -167.3860
  17   2.0000      -6.149807      -167.3448
  18   2.0000      -1.434561       -39.0364
  19   2.0000      -1.222753       -33.2728
  20   2.0000      -1.125471       -30.6256
  21   2.0000      -1.066069       -29.0092
  22   2.0000      -0.981509       -26.7082
  23   2.0000      -0.953789       -25.9539
  24   2.0000      -0.907930       -24.7060
  25   2.0000      -0.874021       -23.7833
  26   2.0000      -0.826943       -22.5023
  27   2.0000      -0.820036       -22.3143
  28   2.0000      -0.778839       -21.1933
  29   2.0000      -0.745308       -20.2809
  30   2.0000      -0.705706       -19.2032
  31   2.0000      -0.703322       -19.1384
  32   2.0000      -0.682156       -18.5624
  33   2.0000      -0.677130       -18.4256
  34   2.0000      -0.658232       -17.9114
  35   2.0000      -0.640183       -17.4203
  36   2.0000      -0.613853       -16.7038
  37   2.0000      -0.609851       -16.5949
  38   2.0000      -0.594825       -16.1860
  39   2.0000      -0.590002       -16.0548
  40   2.0000      -0.578670       -15.7464
  41   2.0000      -0.568989       -15.4830
  42   2.0000      -0.554285       -15.0829
  43   2.0000      -0.543070       -14.7777
  44   2.0000      -0.530516       -14.4361
  45   2.0000      -0.514148       -13.9907
  46   2.0000      -0.506853       -13.7922
  47   2.0000      -0.499002       -13.5785
  48   2.0000      -0.487266       -13.2592
  49   2.0000      -0.479497       -13.0478
  50   2.0000      -0.472382       -12.8542
  51   2.0000      -0.465701       -12.6724
  52   2.0000      -0.450688       -12.2639
  53   2.0000      -0.446519       -12.1504
  54   2.0000      -0.440197       -11.9784
  55   2.0000      -0.431646       -11.7457
  56   2.0000      -0.430456       -11.7133
  57   2.0000      -0.427430       -11.6310
  58   2.0000      -0.354562        -9.6481
  59   2.0000      -0.259426        -7.0593
  60   0.0000       0.053657         1.4601
  61   0.0000       0.065657         1.7866
  62   0.0000       0.070768         1.9257
  63   0.0000       0.074565         2.0290
  64   0.0000       0.089822         2.4442

MULLIKEN ATOMIC CHARGES
-----------------------
   0 C :    1.091958
   1 N :    0.310054
   2 C :    0.662927
   3 C :    0.284348
   4 H :    0.034757
   5 H :   -0.243002
   6 S :    1.320168
   7 C :    0.561045
   8 C :    0.903580
   9 N :    0.399761
  10 H :   -0.089634
  11 H :   -0.231077
  12 H :   -0.757102
  13 H :   -0.567825
  14 H :   -0.757269
  15 O :   -0.564697
  16 O :   -0.629382
  17 C :    0.628251
  18 H :   -0.544824
  19 H :   -0.229595
  20 C :    0.231147
  21 H :   -0.098137
  22 H :   -0.106751
  23 C :    0.194946
  24 H :   -0.109013
  25 H :   -0.192272
  26 F :   -0.565266
  27 H :   -0.025583
  28 H :   -0.421528
  29 H :   -0.252383
  30 H :   -0.237601
Sum of atomic charges:    0.0000000

LOEWDIN ATOMIC CHARGES
----------------------
   0 C :    0.043555
   1 N :    0.019971
   2 C :   -0.038727
   3 C :   -0.048963
   4 H :    0.028744
   5 H :    0.039445
   6 S :    1.088088
   7 C :   -0.235144
   8 C :    0.163397
   9 N :    0.213926
  10 H :   -0.023622
  11 H :    0.004914
  12 H :   -0.050795
  13 H :   -0.142634
  14 H :   -0.089721
  15 O :   -0.423467
  16 O :   -0.428706
  17 C :   -0.023869
  18 H :    0.014758
  19 H :    0.023796
  20 C :   -0.035401
  21 H :    0.035330
  22 H :    0.042413
  23 C :   -0.038503
  24 H :    0.024192
  25 H :    0.026587
  26 F :   -0.284867
  27 H :    0.011387
  28 H :    0.033811
  29 H :    0.007725
  30 H :    0.042379

  Mayer bond orders larger than 0.100000
B(  0-C ,  1-N ) :   0.9956 B(  0-C , 12-H ) :  -0.3820 B(  0-C , 17-C ) :   1.0310
B(  0-C , 18-H ) :   0.7813 B(  0-C , 19-H ) :   0.5680 B(  0-C , 23-C ) :   0.1753
B(  0-C , 25-H ) :   0.1149 B(  1-N ,  7-C ) :   1.1200 B(  1-N ,  8-C ) :   0.2322
B(  1-N ,  9-N ) :   0.2119 B(  1-N , 12-H ) :   1.0554 B(  1-N , 19-H ) :   0.1530
B(  2-C ,  3-C ) :   1.2231 B(  2-C ,  4-H ) :   0.1210 B(  2-C ,  5-H ) :   0.1870
B(  2-C , 20-C ) :   1.2286 B(  2-C , 21-H ) :   0.5765 B(  2-C , 22-H ) :   0.7087
B(  3-C ,  4-H ) :   0.8722 B(  3-C ,  5-H ) :   0.7409 B(  3-C ,  6-S ) :   0.9964
B(  3-C , 20-C ) :   0.1056 B(  3-C , 21-H ) :   0.1373 B(  3-C , 22-H ) :   0.1643
B(  5-H ,  6-S ) :   0.1200 B(  6-S , 15-O ) :   1.6197 B(  6-S , 16-O ) :   1.5144
B(  6-S , 26-F ) :   0.7046 B(  7-C ,  8-C ) :   1.3028 B(  7-C ,  9-N ) :   1.0087
B(  7-C , 11-H ) :  -0.1476 B(  7-C , 12-H ) :  -0.4042 B(  7-C , 13-H ) :   0.1105
B(  7-C , 14-H ) :   0.3020 B(  8-C ,  9-N ) :   0.3004 B(  8-C , 13-H ) :   0.3890
B(  8-C , 14-H ) :   0.5160 B(  9-N , 10-H ) :   0.9443 B(  9-N , 11-H ) :   1.2491
B(  9-N , 18-H ) :   0.1081 B( 10-H , 11-H ) :  -0.2280 B( 12-H , 13-H ) :  -0.1038
B( 12-H , 19-H ) :   0.2135 B( 12-H , 24-H ) :   0.1228 B( 13-H , 14-H ) :  -0.3013
B( 13-H , 26-F ) :   0.3723 B( 17-C , 18-H ) :   0.1550 B( 17-C , 19-H ) :   0.1064
B( 17-C , 23-C ) :   1.2192 B( 17-C , 24-H ) :   0.6897 B( 17-C , 25-H ) :   0.8353
B( 18-H , 19-H ) :  -0.2014 B( 19-H , 23-C ) :  -0.1070 B( 19-H , 29-H ) :   0.1013
B( 20-C , 21-H ) :   0.3417 B( 20-C , 23-C ) :   1.1665 B( 20-C , 27-H ) :   0.1203
B( 20-C , 28-H ) :   0.1454 B( 20-C , 29-H ) :   0.9102 B( 20-C , 30-H ) :   0.7777
B( 21-H , 22-H ) :  -0.1232 B( 23-C , 24-H ) :   0.2670 B( 23-C , 25-H ) :   0.1230
B( 23-C , 27-H ) :   0.8471 B( 23-C , 28-H ) :   0.8614 B( 23-C , 29-H ) :   0.1041
B( 23-C , 30-H ) :   0.1631 B( 24-H , 25-H ) :  -0.1227

FINAL SINGLE POINT ENERGY     -1070.604613010829

DIPOLE MOMENT
-------------
                                X             Y             Z
Electronic contribution:     -0.87192      -2.88134     -18.28151
Nuclear contribution   :      0.50676       3.90127      20.40426
                        -----------------------------------------
Total Dipole Moment    :     -0.36516       1.01993       2.12275
                        -----------------------------------------
Magnitude (a.u.)       :      2.38321
Magnitude (Debye)      :      6.05763

Rotational constants in cm-1:     0.029548     0.014706     0.011197
Rotational constants in MHz :   885.834387   440.871746   335.667619

                             ****ORCA TERMINATED NORMALLY****
TOTAL RUN TIME: 0 days 0 hours 3 minutes 12 seconds 551 msec
