                         Program Version 5.0.0 -  RELEASE  -
|  1> !wB97X-D3 RIJCOSX def2-TZVP def2/J TightSCF
|  2> *xyz -1 1
|  3> C          3.76678       -2.26611       -6.51175
|  4> C          2.49670       -1.84416       -5.73570
|  5> H          1.62642       -2.21743       -6.30895
|  6> H          2.48182       -2.45607       -4.79341
|  7> O          2.45973       -0.50920       -5.50576
|  8> H          3.82914       -1.70941       -7.42340
|  9> H          3.71764       -3.31144       -6.73483
| 10> H          4.63199       -2.06931       -5.91377
| 11> *
| 12>
| 13> %MaxCore 64000
| 14>
| 15> %pal nprocs 4
| 16> end
| 17>
| 18> %scf
| 19>   MaxIter 150
| 20> end
| 21>
| 22>
| 23>                          ****END OF INPUT****

CARTESIAN COORDINATES (ANGSTROEM)
---------------------------------
  C      3.766780   -2.266110   -6.511750
  C      2.496700   -1.844160   -5.735700
  H      1.626420   -2.217430   -6.308950
  H      2.481820   -2.456070   -4.793410
  O      2.459730   -0.509200   -5.505760
  H      3.829140   -1.709410   -7.423400
  H      3.717640   -3.311440   -6.734830
  H      4.631990   -2.069310   -5.913770

 Total Charge           Charge          ....   -1
 Multiplicity           Mult            ....    1
 Number of Electrons    NEL             ....   26
 Basis Dimension        Dim             ....  123

ORBITAL ENERGIES
----------------

  NO   OCC          E(Eh)            E(eV)
   0   2.0000     -18.870761      -513.4995
   1   2.0000     -10.079140      -274.2673
   2   2.0000     -10.056207      -273.6433
   3   2.0000      -0.783498       -21.3201
   4   2.0000      -0.630823       -17.1656
   5   2.0000      -0.471863       -12.8400
   6   2.0000      -0.342293        -9.3143
   7   2.0000      -0.318855        -8.6765
   8   2.0000      -0.260073        -7.0769
   9   2.0000      -0.243279        -6.6200
  10   2.0000      -0.196247        -5.3402
  11   2.0000      -0.045674        -1.2428
  12   2.0000      -0.044319        -1.2060
  13   0.0000       0.295077         8.0295
  14   0.0000       0.330561         8.9950
  15   0.0000       0.357023         9.7151
  16   0.0000       0.362847         9.8736
  17   0.0000       0.394177        10.7261

MULLIKEN ATOMIC CHARGES
-----------------------
   0 C :   -0.182477
   1 C :    0.103949
   2 H :   -0.079550
   3 H :   -0.092054
   4 O :   -0.795937
   5 H :    0.033237
   6 H :   -0.021349
   7 H :    0.034180
Sum of atomic charges:   -1.0000000

LOEWDIN ATOMIC CHARGES
----------------------
   0 C :   -0.362247
   1 C :   -0.560353
   2 H :    0.049603
   3 H :    0.048752
   4 O :   -0.424172
   5 H :    0.087370
   6 H :    0.073819
   7 H :    0.087228

  Mayer bond orders larger than 0.100000
B(  0-C ,  1-C ) :   0.9076 B(  0-C ,  4-O ) :  -0.1774 B(  0-C ,  5-H ) :   0.9742
B(  0-C ,  6-H ) :   0.9436 B(  0-C ,  7-H ) :   0.9782 B(  1-C ,  2-H ) :   0.9264
B(  1-C ,  3-H ) :   0.9153 B(  1-C ,  4-O ) :   1.5881

Dispersion correction           -0.000860927
FINAL SINGLE POINT ENERGY      -154.432362646107

DIPOLE MOMENT
-------------
                                X             Y             Z
Electronic contribution:     -1.04856       2.63028       0.95814
Nuclear contribution   :      1.63615      -3.79938      -1.48621
                        -----------------------------------------
Total Dipole Moment    :      0.58759      -1.16911      -0.52807
                        -----------------------------------------
Magnitude (a.u.)       :      1.41100
Magnitude (Debye)      :      3.58648

Rotational constants in cm-1:     1.265582     0.329289     0.289024
Rotational constants in MHz : 37941.194363  9871.829581  8664.719106

                             ****ORCA TERMINATED NORMALLY****
TOTAL RUN TIME: 0 days 0 hours 0 minutes 15 seconds 295 msec
