                         Program Version 5.0.0 -  RELEASE  -
|  1> !wB97X-D3 RIJCOSX def2-TZVP def2/J TightSCF
|  2> *xyz 1 1
|  3> C          4.99986       -1.59613       -5.92488
|  4> N          5.28156       -1.97413       -4.53576
|  5> C          3.76678       -2.26611       -6.51175
|  6> C          4.79250       -1.36132       -3.45730
|  7> N          3.93990       -0.37492       -3.55736
|  8> N          5.25986       -1.75422       -2.23913
|  9> H          5.92282       -2.52145       -2.18672
| 10> H          4.65468       -1.64040       -1.44202
| 11> H          5.70914       -2.87560       -4.38702
| 12> H          3.33010       -0.31764       -4.36125
| 13> H          3.69849        0.11447       -2.70833
| 14> H          4.84333       -0.51793       -5.94302
| 15> H          5.90170       -1.82250       -6.49647
| 16> H          3.63046       -1.94025       -7.52177
| 17> H          2.90710       -2.00116       -5.93240
| 18> H          3.89538       -3.32820       -6.49392
| 19> *
| 20>
| 21> %MaxCore 64000
| 22>
| 23> %pal nprocs 4
| 24> end
| 25>
| 26> %scf
| 27>   MaxIter 150
| 28> end
| 29>
| 30>
| 31>                          ****END OF INPUT****

CARTESIAN COORDINATES (ANGSTROEM)
---------------------------------
  C      4.999860   -1.596130   -5.924880
  N      5.281560   -1.974130   -4.535760
  C      3.766780   -2.266110   -6.511750
  C      4.792500   -1.361320   -3.457300
  N      3.939900   -0.374920   -3.557360
  N      5.259860   -1.754220   -2.239130
  H      5.922820   -2.521450   -2.186720
  H      4.654680   -1.640400   -1.442020
  H      5.709140   -2.875600   -4.387020
  H      3.330100   -0.317640   -4.361250
  H      3.698490    0.114470   -2.708330
  H      4.843330   -0.517930   -5.943020
  H      5.901700   -1.822500   -6.496470
  H      3.630460   -1.940250   -7.521770
  H      2.907100   -2.001160   -5.932400
  H      3.895380   -3.328200   -6.493920

 Total Charge           Charge          ....    1
 Multiplicity           Mult            ....    1
 Number of Electrons    NEL             ....   48
 Basis Dimension        Dim             ....  246

ORBITAL ENERGIES
----------------

  NO   OCC          E(Eh)            E(eV)
   0   2.0000     -14.649365      -398.6295
   1   2.0000     -14.645794      -398.5323
   2   2.0000     -14.639680      -398.3660
   3   2.0000     -10.614070      -288.8235
   4   2.0000     -10.480847      -285.1983
   5   2.0000     -10.412146      -283.3289
   6   2.0000      -1.334155       -36.3042
   7   2.0000      -1.222336       -33.2614
   8   2.0000      -1.206764       -32.8377
   9   2.0000      -1.046784       -28.4844
  10   2.0000      -0.951340       -25.8873
  11   2.0000      -0.911865       -24.8131
  12   2.0000      -0.892748       -24.2929
  13   2.0000      -0.842765       -22.9328
  14   2.0000      -0.795741       -21.6532
  15   2.0000      -0.791192       -21.5294
  16   2.0000      -0.740314       -20.1450
  17   2.0000      -0.732884       -19.9428
  18   2.0000      -0.706404       -19.2222
  19   2.0000      -0.658940       -17.9307
  20   2.0000      -0.629731       -17.1359
  21   2.0000      -0.609696       -16.5907
  22   2.0000      -0.574659       -15.6373
  23   2.0000      -0.542989       -14.7755
  24   0.0000      -0.091691        -2.4950
  25   0.0000      -0.064461        -1.7541
  26   0.0000      -0.034479        -0.9382
  27   0.0000      -0.022415        -0.6099
  28   0.0000      -0.002928        -0.0797

MULLIKEN ATOMIC CHARGES
-----------------------
   0 C :   -0.221394
   1 N :   -0.292850
   2 C :   -0.289445
   3 C :    0.509461
   4 N :   -0.442039
   5 N :   -0.469183
   6 H :    0.293330
   7 H :    0.294354
   8 H :    0.270523
   9 H :    0.307327
  10 H :    0.297049
  11 H :    0.161010
  12 H :    0.175922
  13 H :    0.167986
  14 H :    0.096500
  15 H :    0.141449
Sum of atomic charges:    1.0000000

LOEWDIN ATOMIC CHARGES
----------------------
   0 C :   -0.279573
   1 N :    0.164135
   2 C :   -0.284762
   3 C :   -0.394229
   4 N :    0.085557
   5 N :    0.034013
   6 H :    0.196460
   7 H :    0.191713
   8 H :    0.207643
   9 H :    0.202272
  10 H :    0.204614
  11 H :    0.143161
  12 H :    0.150129
  13 H :    0.137693
  14 H :    0.114490
  15 H :    0.126684

  Mayer bond orders larger than 0.100000
B(  0-C ,  1-N ) :   0.8679 B(  0-C ,  2-C ) :   0.9844 B(  0-C , 11-H ) :   0.9756
B(  0-C , 12-H ) :   0.9547 B(  1-N ,  3-C ) :   1.3831 B(  1-N ,  8-H ) :   0.8986
B(  2-C , 13-H ) :   0.9703 B(  2-C , 14-H ) :   0.9559 B(  2-C , 15-H ) :   0.9717
B(  3-C ,  4-N ) :   1.3413 B(  3-C ,  5-N ) :   1.2828 B(  4-N ,  9-H ) :   0.8797
B(  4-N , 10-H ) :   0.8925 B(  5-N ,  6-H ) :   0.8976 B(  5-N ,  7-H ) :   0.8901

Dispersion correction           -0.003771172
FINAL SINGLE POINT ENERGY      -284.428541257989

DIPOLE MOMENT
-------------
                                X             Y             Z
Electronic contribution:      1.74745       1.08111       4.75893
Nuclear contribution   :     -1.95709      -1.20097      -3.70214
                        -----------------------------------------
Total Dipole Moment    :     -0.20964      -0.11986       1.05679
                        -----------------------------------------
Magnitude (a.u.)       :      1.08403
Magnitude (Debye)      :      2.75539

Rotational constants in cm-1:     0.241661     0.071598     0.061743
Rotational constants in MHz :  7244.800091  2146.442409  1851.001864

                             ****ORCA TERMINATED NORMALLY****
TOTAL RUN TIME: 0 days 0 hours 0 minutes 51 seconds 273 msec
