                         Program Version 5.0.0 -  RELEASE  -
|  1> !wB97X-D3 RIJCOSX def2-TZVP def2/J TightSCF xyzfile
|  2>
|  3> *xyzfile 0 1 B.xyz
|  4>
|  5> %MaxCore 64000
|  6>
|  7> %pal nprocs 18
|  8> end
|  9>
| 10> %scf
| 11>   MaxIter 150
| 12> end
| 13>
| 14>
| 15>                          ****END OF INPUT****

CARTESIAN COORDINATES (ANGSTROEM)
---------------------------------
  C      4.999862   -1.596133   -5.924876
  N      5.281560   -1.974132   -4.535764
  C      3.766779   -2.266110   -6.511752
  C      2.496702   -1.844161   -5.735704
  H      1.626416   -2.217434   -6.308950
  H      2.481824   -2.456069   -4.793414
  O      2.459729   -0.509204   -5.505757
  C      4.792500   -1.361316   -3.457295
  N      3.939898   -0.374925   -3.557359
  N      5.259860   -1.754224   -2.239133
  H      5.922824   -2.521451   -2.186720
  H      4.654678   -1.640404   -1.442016
  H      5.709139   -2.875599   -4.387021
  H      3.330101   -0.317639   -4.361247
  H      3.698494    0.114468   -2.708333
  H      4.843333   -0.517930   -5.943019
  H      5.901695   -1.822503   -6.496467
  H      3.886191   -3.357076   -6.533604
  H      3.685602   -1.922168   -7.547128

 Total Charge           Charge          ....    0
 Multiplicity           Mult            ....    1
 Number of Electrons    NEL             ....   64
 Basis Dimension        Dim             ....  314

ORBITAL ENERGIES
----------------

  NO   OCC          E(Eh)            E(eV)
   0   2.0000     -19.073996      -519.0298
   1   2.0000     -14.485222      -394.1629
   2   2.0000     -14.477438      -393.9511
   3   2.0000     -14.433726      -392.7616
   4   2.0000     -10.436805      -283.9999
   5   2.0000     -10.306888      -280.4647
   6   2.0000     -10.253822      -279.0207
   7   2.0000     -10.241000      -278.6718
   8   2.0000      -1.159735       -31.5580
   9   2.0000      -1.051342       -28.6085
  10   2.0000      -1.033309       -28.1178
  11   2.0000      -0.990558       -26.9544
  12   2.0000      -0.869965       -23.6730
  13   2.0000      -0.786345       -21.3975
  14   2.0000      -0.740275       -20.1439
  15   2.0000      -0.715360       -19.4659
  16   2.0000      -0.689186       -18.7537
  17   2.0000      -0.646085       -17.5809
  18   2.0000      -0.619762       -16.8646
  19   2.0000      -0.604740       -16.4558
  20   2.0000      -0.568188       -15.4612
  21   2.0000      -0.560100       -15.2411
  22   2.0000      -0.533444       -14.5158
  23   2.0000      -0.501753       -13.6534
  24   2.0000      -0.456314       -12.4169
  25   2.0000      -0.434938       -11.8353
  26   2.0000      -0.423449       -11.5226
  27   2.0000      -0.401468       -10.9245
  28   2.0000      -0.388305       -10.5663
  29   2.0000      -0.367062        -9.9883
  30   2.0000      -0.252273        -6.8647
  31   2.0000      -0.247961        -6.7474
  32   0.0000       0.065366         1.7787
  33   0.0000       0.087613         2.3841
  34   0.0000       0.106844         2.9074
  35   0.0000       0.126189         3.4338
  36   0.0000       0.157834         4.2949

MULLIKEN ATOMIC CHARGES
-----------------------
   0 C :   -0.134493
   1 N :   -0.326083
   2 C :   -0.134953
   3 C :    0.015738
   4 H :    0.047250
   5 H :   -0.007428
   6 O :   -0.698827
   7 C :    0.467917
   8 N :   -0.421624
   9 N :   -0.509882
  10 H :    0.257149
  11 H :    0.270881
  12 H :    0.231126
  13 H :    0.302480
  14 H :    0.230130
  15 H :    0.152831
  16 H :    0.116366
  17 H :    0.056889
  18 H :    0.084533
Sum of atomic charges:   -0.0000000

LOEWDIN ATOMIC CHARGES
----------------------
   0 C :   -0.273294
   1 N :    0.146898
   2 C :   -0.291673
   3 C :   -0.497868
   4 H :    0.102342
   5 H :    0.078871
   6 O :   -0.287713
   7 C :   -0.423731
   8 N :    0.092831
   9 N :   -0.012737
  10 H :    0.176810
  11 H :    0.178005
  12 H :    0.189839
  13 H :    0.110763
  14 H :    0.176799
  15 H :    0.149029
  16 H :    0.128696
  17 H :    0.119087
  18 H :    0.137045

  Mayer bond orders larger than 0.100000
B(  0-C ,  1-N ) :   0.8573 B(  0-C ,  2-C ) :   0.9855 B(  0-C , 15-H ) :   0.9597
B(  0-C , 16-H ) :   0.9707 B(  1-N ,  7-C ) :   1.3364 B(  1-N , 12-H ) :   0.9171
B(  2-C ,  3-C ) :   0.9340 B(  2-C ,  6-O ) :  -0.1008 B(  2-C , 17-H ) :   0.9580
B(  2-C , 18-H ) :   0.9551 B(  3-C ,  4-H ) :   0.9685 B(  3-C ,  5-H ) :   0.9573
B(  3-C ,  6-O ) :   1.2818 B(  6-O , 13-H ) :   0.3579 B(  7-C ,  8-N ) :   1.5012
B(  7-C ,  9-N ) :   1.1935 B(  8-N , 13-H ) :   0.6513 B(  8-N , 14-H ) :   0.9202
B(  9-N , 10-H ) :   0.9137 B(  9-N , 11-H ) :   0.9064

Dispersion correction           -0.006193557
FINAL SINGLE POINT ENERGY      -398.538250660121

DIPOLE MOMENT
-------------
                                X             Y             Z
Electronic contribution:      1.92030       1.95655       3.74519
Nuclear contribution   :      0.51577      -3.31768      -1.36804
                        -----------------------------------------
Total Dipole Moment    :      2.43607      -1.36113       2.37715
                        -----------------------------------------
Magnitude (a.u.)       :      3.66578
Magnitude (Debye)      :      9.31768

Rotational constants in cm-1:     0.111492     0.050787     0.040163
Rotational constants in MHz :  3342.457536  1522.560798  1204.057148

                             ****ORCA TERMINATED NORMALLY****
TOTAL RUN TIME: 0 days 0 hours 0 minutes 26 seconds 705 msec
