                         Program Version 5.0.0 -  RELEASE  -
|  1> !wB97X-D3 RIJCOSX def2-TZVP def2/J TightSCF
|  2> *xyz 0 1
|  3> C          3.76678       -2.26611       -6.51175
|  4> C          2.49670       -1.84416       -5.73570
|  5> H          1.62642       -2.21743       -6.30895
|  6> H          2.48182       -2.45607       -4.79341
|  7> F          2.45973       -0.50920       -5.50576
|  8> H          3.82914       -1.70941       -7.42340
|  9> H          3.71764       -3.31144       -6.73483
| 10> H          4.63199       -2.06931       -5.91377
| 11> *
| 12>
| 13> %MaxCore 64000
| 14>
| 15> %pal nprocs 4
| 16> end
| 17>
| 18> %scf
| 19>   MaxIter 150
| 20> end
| 21>
| 22>
| 23>                          ****END OF INPUT****

CARTESIAN COORDINATES (ANGSTROEM)
---------------------------------
  C      3.766780   -2.266110   -6.511750
  C      2.496700   -1.844160   -5.735700
  H      1.626420   -2.217430   -6.308950
  H      2.481820   -2.456070   -4.793410
  F      2.459730   -0.509200   -5.505760
  H      3.829140   -1.709410   -7.423400
  H      3.717640   -3.311440   -6.734830
  H      4.631990   -2.069310   -5.913770

 Total Charge           Charge          ....    0
 Multiplicity           Mult            ....    1
 Number of Electrons    NEL             ....   26
 Basis Dimension        Dim             ....  123

ORBITAL ENERGIES
----------------

  NO   OCC          E(Eh)            E(eV)
   0   2.0000     -24.771617      -674.0700
   1   2.0000     -10.354001      -281.7467
   2   2.0000     -10.267223      -279.3854
   3   2.0000      -1.319488       -35.9051
   4   2.0000      -0.877489       -23.8777
   5   2.0000      -0.742431       -20.2026
   6   2.0000      -0.612977       -16.6800
   7   2.0000      -0.599236       -16.3060
   8   2.0000      -0.561563       -15.2809
   9   2.0000      -0.504111       -13.7176
  10   2.0000      -0.497365       -13.5340
  11   2.0000      -0.428263       -11.6536
  12   2.0000      -0.423738       -11.5305
  13   0.0000       0.124249         3.3810
  14   0.0000       0.162674         4.4266
  15   0.0000       0.182475         4.9654
  16   0.0000       0.188192         5.1210
  17   0.0000       0.198506         5.4016

MULLIKEN ATOMIC CHARGES
-----------------------
   0 C :   -0.331711
   1 C :    0.048042
   2 H :    0.086972
   3 H :    0.083366
   4 F :   -0.230294
   5 H :    0.117642
   6 H :    0.109025
   7 H :    0.116958
Sum of atomic charges:   -0.0000000

LOEWDIN ATOMIC CHARGES
----------------------
   0 C :   -0.309083
   1 C :   -0.380642
   2 H :    0.113994
   3 H :    0.117114
   4 F :    0.109794
   5 H :    0.115351
   6 H :    0.118852
   7 H :    0.114620

  Mayer bond orders larger than 0.100000
B(  0-C ,  1-C ) :   0.9941 B(  0-C ,  5-H ) :   0.9727 B(  0-C ,  6-H ) :   0.9629
B(  0-C ,  7-H ) :   0.9740 B(  1-C ,  2-H ) :   0.9717 B(  1-C ,  3-H ) :   0.9708
B(  1-C ,  4-F ) :   0.9964

Dispersion correction           -0.000877181
FINAL SINGLE POINT ENERGY      -179.084621668530

DIPOLE MOMENT
-------------
                                X             Y             Z
Electronic contribution:     -2.08287       4.35079       1.81582
Nuclear contribution   :      2.16248      -5.01128      -1.96962
                        -----------------------------------------
Total Dipole Moment    :      0.07961      -0.66050      -0.15381
                        -----------------------------------------
Magnitude (a.u.)       :      0.68283
Magnitude (Debye)      :      1.73560

Rotational constants in cm-1:     1.244010     0.306580     0.270375
Rotational constants in MHz : 37294.476802  9191.037795  8105.639967

                             ****ORCA TERMINATED NORMALLY****
TOTAL RUN TIME: 0 days 0 hours 0 minutes 13 seconds 252 msec
