                         Program Version 5.0.0 -  RELEASE  -
|  1> !wB97X-D3 RIJCOSX def2-TZVP def2/J TightSCF
|  2> *xyz 0 1
|  3> C          4.99986       -1.59613       -5.92488
|  4> C          5.28156       -1.97413       -4.53576
|  5> C          3.76678       -2.26611       -6.51175
|  6> C          4.79250       -1.36132       -3.45730
|  7> N          3.93990       -0.37492       -3.55736
|  8> N          5.25986       -1.75422       -2.23913
|  9> H          5.92282       -2.52145       -2.18672
| 10> H          4.65468       -1.64040       -1.44202
| 11> H          5.70914       -2.87560       -4.38702
| 12> H          3.33010       -0.31764       -4.36125
| 13> H          3.69849        0.11447       -2.70833
| 14> H          4.84333       -0.51793       -5.94302
| 15> H          5.90170       -1.82250       -6.49647
| 16> H          3.63046       -1.94025       -7.52177
| 17> H          2.90710       -2.00116       -5.93240
| 18> H          3.89538       -3.32820       -6.49392
| 19> *
| 20>
| 21> %MaxCore 64000
| 22>
| 23> %pal nprocs 4
| 24> end
| 25>
| 26> %scf
| 27>   MaxIter 150
| 28> end
| 29>
| 30>
| 31>                          ****END OF INPUT****

CARTESIAN COORDINATES (ANGSTROEM)
---------------------------------
  C      4.999860   -1.596130   -5.924880
  C      5.281560   -1.974130   -4.535760
  C      3.766780   -2.266110   -6.511750
  C      4.792500   -1.361320   -3.457300
  N      3.939900   -0.374920   -3.557360
  N      5.259860   -1.754220   -2.239130
  H      5.922820   -2.521450   -2.186720
  H      4.654680   -1.640400   -1.442020
  H      5.709140   -2.875600   -4.387020
  H      3.330100   -0.317640   -4.361250
  H      3.698490    0.114470   -2.708330
  H      4.843330   -0.517930   -5.943020
  H      5.901700   -1.822500   -6.496470
  H      3.630460   -1.940250   -7.521770
  H      2.907100   -2.001160   -5.932400
  H      3.895380   -3.328200   -6.493920

 Total Charge           Charge          ....    0
 Multiplicity           Mult            ....    1
 Number of Electrons    NEL             ....   48
 Basis Dimension        Dim             ....  246

ORBITAL ENERGIES
----------------

  NO   OCC          E(Eh)            E(eV)
   0   2.0000     -14.423144      -392.4737
   1   2.0000     -14.414698      -392.2439
   2   2.0000     -10.317174      -280.7446
   3   2.0000     -10.245462      -278.7932
   4   2.0000     -10.239900      -278.6419
   5   2.0000     -10.193898      -277.3901
   6   2.0000      -1.078811       -29.3559
   7   2.0000      -0.984852       -26.7992
   8   2.0000      -0.888277       -24.1713
   9   2.0000      -0.806817       -21.9546
  10   2.0000      -0.723642       -19.6913
  11   2.0000      -0.681858       -18.5543
  12   2.0000      -0.647317       -17.6144
  13   2.0000      -0.605237       -16.4693
  14   2.0000      -0.574746       -15.6396
  15   2.0000      -0.542062       -14.7503
  16   2.0000      -0.513303       -13.9677
  17   2.0000      -0.493535       -13.4298
  18   2.0000      -0.479632       -13.0515
  19   2.0000      -0.446378       -12.1466
  20   2.0000      -0.418711       -11.3937
  21   2.0000      -0.411053       -11.1853
  22   2.0000      -0.358999        -9.7689
  23   2.0000      -0.246369        -6.7040
  24   0.0000       0.101087         2.7507
  25   0.0000       0.130473         3.5503
  26   0.0000       0.147708         4.0193
  27   0.0000       0.159246         4.3333
  28   0.0000       0.170921         4.6510

MULLIKEN ATOMIC CHARGES
-----------------------
   0 C :   -0.215455
   1 C :   -0.335669
   2 C :   -0.279029
   3 C :    0.379197
   4 N :   -0.529413
   5 N :   -0.527895
   6 H :    0.251296
   7 H :    0.217651
   8 H :    0.089520
   9 H :    0.260352
  10 H :    0.229376
  11 H :    0.085894
  12 H :    0.094326
  13 H :    0.103148
  14 H :    0.074484
  15 H :    0.102219
Sum of atomic charges:   -0.0000000

LOEWDIN ATOMIC CHARGES
----------------------
   0 C :   -0.308103
   1 C :   -0.276990
   2 C :   -0.305342
   3 C :   -0.456769
   4 N :    0.002752
   5 N :   -0.044570
   6 H :    0.175797
   7 H :    0.152073
   8 H :    0.115370
   9 H :    0.179721
  10 H :    0.168584
  11 H :    0.132394
  12 H :    0.136026
  13 H :    0.109439
  14 H :    0.105943
  15 H :    0.113675

  Mayer bond orders larger than 0.100000
B(  0-C ,  1-C ) :   1.0236 B(  0-C ,  2-C ) :   0.9609 B(  0-C , 11-H ) :   0.9915
B(  0-C , 12-H ) :   0.9831 B(  1-C ,  3-C ) :   1.6747 B(  1-C ,  8-H ) :   0.9914
B(  2-C , 13-H ) :   0.9828 B(  2-C , 14-H ) :   0.9770 B(  2-C , 15-H ) :   0.9837
B(  3-C ,  4-N ) :   1.1164 B(  3-C ,  5-N ) :   1.1202 B(  4-N ,  9-H ) :   0.9135
B(  4-N , 10-H ) :   0.9251 B(  5-N ,  6-H ) :   0.9223 B(  5-N ,  7-H ) :   0.9217

Dispersion correction           -0.003764804
FINAL SINGLE POINT ENERGY      -267.944104776846

DIPOLE MOMENT
-------------
                                X             Y             Z
Electronic contribution:      1.19281       1.40396       4.56876
Nuclear contribution   :     -1.82485      -1.28952      -3.74132
                        -----------------------------------------
Total Dipole Moment    :     -0.63204       0.11443       0.82744
                        -----------------------------------------
Magnitude (a.u.)       :      1.04749
Magnitude (Debye)      :      2.66250

Rotational constants in cm-1:     0.245790     0.071632     0.062004
Rotational constants in MHz :  7368.599517  2147.482078  1858.844841

                             ****ORCA TERMINATED NORMALLY****
TOTAL RUN TIME: 0 days 0 hours 0 minutes 54 seconds 27 msec
