                         Program Version 5.0.0 -  RELEASE  -
|  1> !wB97X-D3 RIJCOSX def2-TZVP def2/J TightSCF
|  2> *xyz 0 1
|  3> C          4.99986       -1.59613       -5.92488
|  4> N          5.28156       -1.97413       -4.53576
|  5> C          3.76678       -2.26611       -6.51175
|  6> C          4.79250       -1.36132       -3.45730
|  7> C          3.93990       -0.37492       -3.55736
|  8> N          5.25986       -1.75422       -2.23913
|  9> H          5.92282       -2.52145       -2.18672
| 10> H          4.65468       -1.64040       -1.44202
| 11> H          5.70914       -2.87560       -4.38702
| 12> H          3.33010       -0.31764       -4.36125
| 13> H          3.69849        0.11447       -2.70833
| 14> H          4.84333       -0.51793       -5.94302
| 15> H          5.90170       -1.82250       -6.49647
| 16> H          3.63046       -1.94025       -7.52177
| 17> H          2.90710       -2.00116       -5.93240
| 18> H          3.89538       -3.32820       -6.49392
| 19> *
| 20>
| 21> %MaxCore 64000
| 22>
| 23> %pal nprocs 4
| 24> end
| 25>
| 26> %scf
| 27>   MaxIter 150
| 28> end
| 29>
| 30>
| 31>                          ****END OF INPUT****

CARTESIAN COORDINATES (ANGSTROEM)
---------------------------------
  C      4.999860   -1.596130   -5.924880
  N      5.281560   -1.974130   -4.535760
  C      3.766780   -2.266110   -6.511750
  C      4.792500   -1.361320   -3.457300
  C      3.939900   -0.374920   -3.557360
  N      5.259860   -1.754220   -2.239130
  H      5.922820   -2.521450   -2.186720
  H      4.654680   -1.640400   -1.442020
  H      5.709140   -2.875600   -4.387020
  H      3.330100   -0.317640   -4.361250
  H      3.698490    0.114470   -2.708330
  H      4.843330   -0.517930   -5.943020
  H      5.901700   -1.822500   -6.496470
  H      3.630460   -1.940250   -7.521770
  H      2.907100   -2.001160   -5.932400
  H      3.895380   -3.328200   -6.493920

 Total Charge           Charge          ....    0
 Multiplicity           Mult            ....    1
 Number of Electrons    NEL             ....   48
 Basis Dimension        Dim             ....  246

ORBITAL ENERGIES
----------------

  NO   OCC          E(Eh)            E(eV)
   0   2.0000     -14.421482      -392.4285
   1   2.0000     -14.416403      -392.2903
   2   2.0000     -10.319676      -280.8127
   3   2.0000     -10.305144      -280.4172
   4   2.0000     -10.257106      -279.1101
   5   2.0000     -10.182895      -277.0907
   6   2.0000      -1.078815       -29.3561
   7   2.0000      -0.993831       -27.0435
   8   2.0000      -0.870965       -23.7002
   9   2.0000      -0.829652       -22.5760
  10   2.0000      -0.747280       -20.3345
  11   2.0000      -0.668921       -18.2023
  12   2.0000      -0.644825       -17.5466
  13   2.0000      -0.612614       -16.6701
  14   2.0000      -0.554778       -15.0963
  15   2.0000      -0.545392       -14.8409
  16   2.0000      -0.525214       -14.2918
  17   2.0000      -0.495251       -13.4765
  18   2.0000      -0.479787       -13.0557
  19   2.0000      -0.465935       -12.6787
  20   2.0000      -0.449096       -12.2205
  21   2.0000      -0.440891       -11.9973
  22   2.0000      -0.342317        -9.3149
  23   2.0000      -0.259322        -7.0565
  24   0.0000       0.103980         2.8294
  25   0.0000       0.132851         3.6151
  26   0.0000       0.144803         3.9403
  27   0.0000       0.159021         4.3272
  28   0.0000       0.172662         4.6984

MULLIKEN ATOMIC CHARGES
-----------------------
   0 C :   -0.126348
   1 N :   -0.367566
   2 C :   -0.296847
   3 C :    0.445366
   4 C :   -0.570667
   5 N :   -0.539064
   6 H :    0.222520
   7 H :    0.254195
   8 H :    0.200142
   9 H :    0.113784
  10 H :    0.087964
  11 H :    0.137507
  12 H :    0.110893
  13 H :    0.110966
  14 H :    0.122408
  15 H :    0.094747
Sum of atomic charges:   -0.0000000

LOEWDIN ATOMIC CHARGES
----------------------
   0 C :   -0.295381
   1 N :    0.106781
   2 C :   -0.305244
   3 C :   -0.453080
   4 C :   -0.332145
   5 N :   -0.039426
   6 H :    0.159287
   7 H :    0.170792
   8 H :    0.173254
   9 H :    0.100686
  10 H :    0.100466
  11 H :    0.140227
  12 H :    0.126719
  13 H :    0.117194
  14 H :    0.118625
  15 H :    0.111246

  Mayer bond orders larger than 0.100000
B(  0-C ,  1-N ) :   0.9163 B(  0-C ,  2-C ) :   0.9688 B(  0-C , 11-H ) :   0.9749
B(  0-C , 12-H ) :   0.9776 B(  1-N ,  3-C ) :   1.1485 B(  1-N ,  8-H ) :   0.9274
B(  2-C , 13-H ) :   0.9781 B(  2-C , 14-H ) :   0.9748 B(  2-C , 15-H ) :   0.9780
B(  3-C ,  4-C ) :   1.6204 B(  3-C ,  5-N ) :   1.0781 B(  4-C ,  9-H ) :   0.9947
B(  4-C , 10-H ) :   1.0159 B(  5-N ,  6-H ) :   0.9312 B(  5-N ,  7-H ) :   0.9184

Dispersion correction           -0.003763430
FINAL SINGLE POINT ENERGY      -267.937724983647

DIPOLE MOMENT
-------------
                                X             Y             Z
Electronic contribution:      2.44166      -0.15442       3.51863
Nuclear contribution   :     -2.10948      -0.95026      -3.53375
                        -----------------------------------------
Total Dipole Moment    :      0.33218      -1.10468      -0.01513
                        -----------------------------------------
Magnitude (a.u.)       :      1.15364
Magnitude (Debye)      :      2.93233

Rotational constants in cm-1:     0.255209     0.072067     0.062929
Rotational constants in MHz :  7650.964615  2160.525743  1886.569524

                             ****ORCA TERMINATED NORMALLY****
TOTAL RUN TIME: 0 days 0 hours 0 minutes 53 seconds 493 msec
