                         Program Version 5.0.0 -  RELEASE  -
|  1> !wB97X-D3 RIJCOSX def2-TZVP def2/J TightSCF
|  2> *xyz 0 1
|  3> C          4.99986       -1.59613       -5.92488
|  4> N          5.28156       -1.97413       -4.53576
|  5> C          3.76678       -2.26611       -6.51175
|  6> C          4.79250       -1.36132       -3.45730
|  7> N          3.93990       -0.37492       -3.55736
|  8> C          5.25986       -1.75422       -2.23913
|  9> H          5.92282       -2.52145       -2.18672
| 10> H          4.65468       -1.64040       -1.44202
| 11> H          5.70914       -2.87560       -4.38702
| 12> H          3.33010       -0.31764       -4.36125
| 13> H          3.69849        0.11447       -2.70833
| 14> H          4.84333       -0.51793       -5.94302
| 15> H          5.90170       -1.82250       -6.49647
| 16> H          3.63046       -1.94025       -7.52177
| 17> H          2.90710       -2.00116       -5.93240
| 18> H          3.89538       -3.32820       -6.49392
| 19> *
| 20>
| 21> %MaxCore 64000
| 22>
| 23> %pal nprocs 4
| 24> end
| 25>
| 26> %scf
| 27>   MaxIter 150
| 28> end
| 29>
| 30>
| 31>                          ****END OF INPUT****

CARTESIAN COORDINATES (ANGSTROEM)
---------------------------------
  C      4.999860   -1.596130   -5.924880
  N      5.281560   -1.974130   -4.535760
  C      3.766780   -2.266110   -6.511750
  C      4.792500   -1.361320   -3.457300
  N      3.939900   -0.374920   -3.557360
  C      5.259860   -1.754220   -2.239130
  H      5.922820   -2.521450   -2.186720
  H      4.654680   -1.640400   -1.442020
  H      5.709140   -2.875600   -4.387020
  H      3.330100   -0.317640   -4.361250
  H      3.698490    0.114470   -2.708330
  H      4.843330   -0.517930   -5.943020
  H      5.901700   -1.822500   -6.496470
  H      3.630460   -1.940250   -7.521770
  H      2.907100   -2.001160   -5.932400
  H      3.895380   -3.328200   -6.493920

 Total Charge           Charge          ....    0
 Multiplicity           Mult            ....    1
 Number of Electrons    NEL             ....   48
 Basis Dimension        Dim             ....  246

ORBITAL ENERGIES
----------------

  NO   OCC          E(Eh)            E(eV)
   0   2.0000     -14.424763      -392.5178
   1   2.0000     -14.422238      -392.4490
   2   2.0000     -10.324859      -280.9537
   3   2.0000     -10.314698      -280.6772
   4   2.0000     -10.268764      -279.4273
   5   2.0000     -10.179168      -276.9893
   6   2.0000      -1.089868       -29.6568
   7   2.0000      -1.005335       -27.3566
   8   2.0000      -0.889041       -24.1920
   9   2.0000      -0.810138       -22.0450
  10   2.0000      -0.739242       -20.1158
  11   2.0000      -0.709317       -19.3015
  12   2.0000      -0.648976       -17.6595
  13   2.0000      -0.600684       -16.3454
  14   2.0000      -0.582336       -15.8462
  15   2.0000      -0.545152       -14.8343
  16   2.0000      -0.531226       -14.4554
  17   2.0000      -0.502894       -13.6844
  18   2.0000      -0.484345       -13.1797
  19   2.0000      -0.461960       -12.5706
  20   2.0000      -0.459102       -12.4928
  21   2.0000      -0.443131       -12.0582
  22   2.0000      -0.349599        -9.5131
  23   2.0000      -0.245447        -6.6790
  24   0.0000       0.098854         2.6899
  25   0.0000       0.133675         3.6375
  26   0.0000       0.140277         3.8171
  27   0.0000       0.154355         4.2002
  28   0.0000       0.164913         4.4875

MULLIKEN ATOMIC CHARGES
-----------------------
   0 C :   -0.184827
   1 N :   -0.350889
   2 C :   -0.268982
   3 C :    0.437045
   4 N :   -0.517147
   5 C :   -0.568548
   6 H :    0.072112
   7 H :    0.094095
   8 H :    0.233747
   9 H :    0.234260
  10 H :    0.258242
  11 H :    0.126205
  12 H :    0.121190
  13 H :    0.113242
  14 H :    0.091993
  15 H :    0.108261
Sum of atomic charges:    0.0000000

LOEWDIN ATOMIC CHARGES
----------------------
   0 C :   -0.310421
   1 N :    0.114199
   2 C :   -0.307520
   3 C :   -0.461176
   4 N :    0.007880
   5 C :   -0.371045
   6 H :    0.091500
   7 H :    0.090227
   8 H :    0.191435
   9 H :    0.165125
  10 H :    0.184849
  11 H :    0.132095
  12 H :    0.129866
  13 H :    0.117410
  14 H :    0.110332
  15 H :    0.115243

  Mayer bond orders larger than 0.100000
B(  0-C ,  1-N ) :   0.9319 B(  0-C ,  2-C ) :   0.9647 B(  0-C , 11-H ) :   0.9855
B(  0-C , 12-H ) :   0.9775 B(  1-N ,  3-C ) :   1.1733 B(  1-N ,  8-H ) :   0.9236
B(  2-C , 13-H ) :   0.9771 B(  2-C , 14-H ) :   0.9687 B(  2-C , 15-H ) :   0.9785
B(  3-C ,  4-N ) :   1.1318 B(  3-C ,  5-C ) :   1.5548 B(  4-N ,  9-H ) :   0.9152
B(  4-N , 10-H ) :   0.9179 B(  5-C ,  6-H ) :   1.0331 B(  5-C ,  7-H ) :   0.9877

Dispersion correction           -0.003798810
FINAL SINGLE POINT ENERGY      -267.931948801416

DIPOLE MOMENT
-------------
                                X             Y             Z
Electronic contribution:      1.12096       1.25576       2.09838
Nuclear contribution   :     -1.82946      -1.24287      -3.25410
                        -----------------------------------------
Total Dipole Moment    :     -0.70850       0.01289      -1.15572
                        -----------------------------------------
Magnitude (a.u.)       :      1.35566
Magnitude (Debye)      :      3.44581

Rotational constants in cm-1:     0.244672     0.074506     0.064043
Rotational constants in MHz :  7335.067153  2233.624025  1919.970379

                             ****ORCA TERMINATED NORMALLY****
TOTAL RUN TIME: 0 days 0 hours 0 minutes 52 seconds 584 msec
