                         Program Version 5.0.0 -  RELEASE  -
|  1> !wB97X-D3 RIJCOSX def2-TZVP def2/J TightSCF xyzfile
|  2>
|  3> *xyzfile 0 1 D3.xyz
|  4>
|  5> %MaxCore 64000
|  6>
|  7> %pal nprocs 18
|  8> end
|  9>
| 10> %scf
| 11>   MaxIter 150
| 12> end
| 13>
| 14>
| 15>                          ****END OF INPUT****

CARTESIAN COORDINATES (ANGSTROEM)
---------------------------------
  C      4.999862   -1.596133   -5.924876
  N      5.281560   -1.974132   -4.535764
  C      3.766779   -2.266110   -6.511752
  C      2.496702   -1.844161   -5.735704
  H      1.626416   -2.217434   -6.308950
  H      2.481824   -2.456069   -4.793414
  F      2.459729   -0.509204   -5.505757
  C      4.792500   -1.361316   -3.457295
  N      3.939898   -0.374925   -3.557359
  C      5.259860   -1.754224   -2.239133
  H      5.922824   -2.521451   -2.186720
  H      4.654678   -1.640404   -1.442016
  H      5.709139   -2.875599   -4.387021
  H      3.330101   -0.317639   -4.361247
  H      3.698494    0.114468   -2.708333
  H      4.843333   -0.517930   -5.943019
  H      5.901695   -1.822503   -6.496467
  H      3.886191   -3.357076   -6.533604
  H      3.685602   -1.922168   -7.547128

 Total Charge           Charge          ....    0
 Multiplicity           Mult            ....    1
 Number of Electrons    NEL             ....   64
 Basis Dimension        Dim             ....  314

ORBITAL ENERGIES
----------------

  NO   OCC          E(Eh)            E(eV)
   0   2.0000     -24.820723      -675.4062
   1   2.0000     -14.420285      -392.3959
   2   2.0000     -14.394404      -391.6916
   3   2.0000     -10.376997      -282.3724
   4   2.0000     -10.316944      -280.7383
   5   2.0000     -10.315359      -280.6952
   6   2.0000     -10.297138      -280.1994
   7   2.0000     -10.170146      -276.7438
   8   2.0000      -1.376394       -37.4536
   9   2.0000      -1.081173       -29.4202
  10   2.0000      -0.996684       -27.1211
  11   2.0000      -0.916380       -24.9360
  12   2.0000      -0.842782       -22.9333
  13   2.0000      -0.783963       -21.3327
  14   2.0000      -0.729633       -19.8543
  15   2.0000      -0.702646       -19.1200
  16   2.0000      -0.681299       -18.5391
  17   2.0000      -0.647885       -17.6299
  18   2.0000      -0.619126       -16.8473
  19   2.0000      -0.605662       -16.4809
  20   2.0000      -0.573823       -15.6145
  21   2.0000      -0.569270       -15.4906
  22   2.0000      -0.536268       -14.5926
  23   2.0000      -0.524283       -14.2665
  24   2.0000      -0.486021       -13.2253
  25   2.0000      -0.475435       -12.9373
  26   2.0000      -0.466780       -12.7017
  27   2.0000      -0.450605       -12.2616
  28   2.0000      -0.438488       -11.9319
  29   2.0000      -0.435965       -11.8632
  30   2.0000      -0.340030        -9.2527
  31   2.0000      -0.237065        -6.4509
  32   0.0000       0.103665         2.8209
  33   0.0000       0.133414         3.6304
  34   0.0000       0.138557         3.7703
  35   0.0000       0.144854         3.9417
  36   0.0000       0.159738         4.3467

MULLIKEN ATOMIC CHARGES
-----------------------
   0 C :   -0.193874
   1 N :   -0.353933
   2 C :   -0.180053
   3 C :   -0.029227
   4 H :    0.123591
   5 H :    0.141037
   6 F :   -0.206413
   7 C :    0.394771
   8 N :   -0.527922
   9 C :   -0.573515
  10 H :    0.064376
  11 H :    0.089510
  12 H :    0.231549
  13 H :    0.266491
  14 H :    0.244521
  15 H :    0.159045
  16 H :    0.130632
  17 H :    0.114241
  18 H :    0.105171
Sum of atomic charges:   -0.0000000

LOEWDIN ATOMIC CHARGES
----------------------
   0 C :   -0.288333
   1 N :    0.114088
   2 C :   -0.279159
   3 C :   -0.353706
   4 H :    0.127146
   5 H :    0.137943
   6 F :    0.162904
   7 C :   -0.473552
   8 N :    0.007265
   9 C :   -0.381980
  10 H :    0.088677
  11 H :    0.089224
  12 H :    0.190185
  13 H :    0.124834
  14 H :    0.179169
  15 H :    0.141505
  16 H :    0.133755
  17 H :    0.141269
  18 H :    0.138768

  Mayer bond orders larger than 0.100000
B(  0-C ,  1-N ) :   0.9243 B(  0-C ,  2-C ) :   0.9513 B(  0-C , 15-H ) :   0.9865
B(  0-C , 16-H ) :   0.9781 B(  1-N ,  7-C ) :   1.1534 B(  1-N , 12-H ) :   0.9238
B(  2-C ,  3-C ) :   0.9946 B(  2-C , 17-H ) :   0.9524 B(  2-C , 18-H ) :   0.9677
B(  3-C ,  4-H ) :   0.9715 B(  3-C ,  5-H ) :   0.9769 B(  3-C ,  6-F ) :   0.9264
B(  6-F , 13-H ) :   0.1027 B(  7-C ,  8-N ) :   1.1773 B(  7-C ,  9-C ) :   1.5715
B(  8-N , 13-H ) :   0.8594 B(  8-N , 14-H ) :   0.9259 B(  9-C , 10-H ) :   1.0291
B(  9-C , 11-H ) :   0.9939

Dispersion correction           -0.006195385
FINAL SINGLE POINT ENERGY      -406.486504840017

DIPOLE MOMENT
-------------
                                X             Y             Z
Electronic contribution:     -3.51677       3.87077      -1.54577
Nuclear contribution   :      2.63642      -4.47741       0.00296
                        -----------------------------------------
Total Dipole Moment    :     -0.88036      -0.60664      -1.54281
                        -----------------------------------------
Magnitude (a.u.)       :      1.87704
Magnitude (Debye)      :      4.77107

Rotational constants in cm-1:     0.108041     0.051979     0.040387
Rotational constants in MHz :  3238.993235  1558.297571  1210.782552

                             ****ORCA TERMINATED NORMALLY****
TOTAL RUN TIME: 0 days 0 hours 0 minutes 29 seconds 12 msec
