                         Program Version 5.0.0 -  RELEASE  -
|  1> !M062X D3Zero RIJCOSX def2-SVPD def2/J TightSCF
|  2> *xyz -1 1
|  3> C         -0.95121        1.33498       -0.97250
|  4> C         -0.77455        2.78833       -0.54394
|  5> H         -1.35261        3.45937       -1.19259
|  6> H         -1.17101        2.90233        0.46997
|  7> C          0.69721        3.22791       -0.52513
|  8> O          1.48929        2.37470        0.19919
|  9> H          0.71600        4.26403       -0.13077
| 10> H          1.03615        3.33092       -1.58367
| 11> H         -0.56808        1.20618       -1.96322
| 12> H         -1.99081        1.08225       -0.95647
| 13> H         -0.41866        0.69710       -0.29841
| 14> *
| 15>
| 16> %MaxCore 64000
| 17> %pal nprocs 4
| 18> end
| 19>
| 20> %scf
| 21>   MaxIter 150
| 22> end
| 23>
| 24>
| 25>                          ****END OF INPUT****

CARTESIAN COORDINATES (ANGSTROEM)
---------------------------------
  C     -0.951210    1.334980   -0.972500
  C     -0.774550    2.788330   -0.543940
  H     -1.352610    3.459370   -1.192590
  H     -1.171010    2.902330    0.469970
  C      0.697210    3.227910   -0.525130
  O      1.489290    2.374700    0.199190
  H      0.716000    4.264030   -0.130770
  H      1.036150    3.330920   -1.583670
  H     -0.568080    1.206180   -1.963220
  H     -1.990810    1.082250   -0.956470
  H     -0.418660    0.697100   -0.298410

 Total Charge           Charge          ....   -1
 Multiplicity           Mult            ....    1
 Number of Electrons    NEL             ....   34
 Basis Dimension        Dim             ....  139

ORBITAL ENERGIES
----------------

  NO   OCC          E(Eh)            E(eV)
   0   2.0000     -19.303034      -525.2623
   1   2.0000     -10.365886      -282.0701
   2   2.0000     -10.364359      -282.0286
   3   2.0000     -10.357089      -281.8307
   4   2.0000      -0.783332       -21.3155
   5   2.0000      -0.669754       -18.2249
   6   2.0000      -0.548259       -14.9189
   7   2.0000      -0.438327       -11.9275
   8   2.0000      -0.343102        -9.3363
   9   2.0000      -0.333004        -9.0615
  10   2.0000      -0.281330        -7.6554
  11   2.0000      -0.251059        -6.8317
  12   2.0000      -0.222443        -6.0530
  13   2.0000      -0.210945        -5.7401
  14   2.0000      -0.176558        -4.8044
  15   2.0000      -0.037331        -1.0158
  16   2.0000      -0.034386        -0.9357
  17   0.0000       0.185609         5.0507
  18   0.0000       0.211181         5.7465
  19   0.0000       0.228878         6.2281
  20   0.0000       0.260999         7.1021
  21   0.0000       0.278434         7.5766

MULLIKEN ATOMIC CHARGES
-----------------------
   0 C :    0.633750
   1 C :   -0.483452
   2 H :   -0.129216
   3 H :   -0.092499
   4 C :    0.445533
   5 O :   -0.900166
   6 H :   -0.164002
   7 H :   -0.103076
   8 H :   -0.067920
   9 H :   -0.103670
  10 H :   -0.035283
Sum of atomic charges:   -1.0000000

LOEWDIN ATOMIC CHARGES
----------------------
   0 C :    0.086548
   1 C :   -0.120925
   2 H :   -0.010197
   3 H :    0.001141
   4 C :   -0.214218
   5 O :   -0.573305
   6 H :   -0.030643
   7 H :   -0.024415
   8 H :   -0.031319
   9 H :   -0.049211
  10 H :   -0.033457

  Mayer bond orders larger than 0.100000
B(  0-C ,  1-C ) :   1.2738 B(  0-C ,  8-H ) :   0.8121 B(  0-C ,  9-H ) :   0.7959
B(  0-C , 10-H ) :   0.8265 B(  1-C ,  2-H ) :   1.0110 B(  1-C ,  3-H ) :   0.9571
B(  1-C ,  4-C ) :   1.0604 B(  1-C ,  6-H ) :   0.1406 B(  1-C ,  7-H ) :   0.1261
B(  1-C ,  8-H ) :   0.1947 B(  1-C ,  9-H ) :   0.1996 B(  1-C , 10-H ) :   0.2143
B(  3-H ,  4-C ) :   0.1205 B(  4-C ,  5-O ) :   1.1526 B(  4-C ,  6-H ) :   0.9511
B(  4-C ,  7-H ) :   0.9425

Dispersion correction           -0.000077978
FINAL SINGLE POINT ENERGY      -193.502337769884

DIPOLE MOMENT
-------------
                                X             Y             Z
Electronic contribution:      2.50045       0.03011       1.44177
Nuclear contribution   :     -4.35230      -0.04018      -2.29108
                        -----------------------------------------
Total Dipole Moment    :     -1.85186      -0.01008      -0.84931
                        -----------------------------------------
Magnitude (a.u.)       :      2.03735
Magnitude (Debye)      :      5.17854

Rotational constants in cm-1:     0.489965     0.184028     0.151025
Rotational constants in MHz : 14688.769521  5517.006179  4527.605157

                             ****ORCA TERMINATED NORMALLY****
TOTAL RUN TIME: 0 days 0 hours 0 minutes 11 seconds 685 msec
