                         Program Version 5.0.0 -  RELEASE  -
|  1> !M062X D3Zero RIJCOSX def2-SVPD def2/J TightSCF
|  2> *xyz 1 1
|  3> C          3.95643        0.50147       -0.37910
|  4> H          3.16840        0.02920        0.20738
|  5> N          3.80389        1.96157       -0.15675
|  6> C          3.84232        0.14849       -1.85406
|  7> H          4.92323        0.17798        0.00937
|  8> H          4.62002        0.69450       -2.40215
|  9> H          4.09601       -0.91093       -1.95510
| 10> C          2.47562        0.41271       -2.48538
| 11> H          4.20643        2.24441        0.74536
| 12> H          2.80827        2.21132       -0.09610
| 13> H          4.28076        2.50155       -0.89104
| 14> H          2.49958        0.13290       -3.51787
| 15> H          2.23992        1.45318       -2.40319
| 16> H          1.73061       -0.16300       -1.97702
| 17> *
| 18>
| 19> %MaxCore 64000
| 20> %pal nprocs 4
| 21> end
| 22>
| 23> %scf
| 24>   MaxIter 150
| 25> end
| 26>
| 27>
| 28>                          ****END OF INPUT****

CARTESIAN COORDINATES (ANGSTROEM)
---------------------------------
  C      3.956430    0.501470   -0.379100
  H      3.168400    0.029200    0.207380
  N      3.803890    1.961570   -0.156750
  C      3.842320    0.148490   -1.854060
  H      4.923230    0.177980    0.009370
  H      4.620020    0.694500   -2.402150
  H      4.096010   -0.910930   -1.955100
  C      2.475620    0.412710   -2.485380
  H      4.206430    2.244410    0.745360
  H      2.808270    2.211320   -0.096100
  H      4.280760    2.501550   -0.891040
  H      2.499580    0.132900   -3.517870
  H      2.239920    1.453180   -2.403190
  H      1.730610   -0.163000   -1.977020

 Total Charge           Charge          ....    1
 Multiplicity           Mult            ....    1
 Number of Electrons    NEL             ....   34
 Basis Dimension        Dim             ....  160

ORBITAL ENERGIES
----------------

  NO   OCC          E(Eh)            E(eV)
   0   2.0000     -15.091973      -410.6735
   1   2.0000     -10.798880      -293.8525
   2   2.0000     -10.729251      -291.9578
   3   2.0000     -10.695680      -291.0442
   4   2.0000      -1.309699       -35.6387
   5   2.0000      -1.063245       -28.9324
   6   2.0000      -0.967265       -26.3206
   7   2.0000      -0.884776       -24.0760
   8   2.0000      -0.863863       -23.5069
   9   2.0000      -0.845801       -23.0154
  10   2.0000      -0.758900       -20.6507
  11   2.0000      -0.699731       -19.0407
  12   2.0000      -0.675713       -18.3871
  13   2.0000      -0.651857       -17.7379
  14   2.0000      -0.587033       -15.9740
  15   2.0000      -0.581239       -15.8163
  16   2.0000      -0.574456       -15.6317
  17   0.0000      -0.164347        -4.4721
  18   0.0000      -0.107342        -2.9209
  19   0.0000      -0.106763        -2.9052
  20   0.0000      -0.095300        -2.5933
  21   0.0000      -0.070282        -1.9125

MULLIKEN ATOMIC CHARGES
-----------------------
   0 C :    0.561627
   1 H :   -0.040279
   2 N :   -0.854602
   3 C :   -0.407770
   4 H :   -0.041075
   5 H :   -0.037542
   6 H :   -0.050315
   7 C :    0.695099
   8 H :    0.353525
   9 H :    0.417653
  10 H :    0.440330
  11 H :   -0.006703
  12 H :   -0.071873
  13 H :    0.041925
Sum of atomic charges:    1.0000000

LOEWDIN ATOMIC CHARGES
----------------------
   0 C :    0.087498
   1 H :    0.054648
   2 N :    0.324790
   3 C :   -0.052825
   4 H :    0.054205
   5 H :    0.034803
   6 H :    0.046548
   7 C :    0.150216
   8 H :    0.107303
   9 H :    0.104810
  10 H :    0.107340
  11 H :    0.005748
  12 H :   -0.024002
  13 H :   -0.001084

  Mayer bond orders larger than 0.100000
B(  0-C ,  1-H ) :   0.8738 B(  0-C ,  2-N ) :   0.7702 B(  0-C ,  3-C ) :   1.1438
B(  0-C ,  4-H ) :   0.9479 B(  0-C ,  5-H ) :   0.1010 B(  0-C ,  6-H ) :   0.1054
B(  1-H ,  2-N ) :   0.1338 B(  2-N ,  8-H ) :   0.7628 B(  2-N ,  9-H ) :   0.7287
B(  2-N , 10-H ) :   0.6511 B(  3-C ,  5-H ) :   0.9486 B(  3-C ,  6-H ) :   1.0133
B(  3-C ,  7-C ) :   1.2885 B(  3-C , 11-H ) :   0.1952 B(  3-C , 12-H ) :   0.1894
B(  3-C , 13-H ) :   0.1856 B(  7-C , 11-H ) :   0.8120 B(  7-C , 12-H ) :   0.8285
B(  7-C , 13-H ) :   0.8038

Dispersion correction           -0.000154191
FINAL SINGLE POINT ENERGY      -174.626261993820

DIPOLE MOMENT
-------------
                                X             Y             Z
Electronic contribution:      1.01259       1.15995       1.82380
Nuclear contribution   :     -0.57302       0.26376      -0.39709
                        -----------------------------------------
Total Dipole Moment    :      0.43957       1.42372       1.42670
                        -----------------------------------------
Magnitude (a.u.)       :      2.06293
Magnitude (Debye)      :      5.24355

Rotational constants in cm-1:     0.449370     0.157244     0.134525
Rotational constants in MHz : 13471.775278  4714.062641  4032.958796

                             ****ORCA TERMINATED NORMALLY****
TOTAL RUN TIME: 0 days 0 hours 0 minutes 13 seconds 931 msec
