                         Program Version 5.0.0 -  RELEASE  -
|  1> !M062X D3Zero RIJCOSX def2-SVPD def2/J TightSCF xyzfile
|  2>
|  3> *xyzfile 0 1 B.xyz
|  4>
|  5> %MaxCore 64000
|  6>
|  7> %pal nprocs 4
|  8> end
|  9>
| 10> %scf
| 11>   MaxIter 150
| 12> end
| 13>
| 14>
| 15>                          ****END OF INPUT****

CARTESIAN COORDINATES (ANGSTROEM)
---------------------------------
  C      3.956426    0.501466   -0.379100
  H      3.168398    0.029201    0.207383
  N      3.803893    1.961572   -0.156747
  C      3.842322    0.148490   -1.854058
  H      4.923231    0.177982    0.009371
  H      4.620021    0.694502   -2.402150
  H      4.096015   -0.910930   -1.955103
  C      2.475619    0.412708   -2.485377
  H      2.174689    1.445076   -2.287971
  C      1.383931   -0.532740   -1.995203
  H      2.575613    0.318574   -3.571460
  H      1.264698   -0.412309   -0.915491
  H      1.705223   -1.566885   -2.164984
  C      0.031398   -0.317260   -2.677791
  C     -0.587292    1.060853   -2.436460
  H     -0.662815   -1.089530   -2.329985
  H      0.149465   -0.478040   -3.755648
  H      0.104376    1.828590   -2.793130
  C     -0.951213    1.334978   -0.972500
  H     -1.478832    1.161355   -3.062484
  H     -0.317007    0.741648   -0.311389
  H     -1.980916    1.012842   -0.788958
  C     -0.774550    2.788332   -0.543943
  H     -1.352609    3.459372   -1.192585
  H     -1.171014    2.902331    0.469968
  C      0.697208    3.227911   -0.525126
  O      1.489294    2.374703    0.199189
  H      0.715998    4.264030   -0.130774
  H      1.036148    3.330920   -1.583669
  H      4.206425    2.244406    0.745359
  H      2.808269    2.211323   -0.096097
  H      4.280757    2.501552   -0.891037

 Total Charge           Charge          ....    0
 Multiplicity           Mult            ....    1
 Number of Electrons    NEL             ....   90
 Basis Dimension        Dim             ....  391

ORBITAL ENERGIES
----------------

  NO   OCC          E(Eh)            E(eV)
   0   2.0000     -19.508035      -530.8406
   1   2.0000     -14.839414      -403.8010
   2   2.0000     -10.619407      -288.9688
   3   2.0000     -10.574094      -287.7357
   4   2.0000     -10.548379      -287.0360
   5   2.0000     -10.535910      -286.6967
   6   2.0000     -10.534948      -286.6705
   7   2.0000     -10.530157      -286.5401
   8   2.0000     -10.517817      -286.2043
   9   2.0000     -10.504589      -285.8444
  10   2.0000     -10.497497      -285.6514
  11   2.0000      -1.086630       -29.5687
  12   2.0000      -0.993487       -27.0342
  13   2.0000      -0.909514       -24.7491
  14   2.0000      -0.869044       -23.6479
  15   2.0000      -0.829142       -22.5621
  16   2.0000      -0.782976       -21.3058
  17   2.0000      -0.743301       -20.2262
  18   2.0000      -0.702125       -19.1058
  19   2.0000      -0.672738       -18.3061
  20   2.0000      -0.646764       -17.5993
  21   2.0000      -0.642854       -17.4929
  22   2.0000      -0.622744       -16.9457
  23   2.0000      -0.584314       -15.9000
  24   2.0000      -0.561667       -15.2837
  25   2.0000      -0.538293       -14.6477
  26   2.0000      -0.536844       -14.6083
  27   2.0000      -0.506989       -13.7959
  28   2.0000      -0.490230       -13.3398
  29   2.0000      -0.486426       -13.2363
  30   2.0000      -0.467116       -12.7109
  31   2.0000      -0.456636       -12.4257
  32   2.0000      -0.445792       -12.1306
  33   2.0000      -0.428503       -11.6602
  34   2.0000      -0.418974       -11.4009
  35   2.0000      -0.407324       -11.0839
  36   2.0000      -0.400773       -10.9056
  37   2.0000      -0.386376       -10.5138
  38   2.0000      -0.375680       -10.2228
  39   2.0000      -0.371521       -10.1096
  40   2.0000      -0.349588        -9.5128
  41   2.0000      -0.343539        -9.3482
  42   2.0000      -0.339429        -9.2363
  43   2.0000      -0.248784        -6.7698
  44   2.0000      -0.242501        -6.5988
  45   0.0000       0.008218         0.2236
  46   0.0000       0.038621         1.0509
  47   0.0000       0.043930         1.1954
  48   0.0000       0.058705         1.5975
  49   0.0000       0.073379         1.9967

MULLIKEN ATOMIC CHARGES
-----------------------
   0 C :    0.878233
   1 H :    0.029746
   2 N :   -0.003053
   3 C :    0.235049
   4 H :   -0.277845
   5 H :   -0.094480
   6 H :   -0.082209
   7 C :    0.558226
   8 H :   -0.636130
   9 C :   -0.031803
  10 H :   -0.106601
  11 H :   -0.090990
  12 H :   -0.169853
  13 C :    0.609919
  14 C :    0.180380
  15 H :   -0.235418
  16 H :    0.041318
  17 H :   -0.120330
  18 C :    0.160098
  19 H :   -0.270465
  20 H :   -0.100739
  21 H :   -0.166829
  22 C :    0.289914
  23 H :   -0.181822
  24 H :    0.046162
  25 C :    0.492310
  26 O :   -0.704463
  27 H :   -0.383955
  28 H :    0.109485
  29 H :    0.372608
  30 H :   -0.726833
  31 H :    0.380368
Sum of atomic charges:    0.0000000

LOEWDIN ATOMIC CHARGES
----------------------
   0 C :    0.090554
   1 H :    0.038634
   2 N :    0.308394
   3 C :   -0.018824
   4 H :    0.028364
   5 H :    0.022085
   6 H :    0.029368
   7 C :   -0.018456
   8 H :   -0.006050
   9 C :   -0.027966
  10 H :    0.030163
  11 H :    0.001924
  12 H :    0.023464
  13 C :   -0.032323
  14 C :   -0.022155
  15 H :    0.023380
  16 H :    0.019506
  17 H :   -0.006913
  18 C :   -0.026570
  19 H :    0.018897
  20 H :   -0.006799
  21 H :    0.017031
  22 C :   -0.033036
  23 H :    0.019482
  24 H :    0.021360
  25 C :   -0.071680
  26 O :   -0.399657
  27 H :    0.006717
  28 H :   -0.006292
  29 H :    0.090211
  30 H :   -0.198868
  31 H :    0.086058

  Mayer bond orders larger than 0.100000
B(  0-C ,  1-H ) :   0.7540 B(  0-C ,  2-N ) :   0.8456 B(  0-C ,  3-C ) :   1.1168
B(  0-C ,  4-H ) :   0.9011 B(  0-C ,  6-H ) :   0.1221 B(  0-C , 30-H ) :  -0.1046
B(  1-H ,  2-N ) :   0.1272 B(  1-H ,  3-C ) :   0.1162 B(  1-H ,  4-H ) :  -0.1812
B(  2-N , 10-H ) :  -0.1118 B(  2-N , 26-O ) :  -0.1292 B(  2-N , 29-H ) :   0.7792
B(  2-N , 30-H ) :   1.4672 B(  2-N , 31-H ) :   0.7717 B(  3-C ,  5-H ) :   0.7603
B(  3-C ,  6-H ) :   0.9175 B(  3-C ,  7-C ) :   1.1835 B(  5-H ,  6-H ) :  -0.1298
B(  5-H ,  7-C ) :   0.2342 B(  7-C ,  8-H ) :   0.7742 B(  7-C ,  9-C ) :   1.1461
B(  7-C , 10-H ) :   0.6810 B(  7-C , 11-H ) :   0.1081 B(  7-C , 12-H ) :   0.1502
B(  8-H ,  9-C ) :   0.2505 B(  8-H , 10-H ) :   0.1176 B(  8-H , 30-H ) :   0.1032
B(  9-C , 10-H ) :   0.1498 B(  9-C , 11-H ) :   0.8880 B(  9-C , 12-H ) :   0.8918
B(  9-C , 13-C ) :   1.1772 B(  9-C , 14-C ) :   0.1255 B(  9-C , 15-H ) :   0.2894
B(  9-C , 16-H ) :   0.1141 B( 11-H , 20-H ) :   0.1787 B( 13-C , 14-C ) :   1.1812
B( 13-C , 15-H ) :   0.7373 B( 13-C , 16-H ) :   0.6897 B( 14-C , 16-H ) :   0.2309
B( 14-C , 17-H ) :   0.8734 B( 14-C , 18-C ) :   1.1822 B( 14-C , 19-H ) :   0.8573
B( 14-C , 21-H ) :   0.2221 B( 15-H , 16-H ) :  -0.1801 B( 17-H , 18-C ) :   0.1115
B( 18-C , 19-H ) :   0.1907 B( 18-C , 20-H ) :   0.8395 B( 18-C , 21-H ) :   0.8078
B( 18-C , 22-C ) :   1.2431 B( 18-C , 24-H ) :   0.2258 B( 18-C , 25-C ) :   0.1007
B( 20-H , 22-C ) :   0.1188 B( 22-C , 23-H ) :   0.8599 B( 22-C , 24-H ) :   0.6742
B( 22-C , 25-C ) :   1.1620 B( 23-H , 24-H ) :  -0.1222 B( 23-H , 25-C ) :   0.1678
B( 24-H , 25-C ) :   0.1257 B( 25-C , 26-O ) :   0.9473 B( 25-C , 27-H ) :   1.0548
B( 25-C , 28-H ) :   0.7524 B( 26-O , 30-H ) :   0.4674 B( 30-H , 31-H ) :  -0.1235

Dispersion correction           -0.001689203
FINAL SINGLE POINT ENERGY      -484.964731558836

DIPOLE MOMENT
-------------
                                X             Y             Z
Electronic contribution:      2.11216       0.91306       2.55088
Nuclear contribution   :      0.61785      -1.47632      -2.91844
                        -----------------------------------------
Total Dipole Moment    :      2.73001      -0.56326      -0.36756
                        -----------------------------------------
Magnitude (a.u.)       :      2.81164
Magnitude (Debye)      :      7.14662

Rotational constants in cm-1:     0.040993     0.027400     0.018162
Rotational constants in MHz :  1228.944366   821.418004   544.476857

                             ****ORCA TERMINATED NORMALLY****
TOTAL RUN TIME: 0 days 0 hours 2 minutes 26 seconds 681 msec
