                         Program Version 5.0.0 -  RELEASE  -
|  1> !M062X D3Zero RIJCOSX def2-SVPD def2/J TightSCF
|  2> *xyz 0 1
|  3> C         -0.95121        1.33498       -0.97250
|  4> C         -0.77455        2.78833       -0.54394
|  5> H         -1.35261        3.45937       -1.19259
|  6> H         -1.17101        2.90233        0.46997
|  7> C          0.69721        3.22791       -0.52513
|  8> F          1.48929        2.37470        0.19919
|  9> H          0.71600        4.26403       -0.13077
| 10> H          1.03615        3.33092       -1.58367
| 11> H         -0.56808        1.20618       -1.96322
| 12> H         -1.99081        1.08225       -0.95647
| 13> H         -0.41866        0.69710       -0.29841
| 14> *
| 15>
| 16> %MaxCore 64000
| 17> %pal nprocs 4
| 18> end
| 19>
| 20> %scf
| 21>   MaxIter 150
| 22> end
| 23>
| 24>
| 25>                          ****END OF INPUT****

CARTESIAN COORDINATES (ANGSTROEM)
---------------------------------
  C     -0.951210    1.334980   -0.972500
  C     -0.774550    2.788330   -0.543940
  H     -1.352610    3.459370   -1.192590
  H     -1.171010    2.902330    0.469970
  C      0.697210    3.227910   -0.525130
  F      1.489290    2.374700    0.199190
  H      0.716000    4.264030   -0.130770
  H      1.036150    3.330920   -1.583670
  H     -0.568080    1.206180   -1.963220
  H     -1.990810    1.082250   -0.956470
  H     -0.418660    0.697100   -0.298410

 Total Charge           Charge          ....    0
 Multiplicity           Mult            ....    1
 Number of Electrons    NEL             ....   34
 Basis Dimension        Dim             ....  139

ORBITAL ENERGIES
----------------

  NO   OCC          E(Eh)            E(eV)
   0   2.0000     -25.245995      -686.9785
   1   2.0000     -10.630435      -289.2688
   2   2.0000     -10.556335      -287.2525
   3   2.0000     -10.536504      -286.7128
   4   2.0000      -1.320566       -35.9344
   5   2.0000      -0.880648       -23.9636
   6   2.0000      -0.776757       -21.1366
   7   2.0000      -0.677028       -18.4229
   8   2.0000      -0.592240       -16.1157
   9   2.0000      -0.579098       -15.7580
  10   2.0000      -0.553458       -15.0604
  11   2.0000      -0.509786       -13.8720
  12   2.0000      -0.475075       -12.9274
  13   2.0000      -0.444784       -12.1032
  14   2.0000      -0.418246       -11.3811
  15   2.0000      -0.392386       -10.6774
  16   2.0000      -0.389700       -10.6043
  17   0.0000       0.039319         1.0699
  18   0.0000       0.064117         1.7447
  19   0.0000       0.073120         1.9897
  20   0.0000       0.093255         2.5376
  21   0.0000       0.117317         3.1924

MULLIKEN ATOMIC CHARGES
-----------------------
   0 C :    0.588980
   1 C :   -0.546513
   2 H :   -0.068001
   3 H :   -0.049728
   4 C :    0.696892
   5 F :   -0.468867
   6 H :   -0.053254
   7 H :   -0.000004
   8 H :   -0.036655
   9 H :   -0.055379
  10 H :   -0.007472
Sum of atomic charges:   -0.0000000

LOEWDIN ATOMIC CHARGES
----------------------
   0 C :    0.121408
   1 C :   -0.071950
   2 H :    0.027918
   3 H :    0.022534
   4 C :    0.107164
   5 F :   -0.225804
   6 H :    0.030509
   7 H :    0.037704
   8 H :   -0.015066
   9 H :   -0.018396
  10 H :   -0.016020

  Mayer bond orders larger than 0.100000
B(  0-C ,  1-C ) :   1.3060 B(  0-C ,  8-H ) :   0.8227 B(  0-C ,  9-H ) :   0.8306
B(  0-C , 10-H ) :   0.8297 B(  1-C ,  2-H ) :   0.9946 B(  1-C ,  3-H ) :   0.9669
B(  1-C ,  4-C ) :   1.1923 B(  1-C ,  6-H ) :   0.1049 B(  1-C ,  7-H ) :   0.1023
B(  1-C ,  8-H ) :   0.1778 B(  1-C ,  9-H ) :   0.1845 B(  1-C , 10-H ) :   0.1814
B(  4-C ,  5-F ) :   0.6700 B(  4-C ,  6-H ) :   0.9337 B(  4-C ,  7-H ) :   0.9143

Dispersion correction           -0.000084793
FINAL SINGLE POINT ENERGY      -218.113231605861

DIPOLE MOMENT
-------------
                                X             Y             Z
Electronic contribution:      5.49673       0.35978       2.73138
Nuclear contribution   :     -6.00193       0.02246      -3.08821
                        -----------------------------------------
Total Dipole Moment    :     -0.50520       0.38225      -0.35683
                        -----------------------------------------
Magnitude (a.u.)       :      0.72709
Magnitude (Debye)      :      1.84813

Rotational constants in cm-1:     0.475356     0.173608     0.142756
Rotational constants in MHz : 14250.818869  5204.623090  4279.716550

                             ****ORCA TERMINATED NORMALLY****
TOTAL RUN TIME: 0 days 0 hours 0 minutes 10 seconds 523 msec
