                         Program Version 5.0.0 -  RELEASE  -
|  1> !M062X D3Zero RIJCOSX def2-SVPD def2/J TightSCF
|  2> *xyz 0 1
|  3> C          3.95643        0.50147       -0.37910
|  4> H          3.16840        0.02920        0.20738
|  5> C          3.80389        1.96157       -0.15675
|  6> C          3.84232        0.14849       -1.85406
|  7> H          4.92323        0.17798        0.00937
|  8> H          4.62002        0.69450       -2.40215
|  9> H          4.09601       -0.91093       -1.95510
| 10> C          2.47562        0.41271       -2.48538
| 11> H          4.20643        2.24441        0.74536
| 12> H          2.80827        2.21132       -0.09610
| 13> H          4.28076        2.50155       -0.89104
| 14> H          2.49958        0.13290       -3.51787
| 15> H          2.23992        1.45318       -2.40319
| 16> H          1.73061       -0.16300       -1.97702
| 17> *
| 18>
| 19> %MaxCore 64000
| 20> %pal nprocs 4
| 21> end
| 22>
| 23> %scf
| 24>   MaxIter 150
| 25> end
| 26>
| 27>
| 28>                          ****END OF INPUT****

CARTESIAN COORDINATES (ANGSTROEM)
---------------------------------
  C      3.956430    0.501470   -0.379100
  H      3.168400    0.029200    0.207380
  C      3.803890    1.961570   -0.156750
  C      3.842320    0.148490   -1.854060
  H      4.923230    0.177980    0.009370
  H      4.620020    0.694500   -2.402150
  H      4.096010   -0.910930   -1.955100
  C      2.475620    0.412710   -2.485380
  H      4.206430    2.244410    0.745360
  H      2.808270    2.211320   -0.096100
  H      4.280760    2.501550   -0.891040
  H      2.499580    0.132900   -3.517870
  H      2.239920    1.453180   -2.403190
  H      1.730610   -0.163000   -1.977020

 Total Charge           Charge          ....    0
 Multiplicity           Mult            ....    1
 Number of Electrons    NEL             ....   34
 Basis Dimension        Dim             ....  160

ORBITAL ENERGIES
----------------

  NO   OCC          E(Eh)            E(eV)
   0   2.0000     -10.539008      -286.7810
   1   2.0000     -10.534540      -286.6594
   2   2.0000     -10.530002      -286.5359
   3   2.0000     -10.511086      -286.0212
   4   2.0000      -0.894509       -24.3408
   5   2.0000      -0.815849       -22.2004
   6   2.0000      -0.725528       -19.7426
   7   2.0000      -0.642223       -17.4758
   8   2.0000      -0.536035       -14.5863
   9   2.0000      -0.532332       -14.4855
  10   2.0000      -0.493725       -13.4349
  11   2.0000      -0.454717       -12.3735
  12   2.0000      -0.446627       -12.1533
  13   2.0000      -0.425585       -11.5808
  14   2.0000      -0.383284       -10.4297
  15   2.0000      -0.379764       -10.3339
  16   2.0000      -0.377524       -10.2730
  17   0.0000       0.044143         1.2012
  18   0.0000       0.067228         1.8294
  19   0.0000       0.069519         1.8917
  20   0.0000       0.080580         2.1927
  21   0.0000       0.119276         3.2457

MULLIKEN ATOMIC CHARGES
-----------------------
   0 C :   -0.255105
   1 H :   -0.063845
   2 C :    0.956133
   3 C :   -0.379624
   4 H :   -0.119955
   5 H :    0.001653
   6 H :   -0.126951
   7 C :    0.662761
   8 H :   -0.288772
   9 H :   -0.104922
  10 H :   -0.182443
  11 H :   -0.035725
  12 H :   -0.062554
  13 H :   -0.000651
Sum of atomic charges:   -0.0000000

LOEWDIN ATOMIC CHARGES
----------------------
   0 C :   -0.082871
   1 H :    0.024168
   2 C :    0.116471
   3 C :   -0.090389
   4 H :    0.022546
   5 H :    0.022267
   6 H :    0.014806
   7 C :    0.126646
   8 H :   -0.035020
   9 H :   -0.031041
  10 H :   -0.028017
  11 H :   -0.019348
  12 H :   -0.024533
  13 H :   -0.015686

  Mayer bond orders larger than 0.100000
B(  0-C ,  1-H ) :   0.8854 B(  0-C ,  2-C ) :   1.2481 B(  0-C ,  3-C ) :   1.1446
B(  0-C ,  4-H ) :   0.9605 B(  0-C ,  5-H ) :   0.1022 B(  0-C ,  6-H ) :   0.1281
B(  0-C ,  8-H ) :   0.2292 B(  0-C ,  9-H ) :   0.2710 B(  0-C , 10-H ) :   0.2459
B(  1-H ,  2-C ) :   0.1423 B(  1-H ,  3-C ) :   0.1197 B(  2-C ,  8-H ) :   0.7355
B(  2-C ,  9-H ) :   0.6781 B(  2-C , 10-H ) :   0.7234 B(  3-C ,  5-H ) :   0.9077
B(  3-C ,  6-H ) :   0.9991 B(  3-C ,  7-C ) :   1.2960 B(  3-C , 11-H ) :   0.2053
B(  3-C , 12-H ) :   0.2030 B(  3-C , 13-H ) :   0.1924 B(  7-C , 11-H ) :   0.7701
B(  7-C , 12-H ) :   0.8504 B(  7-C , 13-H ) :   0.7993

Dispersion correction           -0.000149082
FINAL SINGLE POINT ENERGY      -158.228586888831

DIPOLE MOMENT
-------------
                                X             Y             Z
Electronic contribution:      0.49666      -0.62495       0.09787
Nuclear contribution   :     -0.48267       0.62853      -0.07145
                        -----------------------------------------
Total Dipole Moment    :      0.01399       0.00358       0.02642
                        -----------------------------------------
Magnitude (a.u.)       :      0.03011
Magnitude (Debye)      :      0.07653

Rotational constants in cm-1:     0.457318     0.164089     0.140183
Rotational constants in MHz : 13710.038687  4919.250587  4202.581436

                             ****ORCA TERMINATED NORMALLY****
TOTAL RUN TIME: 0 days 0 hours 0 minutes 13 seconds 702 msec
