                         Program Version 5.0.0 -  RELEASE  -
|  1> !B3LYP D3BJ RIJCOSX def2-TZVP def2/J TightSCF
|  2> *xyz -1 1
|  3> C          4.90646       -3.10282       -5.95484
|  4> C          3.51177       -2.80621       -6.49228
|  5> H          2.73604       -3.37345       -5.97374
|  6> H          3.44490       -3.04083       -7.55528
|  7> S          3.00462       -1.09621       -6.38926
|  8> O          4.12886       -0.32965       -6.95372
|  9> O          1.78128       -1.00078       -7.13640
| 10> O          2.85155       -0.78368       -4.95679
| 11> H          5.62703       -2.52424       -6.49422
| 12> H          5.12164       -4.14387       -6.07654
| 13> H          4.95004       -2.84862       -4.91639
| 14> *
| 15>
| 16> %MaxCore 64000
| 17>
| 18> %pal nprocs 4
| 19> end
| 20>
| 21> %scf
| 22>   MaxIter 150
| 23> end
| 24>
| 25>
| 26>                          ****END OF INPUT****

CARTESIAN COORDINATES (ANGSTROEM)
---------------------------------
  C      4.906460   -3.102820   -5.954840
  C      3.511770   -2.806210   -6.492280
  H      2.736040   -3.373450   -5.973740
  H      3.444900   -3.040830   -7.555280
  S      3.004620   -1.096210   -6.389260
  O      4.128860   -0.329650   -6.953720
  O      1.781280   -1.000780   -7.136400
  O      2.851550   -0.783680   -4.956790
  H      5.627030   -2.524240   -6.494220
  H      5.121640   -4.143870   -6.076540
  H      4.950040   -2.848620   -4.916390

 Total Charge           Charge          ....   -1
 Multiplicity           Mult            ....    1
 Number of Electrons    NEL             ....   58
 Basis Dimension        Dim             ....  222

ORBITAL ENERGIES
----------------

  NO   OCC          E(Eh)            E(eV)
   0   2.0000     -88.830014     -2417.1876
   1   2.0000     -18.898370      -514.2508
   2   2.0000     -18.886307      -513.9225
   3   2.0000     -18.885769      -513.9079
   4   2.0000     -10.027259      -272.8556
   5   2.0000     -10.020449      -272.6703
   6   2.0000      -7.873197      -214.2406
   7   2.0000      -5.836634      -158.8229
   8   2.0000      -5.835757      -158.7990
   9   2.0000      -5.835502      -158.7921
  10   2.0000      -0.913371       -24.8541
  11   2.0000      -0.782680       -21.2978
  12   2.0000      -0.762444       -20.7472
  13   2.0000      -0.629969       -17.1423
  14   2.0000      -0.505445       -13.7539
  15   2.0000      -0.375114       -10.2074
  16   2.0000      -0.315949        -8.5974
  17   2.0000      -0.306594        -8.3428
  18   2.0000      -0.269090        -7.3223
  19   2.0000      -0.253352        -6.8941
  20   2.0000      -0.247798        -6.7429
  21   2.0000      -0.225800        -6.1443
  22   2.0000      -0.211160        -5.7460
  23   2.0000      -0.142539        -3.8787
  24   2.0000      -0.141638        -3.8542
  25   2.0000      -0.108187        -2.9439
  26   2.0000      -0.100284        -2.7289
  27   2.0000      -0.093906        -2.5553
  28   2.0000      -0.055543        -1.5114
  29   0.0000       0.173297         4.7157
  30   0.0000       0.215259         5.8575
  31   0.0000       0.230930         6.2839
  32   0.0000       0.236566         6.4373
  33   0.0000       0.264618         7.2006

MULLIKEN ATOMIC CHARGES
-----------------------
   0 C :   -0.300624
   1 C :   -0.195036
   2 H :    0.062302
   3 H :    0.063963
   4 S :    0.841153
   5 O :   -0.591496
   6 O :   -0.546708
   7 O :   -0.591889
   8 H :    0.106095
   9 H :    0.054947
  10 H :    0.097292
Sum of atomic charges:   -1.0000000

LOEWDIN ATOMIC CHARGES
----------------------
   0 C :   -0.336283
   1 C :   -0.429184
   2 H :    0.114874
   3 H :    0.116352
   4 S :    0.423965
   5 O :   -0.417239
   6 O :   -0.372383
   7 O :   -0.422446
   8 H :    0.113437
   9 H :    0.096745
  10 H :    0.112162

  Mayer bond orders larger than 0.100000
B(  0-C ,  1-C ) :   0.9487 B(  0-C ,  8-H ) :   0.9737 B(  0-C ,  9-H ) :   0.9625
B(  0-C , 10-H ) :   0.9757 B(  1-C ,  2-H ) :   0.9579 B(  1-C ,  3-H ) :   0.9561
B(  1-C ,  4-S ) :   0.8700 B(  4-S ,  5-O ) :   1.7302 B(  4-S ,  6-O ) :   1.8270
B(  4-S ,  7-O ) :   1.7528

Dispersion correction           -0.016731904
FINAL SINGLE POINT ENERGY      -703.118088179124

DIPOLE MOMENT
-------------
                                X             Y             Z
Electronic contribution:     -4.39361       6.45748      -0.66388
Nuclear contribution   :      5.05690      -8.21735       0.57889
                        -----------------------------------------
Total Dipole Moment    :      0.66329      -1.75987      -0.08499
                        -----------------------------------------
Magnitude (a.u.)       :      1.88264
Magnitude (Debye)      :      4.78529

Rotational constants in cm-1:     0.162547     0.083494     0.081672
Rotational constants in MHz :  4873.033504  2503.090885  2448.458543

                             ****ORCA TERMINATED NORMALLY****
TOTAL RUN TIME: 0 days 0 hours 0 minutes 18 seconds 304 msec
