                         Program Version 5.0.0 -  RELEASE  -
|  1> !B3LYP D3BJ RIJCOSX def2-TZVP def2/J TightSCF
|  2> *xyz 1 1
|  3> C          4.49059        1.15590       -2.46929
|  4> N          4.30539        1.22276       -3.90832
|  5> C          4.63192        2.24637       -4.67096
|  6> N          4.54169        2.14399       -5.98714
|  7> N          5.08409        3.39358       -4.11855
|  8> H          4.92067        3.57050       -3.13587
|  9> H          5.25465        4.19739       -4.70696
| 10> H          3.82453        0.44911       -4.35093
| 11> H          4.34337        1.24932       -6.41665
| 12> H          4.67671        2.95662       -6.57411
| 13> C          5.94213        0.93950       -2.03689
| 14> H          3.86431        0.32853       -2.13661
| 15> H          4.07623        2.04999       -1.98901
| 16> H          6.32982        0.06401       -2.51451
| 17> H          5.98308        0.81426       -0.97504
| 18> H          6.52865        1.78889       -2.31873
| 19> *
| 20>
| 21> %MaxCore 64000
| 22>
| 23> %pal nprocs 4
| 24> end
| 25>
| 26> %scf
| 27>   MaxIter 150
| 28> end
| 29>
| 30>
| 31>                          ****END OF INPUT****

CARTESIAN COORDINATES (ANGSTROEM)
---------------------------------
  C      4.490590    1.155900   -2.469290
  N      4.305390    1.222760   -3.908320
  C      4.631920    2.246370   -4.670960
  N      4.541690    2.143990   -5.987140
  N      5.084090    3.393580   -4.118550
  H      4.920670    3.570500   -3.135870
  H      5.254650    4.197390   -4.706960
  H      3.824530    0.449110   -4.350930
  H      4.343370    1.249320   -6.416650
  H      4.676710    2.956620   -6.574110
  C      5.942130    0.939500   -2.036890
  H      3.864310    0.328530   -2.136610
  H      4.076230    2.049990   -1.989010
  H      6.329820    0.064010   -2.514510
  H      5.983080    0.814260   -0.975040
  H      6.528650    1.788890   -2.318730

 Total Charge           Charge          ....    1
 Multiplicity           Mult            ....    1
 Number of Electrons    NEL             ....   48
 Basis Dimension        Dim             ....  246

ORBITAL ENERGIES
----------------

  NO   OCC          E(Eh)            E(eV)
   0   2.0000     -14.537648      -395.5895
   1   2.0000     -14.537222      -395.5779
   2   2.0000     -14.534678      -395.5087
   3   2.0000     -10.501734      -285.7667
   4   2.0000     -10.375026      -282.3188
   5   2.0000     -10.300979      -280.3039
   6   2.0000      -1.214104       -33.0374
   7   2.0000      -1.105399       -30.0794
   8   2.0000      -1.090217       -29.6663
   9   2.0000      -0.928941       -25.2778
  10   2.0000      -0.844551       -22.9814
  11   2.0000      -0.800111       -21.7721
  12   2.0000      -0.784943       -21.3594
  13   2.0000      -0.742595       -20.2070
  14   2.0000      -0.691808       -18.8251
  15   2.0000      -0.689688       -18.7674
  16   2.0000      -0.658504       -17.9188
  17   2.0000      -0.623805       -16.9746
  18   2.0000      -0.602659       -16.3992
  19   2.0000      -0.557065       -15.1585
  20   2.0000      -0.531064       -14.4510
  21   2.0000      -0.511835       -13.9277
  22   2.0000      -0.475759       -12.9461
  23   2.0000      -0.450367       -12.2551
  24   0.0000      -0.164575        -4.4783
  25   0.0000      -0.155058        -4.2194
  26   0.0000      -0.121090        -3.2950
  27   0.0000      -0.113805        -3.0968
  28   0.0000      -0.092467        -2.5162

MULLIKEN ATOMIC CHARGES
-----------------------
   0 C :   -0.175129
   1 N :   -0.244790
   2 C :    0.449699
   3 N :   -0.389110
   4 N :   -0.401942
   5 H :    0.279123
   6 H :    0.266833
   7 H :    0.251726
   8 H :    0.277813
   9 H :    0.277591
  10 C :   -0.285813
  11 H :    0.153013
  12 H :    0.137755
  13 H :    0.128720
  14 H :    0.153352
  15 H :    0.121161
Sum of atomic charges:    1.0000000

LOEWDIN ATOMIC CHARGES
----------------------
   0 C :   -0.281417
   1 N :    0.173449
   2 C :   -0.399951
   3 N :    0.071934
   4 N :    0.057650
   5 H :    0.193327
   6 H :    0.193074
   7 H :    0.210475
   8 H :    0.197880
   9 H :    0.197368
  10 C :   -0.277050
  11 H :    0.149609
  12 H :    0.135236
  13 H :    0.125539
  14 H :    0.134459
  15 H :    0.118417

  Mayer bond orders larger than 0.100000
B(  0-C ,  1-N ) :   0.8800 B(  0-C , 10-C ) :   0.9523 B(  0-C , 11-H ) :   0.9516
B(  0-C , 12-H ) :   0.9789 B(  1-N ,  2-C ) :   1.3848 B(  1-N ,  7-H ) :   0.9064
B(  2-C ,  3-N ) :   1.3295 B(  2-C ,  4-N ) :   1.3090 B(  3-N ,  8-H ) :   0.9002
B(  3-N ,  9-H ) :   0.8978 B(  4-N ,  5-H ) :   0.8890 B(  4-N ,  6-H ) :   0.9047
B( 10-C , 13-H ) :   0.9636 B( 10-C , 14-H ) :   0.9665 B( 10-C , 15-H ) :   0.9687

Dispersion correction           -0.020389671
FINAL SINGLE POINT ENERGY      -284.354619896903

DIPOLE MOMENT
-------------
                                X             Y             Z
Electronic contribution:     -1.81662       1.58159      -4.48182
Nuclear contribution   :      1.34333      -1.11039       3.43667
                        -----------------------------------------
Total Dipole Moment    :     -0.47330       0.47119      -1.04515
                        -----------------------------------------
Magnitude (a.u.)       :      1.24031
Magnitude (Debye)      :      3.15262

Rotational constants in cm-1:     0.227161     0.075356     0.065003
Rotational constants in MHz :  6810.114531  2259.122204  1948.738523

                             ****ORCA TERMINATED NORMALLY****
TOTAL RUN TIME: 0 days 0 hours 0 minutes 25 seconds 27 msec
