                         Program Version 5.0.0 -  RELEASE  -
|  1> !B3LYP D3BJ RIJCOSX def2-TZVP def2/J TightSCF xyzfile
|  2>
|  3> *xyzfile 0 1 B.xyz
|  4>
|  5> %MaxCore 64000
|  6>
|  7> %pal nprocs 18
|  8> end
|  9>
| 10> %scf
| 11>   MaxIter 150
| 12> end
| 13>
| 14>
| 15>                          ****END OF INPUT****

CARTESIAN COORDINATES (ANGSTROEM)
---------------------------------
  C      4.490588    1.155899   -2.469290
  N      4.305394    1.222762   -3.908317
  C      4.906458   -3.102816   -5.954844
  C      3.511771   -2.806215   -6.492283
  H      2.736044   -3.373445   -5.973736
  H      3.444904   -3.040831   -7.555281
  S      3.004618   -1.096206   -6.389259
  C      4.631918    2.246365   -4.670958
  N      4.541686    2.143990   -5.987139
  N      5.084086    3.393584   -4.118545
  H      4.920675    3.570501   -3.135870
  H      5.254652    4.197390   -4.706956
  H      3.824530    0.449113   -4.350926
  H      4.343373    1.249318   -6.416646
  H      4.676712    2.956624   -6.574113
  O      4.128856   -0.329647   -6.953717
  O      1.781285   -1.000779   -7.136399
  C      5.942129    0.939500   -2.036893
  H      3.864305    0.328532   -2.136611
  H      4.076233    2.049994   -1.989010
  C      6.462677   -3.117775   -3.944671
  C      5.024977   -3.025679   -4.437625
  H      4.423321   -3.818693   -3.977648
  H      4.579350   -2.087131   -4.108727
  H      5.201533   -4.100207   -6.296905
  H      5.605922   -2.397822   -6.413368
  C      6.559957   -0.356290   -2.559086
  H      5.967976    0.952567   -0.942444
  H      6.547184    1.788331   -2.368849
  C      6.006283   -1.615917   -1.899301
  H      7.642360   -0.318000   -2.402059
  H      6.414855   -0.403433   -3.642587
  C      6.608718   -2.917014   -2.435655
  H      6.190324   -1.561115   -0.820948
  H      4.919250   -1.651245   -2.016586
  H      7.066975   -2.374258   -4.475514
  H      6.887808   -4.089747   -4.215332
  H      6.135197   -3.755573   -1.915159
  H      7.671142   -2.955503   -2.172291
  O      2.851546   -0.783683   -4.956789

 Total Charge           Charge          ....    0
 Multiplicity           Mult            ....    1
 Number of Electrons    NEL             ....  144
 Basis Dimension        Dim             ....  671

ORBITAL ENERGIES
----------------

  NO   OCC          E(Eh)            E(eV)
   0   2.0000     -88.990621     -2421.5579
   1   2.0000     -19.060877      -518.6728
   2   2.0000     -19.060552      -518.6640
   3   2.0000     -19.046358      -518.2777
   4   2.0000     -14.388906      -391.5420
   5   2.0000     -14.357472      -390.6867
   6   2.0000     -14.354969      -390.6186
   7   2.0000     -10.336990      -281.2838
   8   2.0000     -10.233087      -278.4564
   9   2.0000     -10.187213      -277.2082
  10   2.0000     -10.170713      -276.7592
  11   2.0000     -10.163769      -276.5702
  12   2.0000     -10.158645      -276.4308
  13   2.0000     -10.157279      -276.3936
  14   2.0000     -10.151494      -276.2362
  15   2.0000     -10.149174      -276.1731
  16   2.0000     -10.141881      -275.9746
  17   2.0000      -8.034582      -218.6321
  18   2.0000      -5.998046      -163.2151
  19   2.0000      -5.997297      -163.1947
  20   2.0000      -5.996457      -163.1719
  21   2.0000      -1.079345       -29.3705
  22   2.0000      -1.050147       -28.5759
  23   2.0000      -0.947038       -25.7702
  24   2.0000      -0.944253       -25.6944
  25   2.0000      -0.937663       -25.5151
  26   2.0000      -0.926931       -25.2231
  27   2.0000      -0.822030       -22.3686
  28   2.0000      -0.796173       -21.6650
  29   2.0000      -0.769452       -20.9378
  30   2.0000      -0.733372       -19.9561
  31   2.0000      -0.698083       -18.9958
  32   2.0000      -0.674677       -18.3589
  33   2.0000      -0.646013       -17.5789
  34   2.0000      -0.625654       -17.0249
  35   2.0000      -0.614470       -16.7206
  36   2.0000      -0.592358       -16.1189
  37   2.0000      -0.575673       -15.6649
  38   2.0000      -0.549913       -14.9639
  39   2.0000      -0.542746       -14.7689
  40   2.0000      -0.537983       -14.6393
  41   2.0000      -0.512757       -13.9528
  42   2.0000      -0.502403       -13.6711
  43   2.0000      -0.483716       -13.1626
  44   2.0000      -0.476342       -12.9619
  45   2.0000      -0.462405       -12.5827
  46   2.0000      -0.456370       -12.4185
  47   2.0000      -0.447302       -12.1717
  48   2.0000      -0.432335       -11.7644
  49   2.0000      -0.428741       -11.6666
  50   2.0000      -0.421389       -11.4666
  51   2.0000      -0.414120       -11.2688
  52   2.0000      -0.403654       -10.9840
  53   2.0000      -0.396845       -10.7987
  54   2.0000      -0.387162       -10.5352
  55   2.0000      -0.379411       -10.3243
  56   2.0000      -0.364841        -9.9278
  57   2.0000      -0.356870        -9.7109
  58   2.0000      -0.347277        -9.4499
  59   2.0000      -0.334504        -9.1023
  60   2.0000      -0.324962        -8.8427
  61   2.0000      -0.321597        -8.7511
  62   2.0000      -0.315060        -8.5732
  63   2.0000      -0.311527        -8.4771
  64   2.0000      -0.309515        -8.4223
  65   2.0000      -0.305846        -8.3225
  66   2.0000      -0.300226        -8.1696
  67   2.0000      -0.285810        -7.7773
  68   2.0000      -0.268750        -7.3131
  69   2.0000      -0.260825        -7.0974
  70   2.0000      -0.253157        -6.8888
  71   2.0000      -0.225724        -6.1423
  72   0.0000      -0.019310        -0.5255
  73   0.0000      -0.006244        -0.1699
  74   0.0000       0.013893         0.3781
  75   0.0000       0.037605         1.0233
  76   0.0000       0.046208         1.2574

MULLIKEN ATOMIC CHARGES
-----------------------
   0 C :   -0.226599
   1 N :   -0.212039
   2 C :   -0.135873
   3 C :   -0.186453
   4 H :    0.099799
   5 H :    0.115937
   6 S :    0.881034
   7 C :    0.397693
   8 N :   -0.387709
   9 N :   -0.438165
  10 H :    0.255005
  11 H :    0.238625
  12 H :    0.269122
  13 H :    0.299482
  14 H :    0.225993
  15 O :   -0.607595
  16 O :   -0.491351
  17 C :   -0.108672
  18 H :    0.159741
  19 H :    0.114539
  20 C :   -0.165210
  21 C :   -0.263560
  22 H :    0.070567
  23 H :    0.119385
  24 H :    0.080524
  25 H :    0.099163
  26 C :   -0.209864
  27 H :    0.090855
  28 H :    0.098033
  29 C :   -0.218945
  30 H :    0.091199
  31 H :    0.122354
  32 C :   -0.120821
  33 H :    0.083267
  34 H :    0.109793
  35 H :    0.090888
  36 H :    0.084464
  37 H :    0.085235
  38 H :    0.083002
  39 O :   -0.592845
Sum of atomic charges:    0.0000000

LOEWDIN ATOMIC CHARGES
----------------------
   0 C :   -0.269220
   1 N :    0.180033
   2 C :   -0.283985
   3 C :   -0.374235
   4 H :    0.132514
   5 H :    0.134645
   6 S :    0.463875
   7 C :   -0.418741
   8 N :    0.065909
   9 N :    0.018034
  10 H :    0.179411
  11 H :    0.177410
  12 H :    0.173292
  13 H :    0.156152
  14 H :    0.175853
  15 O :   -0.375552
  16 O :   -0.320765
  17 C :   -0.265510
  18 H :    0.147481
  19 H :    0.124758
  20 C :   -0.267234
  21 C :   -0.269764
  22 H :    0.131966
  23 H :    0.134441
  24 H :    0.132848
  25 H :    0.138100
  26 C :   -0.261366
  27 H :    0.139158
  28 H :    0.131364
  29 C :   -0.266381
  30 H :    0.136206
  31 H :    0.139691
  32 C :   -0.261996
  33 H :    0.132104
  34 H :    0.133495
  35 H :    0.131226
  36 H :    0.132072
  37 H :    0.134446
  38 H :    0.131807
  39 O :   -0.373539

  Mayer bond orders larger than 0.100000
B(  0-C ,  1-N ) :   0.9069 B(  0-C , 17-C ) :   0.9279 B(  0-C , 18-H ) :   0.9723
B(  0-C , 19-H ) :   0.9823 B(  1-N ,  7-C ) :   1.4210 B(  1-N , 12-H ) :   0.7898
B(  2-C ,  3-C ) :   0.9596 B(  2-C , 21-C ) :   0.9858 B(  2-C , 24-H ) :   0.9550
B(  2-C , 25-H ) :   0.9570 B(  3-C ,  4-H ) :   0.9572 B(  3-C ,  5-H ) :   0.9592
B(  3-C ,  6-S ) :   0.8954 B(  6-S , 15-O ) :   1.5446 B(  6-S , 16-O ) :   1.9155
B(  6-S , 39-O ) :   1.5509 B(  7-C ,  8-N ) :   1.3944 B(  7-C ,  9-N ) :   1.2331
B(  8-N , 13-H ) :   0.7753 B(  8-N , 14-H ) :   0.9193 B(  9-N , 10-H ) :   0.9025
B(  9-N , 11-H ) :   0.9173 B( 12-H , 39-O ) :   0.1784 B( 13-H , 15-O ) :   0.1768
B( 17-C , 26-C ) :   0.9602 B( 17-C , 27-H ) :   0.9650 B( 17-C , 28-H ) :   0.9708
B( 20-C , 21-C ) :   0.9545 B( 20-C , 32-C ) :   0.9677 B( 20-C , 35-H ) :   0.9785
B( 20-C , 36-H ) :   0.9677 B( 21-C , 22-H ) :   0.9632 B( 21-C , 23-H ) :   0.9710
B( 26-C , 29-C ) :   0.9594 B( 26-C , 30-H ) :   0.9651 B( 26-C , 31-H ) :   0.9735
B( 29-C , 32-C ) :   0.9735 B( 29-C , 33-H ) :   0.9617 B( 29-C , 34-H ) :   0.9781
B( 32-C , 37-H ) :   0.9714 B( 32-C , 38-H ) :   0.9723

Dispersion correction           -0.079499370
FINAL SINGLE POINT ENERGY     -1182.970743385266

DIPOLE MOMENT
-------------
                                X             Y             Z
Electronic contribution:    -14.54751       8.39606     -15.35776
Nuclear contribution   :     16.79156      -5.47215      17.54258
                        -----------------------------------------
Total Dipole Moment    :      2.24406       2.92391       2.18482
                        -----------------------------------------
Magnitude (a.u.)       :      4.28468
Magnitude (Debye)      :     10.89080

Rotational constants in cm-1:     0.014207     0.012373     0.007472
Rotational constants in MHz :   425.900436   370.942493   224.006604

                             ****ORCA TERMINATED NORMALLY****
TOTAL RUN TIME: 0 days 0 hours 1 minutes 26 seconds 350 msec
