                         Program Version 5.0.0 -  RELEASE  -
|  1> !B3LYP D3BJ RIJCOSX def2-TZVP def2/J TightSCF
|  2> *xyz 0 1
|  3> C          4.90646       -3.10282       -5.95484
|  4> C          3.51177       -2.80621       -6.49228
|  5> H          2.73604       -3.37345       -5.97374
|  6> H          3.44490       -3.04083       -7.55528
|  7> S          3.00462       -1.09621       -6.38926
|  8> F          4.12886       -0.32965       -6.95372
|  9> O          1.78128       -1.00078       -7.13640
| 10> O          2.85155       -0.78368       -4.95679
| 11> H          5.62703       -2.52424       -6.49422
| 12> H          5.12164       -4.14387       -6.07654
| 13> H          4.95004       -2.84862       -4.91639
| 14> *
| 15>
| 16> %MaxCore 64000
| 17>
| 18> %pal nprocs 4
| 19> end
| 20>
| 21> %scf
| 22>   MaxIter 150
| 23> end
| 24>
| 25>
| 26>                          ****END OF INPUT****

CARTESIAN COORDINATES (ANGSTROEM)
---------------------------------
  C      4.906460   -3.102820   -5.954840
  C      3.511770   -2.806210   -6.492280
  H      2.736040   -3.373450   -5.973740
  H      3.444900   -3.040830   -7.555280
  S      3.004620   -1.096210   -6.389260
  F      4.128860   -0.329650   -6.953720
  O      1.781280   -1.000780   -7.136400
  O      2.851550   -0.783680   -4.956790
  H      5.627030   -2.524240   -6.494220
  H      5.121640   -4.143870   -6.076540
  H      4.950040   -2.848620   -4.916390

 Total Charge           Charge          ....    0
 Multiplicity           Mult            ....    1
 Number of Electrons    NEL             ....   58
 Basis Dimension        Dim             ....  222

ORBITAL ENERGIES
----------------

  NO   OCC          E(Eh)            E(eV)
   0   2.0000     -89.095470     -2424.4110
   1   2.0000     -24.786166      -674.4659
   2   2.0000     -19.138167      -520.7760
   3   2.0000     -19.126135      -520.4486
   4   2.0000     -10.231899      -278.4241
   5   2.0000     -10.191436      -277.3231
   6   2.0000      -8.139277      -221.4810
   7   2.0000      -6.106220      -166.1587
   8   2.0000      -6.099569      -165.9777
   9   2.0000      -6.099404      -165.9732
  10   2.0000      -1.358563       -36.9684
  11   2.0000      -1.107726       -30.1427
  12   2.0000      -1.010403       -27.4945
  13   2.0000      -0.827968       -22.5302
  14   2.0000      -0.725768       -19.7492
  15   2.0000      -0.676321       -18.4036
  16   2.0000      -0.583933       -15.8896
  17   2.0000      -0.568205       -15.4617
  18   2.0000      -0.545394       -14.8409
  19   2.0000      -0.497016       -13.5245
  20   2.0000      -0.476835       -12.9753
  21   2.0000      -0.453556       -12.3419
  22   2.0000      -0.437716       -11.9109
  23   2.0000      -0.413063       -11.2400
  24   2.0000      -0.401402       -10.9227
  25   2.0000      -0.381574       -10.3831
  26   2.0000      -0.337891        -9.1945
  27   2.0000      -0.326655        -8.8887
  28   2.0000      -0.310909        -8.4603
  29   0.0000       0.009435         0.2567
  30   0.0000       0.043948         1.1959
  31   0.0000       0.061124         1.6633
  32   0.0000       0.068500         1.8640
  33   0.0000       0.074052         2.0151

MULLIKEN ATOMIC CHARGES
-----------------------
   0 C :   -0.330033
   1 C :   -0.214589
   2 H :    0.149141
   3 H :    0.132454
   4 S :    0.873286
   5 F :   -0.132206
   6 O :   -0.406386
   7 O :   -0.451870
   8 H :    0.117732
   9 H :    0.123038
  10 H :    0.139433
Sum of atomic charges:    0.0000000

LOEWDIN ATOMIC CHARGES
----------------------
   0 C :   -0.308944
   1 C :   -0.389125
   2 H :    0.148890
   3 H :    0.138002
   4 S :    0.550226
   5 F :    0.059439
   6 O :   -0.259048
   7 O :   -0.306713
   8 H :    0.118301
   9 H :    0.123871
  10 H :    0.125101

  Mayer bond orders larger than 0.100000
B(  0-C ,  1-C ) :   0.9516 B(  0-C ,  8-H ) :   0.9711 B(  0-C ,  9-H ) :   0.9623
B(  0-C , 10-H ) :   0.9681 B(  1-C ,  2-H ) :   0.9421 B(  1-C ,  3-H ) :   0.9417
B(  1-C ,  4-S ) :   0.9047 B(  4-S ,  5-F ) :   1.0892 B(  4-S ,  6-O ) :   1.9525
B(  4-S ,  7-O ) :   1.8863

Dispersion correction           -0.015893933
FINAL SINGLE POINT ENERGY      -727.651347856373

DIPOLE MOMENT
-------------
                                X             Y             Z
Electronic contribution:     -2.99582       8.20444      -1.74909
Nuclear contribution   :      4.18919      -9.36357       1.23251
                        -----------------------------------------
Total Dipole Moment    :      1.19337      -1.15913      -0.51658
                        -----------------------------------------
Magnitude (a.u.)       :      1.74200
Magnitude (Debye)      :      4.42782

Rotational constants in cm-1:     0.153152     0.082513     0.079874
Rotational constants in MHz :  4591.373714  2473.673397  2394.575279

                             ****ORCA TERMINATED NORMALLY****
TOTAL RUN TIME: 0 days 0 hours 0 minutes 19 seconds 568 msec
