                         Program Version 5.0.0 -  RELEASE  -
|  1> !B3LYP D3BJ RIJCOSX def2-TZVP def2/J TightSCF
|  2> *xyz 0 1
|  3> C          4.49059        1.15590       -2.46929
|  4> C          4.30539        1.22276       -3.90832
|  5> C          4.63192        2.24637       -4.67096
|  6> N          4.54169        2.14399       -5.98714
|  7> N          5.08409        3.39358       -4.11855
|  8> H          4.92067        3.57050       -3.13587
|  9> H          5.25465        4.19739       -4.70696
| 10> H          3.82453        0.44911       -4.35093
| 11> H          4.34337        1.24932       -6.41665
| 12> H          4.67671        2.95662       -6.57411
| 13> C          5.94213        0.93950       -2.03689
| 14> H          3.86431        0.32853       -2.13661
| 15> H          4.07623        2.04999       -1.98901
| 16> H          6.32982        0.06401       -2.51451
| 17> H          5.98308        0.81426       -0.97504
| 18> H          6.52865        1.78889       -2.31873
| 19> *
| 20>
| 21> %MaxCore 64000
| 22>
| 23> %pal nprocs 4
| 24> end
| 25>
| 26> %scf
| 27>   MaxIter 150
| 28> end
| 29>
| 30>
| 31>                          ****END OF INPUT****

CARTESIAN COORDINATES (ANGSTROEM)
---------------------------------
  C      4.490590    1.155900   -2.469290
  C      4.305390    1.222760   -3.908320
  C      4.631920    2.246370   -4.670960
  N      4.541690    2.143990   -5.987140
  N      5.084090    3.393580   -4.118550
  H      4.920670    3.570500   -3.135870
  H      5.254650    4.197390   -4.706960
  H      3.824530    0.449110   -4.350930
  H      4.343370    1.249320   -6.416650
  H      4.676710    2.956620   -6.574110
  C      5.942130    0.939500   -2.036890
  H      3.864310    0.328530   -2.136610
  H      4.076230    2.049990   -1.989010
  H      6.329820    0.064010   -2.514510
  H      5.983080    0.814260   -0.975040
  H      6.528650    1.788890   -2.318730

 Total Charge           Charge          ....    0
 Multiplicity           Mult            ....    1
 Number of Electrons    NEL             ....   48
 Basis Dimension        Dim             ....  246

ORBITAL ENERGIES
----------------

  NO   OCC          E(Eh)            E(eV)
   0   2.0000     -14.312742      -389.4695
   1   2.0000     -14.310430      -389.4066
   2   2.0000     -10.207605      -277.7630
   3   2.0000     -10.138724      -275.8887
   4   2.0000     -10.126861      -275.5659
   5   2.0000     -10.084648      -274.4172
   6   2.0000      -0.956812       -26.0362
   7   2.0000      -0.868141       -23.6233
   8   2.0000      -0.768128       -20.9018
   9   2.0000      -0.691182       -18.8080
  10   2.0000      -0.615231       -16.7413
  11   2.0000      -0.574356       -15.6290
  12   2.0000      -0.539099       -14.6696
  13   2.0000      -0.506454       -13.7813
  14   2.0000      -0.473456       -12.8834
  15   2.0000      -0.434361       -11.8196
  16   2.0000      -0.417265       -11.3543
  17   2.0000      -0.388519       -10.5721
  18   2.0000      -0.379986       -10.3399
  19   2.0000      -0.346789        -9.4366
  20   2.0000      -0.326156        -8.8752
  21   2.0000      -0.315047        -8.5729
  22   2.0000      -0.262318        -7.1380
  23   2.0000      -0.156949        -4.2708
  24   0.0000       0.018608         0.5063
  25   0.0000       0.048843         1.3291
  26   0.0000       0.062031         1.6879
  27   0.0000       0.078663         2.1405
  28   0.0000       0.085223         2.3190

MULLIKEN ATOMIC CHARGES
-----------------------
   0 C :   -0.198005
   1 C :   -0.301929
   2 C :    0.345558
   3 N :   -0.454678
   4 N :   -0.475257
   5 H :    0.234325
   6 H :    0.202382
   7 H :    0.077819
   8 H :    0.232409
   9 H :    0.204210
  10 C :   -0.270512
  11 H :    0.076360
  12 H :    0.056307
  13 H :    0.090167
  14 H :    0.086721
  15 H :    0.094122
Sum of atomic charges:   -0.0000000

LOEWDIN ATOMIC CHARGES
----------------------
   0 C :   -0.304775
   1 C :   -0.282640
   2 C :   -0.450357
   3 N :   -0.009208
   4 N :   -0.019234
   5 H :    0.171773
   6 H :    0.157770
   7 H :    0.117829
   8 H :    0.176399
   9 H :    0.158768
  10 C :   -0.298959
  11 H :    0.137063
  12 H :    0.119697
  13 H :    0.111616
  14 H :    0.105090
  15 H :    0.109169

  Mayer bond orders larger than 0.100000
B(  0-C ,  1-C ) :   1.0245 B(  0-C , 10-C ) :   0.9445 B(  0-C , 11-H ) :   0.9780
B(  0-C , 12-H ) :   0.9752 B(  1-C ,  2-C ) :   1.6687 B(  1-C ,  7-H ) :   0.9853
B(  2-C ,  3-N ) :   1.1364 B(  2-C ,  4-N ) :   1.1192 B(  3-N ,  8-H ) :   0.9230
B(  3-N ,  9-H ) :   0.9267 B(  4-N ,  5-H ) :   0.9150 B(  4-N ,  6-H ) :   0.9323
B( 10-C , 13-H ) :   0.9796 B( 10-C , 14-H ) :   0.9761 B( 10-C , 15-H ) :   0.9783

Dispersion correction           -0.021319054
FINAL SINGLE POINT ENERGY      -267.868849338328

DIPOLE MOMENT
-------------
                                X             Y             Z
Electronic contribution:     -1.25727       2.03455      -4.19923
Nuclear contribution   :      1.23062      -1.24683       3.43056
                        -----------------------------------------
Total Dipole Moment    :     -0.02665       0.78771      -0.76866
                        -----------------------------------------
Magnitude (a.u.)       :      1.10093
Magnitude (Debye)      :      2.79834

Rotational constants in cm-1:     0.231477     0.075416     0.065327
Rotational constants in MHz :  6939.497385  2260.912204  1958.442932

                             ****ORCA TERMINATED NORMALLY****
TOTAL RUN TIME: 0 days 0 hours 0 minutes 28 seconds 101 msec
