                         Program Version 5.0.0 -  RELEASE  -
|  1> !B3LYP D3BJ RIJCOSX def2-TZVP def2/J TightSCF
|  2> *xyz 0 1
|  3> C          4.90646       -3.10282       -5.95484
|  4> C          3.51177       -2.80621       -6.49228
|  5> H          2.73604       -3.37345       -5.97374
|  6> H          3.44490       -3.04083       -7.55528
|  7> S          3.00462       -1.09621       -6.38926
|  8> O          4.12886       -0.32965       -6.95372
|  9> F          1.78128       -1.00078       -7.13640
| 10> O          2.85155       -0.78368       -4.95679
| 11> H          5.62703       -2.52424       -6.49422
| 12> H          5.12164       -4.14387       -6.07654
| 13> H          4.95004       -2.84862       -4.91639
| 14> *
| 15>
| 16> %MaxCore 64000
| 17>
| 18> %pal nprocs 4
| 19> end
| 20>
| 21> %scf
| 22>   MaxIter 150
| 23> end
| 24>
| 25>
| 26>                          ****END OF INPUT****

CARTESIAN COORDINATES (ANGSTROEM)
---------------------------------
  C      4.906460   -3.102820   -5.954840
  C      3.511770   -2.806210   -6.492280
  H      2.736040   -3.373450   -5.973740
  H      3.444900   -3.040830   -7.555280
  S      3.004620   -1.096210   -6.389260
  O      4.128860   -0.329650   -6.953720
  F      1.781280   -1.000780   -7.136400
  O      2.851550   -0.783680   -4.956790
  H      5.627030   -2.524240   -6.494220
  H      5.121640   -4.143870   -6.076540
  H      4.950040   -2.848620   -4.916390

 Total Charge           Charge          ....    0
 Multiplicity           Mult            ....    1
 Number of Electrons    NEL             ....   58
 Basis Dimension        Dim             ....  222

ORBITAL ENERGIES
----------------

  NO   OCC          E(Eh)            E(eV)
   0   2.0000     -89.097356     -2424.4623
   1   2.0000     -24.804927      -674.9764
   2   2.0000     -19.126065      -520.4467
   3   2.0000     -19.126044      -520.4461
   4   2.0000     -10.232528      -278.4412
   5   2.0000     -10.186820      -277.1975
   6   2.0000      -8.141117      -221.5310
   7   2.0000      -6.107863      -166.2034
   8   2.0000      -6.101426      -166.0283
   9   2.0000      -6.101291      -166.0246
  10   2.0000      -1.389222       -37.8027
  11   2.0000      -1.093771       -29.7630
  12   2.0000      -0.996892       -27.1268
  13   2.0000      -0.824885       -22.4463
  14   2.0000      -0.740225       -20.1426
  15   2.0000      -0.678045       -18.4506
  16   2.0000      -0.590658       -16.0726
  17   2.0000      -0.589132       -16.0311
  18   2.0000      -0.555319       -15.1110
  19   2.0000      -0.497253       -13.5309
  20   2.0000      -0.478356       -13.0167
  21   2.0000      -0.438746       -11.9389
  22   2.0000      -0.431947       -11.7539
  23   2.0000      -0.410257       -11.1637
  24   2.0000      -0.391624       -10.6566
  25   2.0000      -0.377476       -10.2716
  26   2.0000      -0.325943        -8.8694
  27   2.0000      -0.324347        -8.8259
  28   2.0000      -0.299614        -8.1529
  29   0.0000       0.021702         0.5905
  30   0.0000       0.029419         0.8005
  31   0.0000       0.061817         1.6821
  32   0.0000       0.064712         1.7609
  33   0.0000       0.074189         2.0188

MULLIKEN ATOMIC CHARGES
-----------------------
   0 C :   -0.326027
   1 C :   -0.202060
   2 H :    0.128601
   3 H :    0.121603
   4 S :    0.868851
   5 O :   -0.444681
   6 F :   -0.099860
   7 O :   -0.444029
   8 H :    0.140592
   9 H :    0.120634
  10 H :    0.136376
Sum of atomic charges:   -0.0000000

LOEWDIN ATOMIC CHARGES
----------------------
   0 C :   -0.294482
   1 C :   -0.395500
   2 H :    0.136103
   3 H :    0.134822
   4 S :    0.543446
   5 O :   -0.300316
   6 F :    0.102845
   7 O :   -0.303893
   8 H :    0.126726
   9 H :    0.123718
  10 H :    0.126532

  Mayer bond orders larger than 0.100000
B(  0-C ,  1-C ) :   0.9677 B(  0-C ,  8-H ) :   0.9681 B(  0-C ,  9-H ) :   0.9584
B(  0-C , 10-H ) :   0.9699 B(  1-C ,  2-H ) :   0.9356 B(  1-C ,  3-H ) :   0.9344
B(  1-C ,  4-S ) :   0.9115 B(  4-S ,  5-O ) :   1.8787 B(  4-S ,  6-F ) :   1.1376
B(  4-S ,  7-O ) :   1.8928

Dispersion correction           -0.015988382
FINAL SINGLE POINT ENERGY      -727.636187308692

DIPOLE MOMENT
-------------
                                X             Y             Z
Electronic contribution:     -6.97214       7.08834      -2.05763
Nuclear contribution   :      6.63544      -8.66423       1.42287
                        -----------------------------------------
Total Dipole Moment    :     -0.33670      -1.57589      -0.63476
                        -----------------------------------------
Magnitude (a.u.)       :      1.73197
Magnitude (Debye)      :      4.40231

Rotational constants in cm-1:     0.158118     0.080978     0.078216
Rotational constants in MHz :  4740.271775  2427.649826  2344.849020

                             ****ORCA TERMINATED NORMALLY****
TOTAL RUN TIME: 0 days 0 hours 0 minutes 20 seconds 265 msec
