                         Program Version 5.0.0 -  RELEASE  -
|  1> !B3LYP D3BJ RIJCOSX def2-TZVP def2/J TightSCF
|  2> *xyz 0 1
|  3> C          4.49059        1.15590       -2.46929
|  4> N          4.30539        1.22276       -3.90832
|  5> C          4.63192        2.24637       -4.67096
|  6> C          4.54169        2.14399       -5.98714
|  7> N          5.08409        3.39358       -4.11855
|  8> H          4.92067        3.57050       -3.13587
|  9> H          5.25465        4.19739       -4.70696
| 10> H          3.82453        0.44911       -4.35093
| 11> H          4.34337        1.24932       -6.41665
| 12> H          4.67671        2.95662       -6.57411
| 13> C          5.94213        0.93950       -2.03689
| 14> H          3.86431        0.32853       -2.13661
| 15> H          4.07623        2.04999       -1.98901
| 16> H          6.32982        0.06401       -2.51451
| 17> H          5.98308        0.81426       -0.97504
| 18> H          6.52865        1.78889       -2.31873
| 19> *
| 20>
| 21> %MaxCore 64000
| 22>
| 23> %pal nprocs 4
| 24> end
| 25>
| 26> %scf
| 27>   MaxIter 150
| 28> end
| 29>
| 30>
| 31>                          ****END OF INPUT****

CARTESIAN COORDINATES (ANGSTROEM)
---------------------------------
  C      4.490590    1.155900   -2.469290
  N      4.305390    1.222760   -3.908320
  C      4.631920    2.246370   -4.670960
  C      4.541690    2.143990   -5.987140
  N      5.084090    3.393580   -4.118550
  H      4.920670    3.570500   -3.135870
  H      5.254650    4.197390   -4.706960
  H      3.824530    0.449110   -4.350930
  H      4.343370    1.249320   -6.416650
  H      4.676710    2.956620   -6.574110
  C      5.942130    0.939500   -2.036890
  H      3.864310    0.328530   -2.136610
  H      4.076230    2.049990   -1.989010
  H      6.329820    0.064010   -2.514510
  H      5.983080    0.814260   -0.975040
  H      6.528650    1.788890   -2.318730

 Total Charge           Charge          ....    0
 Multiplicity           Mult            ....    1
 Number of Electrons    NEL             ....   48
 Basis Dimension        Dim             ....  246

ORBITAL ENERGIES
----------------

  NO   OCC          E(Eh)            E(eV)
   0   2.0000     -14.312913      -389.4742
   1   2.0000     -14.311069      -389.4240
   2   2.0000     -10.209979      -277.8276
   3   2.0000     -10.207980      -277.7732
   4   2.0000     -10.154287      -276.3122
   5   2.0000     -10.075908      -274.1794
   6   2.0000      -0.965448       -26.2712
   7   2.0000      -0.879762       -23.9395
   8   2.0000      -0.768659       -20.9163
   9   2.0000      -0.699880       -19.0447
  10   2.0000      -0.629204       -17.1215
  11   2.0000      -0.595704       -16.2099
  12   2.0000      -0.533430       -14.5154
  13   2.0000      -0.496057       -13.4984
  14   2.0000      -0.479302       -13.0425
  15   2.0000      -0.446430       -12.1480
  16   2.0000      -0.422290       -11.4911
  17   2.0000      -0.401274       -10.9192
  18   2.0000      -0.380699       -10.3593
  19   2.0000      -0.373890       -10.1741
  20   2.0000      -0.358839        -9.7645
  21   2.0000      -0.351895        -9.5755
  22   2.0000      -0.252737        -6.8773
  23   2.0000      -0.160028        -4.3546
  24   0.0000       0.020570         0.5598
  25   0.0000       0.045688         1.2432
  26   0.0000       0.058683         1.5968
  27   0.0000       0.072431         1.9709
  28   0.0000       0.090950         2.4749

MULLIKEN ATOMIC CHARGES
-----------------------
   0 C :   -0.147273
   1 N :   -0.296387
   2 C :    0.408216
   3 C :   -0.537142
   4 N :   -0.477352
   5 H :    0.214407
   6 H :    0.226076
   7 H :    0.212002
   8 H :    0.080670
   9 H :    0.075718
  10 C :   -0.248735
  11 H :    0.100437
  12 H :    0.090349
  13 H :    0.096043
  14 H :    0.095730
  15 H :    0.107242
Sum of atomic charges:    0.0000000

LOEWDIN ATOMIC CHARGES
----------------------
   0 C :   -0.313591
   1 N :    0.122496
   2 C :   -0.454929
   3 C :   -0.339990
   4 N :   -0.017673
   5 H :    0.158029
   6 H :    0.173203
   7 H :    0.193134
   8 H :    0.094775
   9 H :    0.094061
  10 C :   -0.299178
  11 H :    0.129888
  12 H :    0.118411
  13 H :    0.114727
  14 H :    0.112897
  15 H :    0.113740

  Mayer bond orders larger than 0.100000
B(  0-C ,  1-N ) :   0.9736 B(  0-C , 10-C ) :   0.9345 B(  0-C , 11-H ) :   0.9718
B(  0-C , 12-H ) :   0.9838 B(  1-N ,  2-C ) :   1.1917 B(  1-N ,  7-H ) :   0.9296
B(  2-C ,  3-C ) :   1.5876 B(  2-C ,  4-N ) :   1.1172 B(  3-C ,  8-H ) :   1.0160
B(  3-C ,  9-H ) :   1.0024 B(  4-N ,  5-H ) :   0.9202 B(  4-N ,  6-H ) :   0.9271
B( 10-C , 13-H ) :   0.9714 B( 10-C , 14-H ) :   0.9670 B( 10-C , 15-H ) :   0.9732

Dispersion correction           -0.021071742
FINAL SINGLE POINT ENERGY      -267.862675269267

DIPOLE MOMENT
-------------
                                X             Y             Z
Electronic contribution:     -1.42688       1.09408      -1.94196
Nuclear contribution   :      1.28075      -1.05140       2.98955
                        -----------------------------------------
Total Dipole Moment    :     -0.14613       0.04268       1.04759
                        -----------------------------------------
Magnitude (a.u.)       :      1.05860
Magnitude (Debye)      :      2.69074

Rotational constants in cm-1:     0.229858     0.078444     0.067377
Rotational constants in MHz :  6890.979812  2351.691803  2019.910665

                             ****ORCA TERMINATED NORMALLY****
TOTAL RUN TIME: 0 days 0 hours 0 minutes 27 seconds 98 msec
