                         Program Version 5.0.0 -  RELEASE  -
|  1> !B3LYP D3BJ RIJCOSX def2-TZVP def2/J TightSCF
|  2> *xyz 0 1
|  3> C          4.90646       -3.10282       -5.95484
|  4> C          3.51177       -2.80621       -6.49228
|  5> H          2.73604       -3.37345       -5.97374
|  6> H          3.44490       -3.04083       -7.55528
|  7> S          3.00462       -1.09621       -6.38926
|  8> O          4.12886       -0.32965       -6.95372
|  9> O          1.78128       -1.00078       -7.13640
| 10> F          2.85155       -0.78368       -4.95679
| 11> H          5.62703       -2.52424       -6.49422
| 12> H          5.12164       -4.14387       -6.07654
| 13> H          4.95004       -2.84862       -4.91639
| 14> *
| 15>
| 16> %MaxCore 64000
| 17>
| 18> %pal nprocs 4
| 19> end
| 20>
| 21> %scf
| 22>   MaxIter 150
| 23> end
| 24>
| 25>
| 26>                          ****END OF INPUT****

CARTESIAN COORDINATES (ANGSTROEM)
---------------------------------
  C      4.906460   -3.102820   -5.954840
  C      3.511770   -2.806210   -6.492280
  H      2.736040   -3.373450   -5.973740
  H      3.444900   -3.040830   -7.555280
  S      3.004620   -1.096210   -6.389260
  O      4.128860   -0.329650   -6.953720
  O      1.781280   -1.000780   -7.136400
  F      2.851550   -0.783680   -4.956790
  H      5.627030   -2.524240   -6.494220
  H      5.121640   -4.143870   -6.076540
  H      4.950040   -2.848620   -4.916390

 Total Charge           Charge          ....    0
 Multiplicity           Mult            ....    1
 Number of Electrons    NEL             ....   58
 Basis Dimension        Dim             ....  222

ORBITAL ENERGIES
----------------

  NO   OCC          E(Eh)            E(eV)
   0   2.0000     -89.095568     -2424.4137
   1   2.0000     -24.785928      -674.4594
   2   2.0000     -19.138376      -520.7817
   3   2.0000     -19.126548      -520.4598
   4   2.0000     -10.231738      -278.4197
   5   2.0000     -10.188332      -277.2386
   6   2.0000      -8.139369      -221.4835
   7   2.0000      -6.106264      -166.1599
   8   2.0000      -6.099781      -165.9835
   9   2.0000      -6.099426      -165.9738
  10   2.0000      -1.357679       -36.9443
  11   2.0000      -1.107948       -30.1488
  12   2.0000      -1.012068       -27.5398
  13   2.0000      -0.825658       -22.4673
  14   2.0000      -0.725146       -19.7322
  15   2.0000      -0.675177       -18.3725
  16   2.0000      -0.581214       -15.8156
  17   2.0000      -0.567215       -15.4347
  18   2.0000      -0.547180       -14.8895
  19   2.0000      -0.495509       -13.4835
  20   2.0000      -0.479243       -13.0409
  21   2.0000      -0.454614       -12.3707
  22   2.0000      -0.433853       -11.8057
  23   2.0000      -0.409038       -11.1305
  24   2.0000      -0.401651       -10.9295
  25   2.0000      -0.379537       -10.3277
  26   2.0000      -0.338000        -9.1974
  27   2.0000      -0.327315        -8.9067
  28   2.0000      -0.312502        -8.5036
  29   0.0000       0.010634         0.2894
  30   0.0000       0.040265         1.0957
  31   0.0000       0.058713         1.5977
  32   0.0000       0.070080         1.9070
  33   0.0000       0.078622         2.1394

MULLIKEN ATOMIC CHARGES
-----------------------
   0 C :   -0.321739
   1 C :   -0.219932
   2 H :    0.128367
   3 H :    0.149131
   4 S :    0.874903
   5 O :   -0.452413
   6 O :   -0.407998
   7 F :   -0.130795
   8 H :    0.145575
   9 H :    0.120799
  10 H :    0.114102
Sum of atomic charges:    0.0000000

LOEWDIN ATOMIC CHARGES
----------------------
   0 C :   -0.307361
   1 C :   -0.390972
   2 H :    0.135409
   3 H :    0.149948
   4 S :    0.550954
   5 O :   -0.302702
   6 O :   -0.259650
   7 F :    0.056392
   8 H :    0.126249
   9 H :    0.122909
  10 H :    0.118824

  Mayer bond orders larger than 0.100000
B(  0-C ,  1-C ) :   0.9522 B(  0-C ,  8-H ) :   0.9668 B(  0-C ,  9-H ) :   0.9609
B(  0-C , 10-H ) :   0.9715 B(  1-C ,  2-H ) :   0.9431 B(  1-C ,  3-H ) :   0.9410
B(  1-C ,  4-S ) :   0.9066 B(  4-S ,  5-O ) :   1.8731 B(  4-S ,  6-O ) :   1.9510
B(  4-S ,  7-F ) :   1.0943

Dispersion correction           -0.015923725
FINAL SINGLE POINT ENERGY      -727.651687347190

DIPOLE MOMENT
-------------
                                X             Y             Z
Electronic contribution:     -5.16710       7.44905       1.64247
Nuclear contribution   :      5.52019      -8.89046      -0.84835
                        -----------------------------------------
Total Dipole Moment    :      0.35309      -1.44140       0.79412
                        -----------------------------------------
Magnitude (a.u.)       :      1.68313
Magnitude (Debye)      :      4.27818

Rotational constants in cm-1:     0.153332     0.082132     0.079755
Rotational constants in MHz :  4596.775407  2462.251277  2391.008596

                             ****ORCA TERMINATED NORMALLY****
TOTAL RUN TIME: 0 days 0 hours 0 minutes 19 seconds 581 msec
