                         Program Version 5.0.0 -  RELEASE  -
|  1> !B3LYP D3BJ RIJCOSX def2-TZVP def2/J TightSCF
|  2> *xyz 0 1
|  3> C          4.49059        1.15590       -2.46929
|  4> N          4.30539        1.22276       -3.90832
|  5> C          4.63192        2.24637       -4.67096
|  6> N          4.54169        2.14399       -5.98714
|  7> C          5.08409        3.39358       -4.11855
|  8> H          4.92067        3.57050       -3.13587
|  9> H          5.25465        4.19739       -4.70696
| 10> H          3.82453        0.44911       -4.35093
| 11> H          4.34337        1.24932       -6.41665
| 12> H          4.67671        2.95662       -6.57411
| 13> C          5.94213        0.93950       -2.03689
| 14> H          3.86431        0.32853       -2.13661
| 15> H          4.07623        2.04999       -1.98901
| 16> H          6.32982        0.06401       -2.51451
| 17> H          5.98308        0.81426       -0.97504
| 18> H          6.52865        1.78889       -2.31873
| 19> *
| 20>
| 21> %MaxCore 64000
| 22>
| 23> %pal nprocs 4
| 24> end
| 25>
| 26> %scf
| 27>   MaxIter 150
| 28> end
| 29>
| 30>
| 31>                          ****END OF INPUT****

CARTESIAN COORDINATES (ANGSTROEM)
---------------------------------
  C      4.490590    1.155900   -2.469290
  N      4.305390    1.222760   -3.908320
  C      4.631920    2.246370   -4.670960
  N      4.541690    2.143990   -5.987140
  C      5.084090    3.393580   -4.118550
  H      4.920670    3.570500   -3.135870
  H      5.254650    4.197390   -4.706960
  H      3.824530    0.449110   -4.350930
  H      4.343370    1.249320   -6.416650
  H      4.676710    2.956620   -6.574110
  C      5.942130    0.939500   -2.036890
  H      3.864310    0.328530   -2.136610
  H      4.076230    2.049990   -1.989010
  H      6.329820    0.064010   -2.514510
  H      5.983080    0.814260   -0.975040
  H      6.528650    1.788890   -2.318730

 Total Charge           Charge          ....    0
 Multiplicity           Mult            ....    1
 Number of Electrons    NEL             ....   48
 Basis Dimension        Dim             ....  246

ORBITAL ENERGIES
----------------

  NO   OCC          E(Eh)            E(eV)
   0   2.0000     -14.316289      -389.5660
   1   2.0000     -14.313186      -389.4816
   2   2.0000     -10.212343      -277.8920
   3   2.0000     -10.199494      -277.5423
   4   2.0000     -10.143822      -276.0274
   5   2.0000     -10.075738      -274.1748
   6   2.0000      -0.969153       -26.3720
   7   2.0000      -0.886300       -24.1174
   8   2.0000      -0.749855       -20.4046
   9   2.0000      -0.703939       -19.1552
  10   2.0000      -0.637851       -17.3568
  11   2.0000      -0.560693       -15.2572
  12   2.0000      -0.550267       -14.9735
  13   2.0000      -0.519948       -14.1485
  14   2.0000      -0.467966       -12.7340
  15   2.0000      -0.437438       -11.9033
  16   2.0000      -0.410407       -11.1677
  17   2.0000      -0.394291       -10.7292
  18   2.0000      -0.379697       -10.3321
  19   2.0000      -0.363507        -9.8915
  20   2.0000      -0.358594        -9.7578
  21   2.0000      -0.344696        -9.3796
  22   2.0000      -0.248492        -6.7618
  23   2.0000      -0.160505        -4.3676
  24   0.0000       0.019752         0.5375
  25   0.0000       0.048163         1.3106
  26   0.0000       0.060461         1.6452
  27   0.0000       0.074646         2.0312
  28   0.0000       0.089917         2.4468

MULLIKEN ATOMIC CHARGES
-----------------------
   0 C :   -0.094560
   1 N :   -0.307600
   2 C :    0.375142
   3 N :   -0.458159
   4 C :   -0.524730
   5 H :    0.087651
   6 H :    0.063553
   7 H :    0.183221
   8 H :    0.204531
   9 H :    0.235805
  10 C :   -0.274366
  11 H :    0.092405
  12 H :    0.101569
  13 H :    0.083072
  14 H :    0.096368
  15 H :    0.136099
Sum of atomic charges:    0.0000000

LOEWDIN ATOMIC CHARGES
----------------------
   0 C :   -0.296263
   1 N :    0.119751
   2 C :   -0.463456
   3 N :   -0.005242
   4 C :   -0.354831
   5 H :    0.095275
   6 H :    0.090537
   7 H :    0.175859
   8 H :    0.159025
   9 H :    0.177221
  10 C :   -0.297083
  11 H :    0.126460
  12 H :    0.127247
  13 H :    0.110791
  14 H :    0.113296
  15 H :    0.121411

  Mayer bond orders larger than 0.100000
B(  0-C ,  1-N ) :   0.9639 B(  0-C , 10-C ) :   0.9518 B(  0-C , 11-H ) :   0.9694
B(  0-C , 12-H ) :   0.9749 B(  1-N ,  2-C ) :   1.1766 B(  1-N ,  7-H ) :   0.9325
B(  2-C ,  3-N ) :   1.1365 B(  2-C ,  4-C ) :   1.6037 B(  3-N ,  8-H ) :   0.9279
B(  3-N ,  9-H ) :   0.9217 B(  4-C ,  5-H ) :   0.9975 B(  4-C ,  6-H ) :   1.0014
B( 10-C , 13-H ) :   0.9724 B( 10-C , 14-H ) :   0.9706 B( 10-C , 15-H ) :   0.9740

Dispersion correction           -0.021235232
FINAL SINGLE POINT ENERGY      -267.861550264265

DIPOLE MOMENT
-------------
                                X             Y             Z
Electronic contribution:     -1.91674      -0.17161      -3.88927
Nuclear contribution   :      1.39581      -0.78630       3.38596
                        -----------------------------------------
Total Dipole Moment    :     -0.52093      -0.95791      -0.50331
                        -----------------------------------------
Magnitude (a.u.)       :      1.20095
Magnitude (Debye)      :      3.05257

Rotational constants in cm-1:     0.239249     0.075811     0.066261
Rotational constants in MHz :  7172.504830  2272.756282  1986.457543

                             ****ORCA TERMINATED NORMALLY****
TOTAL RUN TIME: 0 days 0 hours 0 minutes 27 seconds 105 msec
