                         Program Version 5.0.0 -  RELEASE  -
|  1> !B3LYP D3BJ RIJCOSX def2-TZVP def2/J TightSCF xyzfile
|  2>
|  3> *xyzfile 0 1 D2.xyz
|  4>
|  5> %MaxCore 64000
|  6>
|  7> %pal nprocs 18
|  8> end
|  9>
| 10> %scf
| 11>   MaxIter 150
| 12> end
| 13>
| 14>
| 15>                          ****END OF INPUT****

CARTESIAN COORDINATES (ANGSTROEM)
---------------------------------
  C      4.490588    1.155899   -2.469290
  N      4.305394    1.222762   -3.908317
  C      4.906458   -3.102816   -5.954844
  C      3.511771   -2.806215   -6.492283
  H      2.736044   -3.373445   -5.973736
  H      3.444904   -3.040831   -7.555281
  S      3.004618   -1.096206   -6.389259
  C      4.631918    2.246365   -4.670958
  C      4.541686    2.143990   -5.987139
  N      5.084086    3.393584   -4.118545
  H      4.920675    3.570501   -3.135870
  H      5.254652    4.197390   -4.706956
  H      3.824530    0.449113   -4.350926
  H      4.343373    1.249318   -6.416646
  H      4.676712    2.956624   -6.574113
  F      4.128856   -0.329647   -6.953717
  O      1.781285   -1.000779   -7.136399
  C      5.942129    0.939500   -2.036893
  H      3.864305    0.328532   -2.136611
  H      4.076233    2.049994   -1.989010
  C      6.462677   -3.117775   -3.944671
  C      5.024977   -3.025679   -4.437625
  H      4.423321   -3.818693   -3.977648
  H      4.579350   -2.087131   -4.108727
  H      5.201533   -4.100207   -6.296905
  H      5.605922   -2.397822   -6.413368
  C      6.559957   -0.356290   -2.559086
  H      5.967976    0.952567   -0.942444
  H      6.547184    1.788331   -2.368849
  C      6.006283   -1.615917   -1.899301
  H      7.642360   -0.318000   -2.402059
  H      6.414855   -0.403433   -3.642587
  C      6.608718   -2.917014   -2.435655
  H      6.190324   -1.561115   -0.820948
  H      4.919250   -1.651245   -2.016586
  H      7.066975   -2.374258   -4.475514
  H      6.887808   -4.089747   -4.215332
  H      6.135197   -3.755573   -1.915159
  H      7.671142   -2.955503   -2.172291
  O      2.851546   -0.783683   -4.956789

 Total Charge           Charge          ....    0
 Multiplicity           Mult            ....    1
 Number of Electrons    NEL             ....  144
 Basis Dimension        Dim             ....  671

ORBITAL ENERGIES
----------------

  NO   OCC          E(Eh)            E(eV)
   0   2.0000     -89.107564     -2424.7401
   1   2.0000     -24.791883      -674.6214
   2   2.0000     -19.146584      -521.0050
   3   2.0000     -19.144306      -520.9430
   4   2.0000     -14.299084      -389.0979
   5   2.0000     -14.284225      -388.6935
   6   2.0000     -10.234459      -278.4938
   7   2.0000     -10.200175      -277.5609
   8   2.0000     -10.196315      -277.4558
   9   2.0000     -10.190727      -277.3038
  10   2.0000     -10.173637      -276.8387
  11   2.0000     -10.169199      -276.7180
  12   2.0000     -10.165064      -276.6055
  13   2.0000     -10.160078      -276.4698
  14   2.0000     -10.156238      -276.3653
  15   2.0000     -10.155881      -276.3556
  16   2.0000     -10.060058      -273.7481
  17   2.0000      -8.151462      -221.8125
  18   2.0000      -6.118292      -166.4872
  19   2.0000      -6.111983      -166.3155
  20   2.0000      -6.111467      -166.3015
  21   2.0000      -1.368376       -37.2354
  22   2.0000      -1.120852       -30.4999
  23   2.0000      -1.028983       -28.0001
  24   2.0000      -0.948385       -25.8069
  25   2.0000      -0.865084       -23.5401
  26   2.0000      -0.846017       -23.0213
  27   2.0000      -0.812029       -22.0964
  28   2.0000      -0.783007       -21.3067
  29   2.0000      -0.748842       -20.3770
  30   2.0000      -0.727124       -19.7860
  31   2.0000      -0.700621       -19.0649
  32   2.0000      -0.678088       -18.4517
  33   2.0000      -0.646993       -17.6056
  34   2.0000      -0.623598       -16.9690
  35   2.0000      -0.600654       -16.3446
  36   2.0000      -0.590924       -16.0799
  37   2.0000      -0.582533       -15.8515
  38   2.0000      -0.578833       -15.7508
  39   2.0000      -0.557322       -15.1655
  40   2.0000      -0.553448       -15.0601
  41   2.0000      -0.516134       -14.0447
  42   2.0000      -0.500674       -13.6240
  43   2.0000      -0.490604       -13.3500
  44   2.0000      -0.481850       -13.1118
  45   2.0000      -0.479008       -13.0345
  46   2.0000      -0.466753       -12.7010
  47   2.0000      -0.464702       -12.6452
  48   2.0000      -0.457977       -12.4622
  49   2.0000      -0.442093       -12.0300
  50   2.0000      -0.435619       -11.8538
  51   2.0000      -0.431423       -11.7396
  52   2.0000      -0.420497       -11.4423
  53   2.0000      -0.399477       -10.8703
  54   2.0000      -0.393818       -10.7163
  55   2.0000      -0.392263       -10.6740
  56   2.0000      -0.382496       -10.4082
  57   2.0000      -0.372578       -10.1384
  58   2.0000      -0.368805       -10.0357
  59   2.0000      -0.362727        -9.8703
  60   2.0000      -0.357252        -9.7213
  61   2.0000      -0.350879        -9.5479
  62   2.0000      -0.344707        -9.3800
  63   2.0000      -0.340227        -9.2581
  64   2.0000      -0.333965        -9.0876
  65   2.0000      -0.327595        -8.9143
  66   2.0000      -0.324720        -8.8361
  67   2.0000      -0.315263        -8.5787
  68   2.0000      -0.313546        -8.5320
  69   2.0000      -0.309129        -8.4118
  70   2.0000      -0.236347        -6.4313
  71   2.0000      -0.147698        -4.0191
  72   0.0000       0.004999         0.1360
  73   0.0000       0.031147         0.8476
  74   0.0000       0.033337         0.9071
  75   0.0000       0.041447         1.1278
  76   0.0000       0.042577         1.1586

MULLIKEN ATOMIC CHARGES
-----------------------
   0 C :   -0.218367
   1 N :   -0.290013
   2 C :   -0.189498
   3 C :   -0.206559
   4 H :    0.147224
   5 H :    0.152606
   6 S :    0.902271
   7 C :    0.415506
   8 C :   -0.587584
   9 N :   -0.482244
  10 H :    0.213626
  11 H :    0.220685
  12 H :    0.224854
  13 H :    0.092131
  14 H :    0.072384
  15 F :   -0.117019
  16 O :   -0.400391
  17 C :   -0.061745
  18 H :    0.121308
  19 H :    0.100790
  20 C :   -0.176477
  21 C :   -0.262921
  22 H :    0.084940
  23 H :    0.135573
  24 H :    0.109591
  25 H :    0.117488
  26 C :   -0.207564
  27 H :    0.067465
  28 H :    0.095309
  29 C :   -0.217615
  30 H :    0.085166
  31 H :    0.106960
  32 C :   -0.123019
  33 H :    0.086314
  34 H :    0.101470
  35 H :    0.102803
  36 H :    0.088408
  37 H :    0.084682
  38 H :    0.088550
  39 O :   -0.477085
Sum of atomic charges:   -0.0000000

LOEWDIN ATOMIC CHARGES
----------------------
   0 C :   -0.291531
   1 N :    0.124030
   2 C :   -0.280124
   3 C :   -0.356077
   4 H :    0.151610
   5 H :    0.143209
   6 S :    0.577505
   7 C :   -0.457835
   8 C :   -0.366855
   9 N :   -0.018899
  10 H :    0.157136
  11 H :    0.170255
  12 H :    0.162833
  13 H :    0.080020
  14 H :    0.091428
  15 F :    0.087087
  16 O :   -0.245524
  17 C :   -0.266850
  18 H :    0.132920
  19 H :    0.120392
  20 C :   -0.265123
  21 C :   -0.268893
  22 H :    0.135491
  23 H :    0.137976
  24 H :    0.143510
  25 H :    0.139994
  26 C :   -0.263393
  27 H :    0.131701
  28 H :    0.133673
  29 C :   -0.266423
  30 H :    0.133954
  31 H :    0.135851
  32 C :   -0.261275
  33 H :    0.133601
  34 H :    0.130611
  35 H :    0.134541
  36 H :    0.132646
  37 H :    0.133348
  38 H :    0.134465
  39 O :   -0.280986

  Mayer bond orders larger than 0.100000
B(  0-C ,  1-N ) :   0.9570 B(  0-C , 17-C ) :   0.9192 B(  0-C , 18-H ) :   0.9855
B(  0-C , 19-H ) :   0.9855 B(  1-N ,  7-C ) :   1.2059 B(  1-N , 12-H ) :   0.8768
B(  2-C ,  3-C ) :   0.9476 B(  2-C , 21-C ) :   0.9507 B(  2-C , 24-H ) :   0.9544
B(  2-C , 25-H ) :   0.9746 B(  3-C ,  4-H ) :   0.9436 B(  3-C ,  5-H ) :   0.9543
B(  3-C ,  6-S ) :   0.9125 B(  6-S , 15-F ) :   1.0893 B(  6-S , 16-O ) :   1.9790
B(  6-S , 39-O ) :   1.7437 B(  7-C ,  8-C ) :   1.5528 B(  7-C ,  9-N ) :   1.1178
B(  8-C , 13-H ) :   1.0327 B(  8-C , 14-H ) :   0.9960 B(  9-N , 10-H ) :   0.9212
B(  9-N , 11-H ) :   0.9284 B( 17-C , 26-C ) :   0.9683 B( 17-C , 27-H ) :   0.9612
B( 17-C , 28-H ) :   0.9616 B( 20-C , 21-C ) :   0.9619 B( 20-C , 32-C ) :   0.9723
B( 20-C , 35-H ) :   0.9757 B( 20-C , 36-H ) :   0.9676 B( 21-C , 22-H ) :   0.9618
B( 21-C , 23-H ) :   0.9734 B( 26-C , 29-C ) :   0.9582 B( 26-C , 30-H ) :   0.9661
B( 26-C , 31-H ) :   0.9697 B( 29-C , 32-C ) :   0.9662 B( 29-C , 33-H ) :   0.9634
B( 29-C , 34-H ) :   0.9816 B( 32-C , 37-H ) :   0.9739 B( 32-C , 38-H ) :   0.9702

Dispersion correction           -0.079177476
FINAL SINGLE POINT ENERGY     -1190.824870239261

DIPOLE MOMENT
-------------
                                X             Y             Z
Electronic contribution:    -16.39579       3.99047     -19.62368
Nuclear contribution   :     17.27667      -5.32157      20.03034
                        -----------------------------------------
Total Dipole Moment    :      0.88088      -1.33109       0.40666
                        -----------------------------------------
Magnitude (a.u.)       :      1.64716
Magnitude (Debye)      :      4.18674

Rotational constants in cm-1:     0.014355     0.012269     0.007481
Rotational constants in MHz :   430.360270   367.823451   224.273399

                             ****ORCA TERMINATED NORMALLY****
TOTAL RUN TIME: 0 days 0 hours 1 minutes 41 seconds 36 msec
