                         Program Version 5.0.0 -  RELEASE  -
|  1> !B3LYP D3BJ RIJCOSX def2-TZVP def2/J TightSCF xyzfile
|  2>
|  3> *xyzfile 0 1 D3.xyz
|  4>
|  5> %MaxCore 64000
|  6>
|  7> %pal nprocs 18
|  8> end
|  9>
| 10> %scf
| 11>   MaxIter 150
| 12> end
| 13>
| 14>
| 15>                          ****END OF INPUT****

CARTESIAN COORDINATES (ANGSTROEM)
---------------------------------
  C      4.490588    1.155899   -2.469290
  N      4.305394    1.222762   -3.908317
  C      4.906458   -3.102816   -5.954844
  C      3.511771   -2.806215   -6.492283
  H      2.736044   -3.373445   -5.973736
  H      3.444904   -3.040831   -7.555281
  S      3.004618   -1.096206   -6.389259
  C      4.631918    2.246365   -4.670958
  N      4.541686    2.143990   -5.987139
  C      5.084086    3.393584   -4.118545
  H      4.920675    3.570501   -3.135870
  H      5.254652    4.197390   -4.706956
  H      3.824530    0.449113   -4.350926
  H      4.343373    1.249318   -6.416646
  H      4.676712    2.956624   -6.574113
  F      4.128856   -0.329647   -6.953717
  O      1.781285   -1.000779   -7.136399
  C      5.942129    0.939500   -2.036893
  H      3.864305    0.328532   -2.136611
  H      4.076233    2.049994   -1.989010
  C      6.462677   -3.117775   -3.944671
  C      5.024977   -3.025679   -4.437625
  H      4.423321   -3.818693   -3.977648
  H      4.579350   -2.087131   -4.108727
  H      5.201533   -4.100207   -6.296905
  H      5.605922   -2.397822   -6.413368
  C      6.559957   -0.356290   -2.559086
  H      5.967976    0.952567   -0.942444
  H      6.547184    1.788331   -2.368849
  C      6.006283   -1.615917   -1.899301
  H      7.642360   -0.318000   -2.402059
  H      6.414855   -0.403433   -3.642587
  C      6.608718   -2.917014   -2.435655
  H      6.190324   -1.561115   -0.820948
  H      4.919250   -1.651245   -2.016586
  H      7.066975   -2.374258   -4.475514
  H      6.887808   -4.089747   -4.215332
  H      6.135197   -3.755573   -1.915159
  H      7.671142   -2.955503   -2.172291
  O      2.851546   -0.783683   -4.956789

 Total Charge           Charge          ....    0
 Multiplicity           Mult            ....    1
 Number of Electrons    NEL             ....  144
 Basis Dimension        Dim             ....  671

ORBITAL ENERGIES
----------------

  NO   OCC          E(Eh)            E(eV)
   0   2.0000     -89.123757     -2425.1807
   1   2.0000     -24.821218      -675.4197
   2   2.0000     -19.163230      -521.4580
   3   2.0000     -19.159478      -521.3559
   4   2.0000     -14.297437      -389.0531
   5   2.0000     -14.285817      -388.7368
   6   2.0000     -10.246875      -278.8316
   7   2.0000     -10.209058      -277.8026
   8   2.0000     -10.195846      -277.4431
   9   2.0000     -10.182177      -277.0711
  10   2.0000     -10.179204      -276.9902
  11   2.0000     -10.172303      -276.8024
  12   2.0000     -10.165417      -276.6151
  13   2.0000     -10.157969      -276.4124
  14   2.0000     -10.151879      -276.2467
  15   2.0000     -10.145833      -276.0822
  16   2.0000     -10.061455      -273.7861
  17   2.0000      -8.168049      -222.2639
  18   2.0000      -6.135126      -166.9453
  19   2.0000      -6.128359      -166.7611
  20   2.0000      -6.127830      -166.7467
  21   2.0000      -1.396595       -38.0033
  22   2.0000      -1.137635       -30.9566
  23   2.0000      -1.044587       -28.4247
  24   2.0000      -0.951324       -25.8868
  25   2.0000      -0.870876       -23.6977
  26   2.0000      -0.856241       -23.2995
  27   2.0000      -0.814573       -22.1656
  28   2.0000      -0.781568       -21.2675
  29   2.0000      -0.756759       -20.5925
  30   2.0000      -0.728434       -19.8217
  31   2.0000      -0.698998       -19.0207
  32   2.0000      -0.686778       -18.6882
  33   2.0000      -0.656857       -17.8740
  34   2.0000      -0.630631       -17.1603
  35   2.0000      -0.618214       -16.8225
  36   2.0000      -0.608575       -16.5602
  37   2.0000      -0.593256       -16.1433
  38   2.0000      -0.580681       -15.8011
  39   2.0000      -0.561202       -15.2711
  40   2.0000      -0.539815       -14.6891
  41   2.0000      -0.526202       -14.3187
  42   2.0000      -0.517740       -14.0884
  43   2.0000      -0.502537       -13.6747
  44   2.0000      -0.495878       -13.4935
  45   2.0000      -0.482337       -13.1251
  46   2.0000      -0.474872       -12.9219
  47   2.0000      -0.466243       -12.6871
  48   2.0000      -0.456460       -12.4209
  49   2.0000      -0.445261       -12.1162
  50   2.0000      -0.436179       -11.8690
  51   2.0000      -0.432094       -11.7579
  52   2.0000      -0.420517       -11.4429
  53   2.0000      -0.409087       -11.1318
  54   2.0000      -0.395081       -10.7507
  55   2.0000      -0.390027       -10.6132
  56   2.0000      -0.385845       -10.4994
  57   2.0000      -0.377951       -10.2846
  58   2.0000      -0.368702       -10.0329
  59   2.0000      -0.366735        -9.9794
  60   2.0000      -0.360064        -9.7978
  61   2.0000      -0.351803        -9.5730
  62   2.0000      -0.350879        -9.5479
  63   2.0000      -0.345012        -9.3883
  64   2.0000      -0.336689        -9.1618
  65   2.0000      -0.333315        -9.0700
  66   2.0000      -0.329987        -8.9794
  67   2.0000      -0.314083        -8.5466
  68   2.0000      -0.313026        -8.5179
  69   2.0000      -0.303899        -8.2695
  70   2.0000      -0.231107        -6.2887
  71   2.0000      -0.145977        -3.9722
  72   0.0000      -0.012164        -0.3310
  73   0.0000       0.020382         0.5546
  74   0.0000       0.034283         0.9329
  75   0.0000       0.035852         0.9756
  76   0.0000       0.037635         1.0241

MULLIKEN ATOMIC CHARGES
-----------------------
   0 C :   -0.161038
   1 N :   -0.302668
   2 C :   -0.194581
   3 C :   -0.201425
   4 H :    0.153681
   5 H :    0.155692
   6 S :    0.885642
   7 C :    0.368419
   8 N :   -0.482051
   9 C :   -0.537441
  10 H :    0.087462
  11 H :    0.058092
  12 H :    0.199385
  13 H :    0.209218
  14 H :    0.228579
  15 F :   -0.143792
  16 O :   -0.390792
  17 C :   -0.075129
  18 H :    0.113347
  19 H :    0.107747
  20 C :   -0.174361
  21 C :   -0.265642
  22 H :    0.087624
  23 H :    0.137458
  24 H :    0.114222
  25 H :    0.114047
  26 C :   -0.201244
  27 H :    0.068696
  28 H :    0.116277
  29 C :   -0.219481
  30 H :    0.085080
  31 H :    0.087273
  32 C :   -0.123528
  33 H :    0.087275
  34 H :    0.100279
  35 H :    0.101507
  36 H :    0.089012
  37 H :    0.084365
  38 H :    0.089443
  39 O :   -0.456652
Sum of atomic charges:   -0.0000000

LOEWDIN ATOMIC CHARGES
----------------------
   0 C :   -0.273853
   1 N :    0.119742
   2 C :   -0.280119
   3 C :   -0.353839
   4 H :    0.154158
   5 H :    0.144057
   6 S :    0.568968
   7 C :   -0.467499
   8 N :   -0.017424
   9 C :   -0.363685
  10 H :    0.094244
  11 H :    0.087701
  12 H :    0.152277
  13 H :    0.135544
  14 H :    0.173901
  15 F :    0.073136
  16 O :   -0.240090
  17 C :   -0.261462
  18 H :    0.129228
  19 H :    0.129259
  20 C :   -0.265091
  21 C :   -0.269026
  22 H :    0.136293
  23 H :    0.138280
  24 H :    0.145071
  25 H :    0.138514
  26 C :   -0.264824
  27 H :    0.132418
  28 H :    0.141909
  29 C :   -0.266780
  30 H :    0.133638
  31 H :    0.130504
  32 C :   -0.261405
  33 H :    0.134226
  34 H :    0.129846
  35 H :    0.134230
  36 H :    0.132648
  37 H :    0.133063
  38 H :    0.134900
  39 O :   -0.272656

  Mayer bond orders larger than 0.100000
B(  0-C ,  1-N ) :   0.9538 B(  0-C , 17-C ) :   0.9465 B(  0-C , 18-H ) :   0.9849
B(  0-C , 19-H ) :   0.9700 B(  1-N ,  7-C ) :   1.1861 B(  1-N , 12-H ) :   0.8825
B(  2-C ,  3-C ) :   0.9462 B(  2-C , 21-C ) :   0.9450 B(  2-C , 24-H ) :   0.9538
B(  2-C , 25-H ) :   0.9772 B(  3-C ,  4-H ) :   0.9410 B(  3-C ,  5-H ) :   0.9533
B(  3-C ,  6-S ) :   0.9093 B(  6-S , 15-F ) :   1.0479 B(  6-S , 16-O ) :   1.9850
B(  6-S , 39-O ) :   1.7667 B(  7-C ,  8-N ) :   1.1300 B(  7-C ,  9-C ) :   1.6108
B(  8-N , 13-H ) :   0.9096 B(  8-N , 14-H ) :   0.9245 B(  9-C , 10-H ) :   1.0016
B(  9-C , 11-H ) :   0.9993 B( 17-C , 26-C ) :   0.9752 B( 17-C , 27-H ) :   0.9679
B( 17-C , 28-H ) :   0.9556 B( 20-C , 21-C ) :   0.9625 B( 20-C , 32-C ) :   0.9733
B( 20-C , 35-H ) :   0.9748 B( 20-C , 36-H ) :   0.9676 B( 21-C , 22-H ) :   0.9615
B( 21-C , 23-H ) :   0.9744 B( 26-C , 29-C ) :   0.9564 B( 26-C , 30-H ) :   0.9670
B( 26-C , 31-H ) :   0.9674 B( 29-C , 32-C ) :   0.9636 B( 29-C , 33-H ) :   0.9640
B( 29-C , 34-H ) :   0.9823 B( 32-C , 37-H ) :   0.9741 B( 32-C , 38-H ) :   0.9699

Dispersion correction           -0.079070962
FINAL SINGLE POINT ENERGY     -1190.826270430911

DIPOLE MOMENT
-------------
                                X             Y             Z
Electronic contribution:    -16.90897       2.68526     -21.37516
Nuclear contribution   :     17.35766      -5.13497      20.30937
                        -----------------------------------------
Total Dipole Moment    :      0.44869      -2.44971      -1.06579
                        -----------------------------------------
Magnitude (a.u.)       :      2.70894
Magnitude (Debye)      :      6.88557

Rotational constants in cm-1:     0.014431     0.012329     0.007535
Rotational constants in MHz :   432.628327   369.619539   225.898827

                             ****ORCA TERMINATED NORMALLY****
TOTAL RUN TIME: 0 days 0 hours 1 minutes 45 seconds 627 msec
