                         Program Version 5.0.0 -  RELEASE  -
|  1> !B3LYP D3BJ RIJCOSX def2-TZVP def2/J TightSCF xyzfile
|  2>
|  3> *xyzfile 0 1 D4.xyz
|  4>
|  5> %MaxCore 64000
|  6>
|  7> %pal nprocs 18
|  8> end
|  9>
| 10> %scf
| 11>   MaxIter 150
| 12> end
| 13>
| 14>
| 15>                          ****END OF INPUT****

CARTESIAN COORDINATES (ANGSTROEM)
---------------------------------
  C      4.490588    1.155899   -2.469290
  C      4.305394    1.222762   -3.908317
  C      4.906458   -3.102816   -5.954844
  C      3.511771   -2.806215   -6.492283
  H      2.736044   -3.373445   -5.973736
  H      3.444904   -3.040831   -7.555281
  S      3.004618   -1.096206   -6.389259
  C      4.631918    2.246365   -4.670958
  N      4.541686    2.143990   -5.987139
  N      5.084086    3.393584   -4.118545
  H      4.920675    3.570501   -3.135870
  H      5.254652    4.197390   -4.706956
  H      3.824530    0.449113   -4.350926
  H      4.343373    1.249318   -6.416646
  H      4.676712    2.956624   -6.574113
  O      4.128856   -0.329647   -6.953717
  F      1.781285   -1.000779   -7.136399
  C      5.942129    0.939500   -2.036893
  H      3.864305    0.328532   -2.136611
  H      4.076233    2.049994   -1.989010
  C      6.462677   -3.117775   -3.944671
  C      5.024977   -3.025679   -4.437625
  H      4.423321   -3.818693   -3.977648
  H      4.579350   -2.087131   -4.108727
  H      5.201533   -4.100207   -6.296905
  H      5.605922   -2.397822   -6.413368
  C      6.559957   -0.356290   -2.559086
  H      5.967976    0.952567   -0.942444
  H      6.547184    1.788331   -2.368849
  C      6.006283   -1.615917   -1.899301
  H      7.642360   -0.318000   -2.402059
  H      6.414855   -0.403433   -3.642587
  C      6.608718   -2.917014   -2.435655
  H      6.190324   -1.561115   -0.820948
  H      4.919250   -1.651245   -2.016586
  H      7.066975   -2.374258   -4.475514
  H      6.887808   -4.089747   -4.215332
  H      6.135197   -3.755573   -1.915159
  H      7.671142   -2.955503   -2.172291
  O      2.851546   -0.783683   -4.956789

 Total Charge           Charge          ....    0
 Multiplicity           Mult            ....    1
 Number of Electrons    NEL             ....  144
 Basis Dimension        Dim             ....  671

ORBITAL ENERGIES
----------------

  NO   OCC          E(Eh)            E(eV)
   0   2.0000     -89.112528     -2424.8752
   1   2.0000     -24.816149      -675.2817
   2   2.0000     -19.147487      -521.0296
   3   2.0000     -19.138126      -520.7749
   4   2.0000     -14.288451      -388.8085
   5   2.0000     -14.268770      -388.2730
   6   2.0000     -10.236327      -278.5446
   7   2.0000     -10.194615      -277.4096
   8   2.0000     -10.177624      -276.9472
   9   2.0000     -10.162642      -276.5396
  10   2.0000     -10.157163      -276.3905
  11   2.0000     -10.150777      -276.2167
  12   2.0000     -10.140524      -275.9377
  13   2.0000     -10.131290      -275.6864
  14   2.0000     -10.125432      -275.5270
  15   2.0000     -10.117841      -275.3205
  16   2.0000     -10.045609      -273.3549
  17   2.0000      -8.156548      -221.9510
  18   2.0000      -6.123264      -166.6225
  19   2.0000      -6.117002      -166.4521
  20   2.0000      -6.116570      -166.4403
  21   2.0000      -1.400600       -38.1123
  22   2.0000      -1.114811       -30.3356
  23   2.0000      -1.018672       -27.7195
  24   2.0000      -0.927054       -25.2264
  25   2.0000      -0.842204       -22.9175
  26   2.0000      -0.837305       -22.7842
  27   2.0000      -0.800408       -21.7802
  28   2.0000      -0.771655       -20.9978
  29   2.0000      -0.752034       -20.4639
  30   2.0000      -0.723111       -19.6768
  31   2.0000      -0.696026       -18.9398
  32   2.0000      -0.662782       -18.0352
  33   2.0000      -0.634264       -17.2592
  34   2.0000      -0.611616       -16.6429
  35   2.0000      -0.603979       -16.4351
  36   2.0000      -0.590262       -16.0618
  37   2.0000      -0.582946       -15.8628
  38   2.0000      -0.567693       -15.4477
  39   2.0000      -0.548199       -14.9173
  40   2.0000      -0.532748       -14.4968
  41   2.0000      -0.515602       -14.0302
  42   2.0000      -0.500876       -13.6295
  43   2.0000      -0.494906       -13.4671
  44   2.0000      -0.477399       -12.9907
  45   2.0000      -0.465809       -12.6753
  46   2.0000      -0.464089       -12.6285
  47   2.0000      -0.449852       -12.2411
  48   2.0000      -0.443454       -12.0670
  49   2.0000      -0.430300       -11.7090
  50   2.0000      -0.422266       -11.4904
  51   2.0000      -0.409996       -11.1566
  52   2.0000      -0.408699       -11.1213
  53   2.0000      -0.402725       -10.9587
  54   2.0000      -0.381404       -10.3785
  55   2.0000      -0.376299       -10.2396
  56   2.0000      -0.371861       -10.1188
  57   2.0000      -0.364643        -9.9224
  58   2.0000      -0.350402        -9.5349
  59   2.0000      -0.347483        -9.4555
  60   2.0000      -0.343054        -9.3350
  61   2.0000      -0.334727        -9.1084
  62   2.0000      -0.328556        -8.9405
  63   2.0000      -0.320364        -8.7175
  64   2.0000      -0.317189        -8.6311
  65   2.0000      -0.313981        -8.5439
  66   2.0000      -0.301758        -8.2112
  67   2.0000      -0.293031        -7.9738
  68   2.0000      -0.284771        -7.7490
  69   2.0000      -0.270119        -7.3503
  70   2.0000      -0.233440        -6.3522
  71   2.0000      -0.128382        -3.4935
  72   0.0000       0.012007         0.3267
  73   0.0000       0.021159         0.5758
  74   0.0000       0.041038         1.1167
  75   0.0000       0.046419         1.2631
  76   0.0000       0.050343         1.3699

MULLIKEN ATOMIC CHARGES
-----------------------
   0 C :   -0.273211
   1 C :   -0.339246
   2 C :   -0.166825
   3 C :   -0.195235
   4 H :    0.132275
   5 H :    0.138756
   6 S :    0.891476
   7 C :    0.307788
   8 N :   -0.471691
   9 N :   -0.477504
  10 H :    0.227253
  11 H :    0.194386
  12 H :    0.172364
  13 H :    0.257095
  14 H :    0.183967
  15 O :   -0.470993
  16 F :   -0.098137
  17 C :   -0.070758
  18 H :    0.081261
  19 H :    0.060246
  20 C :   -0.175406
  21 C :   -0.278800
  22 H :    0.076133
  23 H :    0.163168
  24 H :    0.106759
  25 H :    0.129665
  26 C :   -0.161809
  27 H :    0.049211
  28 H :    0.077476
  29 C :   -0.224088
  30 H :    0.069423
  31 H :    0.107058
  32 C :   -0.116939
  33 H :    0.079239
  34 H :    0.102222
  35 H :    0.102921
  36 H :    0.080796
  37 H :    0.077375
  38 H :    0.082701
  39 O :   -0.430370
Sum of atomic charges:   -0.0000000

LOEWDIN ATOMIC CHARGES
----------------------
   0 C :   -0.285550
   1 C :   -0.285991
   2 C :   -0.268409
   3 C :   -0.362395
   4 H :    0.141330
   5 H :    0.138359
   6 S :    0.568302
   7 C :   -0.459724
   8 N :   -0.018657
   9 N :   -0.026719
  10 H :    0.167870
  11 H :    0.153084
  12 H :    0.110552
  13 H :    0.146135
  14 H :    0.150159
  15 O :   -0.277336
  16 F :    0.108821
  17 C :   -0.260442
  18 H :    0.136994
  19 H :    0.120026
  20 C :   -0.264840
  21 C :   -0.265625
  22 H :    0.132968
  23 H :    0.144713
  24 H :    0.144030
  25 H :    0.147763
  26 C :   -0.263039
  27 H :    0.123162
  28 H :    0.129752
  29 C :   -0.265706
  30 H :    0.128822
  31 H :    0.136297
  32 C :   -0.263018
  33 H :    0.131834
  34 H :    0.131284
  35 H :    0.135634
  36 H :    0.130150
  37 H :    0.130945
  38 H :    0.132909
  39 O :   -0.254443

  Mayer bond orders larger than 0.100000
B(  0-C ,  1-C ) :   0.9922 B(  0-C , 17-C ) :   0.9442 B(  0-C , 18-H ) :   1.0017
B(  0-C , 19-H ) :   0.9728 B(  1-C ,  7-C ) :   1.6454 B(  1-C , 12-H ) :   0.9632
B(  2-C ,  3-C ) :   0.9617 B(  2-C , 21-C ) :   0.9766 B(  2-C , 24-H ) :   0.9520
B(  2-C , 25-H ) :   0.9608 B(  3-C ,  4-H ) :   0.9373 B(  3-C ,  5-H ) :   0.9413
B(  3-C ,  6-S ) :   0.9172 B(  6-S , 15-O ) :   1.7715 B(  6-S , 16-F ) :   1.1423
B(  6-S , 39-O ) :   1.8504 B(  7-C ,  8-N ) :   1.1809 B(  7-C ,  9-N ) :   1.1177
B(  8-N , 13-H ) :   0.8608 B(  8-N , 14-H ) :   0.9341 B(  9-N , 10-H ) :   0.9178
B(  9-N , 11-H ) :   0.9346 B( 17-C , 26-C ) :   0.9871 B( 17-C , 27-H ) :   0.9636
B( 17-C , 28-H ) :   0.9607 B( 20-C , 21-C ) :   0.9723 B( 20-C , 32-C ) :   0.9766
B( 20-C , 35-H ) :   0.9738 B( 20-C , 36-H ) :   0.9671 B( 21-C , 22-H ) :   0.9621
B( 21-C , 23-H ) :   0.9658 B( 26-C , 29-C ) :   0.9596 B( 26-C , 30-H ) :   0.9670
B( 26-C , 31-H ) :   0.9650 B( 29-C , 32-C ) :   0.9628 B( 29-C , 33-H ) :   0.9641
B( 29-C , 34-H ) :   0.9832 B( 32-C , 37-H ) :   0.9736 B( 32-C , 38-H ) :   0.9687

Dispersion correction           -0.080146369
FINAL SINGLE POINT ENERGY     -1190.814117727694

DIPOLE MOMENT
-------------
                                X             Y             Z
Electronic contribution:    -20.60092       3.60781     -22.06956
Nuclear contribution   :     19.99734      -4.67125      20.55522
                        -----------------------------------------
Total Dipole Moment    :     -0.60358      -1.06343      -1.51434
                        -----------------------------------------
Magnitude (a.u.)       :      1.94639
Magnitude (Debye)      :      4.94733

Rotational constants in cm-1:     0.014213     0.012058     0.007367
Rotational constants in MHz :   426.102180   361.491761   220.844824

                             ****ORCA TERMINATED NORMALLY****
TOTAL RUN TIME: 0 days 0 hours 1 minutes 30 seconds 327 msec
