                         Program Version 5.0.0 -  RELEASE  -
|  1> !B3LYP D3BJ RIJCOSX def2-TZVP def2/J TightSCF xyzfile
|  2>
|  3> *xyzfile 0 1 D6.xyz
|  4>
|  5> %MaxCore 64000
|  6>
|  7> %pal nprocs 18
|  8> end
|  9>
| 10> %scf
| 11>   MaxIter 150
| 12> end
| 13>
| 14>
| 15>                          ****END OF INPUT****

CARTESIAN COORDINATES (ANGSTROEM)
---------------------------------
  C      4.490588    1.155899   -2.469290
  N      4.305394    1.222762   -3.908317
  C      4.906458   -3.102816   -5.954844
  C      3.511771   -2.806215   -6.492283
  H      2.736044   -3.373445   -5.973736
  H      3.444904   -3.040831   -7.555281
  S      3.004618   -1.096206   -6.389259
  C      4.631918    2.246365   -4.670958
  N      4.541686    2.143990   -5.987139
  C      5.084086    3.393584   -4.118545
  H      4.920675    3.570501   -3.135870
  H      5.254652    4.197390   -4.706956
  H      3.824530    0.449113   -4.350926
  H      4.343373    1.249318   -6.416646
  H      4.676712    2.956624   -6.574113
  O      4.128856   -0.329647   -6.953717
  F      1.781285   -1.000779   -7.136399
  C      5.942129    0.939500   -2.036893
  H      3.864305    0.328532   -2.136611
  H      4.076233    2.049994   -1.989010
  C      6.462677   -3.117775   -3.944671
  C      5.024977   -3.025679   -4.437625
  H      4.423321   -3.818693   -3.977648
  H      4.579350   -2.087131   -4.108727
  H      5.201533   -4.100207   -6.296905
  H      5.605922   -2.397822   -6.413368
  C      6.559957   -0.356290   -2.559086
  H      5.967976    0.952567   -0.942444
  H      6.547184    1.788331   -2.368849
  C      6.006283   -1.615917   -1.899301
  H      7.642360   -0.318000   -2.402059
  H      6.414855   -0.403433   -3.642587
  C      6.608718   -2.917014   -2.435655
  H      6.190324   -1.561115   -0.820948
  H      4.919250   -1.651245   -2.016586
  H      7.066975   -2.374258   -4.475514
  H      6.887808   -4.089747   -4.215332
  H      6.135197   -3.755573   -1.915159
  H      7.671142   -2.955503   -2.172291
  O      2.851546   -0.783683   -4.956789

 Total Charge           Charge          ....    0
 Multiplicity           Mult            ....    1
 Number of Electrons    NEL             ....  144
 Basis Dimension        Dim             ....  671

ORBITAL ENERGIES
----------------

  NO   OCC          E(Eh)            E(eV)
   0   2.0000     -89.132262     -2425.4122
   1   2.0000     -24.832672      -675.7314
   2   2.0000     -19.163747      -521.4721
   3   2.0000     -19.163235      -521.4581
   4   2.0000     -14.274567      -388.4307
   5   2.0000     -14.269242      -388.2858
   6   2.0000     -10.251177      -278.9487
   7   2.0000     -10.207383      -277.7570
   8   2.0000     -10.180580      -277.0277
   9   2.0000     -10.176125      -276.9065
  10   2.0000     -10.174175      -276.8534
  11   2.0000     -10.168154      -276.6895
  12   2.0000     -10.161339      -276.5041
  13   2.0000     -10.153015      -276.2776
  14   2.0000     -10.144783      -276.0536
  15   2.0000     -10.138327      -275.8779
  16   2.0000     -10.047477      -273.4057
  17   2.0000      -8.176265      -222.4875
  18   2.0000      -6.142904      -167.1569
  19   2.0000      -6.136903      -166.9936
  20   2.0000      -6.136187      -166.9742
  21   2.0000      -1.416946       -38.5571
  22   2.0000      -1.135163       -30.8893
  23   2.0000      -1.039620       -28.2895
  24   2.0000      -0.934432       -25.4272
  25   2.0000      -0.855786       -23.2871
  26   2.0000      -0.851968       -23.1832
  27   2.0000      -0.812008       -22.0959
  28   2.0000      -0.781678       -21.2705
  29   2.0000      -0.755769       -20.5655
  30   2.0000      -0.727204       -19.7882
  31   2.0000      -0.690943       -18.8015
  32   2.0000      -0.675497       -18.3812
  33   2.0000      -0.653827       -17.7915
  34   2.0000      -0.628146       -17.0927
  35   2.0000      -0.620808       -16.8931
  36   2.0000      -0.605316       -16.4715
  37   2.0000      -0.591297       -16.0900
  38   2.0000      -0.585114       -15.9218
  39   2.0000      -0.554503       -15.0888
  40   2.0000      -0.534158       -14.5352
  41   2.0000      -0.522604       -14.2208
  42   2.0000      -0.515541       -14.0286
  43   2.0000      -0.501668       -13.6511
  44   2.0000      -0.493112       -13.4183
  45   2.0000      -0.477735       -12.9998
  46   2.0000      -0.471455       -12.8289
  47   2.0000      -0.460495       -12.5307
  48   2.0000      -0.451116       -12.2755
  49   2.0000      -0.436095       -11.8668
  50   2.0000      -0.429763       -11.6945
  51   2.0000      -0.426206       -11.5976
  52   2.0000      -0.417622       -11.3641
  53   2.0000      -0.404110       -10.9964
  54   2.0000      -0.390341       -10.6217
  55   2.0000      -0.385060       -10.4780
  56   2.0000      -0.381823       -10.3899
  57   2.0000      -0.370315       -10.0768
  58   2.0000      -0.365351        -9.9417
  59   2.0000      -0.356527        -9.7016
  60   2.0000      -0.350575        -9.5396
  61   2.0000      -0.347104        -9.4452
  62   2.0000      -0.341904        -9.3037
  63   2.0000      -0.337593        -9.1864
  64   2.0000      -0.331888        -9.0311
  65   2.0000      -0.327853        -8.9213
  66   2.0000      -0.322329        -8.7710
  67   2.0000      -0.307922        -8.3790
  68   2.0000      -0.306553        -8.3417
  69   2.0000      -0.297451        -8.0940
  70   2.0000      -0.214111        -5.8263
  71   2.0000      -0.131826        -3.5872
  72   0.0000      -0.004988        -0.1357
  73   0.0000       0.009457         0.2573
  74   0.0000       0.032821         0.8931
  75   0.0000       0.036772         1.0006
  76   0.0000       0.040254         1.0954

MULLIKEN ATOMIC CHARGES
-----------------------
   0 C :   -0.158332
   1 N :   -0.302098
   2 C :   -0.173792
   3 C :   -0.194237
   4 H :    0.137513
   5 H :    0.146629
   6 S :    0.906852
   7 C :    0.355535
   8 N :   -0.485612
   9 C :   -0.547023
  10 H :    0.080833
  11 H :    0.053455
  12 H :    0.218860
  13 H :    0.241153
  14 H :    0.214961
  15 O :   -0.460732
  16 F :   -0.091516
  17 C :   -0.071340
  18 H :    0.106014
  19 H :    0.102838
  20 C :   -0.179717
  21 C :   -0.271169
  22 H :    0.081994
  23 H :    0.139818
  24 H :    0.112789
  25 H :    0.135043
  26 C :   -0.209445
  27 H :    0.063711
  28 H :    0.115935
  29 C :   -0.218182
  30 H :    0.082295
  31 H :    0.103589
  32 C :   -0.121282
  33 H :    0.085345
  34 H :    0.096929
  35 H :    0.107336
  36 H :    0.086222
  37 H :    0.081489
  38 H :    0.088568
  39 O :   -0.461231
Sum of atomic charges:   -0.0000000

LOEWDIN ATOMIC CHARGES
----------------------
   0 C :   -0.276709
   1 N :    0.120937
   2 C :   -0.267158
   3 C :   -0.359518
   4 H :    0.142785
   5 H :    0.141437
   6 S :    0.574621
   7 C :   -0.466685
   8 N :   -0.015107
   9 C :   -0.376140
  10 H :    0.091609
  11 H :    0.086283
  12 H :    0.156102
  13 H :    0.135370
  14 H :    0.168300
  15 O :   -0.272258
  16 F :    0.115340
  17 C :   -0.261911
  18 H :    0.126845
  19 H :    0.127812
  20 C :   -0.264031
  21 C :   -0.266530
  22 H :    0.134354
  23 H :    0.139911
  24 H :    0.146395
  25 H :    0.148834
  26 C :   -0.264720
  27 H :    0.130890
  28 H :    0.142128
  29 C :   -0.267342
  30 H :    0.133061
  31 H :    0.133966
  32 C :   -0.261817
  33 H :    0.133515
  34 H :    0.128943
  35 H :    0.136404
  36 H :    0.131950
  37 H :    0.132060
  38 H :    0.134773
  39 O :   -0.274699

  Mayer bond orders larger than 0.100000
B(  0-C ,  1-N ) :   0.9614 B(  0-C , 17-C ) :   0.9472 B(  0-C , 18-H ) :   0.9859
B(  0-C , 19-H ) :   0.9682 B(  1-N ,  7-C ) :   1.1871 B(  1-N , 12-H ) :   0.8828
B(  2-C ,  3-C ) :   0.9596 B(  2-C , 21-C ) :   0.9746 B(  2-C , 24-H ) :   0.9508
B(  2-C , 25-H ) :   0.9614 B(  3-C ,  4-H ) :   0.9354 B(  3-C ,  5-H ) :   0.9411
B(  3-C ,  6-S ) :   0.9191 B(  6-S , 15-O ) :   1.7849 B(  6-S , 16-F ) :   1.1557
B(  6-S , 39-O ) :   1.7849 B(  7-C ,  8-N ) :   1.1581 B(  7-C ,  9-C ) :   1.5962
B(  8-N , 13-H ) :   0.8690 B(  8-N , 14-H ) :   0.9309 B(  9-C , 10-H ) :   1.0003
B(  9-C , 11-H ) :   0.9997 B( 17-C , 26-C ) :   0.9751 B( 17-C , 27-H ) :   0.9669
B( 17-C , 28-H ) :   0.9545 B( 20-C , 21-C ) :   0.9708 B( 20-C , 32-C ) :   0.9731
B( 20-C , 35-H ) :   0.9749 B( 20-C , 36-H ) :   0.9669 B( 21-C , 22-H ) :   0.9618
B( 21-C , 23-H ) :   0.9692 B( 26-C , 29-C ) :   0.9561 B( 26-C , 30-H ) :   0.9665
B( 26-C , 31-H ) :   0.9674 B( 29-C , 32-C ) :   0.9641 B( 29-C , 33-H ) :   0.9643
B( 29-C , 34-H ) :   0.9823 B( 32-C , 37-H ) :   0.9740 B( 32-C , 38-H ) :   0.9694

Dispersion correction           -0.079568648
FINAL SINGLE POINT ENERGY     -1190.821488924954

DIPOLE MOMENT
-------------
                                X             Y             Z
Electronic contribution:    -21.16925       1.31071     -21.93520
Nuclear contribution   :     20.11362      -4.34709      20.52383
                        -----------------------------------------
Total Dipole Moment    :     -1.05563      -3.03637      -1.41137
                        -----------------------------------------
Magnitude (a.u.)       :      3.51082
Magnitude (Debye)      :      8.92380

Rotational constants in cm-1:     0.014449     0.012108     0.007447
Rotational constants in MHz :   433.168496   362.988632   223.260798

                             ****ORCA TERMINATED NORMALLY****
TOTAL RUN TIME: 0 days 0 hours 1 minutes 39 seconds 405 msec
