                         Program Version 5.0.0 -  RELEASE  -
|  1> !B3LYP D3BJ RIJCOSX def2-TZVP def2/J TightSCF xyzfile
|  2>
|  3> *xyzfile 0 1 D8.xyz
|  4>
|  5> %MaxCore 64000
|  6>
|  7> %pal nprocs 18
|  8> end
|  9>
| 10> %scf
| 11>   MaxIter 150
| 12> end
| 13>
| 14>
| 15>                          ****END OF INPUT****

CARTESIAN COORDINATES (ANGSTROEM)
---------------------------------
  C      4.490588    1.155899   -2.469290
  N      4.305394    1.222762   -3.908317
  C      4.906458   -3.102816   -5.954844
  C      3.511771   -2.806215   -6.492283
  H      2.736044   -3.373445   -5.973736
  H      3.444904   -3.040831   -7.555281
  S      3.004618   -1.096206   -6.389259
  C      4.631918    2.246365   -4.670958
  C      4.541686    2.143990   -5.987139
  N      5.084086    3.393584   -4.118545
  H      4.920675    3.570501   -3.135870
  H      5.254652    4.197390   -4.706956
  H      3.824530    0.449113   -4.350926
  H      4.343373    1.249318   -6.416646
  H      4.676712    2.956624   -6.574113
  O      4.128856   -0.329647   -6.953717
  O      1.781285   -1.000779   -7.136399
  C      5.942129    0.939500   -2.036893
  H      3.864305    0.328532   -2.136611
  H      4.076233    2.049994   -1.989010
  C      6.462677   -3.117775   -3.944671
  C      5.024977   -3.025679   -4.437625
  H      4.423321   -3.818693   -3.977648
  H      4.579350   -2.087131   -4.108727
  H      5.201533   -4.100207   -6.296905
  H      5.605922   -2.397822   -6.413368
  C      6.559957   -0.356290   -2.559086
  H      5.967976    0.952567   -0.942444
  H      6.547184    1.788331   -2.368849
  C      6.006283   -1.615917   -1.899301
  H      7.642360   -0.318000   -2.402059
  H      6.414855   -0.403433   -3.642587
  C      6.608718   -2.917014   -2.435655
  H      6.190324   -1.561115   -0.820948
  H      4.919250   -1.651245   -2.016586
  H      7.066975   -2.374258   -4.475514
  H      6.887808   -4.089747   -4.215332
  H      6.135197   -3.755573   -1.915159
  H      7.671142   -2.955503   -2.172291
  F      2.851546   -0.783683   -4.956789

 Total Charge           Charge          ....    0
 Multiplicity           Mult            ....    1
 Number of Electrons    NEL             ....  144
 Basis Dimension        Dim             ....  671

ORBITAL ENERGIES
----------------

  NO   OCC          E(Eh)            E(eV)
   0   2.0000     -89.102157     -2424.5929
   1   2.0000     -24.803297      -674.9320
   2   2.0000     -19.144130      -520.9382
   3   2.0000     -19.131544      -520.5958
   4   2.0000     -14.297406      -389.0522
   5   2.0000     -14.296491      -389.0273
   6   2.0000     -10.232442      -278.4389
   7   2.0000     -10.199349      -277.5384
   8   2.0000     -10.195931      -277.4454
   9   2.0000     -10.191362      -277.3211
  10   2.0000     -10.182463      -277.0789
  11   2.0000     -10.173024      -276.8221
  12   2.0000     -10.169217      -276.7185
  13   2.0000     -10.165692      -276.6225
  14   2.0000     -10.160574      -276.4833
  15   2.0000     -10.160007      -276.4679
  16   2.0000     -10.047051      -273.3942
  17   2.0000      -8.146498      -221.6775
  18   2.0000      -6.113568      -166.3587
  19   2.0000      -6.106653      -166.1705
  20   2.0000      -6.106396      -166.1635
  21   2.0000      -1.378397       -37.5081
  22   2.0000      -1.115836       -30.3634
  23   2.0000      -1.020993       -27.7826
  24   2.0000      -0.952541       -25.9200
  25   2.0000      -0.868051       -23.6209
  26   2.0000      -0.845356       -23.0033
  27   2.0000      -0.815064       -22.1790
  28   2.0000      -0.786896       -21.4125
  29   2.0000      -0.752662       -20.4810
  30   2.0000      -0.730387       -19.8748
  31   2.0000      -0.707824       -19.2609
  32   2.0000      -0.675126       -18.3711
  33   2.0000      -0.651175       -17.7194
  34   2.0000      -0.630047       -17.1444
  35   2.0000      -0.609070       -16.5736
  36   2.0000      -0.597209       -16.2509
  37   2.0000      -0.587353       -15.9827
  38   2.0000      -0.571105       -15.5405
  39   2.0000      -0.560218       -15.2443
  40   2.0000      -0.555856       -15.1256
  41   2.0000      -0.516214       -14.0469
  42   2.0000      -0.501131       -13.6365
  43   2.0000      -0.488858       -13.3025
  44   2.0000      -0.481905       -13.1133
  45   2.0000      -0.481076       -13.0908
  46   2.0000      -0.470862       -12.8128
  47   2.0000      -0.466358       -12.6902
  48   2.0000      -0.460805       -12.5392
  49   2.0000      -0.444060       -12.0835
  50   2.0000      -0.440843       -11.9959
  51   2.0000      -0.431840       -11.7510
  52   2.0000      -0.416539       -11.3346
  53   2.0000      -0.402580       -10.9548
  54   2.0000      -0.393136       -10.6978
  55   2.0000      -0.391270       -10.6470
  56   2.0000      -0.384939       -10.4747
  57   2.0000      -0.376655       -10.2493
  58   2.0000      -0.369569       -10.0565
  59   2.0000      -0.364027        -9.9057
  60   2.0000      -0.363063        -9.8794
  61   2.0000      -0.348343        -9.4789
  62   2.0000      -0.345798        -9.4096
  63   2.0000      -0.341459        -9.2916
  64   2.0000      -0.336742        -9.1632
  65   2.0000      -0.321994        -8.7619
  66   2.0000      -0.320913        -8.7325
  67   2.0000      -0.319937        -8.7059
  68   2.0000      -0.314191        -8.5496
  69   2.0000      -0.295102        -8.0301
  70   2.0000      -0.240317        -6.5394
  71   2.0000      -0.142320        -3.8727
  72   0.0000       0.005275         0.1435
  73   0.0000       0.025223         0.6863
  74   0.0000       0.029411         0.8003
  75   0.0000       0.040191         1.0936
  76   0.0000       0.041111         1.1187

MULLIKEN ATOMIC CHARGES
-----------------------
   0 C :   -0.221248
   1 N :   -0.299588
   2 C :   -0.147247
   3 C :   -0.223282
   4 H :    0.131000
   5 H :    0.164250
   6 S :    0.879815
   7 C :    0.400392
   8 C :   -0.597613
   9 N :   -0.485006
  10 H :    0.208328
  11 H :    0.222661
  12 H :    0.205253
  13 H :    0.166502
  14 H :    0.066897
  15 O :   -0.430717
  16 O :   -0.404228
  17 C :   -0.052029
  18 H :    0.109397
  19 H :    0.105935
  20 C :   -0.183768
  21 C :   -0.259715
  22 H :    0.090550
  23 H :    0.082976
  24 H :    0.103982
  25 H :    0.136331
  26 C :   -0.224155
  27 H :    0.067905
  28 H :    0.099616
  29 C :   -0.212594
  30 H :    0.088338
  31 H :    0.124642
  32 C :   -0.124221
  33 H :    0.089364
  34 H :    0.089889
  35 H :    0.111711
  36 H :    0.092288
  37 H :    0.085428
  38 H :    0.091207
  39 F :   -0.149243
Sum of atomic charges:    0.0000000

LOEWDIN ATOMIC CHARGES
----------------------
   0 C :   -0.295140
   1 N :    0.114347
   2 C :   -0.277258
   3 C :   -0.359170
   4 H :    0.138304
   5 H :    0.154013
   6 S :    0.565016
   7 C :   -0.465938
   8 C :   -0.338351
   9 N :   -0.023681
  10 H :    0.154172
  11 H :    0.171048
  12 H :    0.165865
  13 H :    0.085564
  14 H :    0.090702
  15 O :   -0.254119
  16 O :   -0.248731
  17 C :   -0.265848
  18 H :    0.128493
  19 H :    0.121884
  20 C :   -0.262230
  21 C :   -0.270329
  22 H :    0.135060
  23 H :    0.127813
  24 H :    0.142867
  25 H :    0.148406
  26 C :   -0.263452
  27 H :    0.132056
  28 H :    0.135468
  29 C :   -0.267427
  30 H :    0.135348
  31 H :    0.138477
  32 C :   -0.261244
  33 H :    0.134226
  34 H :    0.126502
  35 H :    0.137590
  36 H :    0.134623
  37 H :    0.133226
  38 H :    0.135522
  39 F :    0.066326

  Mayer bond orders larger than 0.100000
B(  0-C ,  1-N ) :   0.9610 B(  0-C , 17-C ) :   0.9165 B(  0-C , 18-H ) :   0.9860
B(  0-C , 19-H ) :   0.9875 B(  1-N ,  7-C ) :   1.1761 B(  1-N , 12-H ) :   0.9175
B(  2-C ,  3-C ) :   0.9411 B(  2-C , 21-C ) :   0.9750 B(  2-C , 24-H ) :   0.9497
B(  2-C , 25-H ) :   0.9572 B(  3-C ,  4-H ) :   0.9491 B(  3-C ,  5-H ) :   0.9477
B(  3-C ,  6-S ) :   0.9115 B(  6-S , 15-O ) :   1.8152 B(  6-S , 16-O ) :   1.9767
B(  6-S , 39-F ) :   1.0286 B(  7-C ,  8-C ) :   1.5817 B(  7-C ,  9-N ) :   1.1016
B(  8-C , 13-H ) :   1.0031 B(  8-C , 14-H ) :   1.0023 B(  9-N , 10-H ) :   0.9224
B(  9-N , 11-H ) :   0.9276 B( 17-C , 26-C ) :   0.9648 B( 17-C , 27-H ) :   0.9595
B( 17-C , 28-H ) :   0.9603 B( 20-C , 21-C ) :   0.9740 B( 20-C , 32-C ) :   0.9670
B( 20-C , 35-H ) :   0.9767 B( 20-C , 36-H ) :   0.9678 B( 21-C , 22-H ) :   0.9610
B( 21-C , 23-H ) :   0.9714 B( 26-C , 29-C ) :   0.9530 B( 26-C , 30-H ) :   0.9661
B( 26-C , 31-H ) :   0.9715 B( 29-C , 32-C ) :   0.9659 B( 29-C , 33-H ) :   0.9634
B( 29-C , 34-H ) :   0.9831 B( 32-C , 37-H ) :   0.9748 B( 32-C , 38-H ) :   0.9700

Dispersion correction           -0.079032039
FINAL SINGLE POINT ENERGY     -1190.810982969062

DIPOLE MOMENT
-------------
                                X             Y             Z
Electronic contribution:    -18.46768       3.21740     -16.20882
Nuclear contribution   :     18.77618      -4.78855      17.68602
                        -----------------------------------------
Total Dipole Moment    :      0.30850      -1.57114       1.47720
                        -----------------------------------------
Magnitude (a.u.)       :      2.17848
Magnitude (Debye)      :      5.53727

Rotational constants in cm-1:     0.014368     0.012319     0.007509
Rotational constants in MHz :   430.738566   369.302170   225.105103

                             ****ORCA TERMINATED NORMALLY****
TOTAL RUN TIME: 0 days 0 hours 1 minutes 49 seconds 572 msec
