                         Program Version 5.0.0 -  RELEASE  -
|  1> !B3LYP D3BJ RIJCOSX def2-TZVP def2/J TightSCF xyzfile
|  2>
|  3> *xyzfile 0 1 D9.xyz
|  4>
|  5> %MaxCore 64000
|  6>
|  7> %pal nprocs 18
|  8> end
|  9>
| 10> %scf
| 11>   MaxIter 150
| 12> end
| 13>
| 14>
| 15>                          ****END OF INPUT****

CARTESIAN COORDINATES (ANGSTROEM)
---------------------------------
  C      4.490588    1.155899   -2.469290
  N      4.305394    1.222762   -3.908317
  C      4.906458   -3.102816   -5.954844
  C      3.511771   -2.806215   -6.492283
  H      2.736044   -3.373445   -5.973736
  H      3.444904   -3.040831   -7.555281
  S      3.004618   -1.096206   -6.389259
  C      4.631918    2.246365   -4.670958
  N      4.541686    2.143990   -5.987139
  C      5.084086    3.393584   -4.118545
  H      4.920675    3.570501   -3.135870
  H      5.254652    4.197390   -4.706956
  H      3.824530    0.449113   -4.350926
  H      4.343373    1.249318   -6.416646
  H      4.676712    2.956624   -6.574113
  O      4.128856   -0.329647   -6.953717
  O      1.781285   -1.000779   -7.136399
  C      5.942129    0.939500   -2.036893
  H      3.864305    0.328532   -2.136611
  H      4.076233    2.049994   -1.989010
  C      6.462677   -3.117775   -3.944671
  C      5.024977   -3.025679   -4.437625
  H      4.423321   -3.818693   -3.977648
  H      4.579350   -2.087131   -4.108727
  H      5.201533   -4.100207   -6.296905
  H      5.605922   -2.397822   -6.413368
  C      6.559957   -0.356290   -2.559086
  H      5.967976    0.952567   -0.942444
  H      6.547184    1.788331   -2.368849
  C      6.006283   -1.615917   -1.899301
  H      7.642360   -0.318000   -2.402059
  H      6.414855   -0.403433   -3.642587
  C      6.608718   -2.917014   -2.435655
  H      6.190324   -1.561115   -0.820948
  H      4.919250   -1.651245   -2.016586
  H      7.066975   -2.374258   -4.475514
  H      6.887808   -4.089747   -4.215332
  H      6.135197   -3.755573   -1.915159
  H      7.671142   -2.955503   -2.172291
  F      2.851546   -0.783683   -4.956789

 Total Charge           Charge          ....    0
 Multiplicity           Mult            ....    1
 Number of Electrons    NEL             ....  144
 Basis Dimension        Dim             ....  671

ORBITAL ENERGIES
----------------

  NO   OCC          E(Eh)            E(eV)
   0   2.0000     -89.122612     -2425.1496
   1   2.0000     -24.818522      -675.3463
   2   2.0000     -19.162305      -521.4328
   3   2.0000     -19.159042      -521.3440
   4   2.0000     -14.300669      -389.1410
   5   2.0000     -14.278301      -388.5323
   6   2.0000     -10.246260      -278.8149
   7   2.0000     -10.205679      -277.7106
   8   2.0000     -10.194665      -277.4109
   9   2.0000     -10.191596      -277.3274
  10   2.0000     -10.188579      -277.2453
  11   2.0000     -10.176536      -276.9176
  12   2.0000     -10.169954      -276.7385
  13   2.0000     -10.163997      -276.5764
  14   2.0000     -10.156189      -276.3640
  15   2.0000     -10.151140      -276.2266
  16   2.0000     -10.060505      -273.7603
  17   2.0000      -8.166929      -222.2334
  18   2.0000      -6.133964      -166.9136
  19   2.0000      -6.127266      -166.7314
  20   2.0000      -6.126713      -166.7163
  21   2.0000      -1.393901       -37.9300
  22   2.0000      -1.136759       -30.9328
  23   2.0000      -1.044499       -28.4222
  24   2.0000      -0.952437       -25.9171
  25   2.0000      -0.866976       -23.5916
  26   2.0000      -0.855810       -23.2878
  27   2.0000      -0.817984       -22.2585
  28   2.0000      -0.785931       -21.3863
  29   2.0000      -0.755884       -20.5686
  30   2.0000      -0.733849       -19.9691
  31   2.0000      -0.700006       -19.0481
  32   2.0000      -0.686679       -18.6855
  33   2.0000      -0.661946       -18.0125
  34   2.0000      -0.638455       -17.3733
  35   2.0000      -0.614504       -16.7215
  36   2.0000      -0.604150       -16.4398
  37   2.0000      -0.595840       -16.2136
  38   2.0000      -0.580228       -15.7888
  39   2.0000      -0.564513       -15.3612
  40   2.0000      -0.536897       -14.6097
  41   2.0000      -0.524893       -14.2831
  42   2.0000      -0.513883       -13.9835
  43   2.0000      -0.507785       -13.8175
  44   2.0000      -0.493980       -13.4419
  45   2.0000      -0.489748       -13.3267
  46   2.0000      -0.475149       -12.9295
  47   2.0000      -0.471153       -12.8207
  48   2.0000      -0.454354       -12.3636
  49   2.0000      -0.449653       -12.2357
  50   2.0000      -0.437650       -11.9091
  51   2.0000      -0.436661       -11.8822
  52   2.0000      -0.418383       -11.3848
  53   2.0000      -0.410974       -11.1832
  54   2.0000      -0.397759       -10.8236
  55   2.0000      -0.392755       -10.6874
  56   2.0000      -0.385461       -10.4889
  57   2.0000      -0.377021       -10.2593
  58   2.0000      -0.370532       -10.0827
  59   2.0000      -0.364482        -9.9181
  60   2.0000      -0.359792        -9.7904
  61   2.0000      -0.356806        -9.7092
  62   2.0000      -0.351528        -9.5656
  63   2.0000      -0.344950        -9.3866
  64   2.0000      -0.344123        -9.3641
  65   2.0000      -0.337825        -9.1927
  66   2.0000      -0.334694        -9.1075
  67   2.0000      -0.319704        -8.6996
  68   2.0000      -0.318680        -8.6717
  69   2.0000      -0.309669        -8.4265
  70   2.0000      -0.230070        -6.2605
  71   2.0000      -0.145175        -3.9504
  72   0.0000      -0.007899        -0.2149
  73   0.0000       0.016801         0.4572
  74   0.0000       0.031017         0.8440
  75   0.0000       0.035038         0.9534
  76   0.0000       0.040231         1.0947

MULLIKEN ATOMIC CHARGES
-----------------------
   0 C :   -0.162697
   1 N :   -0.307248
   2 C :   -0.151896
   3 C :   -0.219427
   4 H :    0.139780
   5 H :    0.167984
   6 S :    0.888660
   7 C :    0.364578
   8 N :   -0.482443
   9 C :   -0.539063
  10 H :    0.083179
  11 H :    0.060718
  12 H :    0.178342
  13 H :    0.247545
  14 H :    0.220002
  15 O :   -0.467641
  16 O :   -0.395571
  17 C :   -0.071061
  18 H :    0.101897
  19 H :    0.113607
  20 C :   -0.181944
  21 C :   -0.264963
  22 H :    0.093281
  23 H :    0.085346
  24 H :    0.109045
  25 H :    0.135740
  26 C :   -0.218301
  27 H :    0.070132
  28 H :    0.121994
  29 C :   -0.214500
  30 H :    0.088578
  31 H :    0.107379
  32 C :   -0.124910
  33 H :    0.090472
  34 H :    0.088822
  35 H :    0.110814
  36 H :    0.093024
  37 H :    0.085261
  38 H :    0.092315
  39 F :   -0.136828
Sum of atomic charges:   -0.0000000

LOEWDIN ATOMIC CHARGES
----------------------
   0 C :   -0.276781
   1 N :    0.113623
   2 C :   -0.276796
   3 C :   -0.355355
   4 H :    0.141702
   5 H :    0.155238
   6 S :    0.569005
   7 C :   -0.466729
   8 N :   -0.009684
   9 C :   -0.364723
  10 H :    0.092345
  11 H :    0.089014
  12 H :    0.154225
  13 H :    0.135846
  14 H :    0.171468
  15 O :   -0.274573
  16 O :   -0.241634
  17 C :   -0.260562
  18 H :    0.124955
  19 H :    0.130801
  20 C :   -0.262174
  21 C :   -0.270450
  22 H :    0.135897
  23 H :    0.128145
  24 H :    0.144635
  25 H :    0.147706
  26 C :   -0.264680
  27 H :    0.132969
  28 H :    0.143695
  29 C :   -0.267772
  30 H :    0.135152
  31 H :    0.133750
  32 C :   -0.261305
  33 H :    0.134893
  34 H :    0.125770
  35 H :    0.137402
  36 H :    0.134665
  37 H :    0.132978
  38 H :    0.136022
  39 F :    0.071317

  Mayer bond orders larger than 0.100000
B(  0-C ,  1-N ) :   0.9534 B(  0-C , 17-C ) :   0.9451 B(  0-C , 18-H ) :   0.9851
B(  0-C , 19-H ) :   0.9727 B(  1-N ,  7-C ) :   1.1632 B(  1-N , 12-H ) :   0.9183
B(  2-C ,  3-C ) :   0.9408 B(  2-C , 21-C ) :   0.9694 B(  2-C , 24-H ) :   0.9494
B(  2-C , 25-H ) :   0.9599 B(  3-C ,  4-H ) :   0.9480 B(  3-C ,  5-H ) :   0.9466
B(  3-C ,  6-S ) :   0.9089 B(  6-S , 15-O ) :   1.7610 B(  6-S , 16-O ) :   1.9841
B(  6-S , 39-F ) :   1.0458 B(  7-C ,  8-N ) :   1.1688 B(  7-C ,  9-C ) :   1.6020
B(  8-N , 13-H ) :   0.8636 B(  8-N , 14-H ) :   0.9292 B(  9-C , 10-H ) :   0.9979
B(  9-C , 11-H ) :   1.0000 B( 17-C , 26-C ) :   0.9724 B( 17-C , 27-H ) :   0.9670
B( 17-C , 28-H ) :   0.9549 B( 20-C , 21-C ) :   0.9743 B( 20-C , 32-C ) :   0.9680
B( 20-C , 35-H ) :   0.9760 B( 20-C , 36-H ) :   0.9678 B( 21-C , 22-H ) :   0.9608
B( 21-C , 23-H ) :   0.9724 B( 26-C , 29-C ) :   0.9509 B( 26-C , 30-H ) :   0.9670
B( 26-C , 31-H ) :   0.9703 B( 29-C , 32-C ) :   0.9635 B( 29-C , 33-H ) :   0.9639
B( 29-C , 34-H ) :   0.9838 B( 32-C , 37-H ) :   0.9751 B( 32-C , 38-H ) :   0.9696

Dispersion correction           -0.078916921
FINAL SINGLE POINT ENERGY     -1190.827412031393

DIPOLE MOMENT
-------------
                                X             Y             Z
Electronic contribution:    -18.99274       1.85954     -17.89718
Nuclear contribution   :     18.85717      -4.60195      17.96505
                        -----------------------------------------
Total Dipole Moment    :     -0.13556      -2.74241       0.06787
                        -----------------------------------------
Magnitude (a.u.)       :      2.74660
Magnitude (Debye)      :      6.98130

Rotational constants in cm-1:     0.014436     0.012382     0.007563
Rotational constants in MHz :   432.785702   371.214592   226.743759

                             ****ORCA TERMINATED NORMALLY****
TOTAL RUN TIME: 0 days 0 hours 1 minutes 35 seconds 562 msec
