                         Program Version 5.0.0 -  RELEASE  -
|  1> !DLPNO-CCSD(T) aug-cc-pVTZ aug-cc-pVTZ/C TightSCF TightPNO RIJCOSX def2/J
|  2> *xyz -1 1
|  3> C          3.80351        1.37472       -3.26081
|  4> C          3.93993        0.32036       -4.36773
|  5> H          4.10504       -0.65508       -3.90773
|  6> H          3.02280        0.28052       -4.95712
|  7> C          5.10585        0.66802       -5.30546
|  8> O          4.80913        1.15019       -6.41436
|  9> O          6.26737        0.56500       -4.81948
| 10> H          3.64113        2.33595       -3.70189
| 11> H          4.69995        1.39701       -2.67703
| 12> H          2.97435        1.12625       -2.63180
| 13> *
| 14>
| 15> %MaxCore 64000
| 16>
| 17> %pal nprocs 18
| 18> end
| 19>
| 20> %scf
| 21>   MaxIter 150
| 22> end
| 23>
| 24>
| 25>                          ****END OF INPUT****

CARTESIAN COORDINATES (ANGSTROEM)
---------------------------------
  C      3.803510    1.374720   -3.260810
  C      3.939930    0.320360   -4.367730
  H      4.105040   -0.655080   -3.907730
  H      3.022800    0.280520   -4.957120
  C      5.105850    0.668020   -5.305460
  O      4.809130    1.150190   -6.414360
  O      6.267370    0.565000   -4.819480
  H      3.641130    2.335950   -3.701890
  H      4.699950    1.397010   -2.677030
  H      2.974350    1.126250   -2.631800

 Total Charge           Charge          ....   -1
 Multiplicity           Mult            ....    1
 Number of Electrons    NEL             ....   40
 Basis Dimension        Dim             ....  345

ORBITAL ENERGIES
----------------

  NO   OCC          E(Eh)            E(eV)
   0   2.0000     -20.286297      -552.0182
   1   2.0000     -20.280989      -551.8738
   2   2.0000     -11.124617      -302.7162
   3   2.0000     -11.062832      -301.0350
   4   2.0000     -11.051471      -300.7258
   5   2.0000      -1.163970       -31.6732
   6   2.0000      -1.057430       -28.7741
   7   2.0000      -0.875493       -23.8234
   8   2.0000      -0.708110       -19.2687
   9   2.0000      -0.518008       -14.0957
  10   2.0000      -0.461132       -12.5480
  11   2.0000      -0.443676       -12.0731
  12   2.0000      -0.396130       -10.7793
  13   2.0000      -0.386974       -10.5301
  14   2.0000      -0.370000       -10.0682
  15   2.0000      -0.333893        -9.0857
  16   2.0000      -0.312294        -8.4980
  17   2.0000      -0.199014        -5.4155
  18   2.0000      -0.193097        -5.2544
  19   2.0000      -0.185720        -5.0537
  20   0.0000       0.117927         3.2089
  21   0.0000       0.135898         3.6980
  22   0.0000       0.138182         3.7601
  23   0.0000       0.148025         4.0280
  24   0.0000       0.156809         4.2670

MULLIKEN ATOMIC CHARGES
-----------------------
   0 C :   -0.991344
   1 C :   -0.185153
   2 H :    0.251371
   3 H :    0.253422
   4 C :    0.515145
   5 O :   -0.850806
   6 O :   -0.870377
   7 H :    0.300834
   8 H :    0.310788
   9 H :    0.266120
Sum of atomic charges:   -1.0000000

LOEWDIN ATOMIC CHARGES
----------------------
   0 C :    0.550474
   1 C :    0.170899
   2 H :   -0.187634
   3 H :   -0.200669
   4 C :   -1.215316
   5 O :    0.251276
   6 O :    0.234580
   7 H :   -0.193594
   8 H :   -0.201203
   9 H :   -0.208811

  Mayer bond orders larger than 0.100000
B(  0-C ,  1-C ) :   0.8250 B(  0-C ,  4-C ) :   0.1429 B(  0-C ,  7-H ) :   0.9239
B(  0-C ,  8-H ) :   0.9215 B(  0-C ,  9-H ) :   0.9650 B(  1-C ,  2-H ) :   0.9532
B(  1-C ,  3-H ) :   0.9642 B(  1-C ,  4-C ) :   0.6772 B(  4-C ,  5-O ) :   1.4112
B(  4-C ,  6-O ) :   1.4304

E(0)                                       ...   -266.375297832
E(0)                                       ...   -266.375297832
E(CORR)(strong-pairs)                      ...     -1.023450047
E(CORR)(weak-pairs)                        ...     -0.000890976
E(CORR)(corrected)                         ...     -1.024341023
E(TOT)                                     ...   -267.399638856
E(CCSD(T))                                 ...   -267.443349710
FINAL SINGLE POINT ENERGY      -267.443349709529

DIPOLE MOMENT
-------------
                                X             Y             Z
Electronic contribution:      3.58516      -0.52822      -4.38100
Nuclear contribution   :     -5.15232       0.33441       5.87398
                        -----------------------------------------
Total Dipole Moment    :     -1.56717      -0.19381       1.49298
                        -----------------------------------------
Magnitude (a.u.)       :      2.17314
Magnitude (Debye)      :      5.52369

Rotational constants in cm-1:     0.295355     0.137164     0.110193
Rotational constants in MHz :  8854.523706  4112.077980  3303.490503

                             ****ORCA TERMINATED NORMALLY****
TOTAL RUN TIME: 0 days 0 hours 4 minutes 7 seconds 973 msec
