                         Program Version 5.0.0 -  RELEASE  -
|  1> !DLPNO-CCSD(T) aug-cc-pVTZ aug-cc-pVTZ/C TightSCF TightPNO RIJCOSX def2/J
|  2> *xyz 1 1
|  3> C          3.90595        2.81985       -3.75292
|  4> N          5.29562        3.13151       -4.10533
|  5> C          3.80351        1.37472       -3.26081
|  6> C          5.70862        3.46889       -5.32419
|  7> N          6.90470        3.03895       -5.71708
|  8> N          4.98188        4.29357       -6.09746
|  9> H          5.00055        4.10131       -7.08776
| 10> H          4.08469        4.59690       -5.73965
| 11> H          5.96336        2.52611       -3.64239
| 12> H          7.04716        2.06686       -5.47360
| 13> H          7.19815        3.30799       -6.64523
| 14> H          3.28202        2.94919       -4.64026
| 15> H          3.56525        3.51457       -2.98252
| 16> H          4.14157        0.71142       -4.02935
| 17> H          2.78528        1.15146       -3.01944
| 18> H          4.41205        1.25066       -2.38949
| 19> *
| 20>
| 21> %MaxCore 64000
| 22>
| 23> %pal nprocs 18
| 24> end
| 25>
| 26> %scf
| 27>   MaxIter 150
| 28> end
| 29>
| 30>
| 31>                          ****END OF INPUT****

CARTESIAN COORDINATES (ANGSTROEM)
---------------------------------
  C      3.905950    2.819850   -3.752920
  N      5.295620    3.131510   -4.105330
  C      3.803510    1.374720   -3.260810
  C      5.708620    3.468890   -5.324190
  N      6.904700    3.038950   -5.717080
  N      4.981880    4.293570   -6.097460
  H      5.000550    4.101310   -7.087760
  H      4.084690    4.596900   -5.739650
  H      5.963360    2.526110   -3.642390
  H      7.047160    2.066860   -5.473600
  H      7.198150    3.307990   -6.645230
  H      3.282020    2.949190   -4.640260
  H      3.565250    3.514570   -2.982520
  H      4.141570    0.711420   -4.029350
  H      2.785280    1.151460   -3.019440
  H      4.412050    1.250660   -2.389490

 Total Charge           Charge          ....    1
 Multiplicity           Mult            ....    1
 Number of Electrons    NEL             ....   48
 Basis Dimension        Dim             ....  506

ORBITAL ENERGIES
----------------

  NO   OCC          E(Eh)            E(eV)
   0   2.0000     -15.790645      -429.6853
   1   2.0000     -15.789693      -429.6594
   2   2.0000     -15.786182      -429.5639
   3   2.0000     -11.591265      -315.4143
   4   2.0000     -11.437488      -311.2299
   5   2.0000     -11.365711      -309.2767
   6   2.0000      -1.547981       -42.1227
   7   2.0000      -1.409245       -38.3475
   8   2.0000      -1.399144       -38.0726
   9   2.0000      -1.194720       -32.5100
  10   2.0000      -1.058512       -28.8036
  11   2.0000      -1.021703       -27.8020
  12   2.0000      -0.965889       -26.2832
  13   2.0000      -0.934812       -25.4375
  14   2.0000      -0.875178       -23.8148
  15   2.0000      -0.858480       -23.3604
  16   2.0000      -0.819815       -22.3083
  17   2.0000      -0.788517       -21.4566
  18   2.0000      -0.756467       -20.5845
  19   2.0000      -0.713331       -19.4107
  20   2.0000      -0.685394       -18.6505
  21   2.0000      -0.670322       -18.2404
  22   2.0000      -0.637696       -17.3526
  23   2.0000      -0.595132       -16.1944
  24   0.0000      -0.096359        -2.6221
  25   0.0000      -0.074905        -2.0383
  26   0.0000      -0.067840        -1.8460
  27   0.0000      -0.064311        -1.7500
  28   0.0000      -0.046850        -1.2749

MULLIKEN ATOMIC CHARGES
-----------------------
   0 C :   -0.416622
   1 N :   -0.028247
   2 C :   -0.910958
   3 C :    0.739713
   4 N :   -0.387541
   5 N :   -0.325667
   6 H :    0.127104
   7 H :    0.177680
   8 H :    0.103882
   9 H :    0.148729
  10 H :    0.164447
  11 H :    0.339495
  12 H :    0.311027
  13 H :    0.289782
  14 H :    0.338429
  15 H :    0.328746
Sum of atomic charges:    1.0000000

LOEWDIN ATOMIC CHARGES
----------------------
   0 C :    0.238636
   1 N :    0.632164
   2 C :    0.647636
   3 C :   -0.366427
   4 N :    0.946259
   5 N :    0.951912
   6 H :   -0.246949
   7 H :   -0.262071
   8 H :   -0.268087
   9 H :   -0.249002
  10 H :   -0.245441
  11 H :   -0.151985
  12 H :   -0.124364
  13 H :   -0.172343
  14 H :   -0.160048
  15 H :   -0.169892

  Mayer bond orders larger than 0.100000
B(  0-C ,  1-N ) :   0.8489 B(  0-C ,  2-C ) :   0.8462 B(  0-C , 11-H ) :   0.9123
B(  0-C , 12-H ) :   0.9089 B(  1-N ,  3-C ) :   1.0774 B(  1-N ,  8-H ) :   1.0087
B(  2-C , 13-H ) :   0.9400 B(  2-C , 14-H ) :   0.9247 B(  2-C , 15-H ) :   0.9213
B(  3-C ,  4-N ) :   0.9286 B(  3-C ,  5-N ) :   0.9290 B(  4-N ,  9-H ) :   1.0316
B(  4-N , 10-H ) :   1.0322 B(  5-N ,  6-H ) :   1.0648 B(  5-N ,  7-H ) :   0.9905

E(0)                                       ...   -282.696418054
E(0)                                       ...   -282.696418054
E(CORR)(strong-pairs)                      ...     -1.184459124
E(CORR)(weak-pairs)                        ...     -0.001266296
E(CORR)(corrected)                         ...     -1.185725420
E(TOT)                                     ...   -283.882143475
E(CCSD(T))                                 ...   -283.930050045
FINAL SINGLE POINT ENERGY      -283.930050045093

DIPOLE MOMENT
-------------
                                X             Y             Z
Electronic contribution:      3.50833       3.38178      -2.70669
Nuclear contribution   :     -3.31456      -3.64300       1.57303
                        -----------------------------------------
Total Dipole Moment    :      0.19376      -0.26122      -1.13366
                        -----------------------------------------
Magnitude (a.u.)       :      1.17939
Magnitude (Debye)      :      2.99778

Rotational constants in cm-1:     0.229487     0.071000     0.059428
Rotational constants in MHz :  6879.840828  2128.520047  1781.605314

                             ****ORCA TERMINATED NORMALLY****
TOTAL RUN TIME: 0 days 0 hours 11 minutes 13 seconds 872 msec
