                         Program Version 5.0.0 -  RELEASE  -
|  1> !DLPNO-CCSD(T) aug-cc-pVTZ aug-cc-pVTZ/C TightSCF TightPNO RIJCOSX def2/J
|  2> *xyz 0 1
|  3> C          3.80351        1.37472       -3.26081
|  4> C          3.93993        0.32036       -4.36773
|  5> H          4.10504       -0.65508       -3.90773
|  6> H          3.02280        0.28052       -4.95712
|  7> C          5.10585        0.66802       -5.30546
|  8> F          4.80913        1.15019       -6.41436
|  9> O          6.26737        0.56500       -4.81948
| 10> H          3.64113        2.33595       -3.70189
| 11> H          4.69995        1.39701       -2.67703
| 12> H          2.97435        1.12625       -2.63180
| 13> *
| 14>
| 15> %MaxCore 64000
| 16>
| 17> %pal nprocs 18
| 18> end
| 19>
| 20> %scf
| 21>   MaxIter 150
| 22> end
| 23>
| 24>
| 25>                          ****END OF INPUT****

CARTESIAN COORDINATES (ANGSTROEM)
---------------------------------
  C      3.803510    1.374720   -3.260810
  C      3.939930    0.320360   -4.367730
  H      4.105040   -0.655080   -3.907730
  H      3.022800    0.280520   -4.957120
  C      5.105850    0.668020   -5.305460
  F      4.809130    1.150190   -6.414360
  O      6.267370    0.565000   -4.819480
  H      3.641130    2.335950   -3.701890
  H      4.699950    1.397010   -2.677030
  H      2.974350    1.126250   -2.631800

 Total Charge           Charge          ....    0
 Multiplicity           Mult            ....    1
 Number of Electrons    NEL             ....   40
 Basis Dimension        Dim             ....  345

ORBITAL ENERGIES
----------------

  NO   OCC          E(Eh)            E(eV)
   0   2.0000     -26.381791      -717.8850
   1   2.0000     -20.561460      -559.5058
   2   2.0000     -11.431620      -311.0702
   3   2.0000     -11.261610      -306.4440
   4   2.0000     -11.232997      -305.6654
   5   2.0000      -1.739739       -47.3407
   6   2.0000      -1.368967       -37.2515
   7   2.0000      -1.076795       -29.3011
   8   2.0000      -0.941217       -25.6118
   9   2.0000      -0.877041       -23.8655
  10   2.0000      -0.779190       -21.2028
  11   2.0000      -0.771924       -21.0051
  12   2.0000      -0.710254       -19.3270
  13   2.0000      -0.637879       -17.3576
  14   2.0000      -0.613961       -16.7067
  15   2.0000      -0.557768       -15.1776
  16   2.0000      -0.541344       -14.7307
  17   2.0000      -0.527162       -14.3448
  18   2.0000      -0.486094       -13.2273
  19   2.0000      -0.461308       -12.5528
  20   0.0000       0.026391         0.7181
  21   0.0000       0.039313         1.0698
  22   0.0000       0.040871         1.1122
  23   0.0000       0.048896         1.3305
  24   0.0000       0.063892         1.7386

MULLIKEN ATOMIC CHARGES
-----------------------
   0 C :   -0.969224
   1 C :   -0.249928
   2 H :    0.301092
   3 H :    0.274925
   4 C :    0.639300
   5 F :   -0.276677
   6 O :   -0.655899
   7 H :    0.305912
   8 H :    0.324139
   9 H :    0.306360
Sum of atomic charges:    0.0000000

LOEWDIN ATOMIC CHARGES
----------------------
   0 C :    0.594151
   1 C :    0.245428
   2 H :   -0.159407
   3 H :   -0.177129
   4 C :   -0.924717
   5 F :    0.593048
   6 O :    0.375488
   7 H :   -0.182564
   8 H :   -0.184888
   9 H :   -0.179409

  Mayer bond orders larger than 0.100000
B(  0-C ,  1-C ) :   0.8422 B(  0-C ,  4-C ) :   0.1305 B(  0-C ,  7-H ) :   0.9202
B(  0-C ,  8-H ) :   0.9149 B(  0-C ,  9-H ) :   0.9335 B(  1-C ,  2-H ) :   0.9120
B(  1-C ,  3-H ) :   0.9423 B(  1-C ,  4-C ) :   0.7570 B(  4-C ,  5-F ) :   0.8552
B(  4-C ,  6-O ) :   1.6884

E(0)                                       ...   -290.923224231
E(0)                                       ...   -290.923224231
E(CORR)(strong-pairs)                      ...     -1.024719440
E(CORR)(weak-pairs)                        ...     -0.000879916
E(CORR)(corrected)                         ...     -1.025599357
E(TOT)                                     ...   -291.948823587
E(CCSD(T))                                 ...   -291.989128275
FINAL SINGLE POINT ENERGY      -291.989128274745

DIPOLE MOMENT
-------------
                                X             Y             Z
Electronic contribution:      3.84769      -0.02845      -7.41891
Nuclear contribution   :     -5.17129      -0.01923       7.59895
                        -----------------------------------------
Total Dipole Moment    :     -1.32360      -0.04768       0.18004
                        -----------------------------------------
Magnitude (a.u.)       :      1.33664
Magnitude (Debye)      :      3.39747

Rotational constants in cm-1:     0.282073     0.131822     0.105134
Rotational constants in MHz :  8456.328792  3951.925810  3151.840112

                             ****ORCA TERMINATED NORMALLY****
TOTAL RUN TIME: 0 days 0 hours 3 minutes 22 seconds 235 msec
