                         Program Version 5.0.0 -  RELEASE  -
|  1> !DLPNO-CCSD(T) aug-cc-pVTZ aug-cc-pVTZ/C TightSCF TightPNO RIJCOSX def2/J
|  2> *xyz 0 1
|  3> C          3.90595        2.81985       -3.75292
|  4> C          5.29562        3.13151       -4.10533
|  5> C          3.80351        1.37472       -3.26081
|  6> C          5.70862        3.46889       -5.32419
|  7> N          6.90470        3.03895       -5.71708
|  8> N          4.98188        4.29357       -6.09746
|  9> H          5.00055        4.10131       -7.08776
| 10> H          4.08469        4.59690       -5.73965
| 11> H          5.96336        2.52611       -3.64239
| 12> H          7.04716        2.06686       -5.47360
| 13> H          7.19815        3.30799       -6.64523
| 14> H          3.28202        2.94919       -4.64026
| 15> H          3.56525        3.51457       -2.98252
| 16> H          4.14157        0.71142       -4.02935
| 17> H          2.78528        1.15146       -3.01944
| 18> H          4.41205        1.25066       -2.38949
| 19> *
| 20>
| 21> %MaxCore 64000
| 22>
| 23> %pal nprocs 18
| 24> end
| 25>
| 26> %scf
| 27>   MaxIter 150
| 28> end
| 29>
| 30>
| 31>                          ****END OF INPUT****

CARTESIAN COORDINATES (ANGSTROEM)
---------------------------------
  C      3.905950    2.819850   -3.752920
  C      5.295620    3.131510   -4.105330
  C      3.803510    1.374720   -3.260810
  C      5.708620    3.468890   -5.324190
  N      6.904700    3.038950   -5.717080
  N      4.981880    4.293570   -6.097460
  H      5.000550    4.101310   -7.087760
  H      4.084690    4.596900   -5.739650
  H      5.963360    2.526110   -3.642390
  H      7.047160    2.066860   -5.473600
  H      7.198150    3.307990   -6.645230
  H      3.282020    2.949190   -4.640260
  H      3.565250    3.514570   -2.982520
  H      4.141570    0.711420   -4.029350
  H      2.785280    1.151460   -3.019440
  H      4.412050    1.250660   -2.389490

 Total Charge           Charge          ....    0
 Multiplicity           Mult            ....    1
 Number of Electrons    NEL             ....   48
 Basis Dimension        Dim             ....  506

ORBITAL ENERGIES
----------------

  NO   OCC          E(Eh)            E(eV)
   0   2.0000     -15.566071      -423.5743
   1   2.0000     -15.562839      -423.4864
   2   2.0000     -11.282786      -307.0202
   3   2.0000     -11.200588      -304.7835
   4   2.0000     -11.192657      -304.5677
   5   2.0000     -11.142891      -303.2135
   6   2.0000      -1.283720       -34.9318
   7   2.0000      -1.172510       -31.9056
   8   2.0000      -1.053239       -28.6601
   9   2.0000      -0.950000       -25.8508
  10   2.0000      -0.837206       -22.7815
  11   2.0000      -0.776223       -21.1221
  12   2.0000      -0.716178       -19.4882
  13   2.0000      -0.693951       -18.8834
  14   2.0000      -0.646907       -17.6032
  15   2.0000      -0.613831       -16.7032
  16   2.0000      -0.584884       -15.9155
  17   2.0000      -0.548319       -14.9205
  18   2.0000      -0.524734       -14.2788
  19   2.0000      -0.497129       -13.5276
  20   2.0000      -0.472749       -12.8641
  21   2.0000      -0.466491       -12.6939
  22   2.0000      -0.425643       -11.5823
  23   2.0000      -0.269774        -7.3409
  24   0.0000       0.023129         0.6294
  25   0.0000       0.035227         0.9586
  26   0.0000       0.038444         1.0461
  27   0.0000       0.044983         1.2241
  28   0.0000       0.052681         1.4335

MULLIKEN ATOMIC CHARGES
-----------------------
   0 C :   -0.319369
   1 C :   -0.454773
   2 C :   -0.994911
   3 C :    0.769573
   4 N :   -0.507597
   5 N :   -0.471790
   6 H :    0.095023
   7 H :    0.094656
   8 H :    0.299911
   9 H :    0.132238
  10 H :    0.047441
  11 H :    0.222210
  12 H :    0.212311
  13 H :    0.273063
  14 H :    0.290729
  15 H :    0.311284
Sum of atomic charges:   -0.0000000

LOEWDIN ATOMIC CHARGES
----------------------
   0 C :    0.210902
   1 C :    0.210934
   2 C :    0.597493
   3 C :   -0.432860
   4 N :    0.860112
   5 N :    0.868268
   6 H :   -0.287106
   7 H :   -0.289237
   8 H :   -0.294822
   9 H :   -0.279609
  10 H :   -0.285971
  11 H :   -0.173222
  12 H :   -0.155277
  13 H :   -0.181221
  14 H :   -0.186000
  15 H :   -0.182385

  Mayer bond orders larger than 0.100000
B(  0-C ,  1-C ) :   0.7802 B(  0-C ,  2-C ) :   0.8306 B(  0-C , 11-H ) :   0.9294
B(  0-C , 12-H ) :   1.0542 B(  1-C ,  3-C ) :   1.1618 B(  1-C ,  5-N ) :  -0.1010
B(  1-C ,  8-H ) :   0.9689 B(  2-C , 13-H ) :   0.9694 B(  2-C , 14-H ) :   0.9704
B(  2-C , 15-H ) :   0.9251 B(  3-C ,  4-N ) :   0.6541 B(  3-C ,  5-N ) :   0.6892
B(  4-N ,  5-N ) :  -0.1437 B(  4-N ,  9-H ) :   1.0687 B(  4-N , 10-H ) :   1.1246
B(  5-N ,  6-H ) :   1.0802 B(  5-N ,  7-H ) :   1.0676

E(0)                                       ...   -266.244873026
E(0)                                       ...   -266.244873026
E(CORR)(strong-pairs)                      ...     -1.168285668
E(CORR)(weak-pairs)                        ...     -0.001259683
E(CORR)(corrected)                         ...     -1.169545351
E(TOT)                                     ...   -267.414418378
E(CCSD(T))                                 ...   -267.462647003
FINAL SINGLE POINT ENERGY      -267.462647002526

DIPOLE MOMENT
-------------
                                X             Y             Z
Electronic contribution:      3.14981       3.21115      -2.88957
Nuclear contribution   :     -3.27358      -3.61654       1.70633
                        -----------------------------------------
Total Dipole Moment    :     -0.12377      -0.40539      -1.18324
                        -----------------------------------------
Magnitude (a.u.)       :      1.25687
Magnitude (Debye)      :      3.19472

Rotational constants in cm-1:     0.231961     0.071249     0.059473
Rotational constants in MHz :  6954.024434  2135.976855  1782.962814

                             ****ORCA TERMINATED NORMALLY****
TOTAL RUN TIME: 0 days 0 hours 12 minutes 41 seconds 394 msec
