                         Program Version 5.0.0 -  RELEASE  -
|  1> !DLPNO-CCSD(T) aug-cc-pVTZ aug-cc-pVTZ/C TightSCF TightPNO RIJCOSX def2/J
|  2> *xyz 0 1
|  3> C          3.80351        1.37472       -3.26081
|  4> C          3.93993        0.32036       -4.36773
|  5> H          4.10504       -0.65508       -3.90773
|  6> H          3.02280        0.28052       -4.95712
|  7> C          5.10585        0.66802       -5.30546
|  8> O          4.80913        1.15019       -6.41436
|  9> F          6.26737        0.56500       -4.81948
| 10> H          3.64113        2.33595       -3.70189
| 11> H          4.69995        1.39701       -2.67703
| 12> H          2.97435        1.12625       -2.63180
| 13> *
| 14>
| 15> %MaxCore 64000
| 16>
| 17> %pal nprocs 18
| 18> end
| 19>
| 20> %scf
| 21>   MaxIter 150
| 22> end
| 23>
| 24>
| 25>                          ****END OF INPUT****

CARTESIAN COORDINATES (ANGSTROEM)
---------------------------------
  C      3.803510    1.374720   -3.260810
  C      3.939930    0.320360   -4.367730
  H      4.105040   -0.655080   -3.907730
  H      3.022800    0.280520   -4.957120
  C      5.105850    0.668020   -5.305460
  O      4.809130    1.150190   -6.414360
  F      6.267370    0.565000   -4.819480
  H      3.641130    2.335950   -3.701890
  H      4.699950    1.397010   -2.677030
  H      2.974350    1.126250   -2.631800

 Total Charge           Charge          ....    0
 Multiplicity           Mult            ....    1
 Number of Electrons    NEL             ....   40
 Basis Dimension        Dim             ....  345

ORBITAL ENERGIES
----------------

  NO   OCC          E(Eh)            E(eV)
   0   2.0000     -26.374170      -717.6776
   1   2.0000     -20.565533      -559.6166
   2   2.0000     -11.428824      -310.9941
   3   2.0000     -11.260979      -306.4268
   4   2.0000     -11.235759      -305.7405
   5   2.0000      -1.724678       -46.9309
   6   2.0000      -1.382507       -37.6199
   7   2.0000      -1.078580       -29.3496
   8   2.0000      -0.933603       -25.4046
   9   2.0000      -0.874077       -23.7848
  10   2.0000      -0.773239       -21.0409
  11   2.0000      -0.764238       -20.7960
  12   2.0000      -0.708466       -19.2783
  13   2.0000      -0.638524       -17.3751
  14   2.0000      -0.616425       -16.7738
  15   2.0000      -0.566702       -15.4207
  16   2.0000      -0.545318       -14.8388
  17   2.0000      -0.528643       -14.3851
  18   2.0000      -0.495545       -13.4845
  19   2.0000      -0.460936       -12.5427
  20   0.0000       0.026216         0.7134
  21   0.0000       0.038666         1.0522
  22   0.0000       0.041171         1.1203
  23   0.0000       0.048780         1.3274
  24   0.0000       0.062897         1.7115

MULLIKEN ATOMIC CHARGES
-----------------------
   0 C :   -0.986524
   1 C :   -0.256287
   2 H :    0.297622
   3 H :    0.298351
   4 C :    0.660393
   5 O :   -0.644071
   6 F :   -0.298310
   7 H :    0.324646
   8 H :    0.305061
   9 H :    0.299118
Sum of atomic charges:    0.0000000

LOEWDIN ATOMIC CHARGES
----------------------
   0 C :    0.594398
   1 C :    0.245301
   2 H :   -0.166935
   3 H :   -0.167719
   4 C :   -0.922099
   5 O :    0.389925
   6 F :    0.573204
   7 H :   -0.180869
   8 H :   -0.186497
   9 H :   -0.178709

  Mayer bond orders larger than 0.100000
B(  0-C ,  1-C ) :   0.8419 B(  0-C ,  4-C ) :   0.1478 B(  0-C ,  7-H ) :   0.9048
B(  0-C ,  8-H ) :   0.9225 B(  0-C ,  9-H ) :   0.9477 B(  1-C ,  2-H ) :   0.9291
B(  1-C ,  3-H ) :   0.9234 B(  1-C ,  4-C ) :   0.7684 B(  4-C ,  5-O ) :   1.6748
B(  4-C ,  6-F ) :   0.8536

E(0)                                       ...   -290.929429372
E(0)                                       ...   -290.929429372
E(CORR)(strong-pairs)                      ...     -1.023969612
E(CORR)(weak-pairs)                        ...     -0.000872000
E(CORR)(corrected)                         ...     -1.024841611
E(TOT)                                     ...   -291.954270984
E(CCSD(T))                                 ...   -291.994316345
FINAL SINGLE POINT ENERGY      -291.994316345001

DIPOLE MOMENT
-------------
                                X             Y             Z
Electronic contribution:      6.36718      -1.04340      -4.64768
Nuclear contribution   :     -6.76123       0.61881       5.86003
                        -----------------------------------------
Total Dipole Moment    :     -0.39405      -0.42459       1.21235
                        -----------------------------------------
Magnitude (a.u.)       :      1.34363
Magnitude (Debye)      :      3.41523

Rotational constants in cm-1:     0.275298     0.134631     0.105723
Rotational constants in MHz :  8253.224169  4036.137572  3169.487264

                             ****ORCA TERMINATED NORMALLY****
TOTAL RUN TIME: 0 days 0 hours 3 minutes 26 seconds 39 msec
