                         Program Version 5.0.0 -  RELEASE  -
|  1> !DLPNO-CCSD(T) aug-cc-pVTZ aug-cc-pVTZ/C TightSCF TightPNO RIJCOSX def2/J
|  2> *xyz 0 1
|  3> C          3.90595        2.81985       -3.75292
|  4> N          5.29562        3.13151       -4.10533
|  5> C          3.80351        1.37472       -3.26081
|  6> C          5.70862        3.46889       -5.32419
|  7> C          6.90470        3.03895       -5.71708
|  8> N          4.98188        4.29357       -6.09746
|  9> H          5.00055        4.10131       -7.08776
| 10> H          4.08469        4.59690       -5.73965
| 11> H          5.96336        2.52611       -3.64239
| 12> H          7.04716        2.06686       -5.47360
| 13> H          7.19815        3.30799       -6.64523
| 14> H          3.28202        2.94919       -4.64026
| 15> H          3.56525        3.51457       -2.98252
| 16> H          4.14157        0.71142       -4.02935
| 17> H          2.78528        1.15146       -3.01944
| 18> H          4.41205        1.25066       -2.38949
| 19> *
| 20>
| 21> %MaxCore 64000
| 22>
| 23> %pal nprocs 18
| 24> end
| 25>
| 26> %scf
| 27>   MaxIter 150
| 28> end
| 29>
| 30>
| 31>                          ****END OF INPUT****

CARTESIAN COORDINATES (ANGSTROEM)
---------------------------------
  C      3.905950    2.819850   -3.752920
  N      5.295620    3.131510   -4.105330
  C      3.803510    1.374720   -3.260810
  C      5.708620    3.468890   -5.324190
  C      6.904700    3.038950   -5.717080
  N      4.981880    4.293570   -6.097460
  H      5.000550    4.101310   -7.087760
  H      4.084690    4.596900   -5.739650
  H      5.963360    2.526110   -3.642390
  H      7.047160    2.066860   -5.473600
  H      7.198150    3.307990   -6.645230
  H      3.282020    2.949190   -4.640260
  H      3.565250    3.514570   -2.982520
  H      4.141570    0.711420   -4.029350
  H      2.785280    1.151460   -3.019440
  H      4.412050    1.250660   -2.389490

 Total Charge           Charge          ....    0
 Multiplicity           Mult            ....    1
 Number of Electrons    NEL             ....   48
 Basis Dimension        Dim             ....  506

ORBITAL ENERGIES
----------------

  NO   OCC          E(Eh)            E(eV)
   0   2.0000     -15.566793      -423.5940
   1   2.0000     -15.561598      -423.4526
   2   2.0000     -11.290781      -307.2378
   3   2.0000     -11.269274      -306.6525
   4   2.0000     -11.223158      -305.3977
   5   2.0000     -11.128212      -302.8140
   6   2.0000      -1.290459       -35.1152
   7   2.0000      -1.187174       -32.3046
   8   2.0000      -1.042057       -28.3558
   9   2.0000      -0.966189       -26.2913
  10   2.0000      -0.858151       -23.3515
  11   2.0000      -0.800008       -21.7693
  12   2.0000      -0.717329       -19.5195
  13   2.0000      -0.670321       -18.2404
  14   2.0000      -0.656757       -17.8713
  15   2.0000      -0.618618       -16.8335
  16   2.0000      -0.587740       -15.9932
  17   2.0000      -0.561881       -15.2896
  18   2.0000      -0.533924       -14.5288
  19   2.0000      -0.527854       -14.3637
  20   2.0000      -0.519776       -14.1438
  21   2.0000      -0.489908       -13.3311
  22   2.0000      -0.406159       -11.0521
  23   2.0000      -0.276465        -7.5230
  24   0.0000       0.024303         0.6613
  25   0.0000       0.033829         0.9205
  26   0.0000       0.037230         1.0131
  27   0.0000       0.040849         1.1116
  28   0.0000       0.054101         1.4722

MULLIKEN ATOMIC CHARGES
-----------------------
   0 C :   -0.435204
   1 N :   -0.042707
   2 C :   -0.946254
   3 C :    0.956941
   4 C :   -1.424045
   5 N :   -0.478365
   6 H :    0.062464
   7 H :    0.109709
   8 H :    0.059010
   9 H :    0.261199
  10 H :    0.362466
  11 H :    0.308940
  12 H :    0.289558
  13 H :    0.293339
  14 H :    0.317090
  15 H :    0.305858
Sum of atomic charges:    0.0000000

LOEWDIN ATOMIC CHARGES
----------------------
   0 C :    0.204202
   1 N :    0.571353
   2 C :    0.618624
   3 C :   -0.461221
   4 C :    0.547800
   5 N :    0.873398
   6 H :   -0.275691
   7 H :   -0.299788
   8 H :   -0.294835
   9 H :   -0.321406
  10 H :   -0.317219
  11 H :   -0.162788
  12 H :   -0.144104
  13 H :   -0.176688
  14 H :   -0.181099
  15 H :   -0.180538

  Mayer bond orders larger than 0.100000
B(  0-C ,  1-N ) :   0.8717 B(  0-C ,  2-C ) :   0.8388 B(  0-C ,  3-C ) :  -0.1003
B(  0-C , 11-H ) :   0.9369 B(  0-C , 12-H ) :   0.9319 B(  1-N ,  3-C ) :   0.8524
B(  1-N ,  4-C ) :  -0.1632 B(  1-N ,  5-N ) :  -0.1354 B(  1-N ,  8-H ) :   1.0808
B(  2-C , 13-H ) :   0.9359 B(  2-C , 14-H ) :   0.9442 B(  2-C , 15-H ) :   0.9366
B(  3-C ,  4-C ) :   0.9846 B(  3-C ,  5-N ) :   0.6535 B(  4-C ,  9-H ) :   1.0879
B(  4-C , 10-H ) :   0.8946 B(  5-N ,  6-H ) :   1.1387 B(  5-N ,  7-H ) :   1.0368

E(0)                                       ...   -266.236021365
E(0)                                       ...   -266.236021365
E(CORR)(strong-pairs)                      ...     -1.165176124
E(CORR)(weak-pairs)                        ...     -0.001253650
E(CORR)(corrected)                         ...     -1.166429774
E(TOT)                                     ...   -267.402451139
E(CCSD(T))                                 ...   -267.450589502
FINAL SINGLE POINT ENERGY      -267.450589502284

DIPOLE MOMENT
-------------
                                X             Y             Z
Electronic contribution:      1.41047       3.21080      -1.26887
Nuclear contribution   :     -2.93222      -3.63618       1.36440
                        -----------------------------------------
Total Dipole Moment    :     -1.52175      -0.42538       0.09554
                        -----------------------------------------
Magnitude (a.u.)       :      1.58297
Magnitude (Debye)      :      4.02359

Rotational constants in cm-1:     0.237993     0.072843     0.061284
Rotational constants in MHz :  7134.860770  2183.763760  1837.240960

                             ****ORCA TERMINATED NORMALLY****
TOTAL RUN TIME: 0 days 0 hours 12 minutes 59 seconds 375 msec
