                         Program Version 5.0.0 -  RELEASE  -
|  1> !DLPNO-CCSD(T) aug-cc-pVTZ aug-cc-pVTZ/C TightSCF TightPNO RIJCOSX def2/J
|  2> *xyz 0 1
|  3> C          3.90595        2.81985       -3.75292
|  4> N          5.29562        3.13151       -4.10533
|  5> C          3.80351        1.37472       -3.26081
|  6> C          5.70862        3.46889       -5.32419
|  7> N          6.90470        3.03895       -5.71708
|  8> C          4.98188        4.29357       -6.09746
|  9> H          5.00055        4.10131       -7.08776
| 10> H          4.08469        4.59690       -5.73965
| 11> H          5.96336        2.52611       -3.64239
| 12> H          7.04716        2.06686       -5.47360
| 13> H          7.19815        3.30799       -6.64523
| 14> H          3.28202        2.94919       -4.64026
| 15> H          3.56525        3.51457       -2.98252
| 16> H          4.14157        0.71142       -4.02935
| 17> H          2.78528        1.15146       -3.01944
| 18> H          4.41205        1.25066       -2.38949
| 19> *
| 20>
| 21> %MaxCore 64000
| 22>
| 23> %pal nprocs 18
| 24> end
| 25>
| 26> %scf
| 27>   MaxIter 150
| 28> end
| 29>
| 30>
| 31>                          ****END OF INPUT****

CARTESIAN COORDINATES (ANGSTROEM)
---------------------------------
  C      3.905950    2.819850   -3.752920
  N      5.295620    3.131510   -4.105330
  C      3.803510    1.374720   -3.260810
  C      5.708620    3.468890   -5.324190
  N      6.904700    3.038950   -5.717080
  C      4.981880    4.293570   -6.097460
  H      5.000550    4.101310   -7.087760
  H      4.084690    4.596900   -5.739650
  H      5.963360    2.526110   -3.642390
  H      7.047160    2.066860   -5.473600
  H      7.198150    3.307990   -6.645230
  H      3.282020    2.949190   -4.640260
  H      3.565250    3.514570   -2.982520
  H      4.141570    0.711420   -4.029350
  H      2.785280    1.151460   -3.019440
  H      4.412050    1.250660   -2.389490

 Total Charge           Charge          ....    0
 Multiplicity           Mult            ....    1
 Number of Electrons    NEL             ....   48
 Basis Dimension        Dim             ....  506

ORBITAL ENERGIES
----------------

  NO   OCC          E(Eh)            E(eV)
   0   2.0000     -15.566065      -423.5742
   1   2.0000     -15.563409      -423.5019
   2   2.0000     -11.288754      -307.1826
   3   2.0000     -11.262832      -306.4772
   4   2.0000     -11.220739      -305.3318
   5   2.0000     -11.134238      -302.9780
   6   2.0000      -1.295705       -35.2579
   7   2.0000      -1.189053       -32.3558
   8   2.0000      -1.028360       -27.9831
   9   2.0000      -0.968661       -26.3586
  10   2.0000      -0.870511       -23.6878
  11   2.0000      -0.769541       -20.9403
  12   2.0000      -0.719433       -19.5768
  13   2.0000      -0.698465       -19.0062
  14   2.0000      -0.643773       -17.5180
  15   2.0000      -0.621524       -16.9125
  16   2.0000      -0.568409       -15.4672
  17   2.0000      -0.556829       -15.1521
  18   2.0000      -0.553209       -15.0536
  19   2.0000      -0.527073       -14.3424
  20   2.0000      -0.511272       -13.9124
  21   2.0000      -0.490726       -13.3533
  22   2.0000      -0.403283       -10.9739
  23   2.0000      -0.278151        -7.5689
  24   0.0000       0.024646         0.6706
  25   0.0000       0.033542         0.9127
  26   0.0000       0.038740         1.0542
  27   0.0000       0.041843         1.1386
  28   0.0000       0.053040         1.4433

MULLIKEN ATOMIC CHARGES
-----------------------
   0 C :   -0.465792
   1 N :   -0.129812
   2 C :   -0.945697
   3 C :    0.821844
   4 N :   -0.570406
   5 C :   -1.235689
   6 H :    0.229277
   7 H :    0.487162
   8 H :    0.042196
   9 H :    0.115830
  10 H :    0.094694
  11 H :    0.335868
  12 H :    0.304651
  13 H :    0.289897
  14 H :    0.310179
  15 H :    0.315796
Sum of atomic charges:    0.0000000

LOEWDIN ATOMIC CHARGES
----------------------
   0 C :    0.209489
   1 N :    0.573899
   2 C :    0.615328
   3 C :   -0.465740
   4 N :    0.859828
   5 C :    0.556871
   6 H :   -0.318011
   7 H :   -0.322967
   8 H :   -0.296574
   9 H :   -0.287055
  10 H :   -0.277056
  11 H :   -0.165365
  12 H :   -0.138867
  13 H :   -0.179737
  14 H :   -0.179943
  15 H :   -0.184100

  Mayer bond orders larger than 0.100000
B(  0-C ,  1-N ) :   0.9234 B(  0-C ,  2-C ) :   0.8304 B(  0-C , 11-H ) :   0.9385
B(  0-C , 12-H ) :   0.9138 B(  1-N ,  3-C ) :   0.8458 B(  1-N ,  4-N ) :  -0.1210
B(  1-N ,  8-H ) :   1.0287 B(  2-C , 13-H ) :   0.9407 B(  2-C , 14-H ) :   0.9491
B(  2-C , 15-H ) :   0.9325 B(  3-C ,  4-N ) :   0.8423 B(  3-C ,  5-C ) :   1.1081
B(  4-N ,  5-C ) :  -0.1473 B(  4-N ,  9-H ) :   1.0338 B(  4-N , 10-H ) :   1.1011
B(  5-C ,  6-H ) :   1.1823 B(  5-C ,  7-H ) :   0.7010

E(0)                                       ...   -266.241091021
E(0)                                       ...   -266.241091021
E(CORR)(strong-pairs)                      ...     -1.165251547
E(CORR)(weak-pairs)                        ...     -0.001257973
E(CORR)(corrected)                         ...     -1.166509520
E(TOT)                                     ...   -267.407600541
E(CCSD(T))                                 ...   -267.455740581
FINAL SINGLE POINT ENERGY      -267.455740581269

DIPOLE MOMENT
-------------
                                X             Y             Z
Electronic contribution:      3.37224       1.97074      -0.96342
Nuclear contribution   :     -3.34013      -3.37002       1.28371
                        -----------------------------------------
Total Dipole Moment    :      0.03211      -1.39928       0.32029
                        -----------------------------------------
Magnitude (a.u.)       :      1.43583
Magnitude (Debye)      :      3.64959

Rotational constants in cm-1:     0.239537     0.072280     0.060961
Rotational constants in MHz :  7181.153552  2166.902802  1827.551447

                             ****ORCA TERMINATED NORMALLY****
TOTAL RUN TIME: 0 days 0 hours 12 minutes 18 seconds 726 msec
