                         Program Version 5.0.0 -  RELEASE  -
|  1> !DLPNO-CCSD(T) aug-cc-pVTZ aug-cc-pVTZ/C TightSCF TightPNO RIJCOSX def2/J
|  2>
|  3> *xyzfile 0 1 D1.xyz
|  4>
|  5> %MaxCore 64000
|  6>
|  7> %pal nprocs 18
|  8> end
|  9>
| 10> %scf
| 11>   MaxIter 150
| 12> end
| 13>
| 14>
| 15>                          ****END OF INPUT****

CARTESIAN COORDINATES (ANGSTROEM)
---------------------------------
  C      3.905947    2.819855   -3.752920
  C      5.295615    3.131515   -4.105334
  C      3.803511    1.374716   -3.260807
  C      3.939934    0.320362   -4.367729
  H      4.105043   -0.655085   -3.907733
  H      3.022801    0.280517   -4.957117
  C      5.105846    0.668022   -5.305463
  C      5.708619    3.468885   -5.324190
  N      6.904696    3.038954   -5.717084
  N      4.981884    4.293570   -6.097457
  H      5.000546    4.101311   -7.087761
  H      4.084693    4.596899   -5.739652
  H      5.963358    2.526112   -3.642391
  H      7.047164    2.066861   -5.473604
  H      7.198145    3.307994   -6.645225
  H      3.282025    2.949187   -4.640259
  H      3.565254    3.514574   -2.982523
  H      4.574833    1.215157   -2.500443
  H      2.843514    1.260845   -2.751465
  F      4.809132    1.150187   -6.414361
  O      6.267366    0.564999   -4.819481

 Total Charge           Charge          ....    0
 Multiplicity           Mult            ....    1
 Number of Electrons    NEL             ....   78
 Basis Dimension        Dim             ....  713

ORBITAL ENERGIES
----------------

  NO   OCC          E(Eh)            E(eV)
   0   2.0000     -26.387972      -718.0532
   1   2.0000     -20.562436      -559.5323
   2   2.0000     -15.563867      -423.5143
   3   2.0000     -15.540021      -422.8655
   4   2.0000     -11.440963      -311.3244
   5   2.0000     -11.279532      -306.9317
   6   2.0000     -11.259073      -306.3750
   7   2.0000     -11.233367      -305.6755
   8   2.0000     -11.213483      -305.1344
   9   2.0000     -11.140067      -303.1366
  10   2.0000      -1.747974       -47.5648
  11   2.0000      -1.381680       -37.5974
  12   2.0000      -1.276596       -34.7379
  13   2.0000      -1.164115       -31.6772
  14   2.0000      -1.100326       -29.9414
  15   2.0000      -1.020715       -27.7751
  16   2.0000      -0.949073       -25.8256
  17   2.0000      -0.902614       -24.5614
  18   2.0000      -0.833869       -22.6907
  19   2.0000      -0.788326       -21.4515
  20   2.0000      -0.780445       -21.2370
  21   2.0000      -0.771075       -20.9820
  22   2.0000      -0.728447       -19.8221
  23   2.0000      -0.705758       -19.2046
  24   2.0000      -0.686017       -18.6675
  25   2.0000      -0.641003       -17.4426
  26   2.0000      -0.629046       -17.1172
  27   2.0000      -0.616879       -16.7861
  28   2.0000      -0.596171       -16.2226
  29   2.0000      -0.572807       -15.5869
  30   2.0000      -0.540721       -14.7138
  31   2.0000      -0.519330       -14.1317
  32   2.0000      -0.516907       -14.0658
  33   2.0000      -0.493294       -13.4232
  34   2.0000      -0.482697       -13.1349
  35   2.0000      -0.465883       -12.6773
  36   2.0000      -0.461576       -12.5601
  37   2.0000      -0.413203       -11.2438
  38   2.0000      -0.269382        -7.3303
  39   0.0000       0.023591         0.6419
  40   0.0000       0.031763         0.8643
  41   0.0000       0.036261         0.9867
  42   0.0000       0.040602         1.1048
  43   0.0000       0.049794         1.3550

MULLIKEN ATOMIC CHARGES
-----------------------
   0 C :   -0.378606
   1 C :   -0.239770
   2 C :   -0.503577
   3 C :   -0.387975
   4 H :    0.363579
   5 H :    0.248909
   6 C :    1.000341
   7 C :    1.117207
   8 N :   -0.782880
   9 N :   -0.719987
  10 H :    0.061891
  11 H :    0.085734
  12 H :    0.228624
  13 H :    0.188375
  14 H :    0.064599
  15 H :    0.154840
  16 H :    0.264245
  17 H :    0.200561
  18 H :    0.341543
  19 F :   -0.465327
  20 O :   -0.842325
Sum of atomic charges:   -0.0000000

LOEWDIN ATOMIC CHARGES
----------------------
   0 C :    0.230462
   1 C :    0.191077
   2 C :    0.288955
   3 C :    0.303354
   4 H :   -0.149506
   5 H :   -0.165026
   6 C :   -0.873379
   7 C :   -0.466228
   8 N :    0.870110
   9 N :    0.872981
  10 H :   -0.286441
  11 H :   -0.287961
  12 H :   -0.323755
  13 H :   -0.495365
  14 H :   -0.273553
  15 H :   -0.169069
  16 H :   -0.144565
  17 H :   -0.139413
  18 H :   -0.140697
  19 F :    0.645892
  20 O :    0.512126

  Mayer bond orders larger than 0.100000
B(  0-C ,  1-C ) :   0.7338 B(  0-C ,  2-C ) :   0.8917 B(  0-C , 15-H ) :   0.9733
B(  0-C , 16-H ) :   1.0110 B(  1-C ,  7-C ) :   1.4291 B(  1-C ,  9-N ) :  -0.1247
B(  1-C , 12-H ) :   1.0149 B(  1-C , 16-H ) :  -0.1320 B(  2-C ,  3-C ) :   0.8777
B(  2-C ,  6-C ) :   0.1074 B(  2-C , 17-H ) :   1.0129 B(  2-C , 18-H ) :   0.8922
B(  3-C ,  4-H ) :   0.8775 B(  3-C ,  5-H ) :   1.0072 B(  3-C ,  6-C ) :   0.8509
B(  6-C , 19-F ) :   0.5344 B(  6-C , 20-O ) :   1.4347 B(  7-C ,  8-N ) :   0.3015
B(  7-C ,  9-N ) :   0.3210 B(  7-C , 13-H ) :  -0.1217 B(  7-C , 19-F ) :  -0.1159
B(  8-N , 13-H ) :   1.0170 B(  8-N , 14-H ) :   1.0928 B(  9-N , 10-H ) :   1.1425
B(  9-N , 11-H ) :   1.0807

E(0)                                       ...   -516.941655842
E(0)                                       ...   -516.941655842
E(CORR)(strong-pairs)                      ...     -1.986359714
E(CORR)(weak-pairs)                        ...     -0.002751360
E(CORR)(corrected)                         ...     -1.989111074
E(TOT)                                     ...   -518.930766916
E(CCSD(T))                                 ...   -519.015437978
FINAL SINGLE POINT ENERGY      -519.015437978025

DIPOLE MOMENT
-------------
                                X             Y             Z
Electronic contribution:      3.24556      -3.73648      -6.51392
Nuclear contribution   :     -4.60158       3.22721       5.56005
                        -----------------------------------------
Total Dipole Moment    :     -1.35603      -0.50927      -0.95386
                        -----------------------------------------
Magnitude (a.u.)       :      1.73437
Magnitude (Debye)      :      4.40841

Rotational constants in cm-1:     0.061224     0.042534     0.033552
Rotational constants in MHz :  1835.464095  1275.135177  1005.856966

                             ****ORCA TERMINATED NORMALLY****
TOTAL RUN TIME: 0 days 1 hours 46 minutes 25 seconds 50 msec
