                         Program Version 5.0.0 -  RELEASE  -
|  1> !DLPNO-CCSD(T) aug-cc-pVTZ aug-cc-pVTZ/C TightSCF TightPNO RIJCOSX def2/J
|  2>
|  3> *xyzfile 0 1 D2.xyz
|  4>
|  5> %MaxCore 64000
|  6>
|  7> %pal nprocs 18
|  8> end
|  9>
| 10> %scf
| 11>   MaxIter 150
| 12> end
| 13>
| 14>
| 15>                          ****END OF INPUT****

CARTESIAN COORDINATES (ANGSTROEM)
---------------------------------
  C      3.905947    2.819855   -3.752920
  N      5.295615    3.131515   -4.105334
  C      3.803511    1.374716   -3.260807
  C      3.939934    0.320362   -4.367729
  H      4.105043   -0.655085   -3.907733
  H      3.022801    0.280517   -4.957117
  C      5.105846    0.668022   -5.305463
  C      5.708619    3.468885   -5.324190
  C      6.904696    3.038954   -5.717084
  N      4.981884    4.293570   -6.097457
  H      5.000546    4.101311   -7.087761
  H      4.084693    4.596899   -5.739652
  H      5.963358    2.526112   -3.642391
  H      7.047164    2.066861   -5.473604
  H      7.198145    3.307994   -6.645225
  H      3.282025    2.949187   -4.640259
  H      3.565254    3.514574   -2.982523
  H      4.574833    1.215157   -2.500443
  H      2.843514    1.260845   -2.751465
  F      4.809132    1.150187   -6.414361
  O      6.267366    0.564999   -4.819481

 Total Charge           Charge          ....    0
 Multiplicity           Mult            ....    1
 Number of Electrons    NEL             ....   78
 Basis Dimension        Dim             ....  713

ORBITAL ENERGIES
----------------

  NO   OCC          E(Eh)            E(eV)
   0   2.0000     -26.386035      -718.0005
   1   2.0000     -20.561989      -559.5202
   2   2.0000     -15.560778      -423.4303
   3   2.0000     -15.559450      -423.3942
   4   2.0000     -11.440708      -311.3175
   5   2.0000     -11.278647      -306.9076
   6   2.0000     -11.277598      -306.8790
   7   2.0000     -11.271693      -306.7184
   8   2.0000     -11.258736      -306.3658
   9   2.0000     -11.107579      -302.2526
  10   2.0000      -1.745822       -47.5062
  11   2.0000      -1.380602       -37.5681
  12   2.0000      -1.288498       -35.0618
  13   2.0000      -1.187064       -32.3016
  14   2.0000      -1.099442       -29.9173
  15   2.0000      -1.006053       -27.3761
  16   2.0000      -0.956552       -26.0291
  17   2.0000      -0.909232       -24.7414
  18   2.0000      -0.846540       -23.0355
  19   2.0000      -0.798305       -21.7230
  20   2.0000      -0.785308       -21.3693
  21   2.0000      -0.779312       -21.2062
  22   2.0000      -0.732472       -19.9316
  23   2.0000      -0.702593       -19.1185
  24   2.0000      -0.673562       -18.3286
  25   2.0000      -0.659669       -17.9505
  26   2.0000      -0.637942       -17.3593
  27   2.0000      -0.618104       -16.8195
  28   2.0000      -0.584444       -15.9035
  29   2.0000      -0.572886       -15.5890
  30   2.0000      -0.556259       -15.1366
  31   2.0000      -0.550662       -14.9843
  32   2.0000      -0.523105       -14.2344
  33   2.0000      -0.514699       -14.0057
  34   2.0000      -0.493663       -13.4332
  35   2.0000      -0.487306       -13.2603
  36   2.0000      -0.445793       -12.1306
  37   2.0000      -0.401934       -10.9372
  38   2.0000      -0.264633        -7.2010
  39   0.0000       0.018923         0.5149
  40   0.0000       0.029869         0.8128
  41   0.0000       0.031804         0.8654
  42   0.0000       0.040242         1.0950
  43   0.0000       0.049320         1.3421

MULLIKEN ATOMIC CHARGES
-----------------------
   0 C :   -0.536864
   1 N :   -0.171653
   2 C :   -0.417160
   3 C :   -0.387994
   4 H :    0.366071
   5 H :    0.237757
   6 C :    0.988984
   7 C :    1.409309
   8 C :   -1.435770
   9 N :   -0.772719
  10 H :    0.057167
  11 H :    0.058920
  12 H :    0.071673
  13 H :    0.339106
  14 H :    0.341341
  15 H :    0.299127
  16 H :    0.255014
  17 H :    0.222449
  18 H :    0.323247
  19 F :   -0.427797
  20 O :   -0.820208
Sum of atomic charges:    0.0000000

LOEWDIN ATOMIC CHARGES
----------------------
   0 C :    0.218306
   1 N :    0.572927
   2 C :    0.298779
   3 C :    0.300360
   4 H :   -0.147870
   5 H :   -0.164961
   6 C :   -0.869956
   7 C :   -0.493801
   8 C :    0.540442
   9 N :    0.871752
  10 H :   -0.277030
  11 H :   -0.299634
  12 H :   -0.328383
  13 H :   -0.512433
  14 H :   -0.299649
  15 H :   -0.159686
  16 H :   -0.134247
  17 H :   -0.137952
  18 H :   -0.138751
  19 F :    0.648938
  20 O :    0.512850

  Mayer bond orders larger than 0.100000
B(  0-C ,  1-N ) :   0.8984 B(  0-C ,  2-C ) :   0.8328 B(  0-C , 15-H ) :   1.0014
B(  0-C , 16-H ) :   0.9550 B(  1-N ,  7-C ) :   0.6749 B(  1-N ,  8-C ) :  -0.1237
B(  1-N , 12-H ) :   1.1403 B(  2-C ,  3-C ) :   0.8780 B(  2-C ,  6-C ) :   0.1147
B(  2-C , 17-H ) :   0.9971 B(  2-C , 18-H ) :   0.9026 B(  3-C ,  4-H ) :   0.8739
B(  3-C ,  5-H ) :   0.9986 B(  3-C ,  6-C ) :   0.8593 B(  6-C , 19-F ) :   0.5568
B(  6-C , 20-O ) :   1.4803 B(  7-C ,  8-C ) :   1.1236 B(  7-C ,  9-N ) :   0.3517
B(  7-C , 19-F ) :  -0.1243 B(  8-C , 13-H ) :   0.9318 B(  8-C , 14-H ) :   0.9380
B(  9-N , 10-H ) :   1.1420 B(  9-N , 11-H ) :   1.0942 B( 13-H , 20-O ) :   0.1081

E(0)                                       ...   -516.913189410
E(0)                                       ...   -516.913189410
E(CORR)(strong-pairs)                      ...     -1.985976252
E(CORR)(weak-pairs)                        ...     -0.002679605
E(CORR)(corrected)                         ...     -1.988655857
E(TOT)                                     ...   -518.901845267
E(CCSD(T))                                 ...   -518.986623473
FINAL SINGLE POINT ENERGY      -518.986623473157

DIPOLE MOMENT
-------------
                                X             Y             Z
Electronic contribution:      1.83239      -3.85785      -5.16284
Nuclear contribution   :     -4.40347       3.21582       5.36161
                        -----------------------------------------
Total Dipole Moment    :     -2.57108      -0.64203       0.19877
                        -----------------------------------------
Magnitude (a.u.)       :      2.65748
Magnitude (Debye)      :      6.75476

Rotational constants in cm-1:     0.061226     0.043199     0.033926
Rotational constants in MHz :  1835.503528  1295.087558  1017.061512

                             ****ORCA TERMINATED NORMALLY****
TOTAL RUN TIME: 0 days 1 hours 26 minutes 51 seconds 581 msec
