                         Program Version 5.0.0 -  RELEASE  -
|  1> !DLPNO-CCSD(T) aug-cc-pVTZ aug-cc-pVTZ/C TightSCF TightPNO RIJCOSX def2/J
|  2>
|  3> *xyzfile 0 1 D4.xyz
|  4>
|  5> %MaxCore 64000
|  6>
|  7> %pal nprocs 18
|  8> end
|  9>
| 10> %scf
| 11>   MaxIter 150
| 12> end
| 13>
| 14>
| 15>                          ****END OF INPUT****

CARTESIAN COORDINATES (ANGSTROEM)
---------------------------------
  C      3.905947    2.819855   -3.752920
  C      5.295615    3.131515   -4.105334
  C      3.803511    1.374716   -3.260807
  C      3.939934    0.320362   -4.367729
  H      4.105043   -0.655085   -3.907733
  H      3.022801    0.280517   -4.957117
  C      5.105846    0.668022   -5.305463
  C      5.708619    3.468885   -5.324190
  N      6.904696    3.038954   -5.717084
  N      4.981884    4.293570   -6.097457
  H      5.000546    4.101311   -7.087761
  H      4.084693    4.596899   -5.739652
  H      5.963358    2.526112   -3.642391
  H      7.047164    2.066861   -5.473604
  H      7.198145    3.307994   -6.645225
  H      3.282025    2.949187   -4.640259
  H      3.565254    3.514574   -2.982523
  H      4.574833    1.215157   -2.500443
  H      2.843514    1.260845   -2.751465
  O      4.809132    1.150187   -6.414361
  F      6.267366    0.564999   -4.819481

 Total Charge           Charge          ....    0
 Multiplicity           Mult            ....    1
 Number of Electrons    NEL             ....   78
 Basis Dimension        Dim             ....  713

ORBITAL ENERGIES
----------------

  NO   OCC          E(Eh)            E(eV)
   0   2.0000     -26.383605      -717.9344
   1   2.0000     -20.563540      -559.5624
   2   2.0000     -15.560616      -423.4259
   3   2.0000     -15.549678      -423.1283
   4   2.0000     -11.433706      -311.1270
   5   2.0000     -11.283849      -307.0491
   6   2.0000     -11.256229      -306.2976
   7   2.0000     -11.233470      -305.6783
   8   2.0000     -11.210247      -305.0463
   9   2.0000     -11.140432      -303.1466
  10   2.0000      -1.739285       -47.3283
  11   2.0000      -1.386949       -37.7408
  12   2.0000      -1.278096       -34.7787
  13   2.0000      -1.166363       -31.7384
  14   2.0000      -1.099691       -29.9241
  15   2.0000      -1.019156       -27.7327
  16   2.0000      -0.946716       -25.7614
  17   2.0000      -0.898630       -24.4530
  18   2.0000      -0.830894       -22.6098
  19   2.0000      -0.805202       -21.9107
  20   2.0000      -0.784807       -21.3557
  21   2.0000      -0.755706       -20.5638
  22   2.0000      -0.713048       -19.4030
  23   2.0000      -0.702793       -19.1240
  24   2.0000      -0.691555       -18.8182
  25   2.0000      -0.639615       -17.4048
  26   2.0000      -0.634330       -17.2610
  27   2.0000      -0.615214       -16.7408
  28   2.0000      -0.599936       -16.3251
  29   2.0000      -0.572639       -15.5823
  30   2.0000      -0.539029       -14.6677
  31   2.0000      -0.520767       -14.1708
  32   2.0000      -0.515470       -14.0266
  33   2.0000      -0.497222       -13.5301
  34   2.0000      -0.484961       -13.1965
  35   2.0000      -0.470103       -12.7922
  36   2.0000      -0.451996       -12.2994
  37   2.0000      -0.415307       -11.3011
  38   2.0000      -0.272206        -7.4071
  39   0.0000       0.027393         0.7454
  40   0.0000       0.033154         0.9022
  41   0.0000       0.035661         0.9704
  42   0.0000       0.041461         1.1282
  43   0.0000       0.049121         1.3367

MULLIKEN ATOMIC CHARGES
-----------------------
   0 C :   -0.312022
   1 C :   -0.395038
   2 C :   -0.549020
   3 C :   -0.384154
   4 H :    0.357703
   5 H :    0.286610
   6 C :    1.019232
   7 C :    1.370830
   8 N :   -0.812196
   9 N :   -0.773261
  10 H :    0.076470
  11 H :    0.090098
  12 H :    0.188136
  13 H :    0.201020
  14 H :    0.078307
  15 H :    0.167570
  16 H :    0.279591
  17 H :    0.178880
  18 H :    0.332432
  19 O :   -0.926363
  20 F :   -0.474823
Sum of atomic charges:   -0.0000000

LOEWDIN ATOMIC CHARGES
----------------------
   0 C :    0.228985
   1 C :    0.185746
   2 C :    0.285429
   3 C :    0.299009
   4 H :   -0.157671
   5 H :   -0.156396
   6 C :   -0.896200
   7 C :   -0.474595
   8 N :    0.866937
   9 N :    0.881235
  10 H :   -0.281445
  11 H :   -0.284542
  12 H :   -0.318139
  13 H :   -0.448639
  14 H :   -0.268966
  15 H :   -0.166184
  16 H :   -0.146087
  17 H :   -0.144777
  18 H :   -0.140131
  19 O :    0.453482
  20 F :    0.682950

  Mayer bond orders larger than 0.100000
B(  0-C ,  1-C ) :   0.7358 B(  0-C ,  2-C ) :   0.8904 B(  0-C , 15-H ) :   0.9649
B(  0-C , 16-H ) :   0.9988 B(  1-C ,  7-C ) :   1.4866 B(  1-C ,  9-N ) :  -0.1389
B(  1-C , 12-H ) :   1.1013 B(  1-C , 16-H ) :  -0.1468 B(  2-C ,  3-C ) :   0.8919
B(  2-C ,  6-C ) :   0.1092 B(  2-C , 17-H ) :   1.0342 B(  2-C , 18-H ) :   0.9037
B(  3-C ,  4-H ) :   0.8940 B(  3-C ,  5-H ) :   0.9846 B(  3-C ,  6-C ) :   0.8743
B(  3-C , 20-F ) :   0.1030 B(  6-C , 19-O ) :   1.3377 B(  6-C , 20-F ) :   0.6187
B(  7-C ,  8-N ) :   0.2274 B(  7-C ,  9-N ) :   0.3005 B(  8-N , 13-H ) :   1.0390
B(  8-N , 14-H ) :   1.0895 B(  9-N , 10-H ) :   1.1317 B(  9-N , 11-H ) :   1.0811

E(0)                                       ...   -516.944573171
E(0)                                       ...   -516.944573171
E(CORR)(strong-pairs)                      ...     -1.985246099
E(CORR)(weak-pairs)                        ...     -0.002755295
E(CORR)(corrected)                         ...     -1.988001393
E(TOT)                                     ...   -518.932574564
E(CCSD(T))                                 ...   -519.016873912
FINAL SINGLE POINT ENERGY      -519.016873912027

DIPOLE MOMENT
-------------
                                X             Y             Z
Electronic contribution:      5.76787      -4.66439      -3.88805
Nuclear contribution   :     -6.25608       3.89116       3.75052
                        -----------------------------------------
Total Dipole Moment    :     -0.48821      -0.77323      -0.13753
                        -----------------------------------------
Magnitude (a.u.)       :      0.92474
Magnitude (Debye)      :      2.35051

Rotational constants in cm-1:     0.061229     0.042568     0.033282
Rotational constants in MHz :  1835.590871  1276.154029   997.769927

                             ****ORCA TERMINATED NORMALLY****
TOTAL RUN TIME: 0 days 1 hours 30 minutes 26 seconds 799 msec
