                         Program Version 5.0.0 -  RELEASE  -
|  1> !TPSS D3BJ RIJCOSX def2-SVPD def2/J TightSCF
|  2> *xyz -1 1
|  3> C         -0.72184       -0.99951       -3.43931
|  4> C          0.28725       -1.71177       -2.52740
|  5> H          1.13178       -2.06738       -3.15940
|  6> H         -0.20414       -2.63733       -2.17048
|  7> O          0.71050       -0.92751       -1.48177
|  8> H         -1.01315       -1.65739       -4.23129
|  9> H         -0.27123       -0.12142       -3.85259
| 10> H         -1.58442       -0.72333       -2.86958
| 11> *
| 12> %MaxCore 64000
| 13>
| 14> %pal nprocs 4
| 15> end
| 16>
| 17> %scf
| 18>   MaxIter 150
| 19> end
| 20>
| 21>
| 22>                          ****END OF INPUT****

CARTESIAN COORDINATES (ANGSTROEM)
---------------------------------
  C     -0.721840   -0.999510   -3.439310
  C      0.287250   -1.711770   -2.527400
  H      1.131780   -2.067380   -3.159400
  H     -0.204140   -2.637330   -2.170480
  O      0.710500   -0.927510   -1.481770
  H     -1.013150   -1.657390   -4.231290
  H     -0.271230   -0.121420   -3.852590
  H     -1.584420   -0.723330   -2.869580

 Total Charge           Charge          ....   -1
 Multiplicity           Mult            ....    1
 Number of Electrons    NEL             ....   26
 Basis Dimension        Dim             ....  103

ORBITAL ENERGIES
----------------

  NO   OCC          E(Eh)            E(eV)
   0   2.0000     -18.573132      -505.4006
   1   2.0000      -9.815894      -267.1040
   2   2.0000      -9.794398      -266.5191
   3   2.0000      -0.604573       -16.4513
   4   2.0000      -0.465588       -12.6693
   5   2.0000      -0.320486        -8.7209
   6   2.0000      -0.209828        -5.7097
   7   2.0000      -0.188217        -5.1216
   8   2.0000      -0.135653        -3.6913
   9   2.0000      -0.120825        -3.2878
  10   2.0000      -0.070510        -1.9187
  11   2.0000       0.067790         1.8447
  12   2.0000       0.070621         1.9217
  13   0.0000       0.170954         4.6519
  14   0.0000       0.201038         5.4705
  15   0.0000       0.232689         6.3318
  16   0.0000       0.245721         6.6864
  17   0.0000       0.262899         7.1538

MULLIKEN ATOMIC CHARGES
-----------------------
   0 C :    0.166233
   1 C :    0.159183
   2 H :   -0.149650
   3 H :   -0.156934
   4 O :   -0.907184
   5 H :   -0.016180
   6 H :   -0.049244
   7 H :   -0.046224
Sum of atomic charges:   -1.0000000

LOEWDIN ATOMIC CHARGES
----------------------
   0 C :    0.066139
   1 C :   -0.251630
   2 H :   -0.040395
   3 H :   -0.043777
   4 O :   -0.566872
   5 H :   -0.068324
   6 H :   -0.048022
   7 H :   -0.047119

  Mayer bond orders larger than 0.100000
B(  0-C ,  1-C ) :   1.1774 B(  0-C ,  2-H ) :   0.1328 B(  0-C ,  3-H ) :   0.1426
B(  0-C ,  4-O ) :   0.2835 B(  0-C ,  5-H ) :   0.9367 B(  0-C ,  6-H ) :   0.9319
B(  0-C ,  7-H ) :   0.9257 B(  1-C ,  2-H ) :   0.9933 B(  1-C ,  3-H ) :   0.9862
B(  1-C ,  4-O ) :   1.0842 B(  1-C ,  5-H ) :   0.1255 B(  1-C ,  6-H ) :   0.1714
B(  1-C ,  7-H ) :   0.1722

Dispersion correction           -0.004554556
FINAL SINGLE POINT ENERGY      -154.348173949606

DIPOLE MOMENT
-------------
                                X             Y             Z
Electronic contribution:      1.49205       0.71417       2.40985
Nuclear contribution   :     -2.24828      -1.06600      -3.62481
                        -----------------------------------------
Total Dipole Moment    :     -0.75623      -0.35183      -1.21495
                        -----------------------------------------
Magnitude (a.u.)       :      1.47369
Magnitude (Debye)      :      3.74583

Rotational constants in cm-1:     1.278116     0.325414     0.286672
Rotational constants in MHz : 38316.964654  9755.653004  8594.216906

                             ****ORCA TERMINATED NORMALLY****
TOTAL RUN TIME: 0 days 0 hours 0 minutes 8 seconds 429 msec
