                         Program Version 5.0.0 -  RELEASE  -
|  1> !TPSS D3BJ RIJCOSX def2-SVPD def2/J TightSCF
|  2> *xyz 1 1
|  3> C          3.48828        1.60092       -1.52204
|  4> C          4.34297        1.31342       -2.75683
|  5> N          2.81029        0.42878       -1.01420
|  6> H          2.71455        2.33145       -1.76030
|  7> H          4.09099        2.06315       -0.73338
|  8> C          3.29098       -0.41802       -0.12908
|  9> N          2.51754       -1.43202        0.23936
| 10> N          4.53549       -0.28441        0.39580
| 11> H          5.04363        0.57189        0.22290
| 12> H          4.72335       -0.73327        1.28180
| 13> H          1.93479        0.10230       -1.40379
| 14> H          1.67464       -1.50562       -0.31610
| 15> H          2.92850       -2.21850        0.72549
| 16> H          3.73575        0.86277       -3.51385
| 17> H          5.13754        0.64699       -2.49333
| 18> H          4.75374        2.22930       -3.12740
| 19> *
| 20> %MaxCore 64000
| 21>
| 22> %pal nprocs 4
| 23> end
| 24>
| 25> %scf
| 26>   MaxIter 150
| 27> end
| 28>
| 29>
| 30>                          ****END OF INPUT****

CARTESIAN COORDINATES (ANGSTROEM)
---------------------------------
  C      3.488280    1.600920   -1.522040
  C      4.342970    1.313420   -2.756830
  N      2.810290    0.428780   -1.014200
  H      2.714550    2.331450   -1.760300
  H      4.090990    2.063150   -0.733380
  C      3.290980   -0.418020   -0.129080
  N      2.517540   -1.432020    0.239360
  N      4.535490   -0.284410    0.395800
  H      5.043630    0.571890    0.222900
  H      4.723350   -0.733270    1.281800
  H      1.934790    0.102300   -1.403790
  H      1.674640   -1.505620   -0.316100
  H      2.928500   -2.218500    0.725490
  H      3.735750    0.862770   -3.513850
  H      5.137540    0.646990   -2.493330
  H      4.753740    2.229300   -3.127400

 Total Charge           Charge          ....    1
 Multiplicity           Mult            ....    1
 Number of Electrons    NEL             ....   48
 Basis Dimension        Dim             ....  200

ORBITAL ENERGIES
----------------

  NO   OCC          E(Eh)            E(eV)
   0   2.0000     -14.345393      -390.3580
   1   2.0000     -14.341919      -390.2635
   2   2.0000     -14.339865      -390.2076
   3   2.0000     -10.323292      -280.9111
   4   2.0000     -10.212941      -277.9083
   5   2.0000     -10.140938      -275.9489
   6   2.0000      -1.144092       -31.1323
   7   2.0000      -1.038289       -28.2533
   8   2.0000      -1.025682       -27.9102
   9   2.0000      -0.873809       -23.7775
  10   2.0000      -0.785169       -21.3655
  11   2.0000      -0.757660       -20.6170
  12   2.0000      -0.733921       -19.9710
  13   2.0000      -0.701378       -19.0855
  14   2.0000      -0.650014       -17.6878
  15   2.0000      -0.642474       -17.4826
  16   2.0000      -0.613264       -16.6878
  17   2.0000      -0.594767       -16.1844
  18   2.0000      -0.565065       -15.3762
  19   2.0000      -0.522842       -14.2273
  20   2.0000      -0.497802       -13.5459
  21   2.0000      -0.480222       -13.0675
  22   2.0000      -0.440541       -11.9877
  23   2.0000      -0.417725       -11.3669
  24   0.0000      -0.198656        -5.4057
  25   0.0000      -0.171601        -4.6695
  26   0.0000      -0.140135        -3.8133
  27   0.0000      -0.125052        -3.4028
  28   0.0000      -0.100052        -2.7226

MULLIKEN ATOMIC CHARGES
-----------------------
   0 C :    0.275493
   1 C :    0.592471
   2 N :   -0.430046
   3 H :   -0.250694
   4 H :   -0.051981
   5 C :    1.380284
   6 N :   -0.056373
   7 N :   -0.036207
   8 H :   -0.025711
   9 H :   -0.125856
  10 H :   -0.232542
  11 H :    0.034828
  12 H :   -0.058381
  13 H :   -0.024002
  14 H :   -0.044641
  15 H :    0.053357
Sum of atomic charges:    1.0000000

LOEWDIN ATOMIC CHARGES
----------------------
   0 C :    0.053049
   1 C :    0.174272
   2 N :    0.040761
   3 H :    0.038956
   4 H :    0.025715
   5 C :   -0.035627
   6 N :    0.265904
   7 N :    0.285544
   8 H :    0.008605
   9 H :    0.033917
  10 H :    0.057422
  11 H :    0.032474
  12 H :    0.044769
  13 H :   -0.008311
  14 H :   -0.017731
  15 H :    0.000281

  Mayer bond orders larger than 0.100000
B(  0-C ,  1-C ) :   1.2623 B(  0-C ,  2-N ) :   0.9442 B(  0-C ,  3-H ) :   0.9313
B(  0-C ,  4-H ) :   0.8631 B(  0-C , 10-H ) :  -0.2048 B(  0-C , 13-H ) :   0.2210
B(  0-C , 14-H ) :   0.1885 B(  0-C , 15-H ) :   0.1528 B(  1-C , 13-H ) :   0.8176
B(  1-C , 14-H ) :   0.8421 B(  1-C , 15-H ) :   0.8131 B(  2-N ,  3-H ) :   0.1705
B(  2-N ,  4-H ) :   0.1383 B(  2-N ,  5-C ) :   0.9659 B(  2-N ,  6-N ) :   0.2867
B(  2-N ,  7-N ) :   0.2109 B(  2-N , 10-H ) :   1.3467 B(  5-C ,  6-N ) :   0.8676
B(  5-C ,  7-N ) :   0.8941 B(  5-C ,  8-H ) :  -0.1037 B(  5-C ,  9-H ) :  -0.1409
B(  5-C , 10-H ) :  -0.2716 B(  5-C , 12-H ) :  -0.1012 B(  6-N ,  7-N ) :   0.1647
B(  6-N , 11-H ) :   1.0535 B(  6-N , 12-H ) :   1.1900 B(  7-N ,  8-H ) :   1.0254
B(  7-N ,  9-H ) :   1.2652 B(  8-H ,  9-H ) :  -0.1601 B( 11-H , 12-H ) :  -0.1374

Dispersion correction           -0.015193734
FINAL SINGLE POINT ENERGY      -284.263969222399

DIPOLE MOMENT
-------------
                                X             Y             Z
Electronic contribution:     -1.92091      -2.99509       3.72534
Nuclear contribution   :      1.59382       2.33278      -3.02574
                        -----------------------------------------
Total Dipole Moment    :     -0.32709      -0.66231       0.69960
                        -----------------------------------------
Magnitude (a.u.)       :      1.01740
Magnitude (Debye)      :      2.58601

Rotational constants in cm-1:     0.232230     0.073139     0.063030
Rotational constants in MHz :  6962.079716  2192.649203  1889.578947

                             ****ORCA TERMINATED NORMALLY****
TOTAL RUN TIME: 0 days 0 hours 0 minutes 16 seconds 726 msec
